Membrane in water
40344
    1TMC1    C1    1   1.291   4.520  11.479 -0.3626  0.4627  0.1399
    1TMC1    C2    2   1.404   4.483  11.408 -0.1176 -0.5441 -0.3255
    1TMC1    C3    3   1.492   4.585  11.381  0.2033  0.2034 -0.2958
    1TMC1    C4    4   1.260   4.648  11.508  0.0592  0.2163  0.2218
    1TMC1    C5    5   1.359   0.009  11.477 -0.1162 -0.2984 -0.1578
    1TMC1    C6    6   1.473   4.714  11.413  0.1582  0.1812  0.2839
    1TMC1     C    7   1.191   4.426  11.530 -0.2580 -0.1955 -0.1058
    1TMC1     O    8   1.156   4.453  11.643  0.4810 -0.3298  0.3968
    1TMC1     H    9   1.428   4.378  11.393  2.3764  0.5215 -3.8346
    1TMC1    H1   10   1.170   4.675  11.563  0.1451  2.1635 -0.5900
    1TMC1    H2   11   1.552   0.054  11.408 -0.8652  1.2723  0.3058
    1TMC1    C7   12   1.363   0.142  11.536 -0.3472 -0.1619  0.2986
    1TMC1    C8   13   1.633   4.542  11.355 -0.2503 -0.6858  0.0677
    1TMC1    O1   14   1.463   0.211  11.544  0.2361 -0.4037 -0.4786
    1TMC1    O2   15   1.725   4.607  11.303 -0.4307 -0.6479 -0.2947
    1TMC1    O3   16   1.244   0.171  11.600 -0.0112 -0.4935 -0.0460
    1TMC1    H3   17   1.173   0.118  11.557 -0.3981 -0.5540  0.6836
    1TMC1    O5   18   1.664   4.455  11.449 -0.2194 -0.0444 -0.1030
    1TMC1    H5   19   1.587   4.408  11.487 -0.1741 -0.3897 -0.4313
    2MPD2     C   20   0.928   3.980  11.531  0.2082  0.5390 -0.5845
    2MPD2    C1   21   0.923   4.086  11.622 -0.0513 -0.1352 -0.1756
    2MPD2    C2   22   1.023   4.190  11.609 -0.6842 -0.5472 -0.1458
    2MPD2    C3   23   1.107   4.195  11.497 -0.6355  0.5635  0.2328
    2MPD2    C4   24   1.112   4.078  11.422  0.0394  0.5563 -0.1394
    2MPD2    C5   25   1.022   3.971  11.439 -0.0218  0.2792 -0.1063
    2MPD2     H   26   1.035   4.265  11.686 -1.0260 -2.4856  1.8031
    2MPD2    H1   27   1.183   4.074  11.339  1.4446  1.7820  0.9974
    2MPD2    H2   28   0.853   3.903  11.543 -0.3068  1.0275 -0.6836
    2MPD2    H3   29   1.016   3.882  11.376 -1.2195  1.4426 -1.6593
    2MPD2     N   30   1.194   4.304  11.468  0.5399 -0.0168  0.6222
    2MPD2    H5   31   1.251   4.296  11.384 -0.2332  0.5906  0.0317
    2MPD2    N1   32   0.830   4.099  11.721 -0.9101  0.2132  0.5117
    2MPD2    H7   33   0.841   4.186  11.772 -0.2497  0.4808 -0.0939
    3TMC1    C1   34   4.701   0.457  10.763 -0.1927  0.3254 -0.0758
    3TMC1    C2   35   0.027   0.335  10.753 -0.5779 -0.9252 -0.1315
    3TMC1    C3   36   0.109   0.311  10.646 -0.2491 -0.1925  0.1595
    3TMC1    C4   37   4.728   0.551  10.664 -0.4331  0.1757  0.3144
    3TMC1    C5   38   0.081   0.527  10.563  0.1261  0.2083 -0.5791
    3TMC1    C6   39   0.137   0.405  10.546  0.0706  0.5100  0.2483
    3TMC1     C   40   4.622   0.481  10.884 -0.1639  0.8836 -0.4558
    3TMC1     O   41   4.600   0.380  10.945 -0.6019  0.2132 -0.1737
    3TMC1     H   42   4.733   0.256  10.822  2.0314 -2.0949 -0.4083
    3TMC1    H1   43   4.685   0.650  10.667 -1.2244 -0.1996  1.4637
    3TMC1    H2   44   0.192   0.369  10.460  0.0022 -1.2834  0.9614
    3TMC1    C7   45   0.135   0.635  10.486  0.5026  0.2633 -0.0503
    3TMC1    C8   46   0.163   0.177  10.638  0.4746  0.3548  0.5447
    3TMC1    O1   47   0.166   0.737  10.545 -0.5790 -0.3443  0.5745
    3TMC1    O2   48   0.172   0.120  10.535 -0.6036 -0.5166  0.0400
    3TMC1    O3   49   0.113   0.616  10.356  0.9218  0.6477 -0.8484
    3TMC1    H3   50   0.077   0.526  10.343  0.1310  0.8388  0.0393
    3TMC1    O5   51   0.252   0.171  10.739 -0.4905  0.1235 -0.6359
    3TMC1    H5   52   0.256   0.252  10.795  0.6221 -0.0756 -0.4176
    4MPD2     C   53   4.406   0.749  11.257 -0.4048  0.0372  0.3868
    4MPD2    C1   54   4.476   0.837  11.184  0.0262 -0.7901  0.1914
    4MPD2    C2   55   4.538   0.787  11.068 -0.5234  0.6814 -0.0403
    4MPD2    C3   56   4.538   0.655  11.030 -0.1764 -0.0524 -0.0765
    4MPD2    C4   57   4.467   0.571  11.113 -1.0630 -0.2783  0.3823
    4MPD2    C5   58   4.399   0.622  11.223 -0.3845 -0.1759  0.4277
    4MPD2     H   59   4.591   0.853  11.000  0.5390 -0.0547  0.0644
    4MPD2    H1   60   4.465   0.463  11.105  2.0123 -0.4078  1.3673
    4MPD2    H2   61   4.349   0.775  11.346  0.7579 -0.6555  1.3320
    4MPD2    H3   62   4.337   0.557  11.284 -0.3205 -0.4638  0.1846
    4MPD2     N   63   4.616   0.612  10.921  0.3482  0.5990  0.0826
    4MPD2    H5   64   4.658   0.690  10.871  1.3573  0.7018  1.0914
    4MPD2    N1   65   4.484   0.975  11.206  0.9145 -0.2979  0.5918
    4MPD2    H7   66   4.524   1.026  11.128 -1.4604  1.3451  0.4205
    5TCq1    O1   67   1.123   1.683  11.710  0.0972  0.5535  0.0142
    5TCq1    C1   68   1.062   1.733  11.823  0.1968  0.2083 -0.0471
    5TCq1    O2   69   1.117   1.753  11.929  0.5074 -0.1257 -0.2057
    5TCq1    C2   70   0.931   1.775  11.797 -0.6487 -0.6229 -0.3111
    5TCq1    C3   71   0.881   1.866  11.880  0.1184 -0.0728 -0.3142
    5TCq1    C4   72   0.757   1.921  11.858 -0.4550  0.2034  0.0423
    5TCq1    C5   73   0.692   1.885  11.745 -0.4307 -0.9098  0.1569
    5TCq1    C6   74   0.749   1.803  11.651  0.4506 -0.4303  0.8431
    5TCq1    C7   75   0.868   1.739  11.677 -0.6067  0.7359 -0.0128
    5TCq1    C8   76   0.707   1.806  11.510  0.6294  0.2846  0.3554
    5TCq1    O4   77   0.743   1.714  11.438 -0.1191  0.5796  0.1800
    5TCq1    C9   78   0.713   2.032  11.942 -0.2960 -0.4147  0.1532
    5TCq1    O5   79   0.588   2.052  11.941  0.2937 -0.0119 -0.2508
    5TCq1    O6   80   0.801   2.109  11.982  0.1959  0.2002  0.6995
    5TCq1    H1   81   1.096   1.714  11.621 -1.3134 -0.4971  0.0720
    5TCq1    H2   82   0.934   1.892  11.971 -0.3063  1.1041 -0.4049
    5TCq1    H3   83   0.599   1.938  11.728  1.4888  2.3715 -0.0927
    5TCq1    H4   84   0.910   1.658  11.618 -1.0922  1.5344 -1.4633
    6MPD2     C   85   0.479   2.047  11.340 -0.0841 -0.4632  0.2050
    6MPD2    C1   86   0.561   1.932  11.348 -0.2295  0.1815  1.0217
    6MPD2    C2   87   0.591   1.872  11.228  0.5081  0.1513  0.1565
    6MPD2    C3   88   0.530   1.912  11.107 -0.5752  0.5501 -0.4378
    6MPD2    C4   89   0.443   2.021  11.102 -0.0509 -1.1325  0.0369
    6MPD2    C5   90   0.410   2.076  11.224 -0.4015 -0.0884  0.2301
    6MPD2     H   91   0.655   1.785  11.225  2.7856  1.6438  5.0030
    6MPD2    H1   92   0.398   2.040  11.006  1.5745 -0.6633 -0.6283
    6MPD2    H2   93   0.452   2.105  11.427 -0.7980  1.5910 -1.3833
    6MPD2    H3   94   0.345   2.162  11.218 -1.0269 -0.6815 -1.6923
    6MPD2     N   95   0.573   1.847  10.989 -0.0030 -0.7689 -0.2534
    6MPD2    H5   96   0.619   1.758  11.006 -0.7321 -1.0171  0.4057
    6MPD2    N1   97   0.615   1.904  11.478 -0.2869 -0.4002  0.0878
    6MPD2    H7   98   0.595   1.965  11.556  0.4058 -1.5700  1.1846
    7TCq1    O1   99   2.364   2.176  12.746 -0.1106  0.2272  0.4192
    7TCq1    C1  100   2.462   2.264  12.735 -0.2583 -0.0821  0.6558
    7TCq1    O2  101   2.493   2.326  12.634 -0.6474  0.0406 -0.5216
    7TCq1    C2  102   2.505   2.298  12.869  0.0951 -0.2855  0.8964
    7TCq1    C3  103   2.565   2.427  12.875  0.4077  1.0376 -0.3269
    7TCq1    C4  104   2.618   2.467  12.995  0.5215 -0.4089 -0.8992
    7TCq1    C5  105   2.609   2.383  13.107 -0.1925 -0.2999  0.3694
    7TCq1    C6  106   2.564   2.258  13.087  0.9428  0.3618 -0.4938
    7TCq1    C7  107   2.507   2.210  12.970 -0.8133  0.0960  0.1503
    7TCq1    C8  108   2.585   2.161  13.197 -0.1381 -0.2369  0.0375
    7TCq1    O4  109   2.533   2.052  13.184  0.3415  0.0315 -0.2078
    7TCq1    C9  110   2.693   2.594  13.007 -0.9935  0.5254 -0.0678
    7TCq1    O5  111   2.680   2.680  12.913  0.1974 -0.1417  0.8826
    7TCq1    O6  112   2.744   2.625  13.118  0.5761 -0.5040  0.0867
    7TCq1    H1  113   2.333   2.164  12.838  0.2696 -0.0718  0.5136
    7TCq1    H2  114   2.552   2.499  12.794 -1.3688  1.8882  0.7186
    7TCq1    H3  115   2.641   2.424  13.202 -0.8770  1.3000 -0.0949
    7TCq1    H4  116   2.487   2.104  12.960  0.7125  0.0510 -2.3943
    8MPD2     C  117   2.815   2.057  13.638 -0.7905 -0.2990 -0.6864
    8MPD2    C1  118   2.727   1.972  13.568  0.4129 -0.0029  0.5251
    8MPD2    C2  119   2.687   2.018  13.444  0.2181 -0.3944  0.3397
    8MPD2    C3  120   2.723   2.143  13.403 -0.1109 -0.2641  0.8698
    8MPD2    C4  121   2.795   2.227  13.490  0.6012 -0.6816 -1.2433
    8MPD2    C5  122   2.849   2.182  13.604  0.0473 -0.2096 -0.2247
    8MPD2     H  123   2.633   1.948  13.382  3.0085 -0.3635 -2.1507
    8MPD2    H1  124   2.815   2.330  13.463 -0.9385 -0.5286 -1.7852
    8MPD2    H2  125   2.856   2.021  13.732  1.0403 -0.4831 -1.5572
    8MPD2    H3  126   2.899   2.252  13.671 -0.5432 -0.2967  0.3039
    8MPD2     N  127   2.683   2.206  13.287  0.5872 -0.0411  0.2940
    8MPD2    H5  128   2.717   2.301  13.280  2.5999 -0.9558 -2.6013
    8MPD2    N1  129   2.708   1.846  13.612  0.1851 -0.1731 -0.3319
    8MPD2    H7  130   2.733   1.825  13.708 -0.7353  1.0925  0.1781
    9TMC1    C1  131   0.397   4.620  10.776 -1.2823 -0.6495  0.2296
    9TMC1    C2  132   0.311   4.547  10.863 -0.2149  0.6361  0.3503
    9TMC1    C3  133   0.233   4.451  10.808 -0.7467 -0.2957 -0.3792
    9TMC1    C4  134   0.402   4.591  10.637 -0.2502 -0.2517 -0.4372
    9TMC1    C5  135   0.302   4.507  10.593  0.8563 -0.3540 -0.2807
    9TMC1    C6  136   0.219   4.433  10.675  0.6508 -0.9117 -0.5304
    9TMC1     C  137   0.485   4.716  10.832  0.3430  0.1965 -0.2501
    9TMC1     O  138   0.579   0.017  10.760  0.7653 -0.3424 -0.3589
    9TMC1     H  139   0.304   4.558  10.971 -0.6363 -0.2065  0.4099
    9TMC1    H1  140   0.451   4.663  10.572 -1.1868  1.6782  0.9968
    9TMC1    H2  141   0.149   4.367  10.626 -0.9842  0.3068  0.1758
    9TMC1    C7  142   0.280   4.497  10.452 -0.2460  0.5205  0.0648
    9TMC1    C8  143   0.124   4.400  10.886  0.5128 -0.2407 -0.6193
    9TMC1    O1  144   0.172   4.487  10.391  0.3408 -0.2250  0.1146
    9TMC1    O2  145   0.062   4.465  10.970 -0.2155 -0.1249 -0.2320
    9TMC1    O3  146   0.389   4.459  10.396 -0.2643  0.0219 -0.7798
    9TMC1    H3  147   0.456   4.457  10.467 -1.2687  0.4990  0.1751
    9TMC1    O5  148   0.131   4.268  10.869 -0.2686  0.2555 -0.6186
    9TMC1    H5  149   0.197   4.244  10.800 -0.4428 -0.0037 -0.6956
   10MPD2     C  150   0.633   0.192  10.996  0.3033 -0.8847  0.0999
   10MPD2    C1  151   0.515   0.129  11.031 -0.7515 -1.4969  0.1190
   10MPD2    C2  152   0.462   0.163  11.157 -0.5716  0.0022 -0.1289
   10MPD2    C3  153   0.517   0.258  11.239 -1.0530  1.0446  0.8477
   10MPD2    C4  154   0.623   0.327  11.193 -0.3522  1.0187  0.0319
   10MPD2    C5  155   0.684   0.288  11.077  0.6081 -0.2197  0.2010
   10MPD2     H  156   0.367   0.122  11.189 -1.4520  0.9912 -1.4573
   10MPD2    H1  157   0.673   0.402  11.253 -0.5695  1.5950 -0.5053
   10MPD2    H2  158   0.685   0.170  10.904 -0.2872  0.2854 -0.5032
   10MPD2    H3  159   0.774   0.339  11.045 -0.3077  1.1773 -0.1264
   10MPD2     N  160   0.478   0.280  11.371 -0.1562 -0.4250  0.3281
   10MPD2    H5  161   0.522   0.362  11.410  3.1579 -1.9511 -0.2292
   10MPD2    N1  162   0.451   0.036  10.955 -0.7941 -0.9395  0.1773
   10MPD2    H7  163   0.361   0.006  10.991 -0.1904 -0.3394  2.1854
   11TCq1    O1  164   0.949   0.027  13.908 -0.3035 -0.4732 -0.1588
   11TCq1    C1  165   0.874   4.694  13.997 -0.3516 -0.3891 -0.6085
   11TCq1    O2  166   0.921   4.611  14.075 -0.5731 -0.3719  0.4534
   11TCq1    C2  167   0.732   4.696  13.943 -0.0729 -0.0118 -0.0470
   11TCq1    C3  168   0.669   0.076  13.911  0.0316 -0.1182 -0.9110
   11TCq1    C4  169   0.536   0.075  13.878  0.5026  0.4455  0.2162
   11TCq1    C5  170   0.460   4.694  13.894  0.3559  0.0391  0.2905
   11TCq1    C6  171   0.526   4.587  13.946  0.2678  0.0058 -0.6789
   11TCq1    C7  172   0.658   4.589  13.975 -0.0190 -0.3004 -0.1694
   11TCq1    C8  173   0.435   4.474  13.972  0.0561 -0.1013 -0.2081
   11TCq1    O4  174   0.315   4.498  13.965 -0.1120 -0.3745  0.4384
   11TCq1    C9  175   0.470   0.195  13.828  0.2539  0.0437  0.3497
   11TCq1    O5  176   0.371   0.175  13.753 -0.5352  0.3251  0.0445
   11TCq1    O6  177   0.510   0.310  13.859 -0.1236 -0.5015 -0.8061
   11TCq1    H1  178   0.897   0.082  13.847  2.3906  1.4952 -0.6631
   11TCq1    H2  179   0.720   0.170  13.894 -2.7363  1.2443 -1.6839
   11TCq1    H3  180   0.354   4.704  13.871 -0.0562 -1.1038  1.6816
   11TCq1    H4  181   0.707   4.501  14.015 -1.2267 -1.7365 -1.8650
   12MPD2     C  182   0.317   4.207  13.995  0.0902 -0.4532 -0.3630
   12MPD2    C1  183   0.455   4.223  13.980 -0.2742  0.6565 -0.2902
   12MPD2    C2  184   0.536   4.114  13.955 -0.4031  0.9799  0.2160
   12MPD2    C3  185   0.483   3.987  13.951 -0.3222  0.0159 -0.4157
   12MPD2    C4  186   0.345   3.973  13.959 -0.1374  0.8576 -0.5365
   12MPD2    C5  187   0.265   4.080  13.988 -0.6402  0.3784 -0.2302
   12MPD2     H  188   0.641   4.141  13.947 -0.0023 -0.0706  2.0348
   12MPD2    H1  189   0.300   3.875  13.948 -1.1569  1.1291  1.1821
   12MPD2    H2  190   0.249   4.292  13.997 -0.0140 -0.5414 -0.1888
   12MPD2    H3  191   0.159   4.063  14.006 -0.8204  1.5024 -0.2104
   12MPD2     N  192   0.552   3.876  13.895  0.3330 -1.2498 -0.6023
   12MPD2    H5  193   0.496   3.798  13.861 -0.8467  0.5001 -2.7010
   12MPD2    N1  194   0.507   4.350  13.964  0.0869  0.4045 -0.1642
   12MPD2    H7  195   0.607   4.353  13.946 -0.0219 -0.0428 -0.8454
   13TCq1    O1  196   1.009   0.194  10.822  0.0248 -0.7001 -0.1402
   13TCq1    C1  197   1.038   0.119  10.926 -0.4715 -0.3003  0.2544
   13TCq1    O2  198   1.077   0.153  11.034  0.0607 -0.0015  0.3870
   13TCq1    C2  199   0.983   4.729  10.890 -0.4731  0.4082 -0.9301
   13TCq1    C3  200   1.014   4.660  10.778 -0.6495  0.4332  0.2668
   13TCq1    C4  201   0.934   4.554  10.743 -0.2672 -0.2210  0.8140
   13TCq1    C5  202   0.833   4.520  10.828  0.0041 -0.4863 -0.2667
   13TCq1    C6  203   0.827   4.569  10.955  0.3762  0.3532  0.7519
   13TCq1    C7  204   0.900   4.684  10.989 -0.7445 -0.4522  0.3074
   13TCq1    C8  205   0.713   4.542  11.033  0.1304 -0.2280  0.3897
   13TCq1    O4  206   0.708   4.608  11.141 -0.3705  0.4373  0.5403
   13TCq1    C9  207   0.967   4.498  10.607  0.4569  0.8026 -0.3359
   13TCq1    O5  208   1.050   4.562  10.537 -0.2011  0.2882 -0.0944
   13TCq1    O6  209   0.886   4.411  10.566  0.5304  0.9447 -0.0827
   13TCq1    H1  210   0.953   0.143  10.761 -0.7847  1.6024 -1.3187
   13TCq1    H2  211   1.110   4.685  10.733  0.1477 -0.4895  1.4472
   13TCq1    H3  212   0.781   4.429  10.800 -0.4379  0.2905 -1.9956
   13TCq1    H4  213   0.897   4.726  11.088  0.2065 -1.0357  0.5830
   14MPD2     C  214   0.468   4.271  11.040  0.8329 -0.0258 -0.0624
   14MPD2    C1  215   0.517   4.398  11.067 -0.5021  0.1297 -0.2200
   14MPD2    C2  216   0.456   4.473  11.161 -0.6045  0.2841  0.0297
   14MPD2    C3  217   0.340   4.434  11.220  0.7758 -0.6595 -0.1178
   14MPD2    C4  218   0.286   4.312  11.190 -1.3108  0.4521 -0.6974
   14MPD2    C5  219   0.349   4.233  11.099  0.0483  1.3337 -0.5942
   14MPD2     H  220   0.494   4.570  11.193  0.1857 -0.1348  0.3677
   14MPD2    H1  221   0.202   4.265  11.240 -0.6778 -0.3105 -0.3493
   14MPD2    H2  222   0.521   4.221  10.960  0.3025  0.1386 -0.5145
   14MPD2    H3  223   0.309   4.135  11.078  2.2526  1.0572 -3.4544
   14MPD2     N  224   0.277   4.517  11.315 -0.0987  0.4681  0.2304
   14MPD2    H5  225   0.317   4.607  11.337 -1.5670  2.1292 -3.9512
   14MPD2    N1  226   0.636   4.434  10.996  0.2425 -0.1826 -0.3321
   14MPD2    H7  227   0.665   4.383  10.913  2.4543  1.9488 -0.8692
   15TCq1    O1  228   2.874   4.352   1.925  0.6273  0.7638 -0.2489
   15TCq1    C1  229   2.808   4.239   1.900 -0.0517  0.6075  0.3517
   15TCq1    O2  230   2.739   4.179   1.983 -0.0077 -0.1574  0.2359
   15TCq1    C2  231   2.880   4.158   1.801  1.4189 -0.6092 -0.0371
   15TCq1    C3  232   3.015   4.177   1.785  0.2134  0.6742  0.1185
   15TCq1    C4  233   3.084   4.070   1.728  0.2048 -0.0394 -0.2670
   15TCq1    C5  234   3.025   3.955   1.680  0.0448 -0.5119  0.3813
   15TCq1    C6  235   2.888   3.947   1.694 -0.6294 -0.1626  0.6024
   15TCq1    C7  236   2.821   4.045   1.757  0.3438 -1.2127  0.0326
   15TCq1    C8  237   2.824   3.829   1.651  0.1538  0.0140  0.0078
   15TCq1    O4  238   2.899   3.733   1.664 -0.0765  0.4064 -0.3858
   15TCq1    C9  239   3.227   4.078   1.714  0.0197 -0.7448 -1.0184
   15TCq1    O5  240   3.286   4.152   1.795 -0.5400  0.1258 -0.3498
   15TCq1    O6  241   3.291   3.990   1.648 -0.0662  0.1598 -0.5345
   15TCq1    H1  242   2.928   4.391   1.852  1.0629  2.7542  1.1249
   15TCq1    H2  243   3.070   4.260   1.828  2.7450 -1.1402  0.3696
   15TCq1    H3  244   3.081   3.873   1.636 -0.0357 -0.5658  0.3812
   15TCq1    H4  245   2.713   4.051   1.747  0.4688  1.4393  0.2990
   16MPD2     C  246   2.472   3.779   1.585  0.7576  0.3640  0.8640
   16MPD2    C1  247   2.604   3.745   1.585  0.1875  0.4203  0.6021
   16MPD2    C2  248   2.643   3.612   1.558 -0.5023  0.6909  0.2380
   16MPD2    C3  249   2.549   3.511   1.559  0.3625  0.0407 -0.9094
   16MPD2    C4  250   2.416   3.543   1.570  0.3074 -0.2487  0.1184
   16MPD2    C5  251   2.375   3.677   1.579  0.6990 -0.1144  0.0846
   16MPD2     H  252   2.747   3.586   1.536 -0.5701  1.3379 -0.8445
   16MPD2    H1  253   2.333   3.473   1.566  0.1835 -0.3308  4.2532
   16MPD2    H2  254   2.443   3.879   1.614 -3.6989  0.1740 -2.8339
   16MPD2    H3  255   2.269   3.700   1.590  0.1532 -0.9038 -3.5385
   16MPD2     N  256   2.601   3.380   1.537 -0.1345  0.2853 -0.5224
   16MPD2    H5  257   2.702   3.382   1.530 -0.0736  1.2764  0.5801
   16MPD2    N1  258   2.695   3.851   1.616  0.2489  0.7494 -0.9474
   16MPD2    H7  259   2.659   3.946   1.616  0.2507  0.7434  2.4230
   17TMC1    C1  260   0.839   4.291  11.289  0.2537  0.3190  0.4254
   17TMC1    C2  261   0.839   4.159  11.240 -0.4912  0.0633 -0.0638
   17TMC1    C3  262   0.728   4.086  11.253 -0.2695  0.0241  0.1289
   17TMC1    C4  263   0.737   4.332  11.374  1.2148  0.4916  0.4289
   17TMC1    C5  264   0.631   4.251  11.396 -0.8176 -0.0739  0.9311
   17TMC1    C6  265   0.621   4.130  11.327 -0.0825 -0.2303 -0.1282
   17TMC1     C  266   0.943   4.386  11.253 -0.0514 -0.3716  0.4057
   17TMC1     O  267   0.960   4.489  11.320 -0.0740  0.1025  0.3364
   17TMC1     H  268   0.915   4.110  11.180 -0.9473  1.6624 -1.9325
   17TMC1    H1  269   0.751   4.422  11.433  0.0522  0.3922  0.8596
   17TMC1    H2  270   0.540   4.062  11.347 -0.2805 -0.3572 -1.3422
   17TMC1    C7  271   0.571   4.237  11.527  0.0596 -0.2415 -0.9034
   17TMC1    C8  272   0.708   3.970  11.175  0.4818  0.7498  0.0750
   17TMC1    O1  273   0.522   4.132  11.565  0.0305 -0.0831 -0.0608
   17TMC1    O2  274   0.774   3.960  11.075 -0.3445  0.1072  0.3632
   17TMC1    O3  275   0.503   4.351  11.534  0.6564 -0.6945  0.3072
   17TMC1    H3  276   0.533   4.428  11.482  0.1140 -1.1020 -0.6050
   17TMC1    O5  277   0.723   3.881  11.271 -0.1182 -0.7808 -0.1234
   17TMC1    H5  278   0.673   3.900  11.353  2.5566  1.2404  1.0595
   18MPD2     C  279   1.181   4.530  11.129  0.1371 -0.7455  0.8686
   18MPD2    C1  280   1.123   4.418  11.073 -0.2703 -0.1394 -0.4622
   18MPD2    C2  281   1.163   4.371  10.947  0.3658  0.1844 -0.9049
   18MPD2    C3  282   1.273   4.435  10.885  0.0489 -0.5416 -1.0111
   18MPD2    C4  283   1.327   4.546  10.946 -0.1301 -0.6437  0.1043
   18MPD2    C5  284   1.288   4.586  11.065 -0.3229 -0.2624  0.2247
   18MPD2     H  285   1.121   4.283  10.902  0.0785 -0.7320  1.1486
   18MPD2    H1  286   1.402   4.604  10.893 -0.2475 -0.5537  0.0367
   18MPD2    H2  287   1.163   4.574  11.227  3.1819  1.1759  0.5779
   18MPD2    H3  288   1.336   4.673  11.108 -0.3469 -0.0561 -0.1632
   18MPD2     N  289   1.334   4.408  10.763  0.7598  0.1778 -0.2297
   18MPD2    H5  290   1.419   4.460  10.742 -0.4238  2.2834  0.2231
   18MPD2    N1  291   1.020   4.348  11.141  0.0578 -0.0131  0.4088
   18MPD2    H7  292   0.973   4.271  11.094 -1.5478  0.7606  0.7407
   19TMC2    C1  293   1.492   0.281  14.011  0.1175  0.1609 -0.5105
   19TMC2    C2  294   1.447   0.333  13.892  0.3263 -0.5601  0.7745
   19TMC2    C3  295   1.346   0.268  13.829 -0.3329 -0.0283 -0.5303
   19TMC2    C4  296   1.459   0.150  14.039 -0.5516 -0.1441  0.3917
   19TMC2    C5  297   1.359   0.091  13.979 -0.1039  0.8438 -0.3248
   19TMC2    C6  298   1.303   0.147  13.875 -0.3017 -0.5075  0.3502
   19TMC2     C  299   1.630   0.304  14.031  0.0293  0.0199 -0.5492
   19TMC2     O  300   1.671   0.416  13.992 -0.6453  0.3756  0.1701
   19TMC2     H  301   1.471   0.438  13.875 -3.0642 -0.2671 -2.1288
   19TMC2    H1  302   1.486   0.095  14.128 -0.6313  0.5691  0.8556
   19TMC2    H2  303   1.222   0.108  13.816  0.7908  3.3485 -3.7479
   19TMC2    C7  304   1.385   4.683  13.966  0.3275 -0.2965 -0.1766
   19TMC2    C8  305   1.321   0.293  13.693 -0.1699 -0.6297 -0.0586
   19TMC2    O1  306   1.497   4.635  13.986  0.6010  0.4642  0.3124
   19TMC2    O2  307   1.277   0.213  13.613  0.4214 -0.6185  0.2785
   19TMC2    O5  308   1.406   0.393  13.653  0.5204 -0.1812 -0.4237
   19TMC2    H5  309   1.445   0.451  13.722 -1.7019  1.0150 -0.1937
   20MPD2     C  310   1.897   0.317  14.141 -0.3246 -0.3347  0.5890
   20MPD2    C1  311   1.829   0.201  14.123  0.5866  0.4356  0.1512
   20MPD2    C2  312   1.895   0.085  14.159  0.3933 -0.0285  0.1480
   20MPD2    C3  313   2.019   0.085  14.206  0.4552  0.1404 -0.4025
   20MPD2    C4  314   2.083   0.201  14.228  0.3386  0.9956  0.2831
   20MPD2    C5  315   2.023   0.315  14.183 -0.5041 -0.0224  0.0617
   20MPD2     H  316   1.839   4.727  14.148  2.0576 -0.8922 -1.0791
   20MPD2    H1  317   2.186   0.198  14.264 -0.5327 -1.1326  2.5863
   20MPD2    H2  318   1.854   0.414  14.119  0.5810 -0.5700 -2.3094
   20MPD2    H3  319   2.064   0.413  14.206 -1.6335  0.3511  0.5120
   20MPD2     N  320   2.084   4.705  14.254 -0.1747 -0.3412  0.7558
   20MPD2    H5  321   2.180   4.718  14.283 -0.0319  1.3681 -0.4611
   20MPD2    N1  322   1.701   0.193  14.064 -0.6879  0.0253  0.0903
   20MPD2    H7  323   1.655   0.103  14.064 -0.4350 -0.1155 -1.9974
   21TMC2    C1  324   4.085   0.229  14.712  0.1129  0.3037 -0.2845
   21TMC2    C2  325   4.151   0.168  14.816  0.4340 -0.3932 -1.0511
   21TMC2    C3  326   4.089   0.071  14.885 -0.8911 -0.5418  0.1403
   21TMC2    C4  327   3.958   0.197  14.682 -0.6623 -0.0185  0.3604
   21TMC2    C5  328   3.896   0.104  14.759  0.1076  0.4070 -0.4740
   21TMC2    C6  329   3.953   0.047  14.865 -0.6753 -0.7976  0.6427
   21TMC2     C  330   4.162   0.226  14.593 -0.3094  0.5640 -0.2841
   21TMC2     O  331   4.260   0.156  14.579  0.1318 -0.2608  0.0803
   21TMC2     H  332   4.258   0.184  14.825  0.2353 -0.8030  2.0098
   21TMC2    H1  333   3.916   0.234  14.589  3.4073 -0.8210 -1.8228
   21TMC2    H2  334   3.890   4.727  14.935 -0.4356 -2.6355 -0.5746
   21TMC2    C7  335   3.753   0.082  14.749  0.5560 -0.8972  0.1990
   21TMC2    C8  336   4.128   0.066  15.029 -0.0931  0.1305 -0.0589
   21TMC2    O1  337   3.708   4.708  14.789 -0.2692 -0.3627 -0.0773
   21TMC2    O2  338   4.057   0.032  15.124  0.2852 -0.5401 -0.0282
   21TMC2    O5  339   4.257   0.039  15.031 -0.2051  0.4283  0.2016
   21TMC2    H5  340   4.299   0.029  14.943 -2.0986 -0.6082 -0.5772
   22MPD2     C  341   4.197   0.378  14.117 -0.8000  0.0781 -0.0180
   22MPD2    C1  342   4.257   0.275  14.179  1.1059 -0.3027  0.4473
   22MPD2    C2  343   4.221   0.244  14.304  0.3647 -0.7176 -0.1302
   22MPD2    C3  344   4.130   0.321  14.370 -0.4064  0.4261  0.1111
   22MPD2    C4  345   4.058   0.416  14.304  0.2057  0.0325  0.6292
   22MPD2    C5  346   4.094   0.447  14.177 -0.4096  0.2476 -0.3306
   22MPD2     H  347   4.282   0.167  14.351 -0.1528 -1.0222  0.0393
   22MPD2    H1  348   3.973   0.472  14.341 -1.1736 -1.1221 -0.7809
   22MPD2    H2  349   4.227   0.409  14.017  1.2751  0.1219  0.6187
   22MPD2    H3  350   4.049   0.537  14.136 -1.5535 -0.1700  0.0015
   22MPD2     N  351   4.110   0.319  14.510  0.1795  0.6996  0.1223
   22MPD2    H5  352   4.035   0.375  14.550 -1.3208 -1.3692  0.1952
   22MPD2    N1  353   4.365   0.199  14.127 -0.3241  0.3068  0.1443
   22MPD2    H7  354   4.388   0.121  14.188  0.7262 -0.7147 -1.5784
   23TMC2    C1  355   0.413   1.469  14.649  0.1499  0.7928 -0.2823
   23TMC2    C2  356   0.345   1.573  14.589  0.1000  0.4041 -0.5896
   23TMC2    C3  357   0.224   1.549  14.534 -0.0119 -0.2721 -0.1961
   23TMC2    C4  358   0.360   1.344  14.653 -0.3905 -0.2510 -0.5025
   23TMC2    C5  359   0.233   1.329  14.603 -0.6259  0.0108 -0.6387
   23TMC2    C6  360   0.160   1.427  14.542  0.8611  0.0177  0.3677
   23TMC2     C  361   0.530   1.493  14.721  0.5186 -0.5659 -0.1874
   23TMC2     O  362   0.556   1.414  14.813 -0.5095  0.0105  0.1609
   23TMC2     H  363   0.371   1.677  14.605  1.9954 -0.0541 -0.6974
   23TMC2    H1  364   0.410   1.268  14.712 -0.0916  0.1200 -0.2777
   23TMC2    H2  365   0.061   1.410  14.502  1.0904 -0.3518 -0.0493
   23TMC2    C7  366   0.170   1.207  14.634  0.0470  0.1353 -0.0284
   23TMC2    C8  367   0.130   1.660  14.526 -0.0622 -0.1160  0.0667
   23TMC2    O1  368   0.245   1.122  14.681 -0.0789 -0.2251  0.4037
   23TMC2    O2  369   0.012   1.652  14.564 -0.2826  0.4311 -0.2212
   23TMC2    O5  370   0.181   1.746  14.436 -0.2724  0.3097  0.3155
   23TMC2    H5  371   0.266   1.720  14.395 -0.2492  0.9312 -0.0235
   24MPD2     C  372   0.919   1.770  14.885 -0.3519  0.0178 -0.2646
   24MPD2    C1  373   0.864   1.654  14.931  0.1014 -0.4796 -0.5525
   24MPD2    C2  374   0.756   1.595  14.869  0.3645 -0.6807 -0.7054
   24MPD2    C3  375   0.702   1.662  14.758  0.5386 -0.5655  0.5906
   24MPD2    C4  376   0.758   1.782  14.715  0.2975  0.5046 -0.7245
   24MPD2    C5  377   0.871   1.830  14.777  0.1566  0.3409 -0.0391
   24MPD2     H  378   0.714   1.516  14.930  0.2853 -1.8423 -2.2675
   24MPD2    H1  379   0.706   1.850  14.648  0.4746  0.6671 -0.7001
   24MPD2    H2  380   1.005   1.820  14.927  1.2196 -2.0080 -1.0916
   24MPD2    H3  381   0.912   1.923  14.737  0.4532  0.2106 -0.0365
   24MPD2     N  382   0.593   1.609  14.690 -0.0512  0.0110 -0.3954
   24MPD2    H5  383   0.550   1.667  14.619  0.7126 -0.4457 -1.2385
   24MPD2    N1  384   0.913   1.590  15.046  0.0390  0.0335  0.4614
   24MPD2    H7  385   0.859   1.514  15.085  0.6770 -0.6360  0.0279
   25TMC2    C1  386   0.219   3.528  11.754 -0.3797  0.0794  0.2805
   25TMC2    C2  387   0.277   3.647  11.773  0.2826  0.1217  0.1516
   25TMC2    C3  388   0.194   3.754  11.796 -0.0103  0.3346 -0.1834
   25TMC2    C4  389   0.087   3.516  11.734  0.5101 -0.4753 -0.3836
   25TMC2    C5  390   0.008   3.634  11.749  0.0586  0.3646  0.3494
   25TMC2    C6  391   0.063   3.755  11.775  0.0449 -0.2993  0.2000
   25TMC2     C  392   0.306   3.429  11.713 -0.3430  0.3740 -0.9181
   25TMC2     O  393   0.424   3.448  11.723  0.8853 -0.0900  0.8202
   25TMC2     H  394   0.383   3.658  11.789  0.6944 -3.4789 -0.0411
   25TMC2    H1  395   0.045   3.417  11.720  0.6666 -0.4649 -0.9074
   25TMC2    H2  396   0.002   3.844  11.778  0.3058 -0.1076 -0.2628
   25TMC2    C7  397   4.597   3.618  11.756  0.7361 -0.5956  0.0107
   25TMC2    C8  398   0.261   3.880  11.776 -0.3789  0.4681  0.1109
   25TMC2    O1  399   4.528   3.716  11.774  0.1918 -0.0632  0.3476
   25TMC2    O2  400   0.363   3.909  11.719  0.2341  0.4332 -0.3882
   25TMC2    O5  401   0.196   3.958  11.871  0.1006 -0.5565  0.6961
   25TMC2    H5  402   0.128   3.910  11.923 -0.2118 -1.1111 -0.2290
   26MPD2     C  403   0.410   2.930  11.638 -0.7259 -0.3050  0.1510
   26MPD2    C1  404   0.279   2.954  11.595  0.0069  0.2391 -0.0378
   26MPD2    C2  405   0.233   3.084  11.595 -0.0549  0.7688 -0.2451
   26MPD2    C3  406   0.315   3.182  11.651  0.4202 -0.1760  0.3809
   26MPD2    C4  407   0.441   3.153  11.697 -0.1533  0.4255  0.2617
   26MPD2    C5  408   0.483   3.027  11.699  0.4787 -0.3061  0.4034
   26MPD2     H  409   0.129   3.112  11.581 -0.2289 -0.7857 -2.0219
   26MPD2    H1  410   0.502   3.229  11.744 -0.9031  0.8689  0.5162
   26MPD2    H2  411   0.443   2.827  11.639 -0.0483 -0.0987 -1.5261
   26MPD2    H3  412   0.582   3.009  11.740 -0.5424 -2.1099  2.0441
   26MPD2     N  413   0.248   3.305  11.666 -0.8783 -0.0442  0.9623
   26MPD2    H5  414   0.151   3.313  11.635  0.2554  3.4917 -1.7855
   26MPD2    N1  415   0.195   2.850  11.555 -0.2480  0.0683  0.5723
   26MPD2    H7  416   0.241   2.761  11.539  2.4368  1.2954  1.4325
   27TMC2    C1  417   3.655   0.769  12.242  0.0864  0.4823  0.0237
   27TMC2    C2  418   3.784   0.796  12.199 -0.6655  0.4140  0.5803
   27TMC2    C3  419   3.793   0.904  12.110 -0.6070  0.3795 -0.4647
   27TMC2    C4  420   3.544   0.840  12.204  0.3575 -0.1214  0.1623
   27TMC2    C5  421   3.566   0.953  12.129  0.0839  0.2066 -0.1637
   27TMC2    C6  422   3.685   0.981  12.070  0.9680 -0.1504 -0.0425
   27TMC2     C  423   3.637   0.632  12.287 -0.8334 -0.1018  0.9016
   27TMC2     O  424   3.714   0.556  12.228 -0.1219 -0.4653 -0.2965
   27TMC2     H  425   3.870   0.742  12.238 -0.8660 -1.3245 -1.3708
   27TMC2    H1  426   3.442   0.817  12.234  0.5129  1.5619  1.9718
   27TMC2    H2  427   3.706   1.079  12.030 -1.4866  0.5763  0.4477
   27TMC2    C7  428   3.504   1.070  12.169 -0.8957 -0.7615 -0.4900
   27TMC2    C8  429   3.919   0.930  12.051 -0.2009 -0.1901  0.1337
   27TMC2    O1  430   3.519   1.167  12.092 -0.4389  0.0260 -0.2863
   27TMC2    O2  431   4.012   0.870  12.103  0.7067  0.0976 -0.5566
   27TMC2    O5  432   3.891   0.922  11.923  0.5426 -0.2407  0.0464
   27TMC2    H5  433   3.800   0.946  11.895  0.5689  0.5698  0.6631
   28MPD2     C  434   3.381   0.286  12.582  0.0081  0.4202  0.1279
   28MPD2    C1  435   3.345   0.415  12.615 -0.6190  0.2645  0.4841
   28MPD2    C2  436   3.391   0.519  12.543 -0.9318  0.2312  0.0794
   28MPD2    C3  437   3.479   0.501  12.438  0.5532  0.8408 -0.2430
   28MPD2    C4  438   3.517   0.375  12.404  0.1883  0.9957 -0.0807
   28MPD2    C5  439   3.469   0.266  12.475  0.3281  0.5382 -0.6128
   28MPD2     H  440   3.361   0.622  12.554 -1.5150  0.1400 -0.6257
   28MPD2    H1  441   3.581   0.361  12.318  1.3336 -0.0685  0.9377
   28MPD2    H2  442   3.344   0.202  12.639  0.4281 -0.4276 -0.8550
   28MPD2    H3  443   3.487   0.162  12.451  1.2938  0.8754 -1.3060
   28MPD2     N  444   3.532   0.617  12.372  0.2834 -0.4517 -0.0324
   28MPD2    H5  445   3.489   0.708  12.378  1.4349 -0.0913  3.1073
   28MPD2    N1  446   3.253   0.436  12.724 -0.8367  0.9149  0.0690
   28MPD2    H7  447   3.213   0.354  12.768 -0.2770  0.6678  0.1175
   29TMC2    C1  448   3.171   3.357  14.953  0.9938  0.6281 -0.4547
   29TMC2    C2  449   3.105   3.302  15.063 -0.1064 -0.2793  0.3666
   29TMC2    C3  450   3.039   3.383  15.150 -0.0232  0.0169  1.0250
   29TMC2    C4  451   3.173   3.495  14.942  0.0954  0.0925 -0.8055
   29TMC2    C5  452   3.114   3.572  15.043  0.0230 -0.9940  0.2659
   29TMC2    C6  453   3.040   3.518  15.143 -0.1219 -0.1489  0.0472
   29TMC2     C  454   3.155   3.283  14.833 -0.5551  0.2787 -0.5423
   29TMC2     O  455   3.159   3.160  14.848 -0.3664  0.1485  0.1805
   29TMC2     H  456   3.096   3.193  15.064 -1.1609 -0.1924  0.8592
   29TMC2    H1  457   3.202   3.544  14.849 -1.2850  1.7367 -0.3767
   29TMC2    H2  458   2.995   3.578  15.221 -0.1669  1.5894 -1.2932
   29TMC2    C7  459   3.140   3.714  15.051  0.3000 -0.2600  0.4841
   29TMC2    C8  460   3.009   3.325  15.281  0.1864 -0.1100 -0.4818
   29TMC2    O1  461   3.048   3.772  15.105  0.5214  0.5087 -0.2314
   29TMC2    O2  462   2.917   3.362  15.353  0.0623 -0.2784 -0.3016
   29TMC2    O5  463   3.124   3.254  15.314 -0.0729 -0.0145 -0.3619
   29TMC2    H5  464   3.207   3.266  15.264  0.0464  1.5428  0.2042
   30MPD2     C  465   3.012   3.199  14.358  0.2360  0.2226 -0.4153
   30MPD2    C1  466   3.079   3.120  14.445  0.9112 -0.3198 -0.1277
   30MPD2    C2  467   3.125   3.174  14.562 -0.6832  0.0828  0.0261
   30MPD2    C3  468   3.095   3.302  14.598 -0.2203 -0.6900 -0.0957
   30MPD2    C4  469   3.036   3.391  14.502  1.2829  0.3092  0.1131
   30MPD2    C5  470   2.999   3.337  14.386 -0.6948  0.1236 -0.3045
   30MPD2     H  471   3.192   3.123  14.631  2.3241  3.0919 -0.7337
   30MPD2    H1  472   3.011   3.496  14.513 -0.4225 -0.2800  1.8855
   30MPD2    H2  473   2.973   3.164  14.263 -1.1382  2.8855 -0.8458
   30MPD2    H3  474   2.933   3.401  14.328 -1.1261 -0.9089 -0.9588
   30MPD2     N  475   3.110   3.351  14.724  0.4948 -0.2526  0.7581
   30MPD2    H5  476   3.096   3.452  14.734  0.7123 -0.3743  2.3031
   30MPD2    N1  477   3.116   2.983  14.414 -0.0143 -0.9121  0.3634
   30MPD2    H7  478   3.185   2.935  14.471  1.0802 -2.1007 -1.9085
   31TMC2    C1  479   0.359   2.100  15.331  0.1878  0.5732 -0.1327
   31TMC2    C2  480   0.230   2.124  15.290  0.4397  0.3103  0.3536
   31TMC2    C3  481   0.122   2.124  15.375  0.1559  0.3473 -0.2178
   31TMC2    C4  482   0.383   2.080  15.462 -0.1095  0.2476 -0.1359
   31TMC2    C5  483   0.274   2.105  15.547 -0.2525 -0.1782  0.4796
   31TMC2    C6  484   0.142   2.112  15.507  0.3756 -0.1066 -0.6286
   31TMC2     C  485   0.466   2.158  15.246  0.5013  0.2028 -0.0111
   31TMC2     O  486   0.431   2.259  15.180 -0.6350  0.3035  0.1033
   31TMC2     H  487   0.214   2.138  15.184  0.4551 -0.4020  0.2561
   31TMC2    H1  488   0.485   2.076  15.500 -0.3071 -3.1416  0.0189
   31TMC2    H2  489   0.064   2.133  15.579  1.4612  1.1129  0.1913
   31TMC2    C7  490   0.288   2.067  15.694 -0.6201 -0.4533  0.0980
   31TMC2    C8  491   4.728   2.145  15.316  1.0098 -0.4752  0.6017
   31TMC2    O1  492   0.202   2.000  15.748  0.8336 -0.0900  0.0242
   31TMC2    O2  493   4.706   2.159  15.198 -0.2907 -0.0004  0.7758
   31TMC2    O5  494   4.633   2.166  15.415 -0.2321  0.1903 -0.3756
   31TMC2    H5  495   4.651   2.119  15.499  0.7149  0.4465 -0.4373
   32MPD2     C  496   0.945   2.150  15.055 -0.6501  0.1070  0.2609
   32MPD2    C1  497   0.837   2.215  15.020 -0.2596 -0.1149 -0.3046
   32MPD2    C2  498   0.718   2.195  15.085 -0.3491 -0.3989 -0.4295
   32MPD2    C3  499   0.707   2.105  15.191  0.3215 -0.0726 -0.1622
   32MPD2    C4  500   0.828   2.036  15.227  0.1108  0.4340  0.5023
   32MPD2    C5  501   0.941   2.057  15.157 -0.2951 -0.4460  0.2798
   32MPD2     H  502   0.635   2.257  15.052 -0.3995 -0.9177 -1.2611
   32MPD2    H1  503   0.825   1.968  15.312 -0.0789 -0.9493 -0.6124
   32MPD2    H2  504   1.041   2.166  15.007 -0.8481  1.8722  0.4439
   32MPD2    H3  505   1.030   2.005  15.193 -0.0578 -0.5168 -0.4148
   32MPD2     N  506   0.583   2.087  15.263  0.5830  0.3997  0.5584
   32MPD2    H5  507   0.579   2.011  15.330  1.3960  0.6765  0.9252
   32MPD2    N1  508   0.844   2.311  14.911  0.2212  0.0305 -0.1307
   32MPD2    H7  509   0.939   2.328  14.879 -0.2709 -0.7176 -1.9850
   33TMC2    C1  510   1.040   0.310  10.131 -0.4223 -0.4142 -0.0137
   33TMC2    C2  511   0.930   0.318  10.212 -0.2452  0.3802  0.0433
   33TMC2    C3  512   0.842   0.422  10.184  0.1435 -0.4960  0.1834
   33TMC2    C4  513   1.059   0.400  10.026 -0.2012 -0.2512 -0.6599
   33TMC2    C5  514   0.973   0.503  10.016 -0.0370 -0.9551  0.2697
   33TMC2    C6  515   0.862   0.519  10.088 -0.1956  0.1303  0.4795
   33TMC2     C  516   1.134   0.207  10.167 -0.7706 -0.2074 -0.2235
   33TMC2     O  517   1.089   0.114  10.230 -0.1711  0.1566 -0.3128
   33TMC2     H  518   0.891   0.249  10.286  0.9004 -1.7328 -1.3307
   33TMC2    H1  519   1.149   0.410   9.966  1.6530  0.0814  2.1981
   33TMC2    H2  520   0.777   0.583  10.070  0.6481  1.2512  0.4848
   33TMC2    C7  521   1.008   0.602   9.924  0.0422 -0.8472 -0.3509
   33TMC2    C8  522   0.739   0.455  10.281 -0.0077  0.0183  0.0433
   33TMC2    O1  523   1.126   0.618   9.894  0.0954  0.7349 -0.3519
   33TMC2    O2  524   0.692   0.562  10.301  0.5441 -0.3465 -0.1011
   33TMC2    O5  525   0.666   0.338  10.292  0.3854  0.2343  0.1750
   33TMC2    H5  526   0.700   0.259  10.245 -1.0517  0.7683 -1.7331
   34MPD2     C  527   1.608   4.730  10.172 -0.0212 -0.1964 -0.2876
   34MPD2    C1  528   1.488   4.686  10.222 -0.6219  0.4299 -0.1285
   34MPD2    C2  529   1.374   0.024  10.196  0.1303  0.7235 -0.3533
   34MPD2    C3  530   1.376   0.141  10.136 -0.4854 -0.6566 -0.3744
   34MPD2    C4  531   1.491   0.183  10.086 -0.1727 -0.2547  0.0256
   34MPD2    C5  532   1.606   0.116  10.105 -0.1331  0.1441 -0.8180
   34MPD2     H  533   1.281   4.718  10.236  0.2117 -2.3906 -3.2832
   34MPD2    H1  534   1.498   0.273  10.026  0.0525 -0.9484 -0.9897
   34MPD2    H2  535   1.708   4.693  10.190 -0.4848 -1.1610  0.3451
   34MPD2    H3  536   1.700   0.153  10.065  1.2136 -1.4380  0.8562
   34MPD2     N  537   1.267   0.227  10.120 -0.1449  0.1057  0.3676
   34MPD2    H5  538   1.283   0.314  10.070 -0.7227 -1.8551 -3.1866
   34MPD2    N1  539   1.480   4.572  10.308 -0.1080  0.4669  0.0967
   34MPD2    H7  540   1.387   4.552  10.344  0.3675 -0.1486  0.9725
   35TMC2    C1  541   2.266   1.313  11.641  0.2328  0.0591  0.3426
   35TMC2    C2  542   2.210   1.360  11.526  0.1053  0.0866  0.2365
   35TMC2    C3  543   2.128   1.271  11.465  0.1584 -0.4395  0.2234
   35TMC2    C4  544   2.219   1.208  11.711 -0.4281  0.1011  0.8910
   35TMC2    C5  545   2.126   1.132  11.645  0.2808  0.5042  0.4611
   35TMC2    C6  546   2.090   1.150  11.519 -0.1304 -0.1002  0.0446
   35TMC2     C  547   2.359   1.402  11.696  0.0982  0.4741 -0.5780
   35TMC2     O  548   2.359   1.511  11.643  0.6184 -0.2861  1.2095
   35TMC2     H  549   2.260   1.436  11.467  1.1495  0.4369  1.5860
   35TMC2    H1  550   2.238   1.193  11.816 -0.6639 -1.2072  0.7528
   35TMC2    H2  551   2.036   1.079  11.457 -2.4600  0.5448  1.3426
   35TMC2    C7  552   2.106   0.992  11.682 -0.1883 -0.3462  0.0597
   35TMC2    C8  553   2.087   1.311  11.335 -0.5142  0.2641 -0.6748
   35TMC2    O1  554   2.084   0.910  11.593  0.6542  0.3565  0.2365
   35TMC2    O2  555   2.153   1.383  11.260 -0.7414  0.0707 -0.3411
   35TMC2    O5  556   1.954   1.290  11.322 -0.2410 -0.3866  0.2876
   35TMC2    H5  557   1.895   1.293  11.400 -3.0886 -0.7879 -1.8449
   36MPD2     C  558   2.692   1.538  12.044 -0.5619  0.9479  0.3421
   36MPD2    C1  559   2.687   1.405  12.053  0.2273  0.2480  1.0547
   36MPD2    C2  560   2.598   1.341  11.969 -0.1203 -0.1038  0.0632
   36MPD2    C3  561   2.528   1.416  11.871  0.3423 -0.1704  0.0557
   36MPD2    C4  562   2.538   1.554  11.863 -0.1474  0.2920  0.7638
   36MPD2    C5  563   2.623   1.613  11.952  0.1774  0.2682  0.3155
   36MPD2     H  564   2.586   1.233  11.968  0.0403 -0.1366  2.1413
   36MPD2    H1  565   2.476   1.618  11.801 -0.0981  0.8761  1.3193
   36MPD2    H2  566   2.758   1.594  12.110 -0.3753  0.2336  0.7665
   36MPD2    H3  567   2.634   1.719  11.971  1.4969  0.4054 -1.2396
   36MPD2     N  568   2.432   1.347  11.795  0.3630  0.3798 -0.5665
   36MPD2    H5  569   2.431   1.245  11.801  1.3730  0.5455  2.2989
   36MPD2    N1  570   2.756   1.336  12.160 -0.9264  0.2834  0.0225
   36MPD2    H7  571   2.805   1.392  12.228  0.3755  1.5867 -1.9887
   37TMC2    C1  572   4.217   1.121  11.950 -0.9802  0.3970 -0.3485
   37TMC2    C2  573   4.125   1.089  11.852 -0.0249  0.2222  0.7246
   37TMC2    C3  574   4.178   1.031  11.740 -0.0344 -0.5364 -0.3107
   37TMC2    C4  575   4.354   1.097  11.940  0.2491 -0.7342 -0.0900
   37TMC2    C5  576   4.401   1.049  11.820 -0.2875  0.5206 -0.4091
   37TMC2    C6  577   4.314   1.013  11.719  0.0501  0.5704  0.3089
   37TMC2     C  578   4.161   1.169  12.077 -0.4670  0.3734 -0.1459
   37TMC2     O  579   4.047   1.211  12.081  0.3707 -0.1807 -0.1027
   37TMC2     H  580   4.021   1.118  11.858 -0.6164 -2.4341  2.9719
   37TMC2    H1  581   4.430   1.137  12.006  0.1480 -1.3991  0.4231
   37TMC2    H2  582   4.357   0.955  11.638 -1.4657 -1.3435  0.9035
   37TMC2    C7  583   4.544   1.024  11.803  0.0478 -0.2535  0.4134
   37TMC2    C8  584   4.091   1.023  11.628 -0.1179  0.0924  0.5049
   37TMC2    O1  585   4.597   1.041  11.909 -0.1371 -0.4592 -0.4923
   37TMC2    O2  586   3.992   1.098  11.623 -0.3193  0.4072 -0.0955
   37TMC2    O5  587   4.129   0.928  11.539  0.3286 -0.6244 -0.1060
   37TMC2    H5  588   4.210   0.880  11.567 -0.2892 -1.6351 -0.0776
   38MPD2     C  589   4.254   1.230  12.582 -1.2598  0.0414  0.4409
   38MPD2    C1  590   4.361   1.169  12.519  0.3115  0.3989  0.2678
   38MPD2    C2  591   4.355   1.136  12.383 -0.1905 -0.6494 -0.7836
   38MPD2    C3  592   4.250   1.178  12.315  0.0185  0.0288 -0.0186
   38MPD2    C4  593   4.138   1.238  12.373  0.1297  0.3211  0.5376
   38MPD2    C5  594   4.141   1.265  12.507  0.0912 -0.3356 -0.4183
   38MPD2     H  595   4.446   1.107  12.332  0.6473 -0.6416  0.7062
   38MPD2    H1  596   4.048   1.276  12.327  0.3477 -0.1163 -0.2566
   38MPD2    H2  597   4.258   1.269  12.683 -2.0488 -0.2721  0.5939
   38MPD2    H3  598   4.065   1.320  12.562  2.0592  1.9049  0.0185
   38MPD2     N  599   4.251   1.139  12.177  0.5730  0.3007 -0.4280
   38MPD2    H5  600   4.329   1.085  12.143  0.2981 -1.3268  1.5300
   38MPD2    N1  601   4.480   1.146  12.588  0.7363 -0.3530 -0.2835
   38MPD2    H7  602   4.551   1.107  12.527 -0.3605  0.7628 -2.2711
   39TMC2    C1  603   2.813   3.089   1.925 -0.4822  0.1428  0.7105
   39TMC2    C2  604   2.756   3.155   2.024 -0.2411 -0.0663 -0.1845
   39TMC2    C3  605   2.844   3.209   2.115 -0.7902 -0.1624  0.2808
   39TMC2    C4  606   2.952   3.082   1.918  0.1319  0.2619 -0.2248
   39TMC2    C5  607   3.034   3.160   1.999 -0.2357 -0.9043 -0.1421
   39TMC2    C6  608   2.981   3.215   2.107  0.3053 -0.1186 -0.3181
   39TMC2     C  609   2.723   3.004   1.848 -0.8283 -0.4688 -0.1257
   39TMC2     O  610   2.606   3.033   1.852 -0.0182  0.2361  0.2315
   39TMC2     H  611   2.650   3.141   2.037 -0.6071  2.2341 -0.7080
   39TMC2    H1  612   2.995   3.021   1.839 -0.1161 -2.6740  1.9044
   39TMC2    H2  613   3.041   3.282   2.168 -0.0868  0.3427 -0.4412
   39TMC2    C7  614   3.162   3.211   1.953  0.0397 -0.1856  0.2058
   39TMC2    C8  615   2.775   3.262   2.226  0.0657 -0.3309  0.4009
   39TMC2    O1  616   3.246   3.247   2.035 -0.1798  0.1950  0.1840
   39TMC2    O2  617   2.660   3.302   2.221  0.1876 -0.1225  0.2309
   39TMC2    O5  618   2.860   3.267   2.332  0.0627 -0.0498  0.1716
   39TMC2    H5  619   2.933   3.202   2.321  1.0485  1.0581  0.1562
   40MPD2     C  620   2.791   2.713   1.625 -0.4455 -0.1222 -0.9114
   40MPD2    C1  621   2.713   2.795   1.706 -0.2542 -0.1248 -0.1003
   40MPD2    C2  622   2.572   2.793   1.691 -0.5066 -0.8645  0.7515
   40MPD2    C3  623   2.510   2.715   1.597  0.7080  0.0728 -0.0204
   40MPD2    C4  624   2.587   2.624   1.532  0.5961 -0.7712 -0.2255
   40MPD2    C5  625   2.724   2.623   1.546  0.2846  0.2736  0.2159
   40MPD2     H  626   2.519   2.849   1.768 -0.8131 -0.8066  0.4965
   40MPD2    H1  627   2.542   2.570   1.450 -1.1655  0.4613 -0.0860
   40MPD2    H2  628   2.899   2.721   1.623 -0.4757  0.8746  0.8715
   40MPD2    H3  629   2.773   2.545   1.488  1.5542 -0.8100  2.7183
   40MPD2     N  630   2.370   2.719   1.580 -0.5587 -0.1198  0.1765
   40MPD2    H5  631   2.327   2.654   1.516  0.9397  0.6603 -1.6410
   40MPD2    N1  632   2.786   2.893   1.787  0.6213 -0.1818 -0.3035
   40MPD2    H7  633   2.887   2.887   1.778  0.5700  0.6104 -1.3425
   41TMC2    C1  634   1.725   1.493  13.566 -0.0211  0.5011 -1.2419
   41TMC2    C2  635   1.656   1.580  13.642  0.3415 -0.4729  0.2269
   41TMC2    C3  636   1.610   1.699  13.592 -0.0796 -0.2174  0.2348
   41TMC2    C4  637   1.743   1.527  13.435  0.0457  0.2758 -0.4987
   41TMC2    C5  638   1.710   1.647  13.394 -0.0951 -0.2015 -0.0564
   41TMC2    C6  639   1.640   1.735  13.465 -0.0458 -0.0281  0.2961
   41TMC2     C  640   1.793   1.374  13.621  0.1920 -0.1868  0.1753
   41TMC2     O  641   1.845   1.293  13.545 -0.1066 -0.8606  0.3024
   41TMC2     H  642   1.641   1.566  13.749  2.0877 -1.3605  0.3589
   41TMC2    H1  643   1.813   1.466  13.379  0.8604  1.4230 -0.7312
   41TMC2    H2  644   1.640   1.836  13.425 -0.1602  0.2335  0.9606
   41TMC2    C7  645   1.679   1.659  13.256 -0.4423 -0.4825  1.1396
   41TMC2    C8  646   1.529   1.787  13.665  0.0884 -0.3963  0.4581
   41TMC2    O1  647   1.591   1.741  13.224  0.0123  0.4362 -0.0205
   41TMC2    O2  648   1.582   1.861  13.749 -0.1460  0.1169  0.0662
   41TMC2    O5  649   1.437   1.815  13.571  0.4422  0.0367 -0.4538
   41TMC2    H5  650   1.414   1.738  13.515 -1.1212  0.6252 -0.6227
   42MPD2     C  651   1.905   1.151  13.801  0.2551 -0.4927  0.2022
   42MPD2    C1  652   1.864   1.281  13.841 -0.6771  0.1085 -0.5772
   42MPD2    C2  653   1.884   1.319  13.973 -0.3829 -0.5233 -0.3372
   42MPD2    C3  654   1.928   1.228  14.064  0.4287  0.1844 -0.3326
   42MPD2    C4  655   1.971   1.104  14.023 -0.8880 -0.5436  1.1155
   42MPD2    C5  656   1.960   1.067  13.894  0.6827 -0.1229 -0.5741
   42MPD2     H  657   1.864   1.422  14.000 -1.1668 -1.5333  2.9610
   42MPD2    H1  658   2.024   1.031  14.082  1.3370 -0.1202 -0.3812
   42MPD2    H2  659   1.891   1.127  13.696  1.6960  1.0850 -0.3550
   42MPD2    H3  660   1.996   0.968  13.869 -0.7289 -0.1506 -2.4591
   42MPD2     N  661   1.934   1.253  14.204  0.0047 -0.0943  0.1012
   42MPD2    H5  662   1.975   1.183  14.264 -0.6397  0.7885  1.5670
   42MPD2    N1  663   1.813   1.387  13.754 -0.4111 -0.5951  0.5812
   42MPD2    H7  664   1.783   1.479  13.786 -2.3216 -1.0572  0.1337
   43TMC2    C1  665   2.485   3.194   0.780  0.1426  0.4074 -0.5431
   43TMC2    C2  666   2.413   3.302   0.732 -0.1350  0.7312  0.1102
   43TMC2    C3  667   2.413   3.414   0.813  0.5707 -0.5133 -0.1671
   43TMC2    C4  668   2.543   3.190   0.904  0.8734 -0.2160 -0.2835
   43TMC2    C5  669   2.553   3.313   0.965 -0.0306  0.1091 -0.0822
   43TMC2    C6  670   2.484   3.428   0.928  1.1582 -0.4306  0.8906
   43TMC2     C  671   2.554   3.120   0.679 -0.0351  0.9397  0.0306
   43TMC2     O  672   2.672   3.099   0.700 -0.4275 -0.2654 -0.2344
   43TMC2     H  673   2.374   3.311   0.631  1.0771  1.2340 -0.3102
   43TMC2    H1  674   2.591   3.097   0.932  0.3191 -0.2045  0.6869
   43TMC2    H2  675   2.483   3.519   0.986  1.6041  0.7032 -0.8855
   43TMC2    C7  676   2.661   3.333   1.059 -0.1561  0.0089 -0.1391
   43TMC2    C8  677   2.323   3.521   0.779  0.3314  0.1512 -0.2817
   43TMC2    O1  678   2.711   3.228   1.094 -0.2479  0.4480 -0.2069
   43TMC2    O2  679   2.348   3.636   0.749  0.3591  0.0400  0.5160
   43TMC2    O5  680   2.209   3.462   0.734 -0.4438  0.0771  0.8429
   43TMC2    H5  681   2.192   3.376   0.777 -1.3812 -0.5848 -0.8533
   44MPD2     C  682   2.629   3.053   0.173  0.1227 -0.1832  0.2779
   44MPD2    C1  683   2.723   3.055   0.274 -0.4032 -0.2543 -0.0715
   44MPD2    C2  684   2.675   3.069   0.405  0.4592  0.1999 -0.0224
   44MPD2    C3  685   2.538   3.085   0.430  0.6328  0.3419 -0.8208
   44MPD2    C4  686   2.449   3.067   0.326  0.1817 -0.2993 -0.2357
   44MPD2    C5  687   2.490   3.055   0.196  0.3402  0.0246  0.0200
   44MPD2     H  688   2.743   3.078   0.488  1.4849 -1.1023 -0.7175
   44MPD2    H1  689   2.341   3.063   0.332  0.2382 -1.4739 -0.1444
   44MPD2    H2  690   2.661   3.042   0.070 -0.3337  2.3235 -0.1176
   44MPD2    H3  691   2.416   3.041   0.118 -0.9164 -0.4588  1.3102
   44MPD2     N  692   2.482   3.113   0.557 -0.2003  0.0591  0.1590
   44MPD2    H5  693   2.382   3.132   0.562 -0.4824 -0.3393 -3.7839
   44MPD2    N1  694   2.858   3.073   0.241 -0.3328  0.4172  0.2013
   44MPD2    H7  695   2.927   3.078   0.315  1.3387  2.4080 -1.4886
   45TMC2    C1  696   4.439   1.106   9.900 -0.1824 -0.1926  0.8456
   45TMC2    C2  697   4.551   1.040   9.866 -0.0499  0.3024 -0.0636
   45TMC2    C3  698   4.658   1.122   9.829  0.3215  1.0831  0.4618
   45TMC2    C4  699   4.430   1.239   9.931  0.2852  0.4590  0.2115
   45TMC2    C5  700   4.541   1.308   9.906  0.4811  0.8246 -0.0019
   45TMC2    C6  701   4.656   1.251   9.855  0.0751  0.1567  0.2600
   45TMC2     C  702   4.313   1.035   9.869  0.5706  0.1052  0.4527
   45TMC2     O  703   4.318   0.913   9.872 -0.6783  0.2546  0.0612
   45TMC2     H  704   4.549   0.936   9.835  0.0661 -0.0006  0.9440
   45TMC2    H1  705   4.345   1.285   9.980 -0.6400  0.2006 -1.1590
   45TMC2    H2  706   0.013   1.310   9.858 -1.4017  2.3434  2.1793
   45TMC2    C7  707   4.535   1.447   9.946  0.4023  0.0960  0.1927
   45TMC2    C8  708   0.029   1.072   9.742 -0.4208  0.0389 -0.2998
   45TMC2    O1  709   4.472   1.467  10.049 -0.1317  0.5561  0.0226
   45TMC2    O2  710   0.035   0.957   9.705 -0.2680  0.1038 -0.2712
   45TMC2    O5  711   0.118   1.169   9.707  0.6506 -0.2598 -0.0854
   45TMC2    H5  712   0.082   1.260   9.693  1.9501  0.2004 -0.4367
   46MPD2     C  713   4.044   0.948   9.759  0.3126  0.6588 -0.5003
   46MPD2    C1  714   4.083   1.080   9.789  0.2319  0.4153 -0.4153
   46MPD2    C2  715   3.989   1.181   9.784 -1.4014 -0.8045  0.3436
   46MPD2    C3  716   3.861   1.161   9.726 -0.6822  0.1304  0.0428
   46MPD2    C4  717   3.835   1.031   9.670  0.7968 -0.3616  0.0964
   46MPD2    C5  718   3.919   0.925   9.702  0.5748  0.1747  1.0565
   46MPD2     H  719   4.007   1.272   9.840  2.0934 -0.1259 -1.8884
   46MPD2    H1  720   3.737   1.013   9.628  1.5649  2.5361 -2.9585
   46MPD2    H2  721   4.117   0.870   9.779  0.6451  1.7031  2.3702
   46MPD2    H3  722   3.898   0.822   9.676  2.2617 -0.0438  0.4991
   46MPD2     N  723   3.767   1.268   9.720 -0.1506 -0.0583  0.0066
   46MPD2    H5  724   3.798   1.357   9.757  0.4596 -0.4856  0.5141
   46MPD2    N1  725   4.211   1.118   9.834 -0.4680  0.3009 -0.0441
   46MPD2    H7  726   4.236   1.217   9.829  1.9274 -0.2618  0.7327
   47TMC2    C1  727   0.924   2.266   8.577 -1.1575  0.1548 -0.7201
   47TMC2    C2  728   0.864   2.310   8.460  0.4429 -0.2865  0.1172
   47TMC2    C3  729   0.854   2.213   8.361  0.1180  0.2575  0.8099
   47TMC2    C4  730   0.964   2.141   8.594 -0.2410  0.2665  0.0850
   47TMC2    C5  731   0.946   2.051   8.497  0.3185  0.3791  0.1893
   47TMC2    C6  732   0.877   2.082   8.380  0.5374  0.2176  0.2785
   47TMC2     C  733   0.966   2.366   8.669  0.1814 -0.1315 -0.0430
   47TMC2     O  734   0.887   2.461   8.676 -0.2317  0.0180  0.4492
   47TMC2     H  735   0.842   2.413   8.435 -0.5528 -0.2261  1.2671
   47TMC2    H1  736   1.006   2.105   8.687  1.4577  0.9091 -0.4413
   47TMC2    H2  737   0.844   2.009   8.307  3.5191 -1.4839  0.6530
   47TMC2    C7  738   0.991   1.910   8.511 -0.2967  0.4488  1.2181
   47TMC2    C8  739   0.775   2.260   8.253  0.7150 -0.6497 -0.4604
   47TMC2    O1  740   0.926   1.822   8.458  0.2239  0.0681 -0.6592
   47TMC2    O2  741   0.749   2.379   8.223  0.5093 -0.2871 -0.2645
   47TMC2    O5  742   0.692   2.160   8.210 -0.5370 -0.2212  0.2818
   47TMC2    H5  743   0.699   2.069   8.244  1.9759  0.0543  0.5642
   48MPD2     C  744   1.081   2.499   8.914 -0.0897 -0.4659  0.1980
   48MPD2    C1  745   1.136   2.395   8.847 -0.0025  0.1892  0.3405
   48MPD2    C2  746   1.243   2.336   8.901  0.1745  0.3555 -0.3760
   48MPD2    C3  747   1.306   2.378   9.017  0.4659  0.4474  0.9208
   48MPD2    C4  748   1.242   2.487   9.086 -0.1973  0.2419 -0.3551
   48MPD2    C5  749   1.131   2.545   9.034  0.1122  0.7102  0.4293
   48MPD2     H  750   1.293   2.257   8.847 -0.6923  0.4488 -1.3167
   48MPD2    H1  751   1.277   2.516   9.185  0.4291 -1.3597 -0.0956
   48MPD2    H2  752   0.991   2.548   8.876 -0.9378  1.3931  4.6681
   48MPD2    H3  753   1.077   2.630   9.074 -0.5231 -0.3819  1.8916
   48MPD2     N  754   1.431   2.325   9.057  0.4472  0.3399  0.2853
   48MPD2    H5  755   1.477   2.257   8.997 -5.0092 -2.2243 -0.9584
   48MPD2    N1  756   1.078   2.333   8.738 -0.3109  0.1220  0.3838
   48MPD2    H7  757   1.123   2.245   8.715 -1.6879  0.2758 -2.7879
   49TMC2    C1  758   4.614   3.640  10.621 -0.2581 -0.2789  0.6456
   49TMC2    C2  759   4.626   3.682  10.752 -0.1331  0.7458  0.3599
   49TMC2    C3  760   4.656   3.582  10.848 -0.4942 -0.0675 -0.4206
   49TMC2    C4  761   4.632   3.514  10.582 -0.4888 -0.1433  0.1808
   49TMC2    C5  762   4.657   3.420  10.679 -0.3848  0.2672 -0.3179
   49TMC2    C6  763   4.678   3.450  10.810 -0.1731  0.2012 -0.3599
   49TMC2     C  764   4.547   3.726  10.524  1.2025 -0.1316 -0.0173
   49TMC2     O  765   4.482   3.676  10.436 -0.8334  0.2246 -0.1707
   49TMC2     H  766   4.624   3.785  10.784 -1.7555  0.5699  0.8387
   49TMC2    H1  767   4.621   3.487  10.478 -0.4169 -0.4688  0.2569
   49TMC2    H2  768   4.713   3.377  10.883 -0.8691  1.1941  0.9740
   49TMC2    C7  769   4.667   3.273  10.650  1.6748  0.0795 -0.1135
   49TMC2    C8  770   4.730   3.629  10.964 -0.7644  0.1829  0.0125
   49TMC2    O1  771   4.638   3.205  10.746  0.0616  0.7301 -0.9164
   49TMC2    O2  772   4.687   3.720  11.037 -0.0215  0.1497 -0.0535
   49TMC2    O5  773   0.114   3.569  10.980 -0.3482  0.4794 -0.0600
   49TMC2    H5  774   0.153   3.516  10.907 -0.9322 -1.9805  1.4054
   50MPD2     C  775   4.458   3.955  10.342 -0.2074 -0.6419 -0.2413
   50MPD2    C1  776   4.535   3.967  10.455  0.2562 -0.5743  0.8905
   50MPD2    C2  777   4.559   4.096  10.497  0.0734  0.2842 -0.3180
   50MPD2    C3  778   4.526   4.207  10.415 -0.2228  0.1093 -0.2352
   50MPD2    C4  779   4.468   4.184  10.293  0.5464 -0.5059  0.0218
   50MPD2    C5  780   4.416   4.060  10.268 -0.4864 -0.0342 -0.0262
   50MPD2     H  781   4.600   4.106  10.597  0.3412 -0.7887 -0.3168
   50MPD2    H1  782   4.447   4.267  10.226  2.0041 -0.8001 -0.7890
   50MPD2    H2  783   4.419   3.861  10.304  1.7556 -1.0462 -1.2377
   50MPD2    H3  784   4.371   4.050  10.170  0.8109 -1.5385 -0.4632
   50MPD2     N  785   4.550   4.343  10.450 -0.0436 -0.0769 -0.0640
   50MPD2    H5  786   4.510   4.414  10.389  1.2382  1.7599  1.2279
   50MPD2    N1  787   4.575   3.863  10.544 -0.1393  0.0693  0.3315
   50MPD2    H7  788   4.641   3.884  10.618 -0.1665 -1.1634  0.7113
   51TMC2    C1  789   4.482   2.637   1.273 -0.1230 -0.0047  0.8441
   51TMC2    C2  790   4.347   2.644   1.278  0.1209  0.8637 -0.0754
   51TMC2    C3  791   4.306   2.768   1.238 -0.0509  0.0061  0.2073
   51TMC2    C4  792   4.568   2.744   1.252 -0.2108 -0.5842  0.6172
   51TMC2    C5  793   4.522   2.866   1.223  0.7784 -0.4094 -0.6222
   51TMC2    C6  794   4.383   2.879   1.214  0.2801 -0.4309 -0.0444
   51TMC2     C  795   4.551   2.512   1.259 -0.6516  0.3012 -0.1158
   51TMC2     O  796   4.607   2.482   1.150 -0.0522 -0.3641  0.7999
   51TMC2     H  797   4.286   2.560   1.307 -0.1444  2.2743  3.4102
   51TMC2    H1  798   4.671   2.727   1.280 -0.8495 -1.7383  2.2935
   51TMC2    H2  799   4.332   2.971   1.186 -0.3856 -0.3954  1.2685
   51TMC2    C7  800   4.612   2.974   1.184 -0.5821 -1.2325  0.4128
   51TMC2    C8  801   4.169   2.753   1.188  0.4183  0.0423  0.3396
   51TMC2    O1  802   4.729   2.942   1.179  0.3308  0.1070 -0.5261
   51TMC2    O2  803   4.082   2.696   1.255  0.4379 -0.5666 -0.0764
   51TMC2    O5  804   4.148   2.856   1.106  0.0222 -0.8205  0.0093
   51TMC2    H5  805   4.231   2.877   1.056 -0.8251 -2.9067 -2.2708
   52MPD2     C  806   4.677   2.053   1.375 -0.0001  0.0823 -0.3841
   52MPD2    C1  807   0.032   2.153   1.346  0.8016 -0.1976 -0.2292
   52MPD2    C2  808   4.719   2.283   1.343 -0.7627  0.5451  0.2086
   52MPD2    C3  809   4.588   2.309   1.387 -0.5137 -0.7644  0.9049
   52MPD2    C4  810   4.511   2.215   1.450  0.2722 -0.6610 -1.2329
   52MPD2    C5  811   4.552   2.085   1.426 -0.4839  0.3256 -0.2998
   52MPD2     H  812   0.038   2.366   1.298  1.2716 -0.7121  0.2915
   52MPD2    H1  813   4.414   2.242   1.490  0.6235 -0.1346 -0.7335
   52MPD2    H2  814   4.702   1.949   1.391  1.0064  0.4904  0.6847
   52MPD2    H3  815   4.487   2.005   1.461  0.4780 -0.9313 -1.4136
   52MPD2     N  816   4.528   2.433   1.367 -0.2904  0.3276 -0.2376
   52MPD2    H5  817   4.449   2.449   1.429 -0.0372 -0.2816  0.2438
   52MPD2    N1  818   0.165   2.112   1.310  0.7047  0.5423  0.3577
   52MPD2    H7  819   0.188   2.014   1.298 -1.4483  0.1027 -0.2056
   53TMC2    C1  820   0.532   1.104  11.777  0.4173  0.2211  0.5020
   53TMC2    C2  821   0.664   1.079  11.760 -0.4757 -0.2530  0.0788
   53TMC2    C3  822   0.745   1.113  11.869  0.3407  0.0553  0.2382
   53TMC2    C4  823   0.479   1.157  11.892 -0.2237 -0.4840  0.0127
   53TMC2    C5  824   0.567   1.177  12.001 -0.3041  0.8413 -0.5164
   53TMC2    C6  825   0.702   1.153  11.993 -0.4194 -0.2766 -1.1803
   53TMC2     C  826   0.451   1.055  11.672 -0.4934  0.1762 -0.6042
   53TMC2     O  827   0.490   1.061  11.558  0.1554 -0.2563 -0.4699
   53TMC2     H  828   0.708   1.029  11.674 -0.4201  0.0869 -0.0912
   53TMC2    H1  829   0.375   1.186  11.895  0.1239  0.8653 -1.7461
   53TMC2    H2  830   0.781   1.176  12.064 -1.5576  0.4965 -0.1710
   53TMC2    C7  831   0.513   1.262  12.098 -0.6408  0.2638 -0.1843
   53TMC2    C8  832   0.876   1.071  11.868  0.3545  0.0942  0.1421
   53TMC2    O1  833   0.399   1.296  12.092 -0.1521 -0.1425  0.4683
   53TMC2    O2  834   0.939   1.035  11.968  0.5484  0.4498 -0.0680
   53TMC2    O5  835   0.911   1.045  11.739  0.3641  0.7876  0.2612
   53TMC2    H5  836   0.854   1.090  11.673  0.2369 -0.0920 -0.2185
   54MPD2     C  837   0.236   0.941  11.504  0.2346 -0.2301  0.3627
   54MPD2    C1  838   0.218   0.997  11.635 -0.3588 -0.7396  0.7081
   54MPD2    C2  839   0.093   1.005  11.695 -0.0415  0.3785  0.8012
   54MPD2    C3  840   4.713   0.971  11.626 -0.7219 -0.0810  0.2393
   54MPD2    C4  841   4.733   0.928  11.498  0.2169  0.7317 -0.4717
   54MPD2    C5  842   0.121   0.909  11.443  0.7066  0.0294 -0.0938
   54MPD2     H  843   0.084   1.039  11.798 -0.9618 -1.1903  1.2431
   54MPD2    H1  844   4.649   0.910  11.431 -0.0693 -1.3362  0.4634
   54MPD2    H2  845   0.325   0.931  11.443  0.2370  2.6395 -0.1406
   54MPD2    H3  846   0.130   0.888  11.337 -0.4247 -1.1145  0.0399
   54MPD2     N  847   4.584   0.991  11.673 -0.0542  0.4727 -0.3352
   54MPD2    H5  848   4.511   0.974  11.605  0.6469  0.3480 -1.0455
   54MPD2    N1  849   0.326   1.038  11.715 -0.3429  0.1130  0.1641
   54MPD2    H7  850   0.297   1.042  11.812  0.2068  0.0281  0.3309
   55TMC2    C1  851   1.276   4.238   0.419 -0.1100 -0.6938 -0.2646
   55TMC2    C2  852   1.404   4.274   0.462 -0.2397 -0.1054  0.5373
   55TMC2    C3  853   1.482   4.165   0.493  0.1993 -0.1260 -0.2130
   55TMC2    C4  854   1.218   4.112   0.417 -0.5967  0.2178 -0.6094
   55TMC2    C5  855   1.300   4.017   0.463 -0.2569  0.4181 -0.1571
   55TMC2    C6  856   1.427   4.041   0.491  0.1941 -0.2171 -0.0815
   55TMC2     C  857   1.190   4.348   0.383  0.2255 -0.2186 -0.3254
   55TMC2     O  858   1.067   4.334   0.396 -0.2010 -0.4372 -0.0361
   55TMC2     H  859   1.454   4.370   0.455 -0.2464 -0.0925  0.6657
   55TMC2    H1  860   1.125   4.093   0.364 -0.5240  2.4564 -1.5525
   55TMC2    H2  861   1.488   3.953   0.507 -2.3088 -1.2771  3.5900
   55TMC2    C7  862   1.244   3.883   0.483  0.2305 -0.2280 -0.1371
   55TMC2    C8  863   1.621   4.190   0.544 -0.2360  0.6624  0.3509
   55TMC2    O1  864   1.322   3.793   0.513 -0.3826  0.0797 -0.4419
   55TMC2    O2  865   1.664   4.305   0.534  0.5956 -0.0040  0.2423
   55TMC2    O5  866   1.646   4.100   0.637  0.0604  0.1829  0.0998
   55TMC2    H5  867   1.572   4.036   0.644  0.6083 -0.5201 -0.5753
   56MPD2     C  868   1.245   4.674   0.238 -0.3214  0.2100 -0.1999
   56MPD2    C1  869   1.184   4.584   0.322  0.3233 -0.1043 -0.3245
   56MPD2    C2  870   1.050   4.608   0.364  0.1577 -0.2438 -0.4506
   56MPD2    C3  871   0.983   4.716   0.310  0.0107 -0.3006  0.6428
   56MPD2    C4  872   1.050   0.076   0.236  0.6309 -0.2617 -0.4178
   56MPD2    C5  873   1.181   0.052   0.197 -0.0542  0.3042 -0.4916
   56MPD2     H  874   1.001   4.539   0.431 -1.6730  1.5900  0.1142
   56MPD2    H1  875   1.001   0.161   0.189 -2.8834 -1.1653  1.5966
   56MPD2    H2  876   1.345   4.653   0.203 -0.7707 -0.4867 -1.0587
   56MPD2    H3  877   1.240   0.121   0.138  0.0247  0.4351 -0.2611
   56MPD2     N  878   0.848   4.726   0.335  0.1259  0.4621 -0.0027
   56MPD2    H5  879   0.807   4.663   0.403  0.3906 -0.4851 -0.7177
   56MPD2    N1  880   1.260   4.463   0.355 -0.1726 -0.4233 -0.2621
   56MPD2    H7  881   1.356   4.450   0.324 -0.5061 -0.0083 -1.4680
   57TMC2    C1  882   0.301   4.364  13.668  0.4529 -0.8274  0.9180
   57TMC2    C2  883   0.314   4.224  13.665 -0.4813  1.1301 -0.4335
   57TMC2    C3  884   0.429   4.172  13.617 -0.7696 -0.5002 -0.3881
   57TMC2    C4  885   0.414   4.437  13.650  0.6057 -0.4947  0.4871
   57TMC2    C5  886   0.533   4.381  13.621 -0.8092  0.3640 -0.4098
   57TMC2    C6  887   0.542   4.245  13.599 -0.1206  0.4466 -0.2390
   57TMC2     C  888   0.176   4.433  13.693 -0.1644 -0.2860 -0.6544
   57TMC2     O  889   0.170   4.543  13.643 -0.3572 -0.0789  0.1876
   57TMC2     H  890   0.227   4.160  13.649  0.3387 -0.5015  1.5369
   57TMC2    H1  891   0.399   4.544  13.656 -1.4320 -0.7600  0.0287
   57TMC2    H2  892   0.628   4.198  13.553  0.0936  0.9558 -0.3557
   57TMC2    C7  893   0.644   4.469  13.597  0.4426  0.4501  0.1970
   57TMC2    C8  894   0.435   4.032  13.566 -0.5312 -0.0330  0.3749
   57TMC2    O1  895   0.624   4.586  13.614  0.0588  0.3552 -0.8108
   57TMC2    O2  896   0.524   3.998  13.495 -0.2903  0.4132 -0.4382
   57TMC2    O5  897   0.338   3.950  13.619 -0.1908  0.2351 -0.1627
   57TMC2    H5  898   0.278   4.004  13.675  0.5093  0.0828  0.7259
   58MPD2     C  899   4.406   4.420  13.793 -0.2896  0.1904 -0.2046
   58MPD2    C1  900   4.488   4.523  13.757  0.6186  0.5742 -0.8521
   58MPD2    C2  901   4.622   4.499  13.734 -0.2087 -0.5912 -0.5182
   58MPD2    C3  902   4.684   4.375  13.754 -0.6867  1.1036 -0.6784
   58MPD2    C4  903   4.603   4.276  13.804  0.3235 -0.1557 -0.6581
   58MPD2    C5  904   4.469   4.308  13.821 -0.0927  0.1708  0.9630
   58MPD2     H  905   4.677   4.583  13.692 -2.1363  1.5184  1.1763
   58MPD2    H1  906   4.641   4.178  13.829  1.0025 -0.2323 -1.9914
   58MPD2    H2  907   4.300   4.432  13.808 -0.5838 -0.6358 -1.5872
   58MPD2    H3  908   4.405   4.228  13.854  0.5169 -1.8986 -2.9183
   58MPD2     N  909   0.084   4.338  13.736  0.8731  0.0249 -0.3836
   58MPD2    H5  910   0.110   4.251  13.782  1.2053  0.5168  0.3672
   58MPD2    N1  911   4.435   4.653  13.728 -0.1013  0.1024  0.0140
   58MPD2    H7  912   4.496   4.722  13.686  1.5493 -2.3775 -1.7098
   59TMC2    C1  913   2.823   0.060  12.655  0.2215 -0.6511  0.2809
   59TMC2    C2  914   2.732   4.718  12.579  0.1934 -0.4886  0.4336
   59TMC2    C3  915   2.762   4.699  12.451 -0.1930  0.7361 -0.0605
   59TMC2    C4  916   2.937   0.121  12.598 -0.5831  0.4602  0.2092
   59TMC2    C5  917   2.947   0.110  12.464 -0.3805 -0.4795 -0.1069
   59TMC2    C6  918   2.865   0.033  12.388  0.0211  0.4975  0.1275
   59TMC2     C  919   2.793   0.081  12.796 -0.0522 -0.1931 -0.1989
   59TMC2     O  920   2.686   0.038  12.836  0.2089  0.2335  0.2833
   59TMC2     H  921   2.638   4.684  12.620 -0.5772  2.2563  0.9556
   59TMC2    H1  922   3.011   0.177  12.653 -0.3947  0.2671  0.1535
   59TMC2    H2  923   2.892   0.033  12.283 -0.6784  0.6260 -0.0498
   59TMC2    C7  924   3.045   0.189  12.390  0.8494  0.2781  0.4034
   59TMC2    C8  925   2.670   4.614  12.376 -0.0658  1.1477 -0.3687
   59TMC2    O1  926   3.135   0.134  12.328 -0.1295 -0.3262  0.5691
   59TMC2    O2  927   2.569   4.568  12.425  0.3873 -0.3238  0.1950
   59TMC2    O5  928   2.742   4.560  12.274 -0.0522  0.1659 -0.3623
   59TMC2    H5  929   2.839   4.572  12.276  0.1035 -1.0021 -0.8345
   60MPD2     C  930   2.748   0.227  13.052  0.4238  0.3451 -0.0962
   60MPD2    C1  931   2.874   0.214  13.000  0.1267 -0.1244  0.3734
   60MPD2    C2  932   2.982   0.265  13.074  0.0107 -0.4162  0.6570
   60MPD2    C3  933   2.965   0.321  13.198 -0.8520 -0.2715  0.8220
   60MPD2    C4  934   2.841   0.318  13.255 -0.0706 -0.2427  0.4814
   60MPD2    C5  935   2.734   0.285  13.176 -0.5698 -0.4917 -0.2223
   60MPD2     H  936   3.077   0.255  13.023 -1.2059 -0.3473 -1.6600
   60MPD2    H1  937   2.815   0.365  13.349 -1.9916 -0.8301  0.2543
   60MPD2    H2  938   2.659   0.210  12.991  1.2850 -2.1959 -0.6402
   60MPD2    H3  939   2.641   0.303  13.229 -0.0461  0.1558  0.4789
   60MPD2     N  940   3.068   0.375  13.279 -0.6081 -0.1536  0.2171
   60MPD2    H5  941   3.055   0.385  13.379 -0.6227  1.8079  0.0172
   60MPD2    N1  942   2.893   0.156  12.868  0.2846  0.4332  0.0674
   60MPD2    H7  943   2.987   0.154  12.828  0.2793  2.0588 -0.0271
   61TMC2    C1  944   2.124   2.077  15.695 -0.0069  0.3718 -0.0091
   61TMC2    C2  945   2.012   1.998  15.711  0.6748  0.7049 -0.2657
   61TMC2    C3  946   1.903   2.024  15.637  0.5176 -0.3347  0.3767
   61TMC2    C4  947   2.131   2.166  15.601 -0.4303  0.2149  0.1559
   61TMC2    C5  948   2.013   2.196  15.533  0.1106 -0.0567  0.2208
   61TMC2    C6  949   1.900   2.121  15.546 -0.2367  0.0032 -0.3029
   61TMC2     C  950   2.245   2.017  15.750 -1.1257  0.1712 -0.6587
   61TMC2     O  951   2.240   1.964  15.858 -0.4106 -0.1761  0.0278
   61TMC2     H  952   2.018   1.904  15.764  0.8835  0.7527 -0.2050
   61TMC2    H1  953   2.224   2.223  15.599  0.1804 -0.8019 -0.3093
   61TMC2    H2  954   1.808   2.132  15.490 -0.3884  1.0127  0.1353
   61TMC2    C7  955   2.009   2.324  15.464  0.7463  0.6110  0.0449
   61TMC2    C8  956   1.775   1.999  15.691 -0.4384  0.6129 -0.1611
   61TMC2    O1  957   2.089   2.407  15.508  0.3902  0.5798  0.6989
   61TMC2    O2  958   1.672   2.018  15.622  0.1244  0.0276 -0.4671
   61TMC2    O5  959   1.783   2.021  15.824 -0.1784  0.4903  0.5854
   61TMC2    H5  960   1.869   2.016  15.871 -0.7846 -0.8494  1.5513
   62MPD2     C  961   2.522   1.892  15.741  0.0559  0.4307 -0.8604
   62MPD2    C1  962   2.461   1.963  15.639  0.4581  0.4222 -0.4113
   62MPD2    C2  963   2.502   1.957  15.508  0.0782 -0.7929  0.0942
   62MPD2    C3  964   2.620   1.891  15.482 -0.3975 -0.5308 -0.6822
   62MPD2    C4  965   2.693   1.839  15.585 -0.0474  0.0708 -0.2425
   62MPD2    C5  966   2.638   1.825  15.712  0.0966 -0.3684  0.2328
   62MPD2     H  967   2.465   2.024  15.432  0.9489 -0.1524  0.2229
   62MPD2    H1  968   2.785   1.790  15.555 -0.3027 -0.8746  0.5101
   62MPD2    H2  969   2.485   1.879  15.842 -0.6247  1.4305 -0.9908
   62MPD2    H3  970   2.686   1.765  15.789  0.7679  0.3283  0.3657
   62MPD2     N  971   2.682   1.888  15.352  0.1339  0.2505  0.4941
   62MPD2    H5  972   2.776   1.852  15.341 -1.2994 -3.6878  1.3855
   62MPD2    N1  973   2.328   2.017  15.640  0.0411  0.0971 -0.0306
   62MPD2    H7  974   2.292   2.048  15.550 -0.8260 -0.5786  0.0839
   63TMC2    C1  975   1.659   1.940  10.300  0.3620  1.2501  0.0249
   63TMC2    C2  976   1.752   1.930  10.404 -0.7130 -0.0291  0.3246
   63TMC2    C3  977   1.863   2.005  10.395  0.6236  0.3570 -0.1526
   63TMC2    C4  978   1.686   2.021  10.196  0.6078 -0.5803 -0.2799
   63TMC2    C5  979   1.798   2.098  10.197 -0.4037  0.4003 -0.4572
   63TMC2    C6  980   1.885   2.097  10.298 -0.7532  0.2273  0.0591
   63TMC2     C  981   1.526   1.876  10.307 -0.7580 -0.2143 -0.4989
   63TMC2     O  982   1.443   1.925  10.233 -0.0291 -0.3611  0.1406
   63TMC2     H  983   1.743   1.869  10.494  1.4831  0.1033  0.6391
   63TMC2    H1  984   1.627   2.008  10.107 -1.0898 -0.6908  0.8618
   63TMC2    H2  985   1.980   2.150  10.292  0.5338 -2.0781 -0.1489
   63TMC2    C7  986   1.801   2.209  10.091 -0.5652  0.4705  0.4542
   63TMC2    C8  987   1.984   1.979  10.472 -0.6348  0.4965 -0.5245
   63TMC2    O1  988   1.714   2.210  10.003  0.1896  0.3317  0.4478
   63TMC2    O2  989   2.094   1.978  10.419  0.1124  0.0556  0.2209
   63TMC2    O5  990   1.957   1.948  10.601 -0.2780  0.3050 -0.0199
   63TMC2    H5  991   1.862   1.971  10.612 -0.4243  0.1083 -0.9293
   64MPD2     C  992   1.237   1.457  10.354 -0.3474  0.1318  0.6129
   64MPD2    C1  993   1.367   1.420  10.394 -0.1605 -0.2793  0.5727
   64MPD2    C2  994   1.455   1.527  10.395  0.5599  0.5066 -0.1501
   64MPD2    C3  995   1.425   1.656  10.349  0.3860  0.9370  0.1829
   64MPD2    C4  996   1.306   1.681  10.301  0.3903 -0.5552 -0.8339
   64MPD2    C5  997   1.211   1.583  10.307 -0.3132 -0.5260  0.1587
   64MPD2     H  998   1.555   1.514  10.434  0.3945  0.9764  0.4320
   64MPD2    H1  999   1.286   1.767  10.237  0.4663  1.0903  1.3323
   64MPD2    H2 1000   1.157   1.384  10.352 -0.4605  0.2822 -0.1638
   64MPD2    H3 1001   1.115   1.590  10.257  0.3388  1.8367 -0.7377
   64MPD2     N 1002   1.530   1.748  10.353  0.5580 -0.5683 -0.0637
   64MPD2    H5 1003   1.616   1.719  10.400  0.1627 -1.0735  0.3547
   64MPD2    N1 1004   1.415   1.292  10.434 -1.3236  0.3586 -0.3180
   64MPD2    H7 1005   1.515   1.280  10.445 -1.5643  1.4857  3.0499
   65TMC2    C1 1006   1.349   1.822  15.727  0.1065 -0.4122  0.5082
   65TMC2    C2 1007   1.301   1.700  15.701 -0.9345 -0.1308  0.0172
   65TMC2    C3 1008   1.255   1.676  15.578  0.5088  0.4683  0.4668
   65TMC2    C4 1009   1.358   1.925  15.635  0.4673  0.5089  0.0522
   65TMC2    C5 1010   1.330   1.887  15.509 -1.1104  0.6638  0.1957
   65TMC2    C6 1011   1.264   1.770  15.475  0.2830 -0.2173  0.6739
   65TMC2     C 1012   1.452   1.816  15.830  0.4837  0.8008  0.2360
   65TMC2     O 1013   1.454   1.903  15.916 -0.0149  0.5780 -0.1492
   65TMC2     H 1014   1.296   1.621  15.775  1.3539  1.6402  2.0706
   65TMC2    H1 1015   1.431   2.000  15.661  1.9050 -0.9127  0.1270
   65TMC2    H2 1016   1.240   1.746  15.372  0.0213  0.4024  0.5896
   65TMC2    C7 1017   1.345   1.984  15.403  0.4151 -0.1008  0.4108
   65TMC2    C8 1018   1.245   1.532  15.547 -1.0056  0.0080  0.6157
   65TMC2    O1 1019   1.280   1.970  15.300 -0.2365  0.1547  0.1174
   65TMC2    O2 1020   1.191   1.448  15.621 -0.1678  0.4016  0.5708
   65TMC2    O5 1021   1.307   1.508  15.433 -0.3509 -0.0622  0.8718
   65TMC2    H5 1022   1.353   1.591  15.407  0.4852 -0.0460  2.3903
   66MPD2     C 1023   1.710   1.753  15.977 -0.2490  0.4470  0.0318
   66MPD2    C1 1024   1.678   1.714  15.848  1.4983  0.4417 -0.5446
   66MPD2    C2 1025   1.769   1.641  15.770  0.2461  0.2311 -0.1649
   66MPD2    C3 1026   1.888   1.607  15.828 -0.1678  0.2012  0.3279
   66MPD2    C4 1027   1.921   1.645  15.961  0.5743  0.4622 -0.6659
   66MPD2    C5 1028   1.833   1.726  16.030 -0.5164  0.6770  0.2320
   66MPD2     H 1029   1.738   1.625  15.667  1.3054 -0.4987 -0.3753
   66MPD2    H1 1030   2.008   1.612  16.017 -0.9048  1.3604  2.1729
   66MPD2    H2 1031   1.641   1.811  16.037  1.0297 -0.8080  2.7065
   66MPD2    H3 1032   1.853   1.755  16.132  0.0341 -1.0778  0.6272
   66MPD2     N 1033   1.987   1.527  15.763 -0.0716  0.7211 -0.3821
   66MPD2    H5 1034   2.065   1.496  15.821 -1.1323  0.9712  1.1901
   66MPD2    N1 1035   1.555   1.734  15.788  0.7171 -0.3134 -0.2262
   66MPD2    H7 1036   1.549   1.705  15.691 -0.1488  0.1456 -0.3102
   67TMC2    C1 1037   2.820   0.975  14.407 -0.1745 -0.1906 -0.1318
   67TMC2    C2 1038   2.792   1.109  14.414 -0.5501  1.1023 -0.7198
   67TMC2    C3 1039   2.811   1.172  14.539  0.0851 -0.5513  0.7715
   67TMC2    C4 1040   2.852   0.906  14.517 -0.0230  0.6238 -0.6052
   67TMC2    C5 1041   2.860   0.970  14.642  0.1924 -0.4653  0.1985
   67TMC2    C6 1042   2.845   1.102  14.649  0.1060  0.2320  0.8453
   67TMC2     C 1043   2.816   0.901  14.280 -0.0700  0.5125  0.2291
   67TMC2     O 1044   2.873   0.792  14.280  0.0753 -0.0490 -0.3940
   67TMC2     H 1045   2.794   1.170  14.324 -0.7311  0.5580 -1.0938
   67TMC2    H1 1046   2.878   0.801  14.509 -0.1971  0.4642  0.9265
   67TMC2    H2 1047   2.852   1.159  14.741 -2.0201  0.0296  1.1193
   67TMC2    C7 1048   2.912   0.897  14.753 -0.1081  0.8818 -0.1266
   67TMC2    C8 1049   2.798   1.318  14.551  0.5850 -1.1994  0.6445
   67TMC2    O1 1050   2.986   0.802  14.733 -0.3122 -0.0596 -0.5062
   67TMC2    O2 1051   2.819   1.378  14.655  0.0028  0.5097  0.7880
   67TMC2    O5 1052   2.692   1.348  14.474 -0.4759 -0.6718 -0.2863
   67TMC2    H5 1053   2.719   1.344  14.380  0.3783  0.9266 -0.0980
   68MPD2     C 1054   2.717   0.773  14.030 -0.1249 -0.5496 -0.9601
   68MPD2    C1 1055   2.660   0.893  14.086 -0.7948  0.0922  0.1702
   68MPD2    C2 1056   2.560   0.961  14.011 -0.5810  0.5385 -0.3015
   68MPD2    C3 1057   2.513   0.911  13.891 -0.1592 -0.8828  0.0348
   68MPD2    C4 1058   2.556   0.785  13.853  0.5675 -0.6878 -0.4392
   68MPD2    C5 1059   2.660   0.719  13.918 -0.4864  0.0010 -0.7483
   68MPD2     H 1060   2.538   1.063  14.039  1.1915  0.7137  0.4321
   68MPD2    H1 1061   2.510   0.740  13.766 -0.0196  0.5503 -0.7575
   68MPD2    H2 1062   2.812   0.732  14.061  0.6780  2.5828  0.7595
   68MPD2    H3 1063   2.689   0.621  13.881  1.0328  0.4729 -0.7896
   68MPD2     N 1064   2.414   0.976  13.813  0.6010 -0.3782  0.1613
   68MPD2    H5 1065   2.403   0.924  13.727  0.6566  1.3097 -0.8477
   68MPD2    N1 1066   2.710   0.951  14.203  0.0215 -0.4245 -0.2859
   68MPD2    H7 1067   2.664   1.038  14.230  0.4252 -0.2415 -0.1878
   69TMC2    C1 1068   0.738   1.756  12.484  0.6228 -0.4601 -0.4168
   69TMC2    C2 1069   0.605   1.787  12.506  0.1675 -0.0869  0.0943
   69TMC2    C3 1070   0.520   1.756  12.404 -0.3500  0.6229 -0.8912
   69TMC2    C4 1071   0.780   1.698  12.371  0.3620  0.7415  0.2621
   69TMC2    C5 1072   0.692   1.674  12.274 -0.3558  0.2654 -0.2165
   69TMC2    C6 1073   0.564   1.701  12.289  0.3789  0.5914 -0.3344
   69TMC2     C 1074   0.820   1.761  12.601  0.1221  0.3114  0.2685
   69TMC2     O 1075   0.761   1.769  12.711 -0.1645 -0.6349  0.4483
   69TMC2     H 1076   0.578   1.852  12.589  1.2857 -1.9654  1.9265
   69TMC2    H1 1077   0.879   1.657  12.359 -0.2342 -1.3404  2.4895
   69TMC2    H2 1078   0.489   1.665  12.219 -2.7630  0.3979  3.1266
   69TMC2    C7 1079   0.741   1.604  12.157  0.0557 -0.6047 -0.0687
   69TMC2    C8 1080   0.379   1.770  12.429  0.0434 -0.0263 -0.0694
   69TMC2    O1 1081   0.841   1.533  12.171 -0.3781 -0.0179 -0.3333
   69TMC2    O2 1082   0.290   1.698  12.384  0.4651  0.5642 -0.2279
   69TMC2    O5 1083   0.358   1.869  12.517 -0.5757  0.1941 -0.5667
   69TMC2    H5 1084   0.443   1.919  12.518 -1.5322  1.8699 -2.9339
   70MPD2     C 1085   1.182   1.714  12.614 -0.2299  0.2521  0.4827
   70MPD2    C1 1086   1.052   1.730  12.664 -0.8252 -0.4646 -0.1902
   70MPD2    C2 1087   1.033   1.744  12.802 -0.3973 -0.0797  0.0354
   70MPD2    C3 1088   1.140   1.728  12.888  0.0475 -0.2267  0.0549
   70MPD2    C4 1089   1.264   1.710  12.839  0.0407 -0.0193 -0.7530
   70MPD2    C5 1090   1.285   1.696  12.702 -0.3483 -1.3150 -0.8054
   70MPD2     H 1091   0.933   1.738  12.843  0.5368 -0.1589  2.3428
   70MPD2    H1 1092   1.355   1.709  12.899  0.4044 -0.0503 -1.3011
   70MPD2    H2 1093   1.200   1.685  12.511 -0.5447 -1.4622  0.9156
   70MPD2    H3 1094   1.384   1.669  12.666 -0.2507 -0.9802 -0.7915
   70MPD2     N 1095   1.126   1.713  13.025  0.4339 -0.0685 -0.4770
   70MPD2    H5 1096   1.207   1.675  13.073 -1.3374 -3.7224 -0.3373
   70MPD2    N1 1097   0.952   1.740  12.572 -0.3204  0.0004 -0.1351
   70MPD2    H7 1098   0.977   1.760  12.476 -0.4071 -0.2975 -0.2186
   71TMC2    C1 1099   1.776   1.413   1.687  0.1528 -0.4169  0.3838
   71TMC2    C2 1100   1.855   1.335   1.769  0.3221  0.3449  0.2611
   71TMC2    C3 1101   1.806   1.209   1.798  0.0252 -0.5904  0.2223
   71TMC2    C4 1102   1.664   1.367   1.622  0.1720  0.8007 -0.0680
   71TMC2    C5 1103   1.628   1.244   1.652 -0.1533  0.7653 -0.2881
   71TMC2    C6 1104   1.700   1.159   1.729  0.4120  0.7421 -0.3494
   71TMC2     C 1105   1.805   1.552   1.668 -0.0979  0.3411 -1.0677
   71TMC2     O 1106   1.774   1.600   1.559  0.1379  0.0909  0.0714
   71TMC2     H 1107   1.940   1.379   1.821 -0.0339  2.2460 -0.7662
   71TMC2    H1 1108   1.611   1.439   1.561  0.4190  1.8320  0.9398
   71TMC2    H2 1109   1.667   1.056   1.731 -1.5862  1.3646 -0.5943
   71TMC2    C7 1110   1.538   1.193   1.552 -0.2557 -0.6532  0.1950
   71TMC2    C8 1111   1.881   1.126   1.889 -0.0262 -0.1124 -0.5108
   71TMC2    O1 1112   1.542   1.077   1.518 -0.3327 -0.0939 -0.0209
   71TMC2    O2 1113   1.884   1.005   1.881 -0.6966 -0.0258  0.1409
   71TMC2    O5 1114   1.917   1.201   2.000 -0.6734 -0.4167 -0.3764
   71TMC2    H5 1115   1.882   1.292   2.004 -1.0076 -0.5425 -0.4133
   72MPD2     C 1116   1.945   2.009   1.866 -0.0873  0.2651 -0.2827
   72MPD2    C1 1117   1.924   1.965   1.731 -0.2850  0.1618 -0.2359
   72MPD2    C2 1118   1.882   1.836   1.706 -0.4219 -0.8598  0.1980
   72MPD2    C3 1119   1.888   1.743   1.808  0.2534 -0.2622  0.2770
   72MPD2    C4 1120   1.925   1.788   1.940  0.2083 -0.1063  0.2465
   72MPD2    C5 1121   1.948   1.921   1.967 -0.7360 -0.1313  1.0597
   72MPD2     H 1122   1.864   1.802   1.605  0.4575 -1.3342  0.2017
   72MPD2    H1 1123   1.921   1.723   2.027 -0.6069 -2.6520 -1.7125
   72MPD2    H2 1124   1.968   2.111   1.896 -1.6716  0.2142  1.1132
   72MPD2    H3 1125   1.975   1.947   2.069  1.0115  1.2072  0.2611
   72MPD2     N 1126   1.852   1.608   1.789  0.4320 -0.0326 -0.2240
   72MPD2    H5 1127   1.858   1.541   1.865 -0.1179 -0.7569 -0.8129
   72MPD2    N1 1128   1.934   2.058   1.619  0.0514 -0.2803 -0.2966
   72MPD2    H7 1129   1.903   2.016   1.532 -2.2916 -1.5242  1.1370
   73TMC2    C1 1130   1.722   4.370  14.096  0.5228 -0.2804 -0.2507
   73TMC2    C2 1131   1.655   4.443  14.189  0.6332 -0.2346  0.2134
   73TMC2    C3 1132   1.663   4.407  14.322  0.0846 -0.1320 -0.4241
   73TMC2    C4 1133   1.771   4.249  14.135  0.3793  0.0533  0.5643
   73TMC2    C5 1134   1.779   4.209  14.263  0.0818 -0.4922  0.1482
   73TMC2    C6 1135   1.733   4.295  14.360  0.3748  0.7560 -0.0985
   73TMC2     C 1136   1.808   4.436  14.004 -0.8160  0.5986 -0.7387
   73TMC2     O 1137   1.906   4.374  13.969  0.1105 -0.4821  0.1139
   73TMC2     H 1138   1.609   4.537  14.163  0.9825  0.1510  0.9878
   73TMC2    H1 1139   1.801   4.175  14.061  2.2532  0.5620  0.8238
   73TMC2    H2 1140   1.745   4.262  14.463 -2.7911  1.3356  0.4683
   73TMC2    C7 1141   1.912   4.156  14.303  0.3387 -0.4233  0.0384
   73TMC2    C8 1142   1.563   4.478  14.397  0.6211 -0.1293  0.0236
   73TMC2    O1 1143   1.941   4.142  14.420 -0.0309 -0.0802  0.1731
   73TMC2    O2 1144   1.552   4.599  14.395  0.0751  0.1009 -0.2385
   73TMC2    O5 1145   1.525   4.400  14.501 -0.5570 -0.1922 -0.4043
   73TMC2    H5 1146   1.520   4.308  14.469  1.2588 -0.9808  1.5190
   74MPD2     C 1147   1.960   0.065  13.683 -0.4187 -0.5594  0.3016
   74MPD2    C1 1148   2.028   4.721  13.772 -0.7144 -0.6578  0.2027
   74MPD2    C2 1149   1.954   4.644  13.865 -1.2817 -0.2883 -0.0251
   74MPD2    C3 1150   1.818   4.643  13.868  0.0923  0.5043  0.0741
   74MPD2    C4 1151   1.745   0.002  13.782 -0.0147 -0.1317 -0.0471
   74MPD2    C5 1152   1.820   0.072  13.695  0.1526  0.3891 -0.4042
   74MPD2     H 1153   2.002   4.585  13.942 -1.9045 -0.4866  0.2118
   74MPD2    H1 1154   1.638   0.012  13.779 -0.0313  0.7006  2.6574
   74MPD2    H2 1155   2.008   0.121  13.605 -1.0639 -1.5285 -0.7870
   74MPD2    H3 1156   1.762   0.131  13.625 -0.3571  0.3410 -0.0170
   74MPD2     N 1157   1.747   4.554  13.952 -0.2765 -0.0494 -0.3080
   74MPD2    H5 1158   1.651   4.576  13.974 -0.6248  0.9194 -2.7603
   74MPD2    N1 1159   2.170   4.722  13.759 -0.0304 -0.3092 -0.1416
   74MPD2    H7 1160   2.213   0.054  13.695  0.4571  1.2952  1.8676
   75TMC2    C1 1161   2.275   1.146  13.744 -0.2655  0.3225 -0.8034
   75TMC2    C2 1162   2.248   1.285  13.763  0.6117  0.2023 -0.7243
   75TMC2    C3 1163   2.189   1.350  13.662  0.6396 -0.0924  0.3439
   75TMC2    C4 1164   2.248   1.081  13.624  0.3809  0.2717 -0.5761
   75TMC2    C5 1165   2.179   1.153  13.532  0.2609 -0.5501  0.2154
   75TMC2    C6 1166   2.150   1.289  13.548  0.3786 -0.2673 -0.1565
   75TMC2     C 1167   2.341   1.082  13.855 -0.4465  0.0460 -0.4539
   75TMC2     O 1168   2.341   1.143  13.963  1.2863 -0.2120 -0.2476
   75TMC2     H 1169   2.282   1.336  13.852 -1.9529  0.5263  0.0608
   75TMC2    H1 1170   2.270   0.976  13.606  1.8484  0.7916 -1.7990
   75TMC2    H2 1171   2.073   1.327  13.482 -0.0760 -1.8575 -0.5349
   75TMC2    C7 1172   2.123   1.085  13.416 -0.3411  0.4255 -0.4044
   75TMC2    C8 1173   2.169   1.496  13.656 -0.7577 -0.6033  0.0105
   75TMC2    O1 1174   2.087   0.965  13.431  0.2446 -0.2707  0.7939
   75TMC2    O2 1175   2.152   1.562  13.553 -0.6038  0.0926  0.1835
   75TMC2    O5 1176   2.191   1.556  13.769 -0.7670  0.2547 -0.3543
   75TMC2    H5 1177   2.205   1.501  13.849  1.2111  0.9094 -0.2434
   76TMC2    C1 1178   1.587   0.741  12.282  0.1494 -0.4840 -0.5580
   76TMC2    C2 1179   1.470   0.698  12.353 -0.6300 -0.8088  0.2675
   76TMC2    C3 1180   1.491   0.602  12.444  0.1957 -0.0087  0.5936
   76TMC2    C4 1181   1.707   0.689  12.308 -0.0056  0.1862  0.0949
   76TMC2    C5 1182   1.720   0.589  12.397 -0.1147 -0.7186  0.7019
   76TMC2    C6 1183   1.613   0.546  12.476 -0.6983 -0.6978 -0.1262
   76TMC2     C 1184   1.563   0.807  12.154  0.0370  0.4410  0.5050
   76TMC2     O 1185   1.462   0.872  12.150 -0.1828  0.2548  0.2155
   76TMC2     H 1186   1.375   0.739  12.319 -0.4683 -2.1856 -1.8101
   76TMC2    H1 1187   1.798   0.726  12.261  0.2615  0.5819  0.9162
   76TMC2    H2 1188   1.637   0.483  12.561  1.5374 -1.4601 -1.3066
   76TMC2    C7 1189   1.850   0.569  12.453  0.0640 -0.1539 -0.2663
   76TMC2    C8 1190   1.376   0.548  12.502 -0.8897 -0.0036 -0.2808
   76TMC2    O1 1191   1.884   0.453  12.477 -0.4367  0.0013  0.4081
   76TMC2    O2 1192   1.268   0.609  12.499 -0.4898  0.4676  0.6974
   76TMC2    O5 1193   1.403   0.413  12.508 -0.4217 -0.0680  0.2624
   76TMC2    H5 1194   1.497   0.388  12.497  0.2398  1.6430  1.9244
   77MPD2     C 1195   1.647   0.962  11.680 -0.2076  0.1753 -0.0926
   77MPD2    C1 1196   1.541   0.990  11.766 -0.3164 -0.6343 -0.4151
   77MPD2    C2 1197   1.547   0.939  11.894 -0.5889  0.3143 -0.2123
   77MPD2    C3 1198   1.652   0.855  11.934 -0.3130  0.0125 -0.2735
   77MPD2    C4 1199   1.754   0.838  11.849  0.2339 -1.1149 -0.6993
   77MPD2    C5 1200   1.754   0.878  11.720 -0.6342 -0.2015  0.0903
   77MPD2     H 1201   1.463   0.956  11.960  0.1413  1.4659  0.4205
   77MPD2    H1 1202   1.840   0.778  11.879  0.8768  0.8015  1.2202
   77MPD2    H2 1203   1.654   0.997  11.577 -0.1524  1.0616  0.2140
   77MPD2    H3 1204   1.844   0.855  11.664 -0.1591  1.0541  0.3240
   77MPD2     N 1205   1.656   0.789  12.062  0.2141 -0.3645  0.2935
   77MPD2    H5 1206   1.732   0.726  12.087  0.9087 -0.4038 -1.8694
   77MPD2    N1 1207   1.430   1.071  11.728 -0.1284 -0.7267 -0.3068
   77MPD2    H7 1208   1.346   1.068  11.786  0.4269 -1.4966  0.4593
   78TMC2    C1 1209   2.490   2.430   1.813 -0.8727 -0.3526 -0.5858
   78TMC2    C2 1210   2.431   2.346   1.723  0.0277 -0.4072  0.5116
   78TMC2    C3 1211   2.522   2.257   1.664 -1.0107 -0.0467  0.0008
   78TMC2    C4 1212   2.625   2.439   1.831 -0.1702  0.5327  0.0574
   78TMC2    C5 1213   2.704   2.364   1.760 -0.3711  0.0529 -0.7925
   78TMC2    C6 1214   2.659   2.271   1.678  0.3815  0.3883  0.9610
   78TMC2     C 1215   2.403   2.534   1.869 -0.5285 -0.0866  0.5400
   78TMC2     O 1216   2.457   2.623   1.939 -0.3701 -0.5800 -0.0535
   78TMC2     H 1217   2.338   2.365   1.670 -0.3372 -1.3256  0.8191
   78TMC2    H1 1218   2.664   2.517   1.896  0.1179  1.1834 -0.9139
   78TMC2    H2 1219   2.726   2.218   1.612 -0.6837  0.3809 -0.1261
   78TMC2    C7 1220   2.842   2.390   1.756  0.4464 -0.2354  0.6728
   78TMC2    C8 1221   2.477   2.152   1.572 -0.8866  0.0088  0.4184
   78TMC2    O1 1222   2.912   2.342   1.666  0.4258 -0.5709  0.1602
   78TMC2    O2 1223   2.531   2.108   1.470 -0.0003  0.0934 -0.4659
   78TMC2    O5 1224   2.349   2.119   1.611  0.3048 -0.3286  0.0137
   78TMC2    H5 1225   2.318   2.149   1.699  1.4976  2.9451 -0.6974
   79MPD1     C 1226   1.932   2.736   1.995 -0.0265  0.6100  0.4688
   79MPD1    C1 1227   2.059   2.794   1.987  0.3524  0.2129 -0.3568
   79MPD1    C2 1228   2.165   2.716   1.949 -0.0899 -0.3255  0.0229
   79MPD1    C3 1229   2.161   2.583   1.908 -0.4957  0.9503  0.1092
   79MPD1    C4 1230   2.030   2.538   1.901  0.5231 -0.0244  0.8505
   79MPD1    C5 1231   1.921   2.611   1.949 -0.0897 -0.1477  0.2637
   79MPD1     H 1232   2.263   2.759   1.964  0.1394 -0.5446 -0.8572
   79MPD1    H1 1233   2.007   2.439   1.863  0.8142  0.0990  0.3492
   79MPD1    H2 1234   1.845   2.787   2.035 -1.1287 -1.4367  0.6735
   79MPD1    H3 1235   1.821   2.569   1.953  0.2419 -0.9598 -0.0362
   79MPD1     N 1236   2.268   2.499   1.873 -0.1945 -0.3754  1.3157
   79MPD1    H5 1237   2.234   2.408   1.846 -0.0636 -0.3032  0.9034
   79MPD1    N1 1238   2.087   2.920   2.042  0.5099  0.5483  0.3716
   79MPD1    H6 1239   2.165   2.967   1.996  1.1265  0.4978  1.3572
   79MPD1    H7 1240   2.008   2.984   2.036  0.4468  0.5050  0.7752
   80TMC2    C1 1241   4.699   0.488  12.337  0.5748  0.9483  0.2862
   80TMC2    C2 1242   4.709   0.456  12.209  0.0094  0.5576 -0.3069
   80TMC2    C3 1243   4.611   0.371  12.159 -0.5985 -0.3754  0.1781
   80TMC2    C4 1244   4.589   0.459  12.414  0.9347 -0.0058  0.0874
   80TMC2    C5 1245   4.492   0.379  12.359 -0.1547 -0.1068 -0.6588
   80TMC2    C6 1246   4.502   0.334  12.234 -0.0356 -0.8649 -0.5360
   80TMC2     C 1247   0.047   0.600  12.388 -0.9196 -0.4754  0.0442
   80TMC2     O 1248   4.723   0.680  12.460 -0.2902 -0.1141 -0.0909
   80TMC2     H 1249   0.058   0.494  12.151  0.2959  1.4106  0.6628
   80TMC2    H1 1250   4.581   0.501  12.514  1.0570  0.3991 -0.0733
   80TMC2    H2 1251   4.419   0.271  12.201 -1.6759  1.3189 -0.5747
   80TMC2    C7 1252   4.395   0.324  12.452 -0.1487  0.2734 -0.2824
   80TMC2    C8 1253   4.612   0.362  12.021  0.0841 -0.7906  0.3452
   80TMC2    O1 1254   4.292   0.280  12.400  0.3386 -0.7468  0.5834
   80TMC2    O2 1255   4.560   0.272  11.956  0.5306 -0.5522 -0.0059
   80TMC2    O5 1256   4.630   0.486  11.970  0.2053 -0.0534 -0.0859
   80TMC2    H5 1257   4.651   0.560  12.030 -0.3566  0.6555 -0.7690
   81MPD2     C 1258   0.409   0.636  12.370 -0.4422  0.9987  0.0886
   81MPD2    C1 1259   0.285   0.674  12.397 -0.4011  0.3188 -0.2720
   81MPD2    C2 1260   0.255   0.793  12.461  0.4319 -0.4392 -0.5680
   81MPD2    C3 1261   0.361   0.865  12.519 -0.4488  0.1750 -0.7030
   81MPD2    C4 1262   0.484   0.803  12.527 -0.3051  0.4264 -0.0811
   81MPD2    C5 1263   0.500   0.693  12.448 -0.2241 -0.1719  0.7422
   81MPD2     H 1264   0.156   0.833  12.479  0.4008 -0.4088 -0.7994
   81MPD2    H1 1265   0.564   0.845  12.587 -0.2047 -0.3839  0.3530
   81MPD2    H2 1266   0.427   0.542  12.318  0.7671  1.3057 -0.0332
   81MPD2    H3 1267   0.601   0.654  12.449  0.7100  2.1953 -0.9858
   81MPD2     N 1268   0.327   0.977  12.604  0.2306  0.4503 -0.7439
   81MPD2    H5 1269   0.399   1.025  12.657  0.3283  0.6904 -1.0945
   81MPD2    N1 1270   0.181   0.588  12.350  0.1895 -0.6595  0.2899
   81MPD2    H7 1271   0.214   0.503  12.305 -1.6219 -0.6220 -1.1347
   82TMC2    C1 1272   3.144   0.394  11.170  0.4091  0.1433 -0.3447
   82TMC2    C2 1273   3.229   0.484  11.231  0.3002  0.0952  0.2720
   82TMC2    C3 1274   3.330   0.440  11.307  0.5123  0.3288  0.5357
   82TMC2    C4 1275   3.182   0.263  11.163 -0.5998 -0.4363 -0.4054
   82TMC2    C5 1276   3.290   0.225  11.233  0.0645  0.0426 -0.6430
   82TMC2    C6 1277   3.365   0.312  11.311 -0.4200  0.0290  0.0573
   82TMC2     C 1278   3.045   0.437  11.076  0.3306  0.7001 -0.6556
   82TMC2     O 1279   3.026   0.556  11.057  0.0873  0.6249 -0.1625
   82TMC2     H 1280   3.205   0.589  11.223  1.2561  0.3232  0.4574
   82TMC2    H1 1281   3.134   0.189  11.100  0.7121 -0.0179 -1.8911
   82TMC2    H2 1282   3.453   0.280  11.366 -1.1688  0.9360  1.7963
   82TMC2    C7 1283   3.325   0.083  11.241  0.2103 -0.8822  0.1587
   82TMC2    C8 1284   3.369   0.531  11.408 -0.3703 -0.0986 -0.2359
   82TMC2    O1 1285   3.368   0.032  11.348 -0.3888 -0.1794 -0.2321
   82TMC2    O2 1286   3.469   0.505  11.474  0.1110  0.1953  0.0072
   82TMC2    O5 1287   3.248   0.551  11.468  0.1586 -0.0692 -0.7232
   82TMC2    H5 1288   3.169   0.553  11.410 -0.0880 -1.0258 -0.4241
   83MPD2     C 1289   2.710   0.304  10.712 -0.0609 -0.7285 -0.1252
   83MPD2    C1 1290   2.781   0.424  10.728  0.3632 -0.0032 -0.3614
   83MPD2    C2 1291   2.853   0.443  10.838 -0.5111  0.1069 -0.1454
   83MPD2    C3 1292   2.860   0.338  10.937 -0.1299  1.1124  0.3078
   83MPD2    C4 1293   2.787   0.227  10.918 -0.1098  0.0377  0.2053
   83MPD2    C5 1294   2.717   0.205  10.802  0.0031  0.0752  0.3492
   83MPD2     H 1295   2.914   0.531  10.854  0.5258 -0.2786 -2.0601
   83MPD2    H1 1296   2.795   0.141  10.985 -0.2864 -0.2419 -0.1328
   83MPD2    H2 1297   2.641   0.279  10.632  1.8978 -0.4037 -1.9029
   83MPD2    H3 1298   2.665   0.111  10.787 -1.4745  0.7809  1.0375
   83MPD2     N 1299   2.952   0.340  11.047  0.3577  0.8758  0.1003
   83MPD2    H5 1300   2.941   0.265  11.115  1.8259 -0.6613 -1.3606
   83MPD2    N1 1301   2.772   0.520  10.621  0.0109 -0.1692  0.5964
   83MPD2    H7 1302   2.729   0.485  10.536 -2.3534  2.7208  0.6051
   84TMC2    C1 1303   4.549   4.664  10.783 -0.4455 -0.1911 -0.2157
   84TMC2    C2 1304   4.545   0.028  10.690  0.3036 -0.1084  0.3039
   84TMC2    C3 1305   4.561   4.731  10.554  0.9220  0.7906 -0.1563
   84TMC2    C4 1306   4.572   4.532  10.750  0.1002  0.5991 -0.0727
   84TMC2    C5 1307   4.598   4.511  10.614  0.1565  0.1334 -0.1329
   84TMC2    C6 1308   4.595   4.603  10.516 -0.4770  0.3786  0.0249
   84TMC2     C 1309   4.495   4.686  10.909 -0.3670 -0.2697 -0.1923
   84TMC2     O 1310   4.455   0.064  10.943  0.0066 -0.2698  0.3939
   84TMC2     H 1311   4.513   0.128  10.717 -3.0777 -0.4757 -2.3700
   84TMC2    H1 1312   4.563   4.441  10.809 -0.7451  0.8685  0.2188
   84TMC2    H2 1313   4.625   4.568  10.418 -2.8220  0.2740 -0.6483
   84TMC2    C7 1314   4.610   4.373  10.573  0.3426  0.5139 -0.0611
   84TMC2    C8 1315   4.565   0.102  10.450 -0.4796 -0.5450 -0.1443
   84TMC2    O1 1316   4.664   4.300  10.652  0.2715 -0.1386  0.3083
   84TMC2    O2 1317   4.579   0.225  10.479  0.3807 -0.1901  0.2510
   84TMC2    O5 1318   4.490   0.055  10.343 -0.1426 -0.0778 -0.1405
   84TMC2    H5 1319   4.510   4.697  10.316  0.6213 -0.1503  0.6920
   85TMC2    C1 1320   0.137   2.584  15.772 -0.2685 -0.4630 -0.3905
   85TMC2    C2 1321   0.090   2.537  15.647 -0.1935 -0.3362  0.2381
   85TMC2    C3 1322   0.136   2.590  15.532  0.4454  0.9402 -0.6937
   85TMC2    C4 1323   0.232   2.678  15.765 -0.4567  0.6813 -0.1566
   85TMC2    C5 1324   0.274   2.733  15.643 -0.6401  0.3041  0.7588
   85TMC2    C6 1325   0.230   2.683  15.521  0.5092 -0.2331  0.6850
   85TMC2     C 1326   0.148   2.482  15.876  0.4290  0.4212 -0.1450
   85TMC2     O 1327   0.258   2.461  15.931  0.2507  0.5090 -0.5625
   85TMC2     H 1328   0.015   2.458  15.649 -0.2137 -0.3079  0.6801
   85TMC2    H1 1329   0.288   2.707  15.853  0.2359  1.8309 -0.9683
   85TMC2    H2 1330   0.263   2.716  15.423 -1.3637 -1.5666 -0.4140
   85TMC2    C7 1331   0.368   2.850  15.646  0.1125 -0.1807 -0.2282
   85TMC2    C8 1332   0.087   2.534  15.410 -0.2363  0.0245  0.3198
   85TMC2    O1 1333   0.430   2.882  15.749 -0.3462  0.1470  0.2504
   85TMC2    O2 1334   4.703   2.508  15.391  0.1405  0.5296  0.2311
   85TMC2    O5 1335   0.179   2.436  15.413 -0.0862 -0.5790  0.1485
   85TMC2    H5 1336   0.270   2.473  15.414  0.2626 -1.4162 -0.1379
   86MPD2     C 1337   4.716   2.096  16.162  0.2305 -0.1240  0.0569
   86MPD2    C1 1338   4.611   2.144  16.089 -0.7579  0.4706  0.1358
   86MPD2    C2 1339   4.633   2.249  16.006 -0.3284  0.1788  0.2684
   86MPD2    C3 1340   0.021   2.310  16.002  0.3214 -0.2726  0.0948
   86MPD2    C4 1341   0.123   2.264  16.086  0.0730 -0.8376 -0.2826
   86MPD2    C5 1342   0.102   2.152  16.153 -0.0592  0.4841  0.1674
   86MPD2     H 1343   4.547   2.285  15.951 -0.2173 -2.0314 -1.3175
   86MPD2    H1 1344   0.225   2.299  16.080  0.1132 -0.7741  0.7965
   86MPD2    H2 1345   4.713   2.010  16.228 -1.2457 -0.8291 -0.9309
   86MPD2    H3 1346   0.179   2.117  16.220  0.2101  0.9681  0.1140
   86MPD2     N 1347   0.033   2.422  15.915  0.1403 -0.3001 -0.1046
   86MPD2    H5 1348   4.686   2.459  15.867 -0.1957 -3.7840 -2.1931
   86MPD2    N1 1349   4.485   2.080  16.072 -0.3621  0.2114 -0.0766
   86MPD2    H7 1350   4.426   2.111  15.996 -1.9226  0.8364  1.3833
   87TMC2    C1 1351   2.433   0.500   1.153  0.0972 -0.2759  0.4406
   87TMC2    C2 1352   2.483   0.411   1.243  0.0986 -0.6579 -0.3627
   87TMC2    C3 1353   2.476   0.453   1.372  0.0833  0.7887  0.0478
   87TMC2    C4 1354   2.381   0.624   1.179  0.4688 -0.1447 -0.6997
   87TMC2    C5 1355   2.385   0.657   1.306  0.0461  0.2186  0.1650
   87TMC2    C6 1356   2.429   0.576   1.408  0.7000  0.1035 -0.0315
   87TMC2     C 1357   2.458   0.462   1.018  0.4393 -0.5620  0.5740
   87TMC2     O 1358   2.535   0.370   1.006  0.0062  0.1659  0.1628
   87TMC2     H 1359   2.522   0.312   1.221  0.1181 -0.5039 -1.0000
   87TMC2    H1 1360   2.336   0.691   1.107  0.7560  0.5164 -0.2692
   87TMC2    H2 1361   2.413   0.591   1.514 -1.1299 -2.3897  0.0523
   87TMC2    C7 1362   2.298   0.767   1.341 -0.0322  0.6527 -0.3314
   87TMC2    C8 1363   2.559   0.385   1.470 -0.3412 -0.0301  0.3755
   87TMC2    O1 1364   2.225   0.816   1.254  0.4030  0.2707  0.8426
   87TMC2    O2 1365   2.521   0.366   1.584 -0.2339  0.1511 -0.1309
   87TMC2    O5 1366   2.676   0.449   1.452 -0.2280  0.0143  0.2893
   87TMC2    H5 1367   2.669   0.502   1.370  0.0309  0.2144  0.3983
   88MPD2     C 1368   2.314   0.978   1.637  0.3832 -0.1804 -0.2802
   88MPD2    C1 1369   2.259   0.932   1.523 -0.2569  0.0905 -0.2934
   88MPD2    C2 1370   2.145   0.997   1.475  0.2493  0.0684  0.7360
   88MPD2    C3 1371   2.105   1.117   1.529  0.2224 -1.0964 -0.1477
   88MPD2    C4 1372   2.160   1.155   1.645 -0.0749 -0.2751  0.6633
   88MPD2    C5 1373   2.257   1.083   1.701  0.2670 -0.2569 -0.0858
   88MPD2     H 1374   2.102   0.964   1.381 -1.5475  0.7447  1.3284
   88MPD2    H1 1375   2.130   1.249   1.691  0.5977  1.5049 -2.5461
   88MPD2    H2 1376   2.408   0.934   1.668 -0.4531 -0.9495  1.1251
   88MPD2    H3 1377   2.298   1.114   1.797 -1.3417  1.1442  0.1553
   88MPD2     N 1378   2.007   1.197   1.464 -0.1383  0.0927 -0.3821
   88MPD2    H5 1379   2.009   1.298   1.477  0.0352  0.1778 -1.0573
   88MPD2    N1 1380   2.325   0.815   1.465  0.3804 -0.5419 -0.0789
   88MPD2    H7 1381   2.403   0.783   1.521 -1.8641 -0.0507  3.3151
   89TMC2    C1 1382   3.257   3.392   1.167  0.4479 -0.2998 -0.8770
   89TMC2    C2 1383   3.201   3.269   1.131 -0.1449  0.4882  0.1956
   89TMC2    C3 1384   3.108   3.264   1.031  0.2511 -0.0793 -0.3537
   89TMC2    C4 1385   3.226   3.505   1.095 -0.5533  0.0690  0.2245
   89TMC2    C5 1386   3.120   3.495   1.007 -0.8908 -0.3338  0.6797
   89TMC2    C6 1387   3.066   3.377   0.971 -0.7359  0.8244 -0.5413
   89TMC2     C 1388   3.334   3.410   1.284  0.5615 -0.1346  0.4513
   89TMC2     O 1389   3.401   3.506   1.296  0.8891 -0.0928 -0.0234
   89TMC2     H 1390   3.222   3.175   1.180  2.2185  0.7493 -0.3185
   89TMC2    H1 1391   3.257   3.601   1.135 -0.8771 -0.6452  2.1944
   89TMC2    H2 1392   2.981   3.367   0.906 -1.8568  0.3440  1.0009
   89TMC2    C7 1393   3.085   3.618   0.939 -1.0525  0.3395 -0.0773
   89TMC2    C8 1394   3.024   3.145   1.029 -0.6430  0.6637  0.2381
   89TMC2    O1 1395   3.170   3.706   0.944 -0.1307  0.1737  0.3947
   89TMC2    O2 1396   3.017   3.060   1.116 -0.0054 -0.0987  0.2111
   89TMC2    O5 1397   3.000   3.120   0.900  0.1979  0.5655  0.2868
   89TMC2    H5 1398   3.050   3.175   0.836 -1.2292  1.7523  0.1729
   90MPD2     C 1399   3.392   3.327   1.797  0.6611  0.1959  0.4806
   90MPD2    C1 1400   3.277   3.275   1.744 -0.3410  0.8480  0.3486
   90MPD2    C2 1401   3.255   3.267   1.609  0.2280 -0.6495 -0.0051
   90MPD2    C3 1402   3.323   3.334   1.516 -0.7516  0.2190 -0.3510
   90MPD2    C4 1403   3.436   3.403   1.565 -0.3770  0.0540 -0.4741
   90MPD2    C5 1404   3.466   3.392   1.699  0.3060 -0.4495 -0.2448
   90MPD2     H 1405   3.167   3.209   1.583  0.3970 -0.5829 -0.7318
   90MPD2    H1 1406   3.490   3.466   1.494 -0.8643 -0.2711 -1.1306
   90MPD2    H2 1407   3.402   3.346   1.903  0.3377  0.3030  0.4913
   90MPD2    H3 1408   3.549   3.454   1.729 -0.2801  0.8453 -1.2900
   90MPD2     N 1409   3.293   3.322   1.382  0.0166  0.9319  0.4139
   90MPD2    H5 1410   3.227   3.251   1.351  2.2588 -1.6329  1.4880
   90MPD2    N1 1411   3.168   3.219   1.818 -0.0539  0.3022  0.1278
   90MPD2    H7 1412   3.085   3.198   1.764  1.3601  1.4755 -2.4999
   91TMC2    C1 1413   0.301   3.723  16.580  0.0340 -0.5114  0.4642
   91TMC2    C2 1414   0.168   3.722  16.631  0.3431  0.7823 -0.0661
   91TMC2    C3 1415   0.068   3.724  16.549 -0.6008  0.0500  0.6460
   91TMC2    C4 1416   0.322   3.739  16.443  0.1722 -0.3061 -0.0066
   91TMC2    C5 1417   0.212   3.740  16.364  0.2945 -0.0266  0.4724
   91TMC2    C6 1418   0.086   3.742  16.418 -0.2388  0.0374  0.6377
   91TMC2     C 1419   0.407   3.678  16.676 -0.4388  0.2262 -0.2649
   91TMC2     O 1420   0.366   3.642  16.787 -0.6189  0.2333  0.0854
   91TMC2     H 1421   0.155   3.709  16.738  0.0575  0.6405 -0.1205
   91TMC2    H1 1422   0.414   3.744  16.386 -0.8545  0.8349 -1.6026
   91TMC2    H2 1423   4.728   3.748  16.360 -0.0068 -0.1201  0.2528
   91TMC2    C7 1424   0.219   3.780  16.220  0.5754  0.2242  0.2050
   91TMC2    C8 1425   4.693   3.810  16.592 -0.2728 -0.7617  0.3793
   91TMC2    O1 1426   0.331   3.812  16.183  0.7012 -1.1040 -0.2045
   91TMC2    O2 1427   4.713   3.929  16.617  0.0096 -0.5638  0.4168
   91TMC2    O5 1428   4.578   3.755  16.539  0.4670  0.0737 -0.4331
   91TMC2    H5 1429   4.577   3.659  16.515 -0.7991 -0.1997  0.7372
   92MPD2     C 1430   0.658   3.589  16.803  0.2881 -0.0023  0.0979
   92MPD2    C1 1431   0.656   3.643  16.683 -0.3790  0.5613  0.1686
   92MPD2    C2 1432   0.773   3.666  16.619 -0.6981 -0.1186  0.2132
   92MPD2    C3 1433   0.897   3.616  16.675  0.5019 -0.7059 -0.5527
   92MPD2    C4 1434   0.893   3.560  16.803  0.0030  1.0359  0.1827
   92MPD2    C5 1435   0.771   3.550  16.856  0.0290 -0.4632  0.0318
   92MPD2     H 1436   0.763   3.706  16.519  1.0458  2.0778  0.9401
   92MPD2    H1 1437   0.981   3.514  16.847 -1.5506 -1.5455  0.5773
   92MPD2    H2 1438   0.569   3.558  16.857 -0.4981 -0.5703 -1.5217
   92MPD2    H3 1439   0.762   3.512  16.957  1.0671  1.7568  0.9753
   92MPD2     N 1440   1.019   3.654  16.614 -0.0644 -0.6759  0.0827
   92MPD2    H5 1441   1.006   3.720  16.538  0.7880  1.0787  1.4683
   92MPD2    N1 1442   0.531   3.682  16.616 -0.1193  0.2374 -0.2340
   92MPD2    H7 1443   0.534   3.709  16.518 -0.8220 -0.5209 -0.4596
   93TMC2    C1 1444   2.399   3.327  13.986 -0.0317  0.2912 -0.8274
   93TMC2    C2 1445   2.402   3.227  13.894  0.0474 -0.5483 -0.1600
   93TMC2    C3 1446   2.516   3.215  13.828 -0.1894 -0.1550 -0.6992
   93TMC2    C4 1447   2.506   3.401  14.021  0.5511 -0.1884 -0.5102
   93TMC2    C5 1448   2.620   3.394  13.949 -1.4970  0.2278  0.1653
   93TMC2    C6 1449   2.625   3.297  13.853 -0.1658  0.0535  0.3756
   93TMC2     C 1450   2.274   3.349  14.052 -0.0110 -0.3656  0.6124
   93TMC2     O 1451   2.263   3.419  14.156  0.2975  0.2112  0.7932
   93TMC2     H 1452   2.326   3.151  13.878 -0.3420 -0.2900  0.4552
   93TMC2    H1 1453   2.492   3.456  14.113  1.7667 -1.5085  0.4701
   93TMC2    H2 1454   2.712   3.267  13.794  0.6495 -3.3099  3.3057
   93TMC2    C7 1455   2.737   3.470  14.001 -0.5324 -0.3181  0.8061
   93TMC2    C8 1456   2.515   3.129  13.718 -0.3854 -0.1401  0.0018
   93TMC2    O1 1457   2.711   3.553  14.089 -0.3365  0.6081  0.3184
   93TMC2    O2 1458   2.463   3.019  13.719 -1.2166  0.4889 -0.2406
   93TMC2    O5 1459   2.540   3.196  13.603 -0.8430 -0.1257  0.3179
   93TMC2    H5 1460   2.579   3.286  13.606 -2.0981  0.3237  2.8712
   94MPD2     C 1461   1.994   3.294  14.143 -0.3506  0.3840 -0.7072
   94MPD2    C1 1462   2.036   3.291  14.014 -0.4903 -0.6440 -0.0659
   94MPD2    C2 1463   1.944   3.246  13.924 -0.0552 -0.5985 -0.5291
   94MPD2    C3 1464   1.817   3.204  13.965 -0.2799 -0.3681 -0.0992
   94MPD2    C4 1465   1.779   3.209  14.093  0.2348  0.2952 -0.1510
   94MPD2    C5 1466   1.865   3.268  14.174 -0.3709 -0.0644  0.4057
   94MPD2     H 1467   1.967   3.229  13.820  0.5555  0.4541 -0.5676
   94MPD2    H1 1468   1.686   3.168  14.131 -0.3927  1.9945  0.1513
   94MPD2    H2 1469   2.068   3.314  14.221 -0.6815 -0.4841 -0.1680
   94MPD2    H3 1470   1.827   3.275  14.275 -0.0696 -0.0429  0.5167
   94MPD2     N 1471   1.727   3.170  13.865  0.6369 -0.1088  0.2039
   94MPD2    H5 1472   1.772   3.188  13.776  0.6897 -0.4251  0.1666
   94MPD2    N1 1473   2.170   3.300  13.977 -0.5239  0.4998 -0.5174
   94MPD2    H7 1474   2.197   3.275  13.882 -0.6202  2.0797 -0.9463
   95TMC2    C1 1475   1.649   0.938  16.405  0.1482  0.8139 -0.2700
   95TMC2    C2 1476   1.630   0.808  16.448 -1.1499  0.2135 -0.4135
   95TMC2    C3 1477   1.602   0.786  16.584 -0.3720 -0.1878  0.6306
   95TMC2    C4 1478   1.649   1.048  16.488  0.2680 -0.4187 -0.0551
   95TMC2    C5 1479   1.621   1.016  16.621 -0.7926  0.3317 -0.9362
   95TMC2    C6 1480   1.595   0.891  16.674 -0.4406 -0.0800 -0.9461
   95TMC2     C 1481   1.681   0.960  16.268  0.4038  0.3654  0.6431
   95TMC2     O 1482   1.775   1.038  16.250 -0.1151  0.0621  0.6583
   95TMC2     H 1483   1.645   0.726  16.378  2.0239  0.3990  0.0584
   95TMC2    H1 1484   1.672   1.150  16.458  1.2213 -0.2289  1.3782
   95TMC2    H2 1485   1.575   0.874  16.779 -0.9235 -1.0306 -1.1941
   95TMC2    C7 1486   1.607   1.126  16.714 -0.0715 -0.3629  0.2681
   95TMC2    C8 1487   1.566   0.650  16.618  0.2120  0.3521 -0.6927
   95TMC2    O1 1488   1.609   1.104  16.836 -0.1794  0.2614 -0.3345
   95TMC2    O2 1489   1.590   0.554  16.546 -0.1053  0.2643 -0.5192
   95TMC2    O5 1490   1.467   0.647  16.712 -0.0730  0.0471 -0.0319
   95TMC2    H5 1491   1.445   0.742  16.727  0.2994 -0.0841  1.3822
   96MPD2     C 1492   1.684   0.779  15.793  0.5141 -0.7569 -0.4815
   96MPD2    C1 1493   1.742   0.893  15.841 -0.5864 -1.2991 -0.3658
   96MPD2    C2 1494   1.718   0.931  15.975  0.2484  0.2547 -0.8172
   96MPD2    C3 1495   1.635   0.852  16.051  0.2598  0.1071  0.0001
   96MPD2    C4 1496   1.566   0.741  16.000  0.0506  0.2627 -0.3377
   96MPD2    C5 1497   1.601   0.700  15.875 -0.3252  0.0968  0.0289
   96MPD2     H 1498   1.753   1.019  16.028 -0.0666  0.4340 -0.9085
   96MPD2    H1 1499   1.486   0.691  16.053 -0.3910  0.3954 -0.8770
   96MPD2    H2 1500   1.703   0.738  15.694 -1.3659 -3.6162  0.3447
   96MPD2    H3 1501   1.566   0.608  15.830  0.9922 -0.3633 -0.0461
   96MPD2     N 1502   1.610   0.877  16.185  0.2207  0.8210 -0.4723
   96MPD2    H5 1503   1.535   0.830  16.234  1.4959 -3.1312 -2.3680
   96MPD2    N1 1504   1.833   0.961  15.752  0.2600 -0.3986  0.0995
   96MPD2    H7 1505   1.843   0.928  15.656 -1.9321 -2.0957  0.4431
   97TMC2    C1 1506   4.546   2.870  17.615  0.2886  0.0734  0.5636
   97TMC2    C2 1507   4.450   2.804  17.541  0.3520 -0.0829  0.0194
   97TMC2    C3 1508   4.365   2.877  17.462 -0.4029  0.7938 -0.9771
   97TMC2    C4 1509   4.551   3.010  17.610  0.1428 -0.4854  0.5959
   97TMC2    C5 1510   4.454   3.076  17.528  0.2778  0.4325  0.0682
   97TMC2    C6 1511   4.360   3.011  17.450 -0.1854  0.4249  0.4670
   97TMC2     C 1512   4.594   2.797  17.735  0.1973  0.1244  0.8332
   97TMC2     O 1513   4.572   2.677   0.003 -0.0698 -0.8016 -0.2084
   97TMC2     H 1514   4.419   2.702  17.560  0.9195 -0.1269  0.6939
   97TMC2    H1 1515   4.627   3.065  17.664  1.9539 -3.1496  0.7969
   97TMC2    H2 1516   4.286   3.060  17.388  3.3449  1.0985 -3.2345
   97TMC2    C7 1517   4.448   3.223  17.526  0.3970 -0.1449 -0.6118
   97TMC2    C8 1518   4.243   2.807  17.423 -0.1459 -0.4352  0.7431
   97TMC2    O1 1519   4.552   3.279  17.556 -0.0715  0.2779 -0.2509
   97TMC2    O2 1520   4.148   2.866  17.385 -0.8299 -0.4257  0.0893
   97TMC2    O5 1521   4.293   2.696  17.349 -0.5890 -0.3372 -0.3165
   97TMC2    H5 1522   4.383   2.665  17.370  0.2035  2.4088  0.2239
   98MPD2     C 1523   0.078   2.820   0.477  0.1380 -0.4617  0.0408
   98MPD2    C1 1524   0.008   2.716   0.418  0.1927  0.6875  0.5601
   98MPD2    C2 1525   4.686   2.724   0.290  0.5529 -0.4893  0.3361
   98MPD2    C3 1526   4.705   2.852   0.224 -0.3988  0.3656 -0.2403
   98MPD2    C4 1527   0.040   2.955   0.282  0.4195  0.5438 -0.4434
   98MPD2    C5 1528   0.094   2.935   0.410 -0.3376 -0.4448 -0.5338
   98MPD2     H 1529   4.627   2.642   0.250 -0.4294 -0.3127  1.4329
   98MPD2    H1 1530   0.055   3.048   0.229 -1.4428  0.8901 -0.3355
   98MPD2    H2 1531   0.119   2.806   0.576  2.2923  2.0064 -0.4994
   98MPD2    H3 1532   0.149   3.016   0.456  0.4976 -1.3691  0.0902
   98MPD2     N 1533   4.655   2.876   0.088  0.6614 -0.1097  0.8364
   98MPD2    H5 1534   4.653   2.974   0.059  0.2733 -0.4856 -0.4218
   98MPD2    N1 1535   4.721   2.602   0.498  0.4871 -0.0899  0.5280
   98MPD2    H7 1536   0.009   2.617   0.596  0.5485  0.9483  0.3506
   99TMC2    C1 1537   3.087   3.998   1.304 -0.0035 -0.8316 -0.3127
   99TMC2    C2 1538   3.203   4.069   1.311 -0.2584 -0.4032  0.1004
   99TMC2    C3 1539   3.201   4.195   1.367  0.1031 -0.3272 -0.1121
   99TMC2    C4 1540   2.975   4.056   1.358  0.9143 -0.1102 -0.4221
   99TMC2    C5 1541   2.980   4.179   1.414  0.2816  0.7832 -0.5293
   99TMC2    C6 1542   3.092   4.253   1.419 -0.1826 -0.5255 -0.1808
   99TMC2     C 1543   3.086   3.861   1.333 -0.7613  0.0924 -0.4025
   99TMC2     O 1544   3.185   3.806   1.378  0.2047  0.1937  0.1399
   99TMC2     H 1545   3.294   4.018   1.280 -1.1422 -1.9836  0.1117
   99TMC2    H1 1546   2.882   3.999   1.356  1.3751 -0.8996  0.6372
   99TMC2    H2 1547   3.093   4.354   1.455  0.3602 -0.4268 -0.4676
   99TMC2    C7 1548   2.859   4.246   1.456  0.2986 -0.7722  0.3426
   99TMC2    C8 1549   3.321   4.280   1.375  0.1622  0.5376 -0.6469
   99TMC2    O1 1550   2.881   4.350   1.519  0.6878 -0.2195 -0.3357
   99TMC2    O2 1551   3.321   4.394   1.421 -0.0149  0.6102  0.6386
   99TMC2    O5 1552   3.391   4.256   1.260 -0.4097  0.0458  0.5062
   99TMC2    H5 1553   3.363   4.173   1.217  0.3780 -0.3506  0.7545
  100MPD2     C 1554   2.998   3.570   1.360  0.1864 -0.5276 -0.1316
  100MPD2    C1 1555   2.953   3.663   1.267  0.5547  0.4428  0.4937
  100MPD2    C2 1556   2.845   3.621   1.192 -0.2254  0.3345  0.3271
  100MPD2    C3 1557   2.800   3.488   1.188 -0.2249  0.7063  0.3255
  100MPD2    C4 1558   2.858   3.401   1.273  0.3470  0.1929 -0.1002
  100MPD2    C5 1559   2.944   3.442   1.369 -0.1218 -0.2397  0.5494
  100MPD2     H 1560   2.796   3.690   1.124 -1.2209 -1.0355 -0.3458
  100MPD2    H1 1561   2.830   3.296   1.276  0.5744  0.1819  1.9116
  100MPD2    H2 1562   3.075   3.589   1.434 -0.8282  2.5061  0.1428
  100MPD2    H3 1563   2.986   3.380   1.448  0.1185 -1.1553 -0.2878
  100MPD2     N 1564   2.698   3.457   1.098 -0.0673  0.5005 -1.0307
  100MPD2    H5 1565   2.668   3.534   1.039  0.7548  0.0144 -2.0865
  100MPD2    N1 1566   2.991   3.798   1.255 -0.6463 -0.6551 -0.0929
  100MPD2    H7 1567   2.935   3.859   1.196 -1.1791 -2.1858 -1.1796
  101TMC2    C1 1568   4.130   1.105  13.613 -0.8327  0.0843  0.4635
  101TMC2    C2 1569   4.158   1.109  13.747  0.3249  0.5218  0.1924
  101TMC2    C3 1570   4.281   1.150  13.780 -0.6740 -0.7733  0.2340
  101TMC2    C4 1571   4.214   1.162  13.519  0.1608 -0.6018  0.1977
  101TMC2    C5 1572   4.334   1.217  13.558 -0.0765 -0.3378  0.4749
  101TMC2    C6 1573   4.373   1.202  13.685 -0.1949  0.1129  0.2904
  101TMC2     C 1574   4.025   1.018  13.564 -0.2349 -0.0617  0.1601
  101TMC2     O 1575   3.936   0.991  13.644 -0.3935  0.2993 -0.6079
  101TMC2     H 1576   4.084   1.062  13.812  2.1874  0.4399  2.2444
  101TMC2    H1 1577   4.185   1.180  13.417  0.8861  0.7554  0.2245
  101TMC2    H2 1578   4.474   1.210  13.721  0.3406  2.1160 -1.7026
  101TMC2    C7 1579   4.424   1.260  13.453  0.1549  0.1076 -0.4096
  101TMC2    C8 1580   4.336   1.088  13.898 -0.5908  0.1134 -0.2012
  101TMC2    O1 1581   4.388   1.239  13.341 -0.1884 -0.7548 -0.1252
  101TMC2    O2 1582   4.439   1.028  13.891  0.0764 -0.2441 -0.3596
  101TMC2    O5 1583   4.244   1.087  13.992 -0.0033  0.2973  0.2002
  101TMC2    H5 1584   4.189   1.168  13.990 -1.9903 -1.0952 -1.2694
  102MPD2     C 1585   4.029   0.814  13.261  0.4223 -0.1688  0.0589
  102MPD2    C1 1586   3.971   0.859  13.378  0.5351 -0.1106 -0.1257
  102MPD2    C2 1587   3.861   0.792  13.431  0.2283 -0.1525  0.3060
  102MPD2    C3 1588   3.813   0.681  13.368 -0.4166 -0.3239  0.4404
  102MPD2    C4 1589   3.870   0.639  13.247  0.0006  0.2312 -0.2835
  102MPD2    C5 1590   3.976   0.706  13.196  0.2107  0.4641  0.1601
  102MPD2     H 1591   3.817   0.820  13.526  0.8335 -0.5109  0.6939
  102MPD2    H1 1592   3.829   0.564  13.180 -0.2414 -0.2873  0.4469
  102MPD2    H2 1593   4.105   0.870  13.210  0.6446  0.0603  0.6394
  102MPD2    H3 1594   4.015   0.679  13.099 -0.4494  0.9467 -0.2366
  102MPD2     N 1595   3.700   0.615  13.415 -0.1152  0.1239 -0.8808
  102MPD2    H5 1596   3.650   0.666  13.488 -0.8942  0.1320 -1.4180
  102MPD2    N1 1597   4.050   0.955  13.443  0.1497  0.1641  0.1097
  102MPD2    H7 1598   4.130   0.993  13.393  1.3174 -3.7375 -0.9580
  103TMC2    C1 1599   2.249   1.222  12.687 -0.3267 -0.4723  0.1170
  103TMC2    C2 1600   2.387   1.226  12.694  0.4292 -0.2990 -0.6552
  103TMC2    C3 1601   2.442   1.344  12.729 -0.1573 -0.0138  0.0707
  103TMC2    C4 1602   2.167   1.327  12.703 -0.1515  0.2810  0.1536
  103TMC2    C5 1603   2.230   1.439  12.750 -0.2741 -0.1245 -0.3061
  103TMC2    C6 1604   2.365   1.453  12.779  0.8013 -0.0177  0.1255
  103TMC2     C 1605   2.176   1.107  12.660  0.1835  0.8864  0.1266
  103TMC2     O 1606   2.061   1.128  12.623  0.4061  0.3744 -0.4383
  103TMC2     H 1607   2.446   1.136  12.681 -0.2162 -0.9804  1.0148
  103TMC2    H1 1608   2.059   1.322  12.705 -0.2421  1.6102 -0.9901
  103TMC2    H2 1609   2.396   1.546  12.824  1.2248 -0.0398 -0.1254
  103TMC2    C7 1610   2.149   1.523  12.829  0.0367  0.0406  0.0153
  103TMC2    C8 1611   2.581   1.345  12.757  0.2548 -0.3864  0.1675
  103TMC2    O1 1612   2.193   1.556  12.936  0.0081 -0.0967 -0.1640
  103TMC2    O2 1613   2.645   1.240  12.758  0.2004  0.1335  0.0608
  103TMC2    O5 1614   2.623   1.470  12.725  0.5055 -0.4175 -0.0997
  103TMC2    H5 1615   2.550   1.531  12.701 -1.0697 -1.9393  0.8550
  104MPD2     C 1616   2.294   0.764  12.631 -0.2667 -0.3677  0.6556
  104MPD2    C1 1617   2.197   0.863  12.630 -0.4884  0.4882  0.2712
  104MPD2    C2 1618   2.072   0.836  12.587  0.3275 -0.5975  0.1811
  104MPD2    C3 1619   2.040   0.714  12.532 -0.1509 -0.2021 -0.6904
  104MPD2    C4 1620   2.140   0.621  12.519 -0.4638 -0.0838 -0.1684
  104MPD2    C5 1621   2.267   0.648  12.562 -0.3463  0.3321  0.0372
  104MPD2     H 1622   1.990   0.907  12.592  2.6702  2.3486 -2.9868
  104MPD2    H1 1623   2.122   0.525  12.471  0.1847 -0.6974  0.8205
  104MPD2    H2 1624   2.393   0.779  12.673 -0.2828  0.2667  0.4730
  104MPD2    H3 1625   2.346   0.575  12.546 -0.4515  0.5019 -1.2993
  104MPD2     N 1626   1.908   0.689  12.478  0.3738 -0.3046 -0.0034
  104MPD2    H5 1627   1.844   0.767  12.482 -0.5366 -0.9984 -0.9594
  104MPD2    N1 1628   2.246   0.985  12.683 -0.0221  0.1029 -0.0090
  104MPD2    H7 1629   2.335   0.982  12.732  0.8721 -0.4832 -1.6946
  105TMC2    C1 1630   2.531   4.708   0.157  0.2529 -0.3780 -0.6088
  105TMC2    C2 1631   2.463   4.615   0.232 -0.1593 -0.2872  0.1357
  105TMC2    C3 1632   2.430   4.658   0.355  0.3951  0.2177  0.3822
  105TMC2    C4 1633   2.565   0.101   0.208 -0.2550 -0.2021  0.6348
  105TMC2    C5 1634   2.539   0.133   0.335 -0.4725 -0.5836  0.3067
  105TMC2    C6 1635   2.457   0.045   0.413 -0.5684 -0.7384 -0.3780
  105TMC2     C 1636   2.528   4.674   0.015 -0.2260  0.3641  0.2449
  105TMC2     O 1637   2.490   4.563  17.712  0.0256  0.6804  0.3173
  105TMC2     H 1638   2.431   4.518   0.196  1.6448 -1.3238  1.3368
  105TMC2    H1 1639   2.623   0.163   0.141 -2.3602  1.3646  0.2841
  105TMC2    H2 1640   2.430   0.070   0.515  2.0129 -0.1749  0.1742
  105TMC2    C7 1641   2.535   0.272   0.379 -0.0817 -0.2350 -0.3650
  105TMC2    C8 1642   2.396   4.555   0.444  0.4234 -0.4056 -0.5641
  105TMC2    O1 1643   2.549   0.357   0.291 -0.3396  0.4443 -0.4840
  105TMC2    O2 1644   2.423   4.438   0.423 -0.2941  0.1307 -0.5990
  105TMC2    O5 1645   2.295   4.599   0.524  0.6416 -0.0839 -0.5517
  105TMC2    H5 1646   2.281   4.695   0.529 -2.2242 -0.3223 -4.2099
  106MPD2     C 1647   2.674   0.052  17.276 -0.7393  0.0195 -0.1233
  106MPD2    C1 1648   2.695   0.164  17.349  0.1410 -0.1092  0.3128
  106MPD2    C2 1649   2.665   0.163  17.485  0.0012 -0.1832  0.6739
  106MPD2    C3 1650   2.612   0.048  17.539  0.3047 -0.5058 -0.1889
  106MPD2    C4 1651   2.607   4.662  17.467 -0.4022 -0.4417 -0.3175
  106MPD2    C5 1652   2.632   4.670  17.337 -0.1177 -0.1491 -0.3744
  106MPD2     H 1653   2.673   0.256  17.541  0.5869 -1.4598  2.6980
  106MPD2    H1 1654   2.556   4.573  17.502  1.4727 -1.3338  0.1646
  106MPD2    H2 1655   2.707   0.045  17.173  1.5760 -2.7377  0.7923
  106MPD2    H3 1656   2.620   4.580  17.278 -1.0805 -0.6064  0.5032
  106MPD2     N 1657   2.573   0.051  17.676  0.0161  0.6199 -0.6524
  106MPD2    H5 1658   2.586   0.143  17.717 -1.6624  0.0614  1.1542
  106MPD2    N1 1659   2.745   0.284  17.291  0.1014  0.3740  0.2781
  106MPD2    H7 1660   2.767   0.362  17.352 -1.7021  0.7884  0.3892
  107TMC2    C1 1661   4.022   0.161  11.750 -0.2196 -0.5040  0.2147
  107TMC2    C2 1662   3.964   0.247  11.656  0.2181  0.2042  0.5127
  107TMC2    C3 1663   4.000   0.235  11.520 -0.1313 -0.0631  0.1731
  107TMC2    C4 1664   4.107   0.062  11.708 -0.4513  0.3944  0.3211
  107TMC2    C5 1665   4.134   0.050  11.572  0.2735  0.3503  0.1835
  107TMC2    C6 1666   4.081   0.138  11.479  0.3878 -0.0410 -0.1669
  107TMC2     C 1667   3.950   0.122  11.869  0.2577  0.5471 -0.1175
  107TMC2     O 1668   3.984   0.013  11.916  0.1817 -1.2514 -0.5596
  107TMC2     H 1669   3.910   0.335  11.690  0.4078  0.4404  0.2061
  107TMC2    H1 1670   4.152   4.726  11.778 -0.4941  0.4818  0.4367
  107TMC2    H2 1671   4.100   0.135  11.372  2.2223 -0.7753  0.1621
  107TMC2    C7 1672   4.250   4.707  11.533 -0.3382  0.2373 -0.1286
  107TMC2    C8 1673   3.922   0.310  11.418 -0.1074  0.5868  0.2094
  107TMC2    O1 1674   4.311   4.658  11.626 -0.3976  0.1888  0.0317
  107TMC2    O2 1675   3.974   0.317  11.306  0.5454 -0.0730  0.0179
  107TMC2    O5 1676   3.840   0.400  11.473  0.2935  0.4021 -0.0098
  107TMC2    H5 1677   3.800   0.367  11.556  0.6960  1.0598  0.4417
  108MPD2     C 1678   3.629   0.268  11.972 -0.4537  0.4444 -1.0823
  108MPD2    C1 1679   3.734   0.185  11.980 -0.1350  0.2099 -0.4351
  108MPD2    C2 1680   3.729   0.076  12.066  0.2086 -0.0304  0.7346
  108MPD2    C3 1681   3.621   0.055  12.143  0.1928 -0.6042  0.2083
  108MPD2    C4 1682   3.515   0.138  12.129  0.1447  0.0619  1.0077
  108MPD2    C5 1683   3.517   0.247  12.051  0.0715  0.0197  0.5280
  108MPD2     H 1684   3.807   0.000  12.064  0.5594  0.3456 -0.1195
  108MPD2    H1 1685   3.426   0.128  12.189 -1.4774  1.6266 -1.1055
  108MPD2    H2 1686   3.628   0.361  11.917  1.6446  0.3057 -1.3907
  108MPD2    H3 1687   3.441   0.321  12.030  0.4806  0.6771  1.3540
  108MPD2     N 1688   3.602   4.673  12.228 -0.2288 -0.4817  0.0464
  108MPD2    H5 1689   3.514   4.666  12.278 -0.1336  0.0196  0.2864
  108MPD2    N1 1690   3.841   0.204  11.885  0.2760 -0.4173 -0.2284
  108MPD2    H7 1691   3.814   0.270  11.813  0.6701  1.1334  1.0249
  109TMC2    C1 1692   3.714   2.508   0.450 -0.2093  0.0415 -0.3912
  109TMC2    C2 1693   3.715   2.590   0.342 -0.1390 -0.2816  0.2321
  109TMC2    C3 1694   3.812   2.570   0.255 -0.1392  0.0841  0.1440
  109TMC2    C4 1695   3.786   2.396   0.458 -0.8888  0.2216 -0.2470
  109TMC2    C5 1696   3.888   2.379   0.369  0.4198  0.1725  0.3192
  109TMC2    C6 1697   3.900   2.464   0.261 -0.3423  0.3062 -0.5641
  109TMC2     C 1698   3.597   2.526   0.538  0.4878 -0.2829 -0.4114
  109TMC2     O 1699   3.504   2.596   0.498 -0.0484  0.1303 -0.0849
  109TMC2     H 1700   3.642   2.668   0.327  1.5592  1.8719  3.1002
  109TMC2    H1 1701   3.764   2.324   0.535 -1.5096 -0.1792 -0.8013
  109TMC2    H2 1702   3.972   2.448   0.182  0.8547  0.6709  0.4400
  109TMC2    C7 1703   3.988   2.272   0.396 -0.3514 -0.7530  0.4420
  109TMC2    C8 1704   3.797   2.644   0.132 -0.2814  0.5386 -0.1143
  109TMC2    O1 1705   4.091   2.295   0.332  0.2246 -0.1736 -0.1630
  109TMC2    O2 1706   3.692   2.698   0.102 -0.7853 -0.0802 -0.8598
  109TMC2    O5 1707   3.922   2.679   0.094  0.4767  0.3397  0.0109
  109TMC2    H5 1708   3.996   2.671   0.159 -2.4326 -0.1292  3.2587
  110MPD2     C 1709   3.310   2.458   0.947  0.6453  0.1927 -0.1116
  110MPD2    C1 1710   3.436   2.433   0.984  0.3853  0.3585  0.1366
  110MPD2    C2 1711   3.533   2.436   0.887 -0.1916 -0.2341  0.8172
  110MPD2    C3 1712   3.502   2.445   0.751  0.1996  0.3277 -0.3400
  110MPD2    C4 1713   3.367   2.465   0.708 -0.5893 -0.2365  0.3310
  110MPD2    C5 1714   3.278   2.479   0.811 -0.7683 -0.3758 -0.4595
  110MPD2     H 1715   3.637   2.441   0.917  0.5588  1.0846 -1.9820
  110MPD2    H1 1716   3.339   2.475   0.604 -0.1728 -2.5934 -0.0056
  110MPD2    H2 1717   3.238   2.475   1.026  1.0671 -1.8842  0.6902
  110MPD2    H3 1718   3.179   2.507   0.776  0.2115  0.3665 -2.6411
  110MPD2     N 1719   3.616   2.467   0.661  0.2994 -0.1336 -0.6826
  110MPD2    H5 1720   3.708   2.437   0.691  0.2022  2.1024  1.8844
  110MPD2    N1 1721   3.466   2.433   1.124  0.0472 -0.7148 -0.1180
  110MPD2    H7 1722   3.383   2.441   1.183 -0.4796  1.0516 -1.0742
  111TMC2    C1 1723   3.788   1.749  12.030  0.1820 -0.3554 -0.1090
  111TMC2    C2 1724   3.683   1.758  12.122  0.5035 -0.1549  0.6054
  111TMC2    C3 1725   3.717   1.733  12.249 -0.0155 -0.5052  0.5598
  111TMC2    C4 1726   3.910   1.694  12.067  0.2647 -0.2259  0.3367
  111TMC2    C5 1727   3.936   1.655  12.191  0.1526 -0.4325 -0.4040
  111TMC2    C6 1728   3.842   1.685  12.288 -0.3248 -0.0379  0.7462
  111TMC2     C 1729   3.771   1.793  11.895 -0.4076  0.3743 -0.4317
  111TMC2     O 1730   3.867   1.792  11.820 -0.2739 -0.3197 -0.0385
  111TMC2     H 1731   3.589   1.810  12.109  0.4348 -0.7465 -1.3988
  111TMC2    H1 1732   3.983   1.685  11.988 -1.1213  2.0139 -1.1802
  111TMC2    H2 1733   3.871   1.679  12.392 -0.5895  0.2283  0.8327
  111TMC2    C7 1734   4.060   1.598  12.234  0.1353 -0.5096  0.7289
  111TMC2    C8 1735   3.625   1.797  12.339  0.0576  0.2795  0.6221
  111TMC2    O1 1736   4.103   1.637  12.339 -0.2779 -0.3400  0.2423
  111TMC2    O2 1737   3.544   1.885  12.304  0.7118 -0.3092  0.8917
  111TMC2    O5 1738   3.648   1.752  12.461 -0.1093  0.2065  0.9170
  111TMC2    H5 1739   3.707   1.676  12.480 -0.3650  0.1265  1.3796
  112MPD2     C 1740   3.475   1.928  11.498  0.3263  0.1299 -0.0216
  112MPD2    C1 1741   3.608   1.937  11.515  0.1174  0.2781 -0.3096
  112MPD2    C2 1742   3.660   1.895  11.633 -0.7124  0.2463  0.0827
  112MPD2    C3 1743   3.579   1.838  11.737 -0.6251  0.1504 -0.4853
  112MPD2    C4 1744   3.441   1.836  11.718 -0.0959 -0.5861  0.3483
  112MPD2    C5 1745   3.393   1.876  11.591 -0.0586 -0.3598 -0.5882
  112MPD2     H 1746   3.768   1.900  11.645 -0.8629  1.9273  0.8904
  112MPD2    H1 1747   3.370   1.802  11.792  0.8819 -2.2402  0.5305
  112MPD2    H2 1748   3.425   1.955  11.406  0.7065  0.6739 -0.0641
  112MPD2    H3 1749   3.287   1.878  11.568 -0.6960  1.2484  2.4753
  112MPD2     N 1750   3.629   1.805  11.862 -0.0243 -0.1891 -0.4741
  112MPD2    H5 1751   3.560   1.762  11.921 -1.4698 -1.0825 -2.8128
  112MPD2    N1 1752   3.698   1.989  11.419 -0.2626 -0.0395 -0.0748
  112MPD2    H7 1753   3.792   2.009  11.452  0.3035 -0.9041 -1.2061
  113TMC2    C1 1754   1.491   4.525   0.736 -0.4333  0.2078 -0.3341
  113TMC2    C2 1755   1.429   4.633   0.690 -1.2783 -0.1279 -0.6428
  113TMC2    C3 1756   1.294   4.627   0.675  0.2321  0.0577 -0.3736
  113TMC2    C4 1757   1.430   4.412   0.776  0.0900  0.4616  0.3998
  113TMC2    C5 1758   1.294   4.414   0.759  0.5945  0.7906 -0.5610
  113TMC2    C6 1759   1.222   4.527   0.716  0.0509 -0.6239 -0.0169
  113TMC2     C 1760   1.622   4.553   0.801 -0.0386  0.8023 -0.9091
  113TMC2     O 1761   1.619   4.632   0.895  0.4653  0.5312  0.7062
  113TMC2     H 1762   1.490   4.722   0.678 -2.2580  0.7951  0.9914
  113TMC2    H1 1763   1.484   4.329   0.821  0.8891  1.4710  1.2870
  113TMC2    H2 1764   1.114   4.520   0.704  0.0890 -0.3063 -0.5338
  113TMC2    C7 1765   1.220   4.297   0.789 -0.7225 -0.3383  0.5883
  113TMC2    C8 1766   1.241   0.024   0.654  0.5773  0.3894  0.1685
  113TMC2    O1 1767   1.109   4.290   0.735 -0.7266  0.0634 -0.3549
  113TMC2    O2 1768   1.308   0.126   0.636  0.7565  0.0898 -0.0736
  113TMC2    O5 1769   1.105   0.023   0.657 -0.3468 -0.0670 -0.1288
  113TMC2    H5 1770   1.053   4.674   0.647 -0.1414 -0.2614  0.4117
  114MPD2     C 1771   1.982   4.298   1.073 -0.1928 -0.1540  0.1085
  114MPD2    C1 1772   1.931   4.423   1.083 -0.6106 -0.1202 -0.8198
  114MPD2    C2 1773   1.835   4.479   0.994 -0.0207 -0.0410 -0.3573
  114MPD2    C3 1774   1.801   4.403   0.886 -0.1929  0.4650  0.3910
  114MPD2    C4 1775   1.857   4.276   0.867  0.4406  0.7230 -0.3626
  114MPD2    C5 1776   1.934   4.223   0.967  1.0250 -0.3088  1.1618
  114MPD2     H 1777   1.792   4.577   1.013 -1.5138 -0.8817  0.6531
  114MPD2    H1 1778   1.832   4.207   0.787  0.4867  2.1886 -1.6410
  114MPD2    H2 1779   2.058   4.247   1.131  0.0293  1.6566  1.4193
  114MPD2    H3 1780   1.985   4.128   0.956  1.9875  0.1431  1.6762
  114MPD2     N 1781   1.712   4.451   0.784 -0.3026 -0.6454 -0.0352
  114MPD2    H5 1782   1.695   4.387   0.707 -0.2606  0.5432 -1.0368
  114MPD2    N1 1783   1.969   4.503   1.191 -0.8294 -0.1824 -0.3156
  114MPD2    H7 1784   1.918   4.590   1.200 -0.6906 -0.1938  0.5807
  115TMC2    C1 1785   2.612   2.201   0.100 -0.0108 -0.2580 -0.0941
  115TMC2    C2 1786   2.745   2.193   0.097 -0.0360  0.3502  0.2033
  115TMC2    C3 1787   2.807   2.315   0.088 -0.3943  0.0770  0.2123
  115TMC2    C4 1788   2.538   2.311   0.092  0.1835  0.3493  0.5369
  115TMC2    C5 1789   2.607   2.426   0.080 -1.0380  0.3957  0.0287
  115TMC2    C6 1790   2.741   2.428   0.076  0.2364 -0.2541 -0.3851
  115TMC2     C 1791   2.536   2.075   0.095 -0.2897  0.4646  0.0320
  115TMC2     O 1792   2.413   2.074   0.071 -0.2509  0.3146  0.0921
  115TMC2     H 1793   2.806   2.105   0.082 -0.7513  0.0282 -0.8191
  115TMC2    H1 1794   2.431   2.303   0.079  0.6579 -2.1056 -1.8808
  115TMC2    H2 1795   2.795   2.522   0.073  2.1580 -1.3883 -0.8605
  115TMC2    C7 1796   2.532   2.543   0.041 -0.0859  0.3737 -0.1353
  115TMC2    C8 1797   2.952   2.322   0.100 -0.2895  0.0277  0.2708
  115TMC2    O1 1798   2.410   2.554   0.074  0.3953 -0.2512  0.4419
  115TMC2    O2 1799   3.022   2.414   0.053 -0.5449  0.3168  0.4917
  115TMC2    O5 1800   2.993   2.228   0.194  0.0531 -0.0605 -0.3785
  115TMC2    H5 1801   2.915   2.203   0.248  0.7545 -1.1970  0.1118
  116MPD2     C 1802   2.585   1.571  17.723  0.6358 -0.1246  0.5585
  116MPD2    C1 1803   2.486   1.663  17.694  0.4212  0.0081 -0.1107
  116MPD2    C2 1804   2.490   1.791   0.008  0.0461  0.0589  0.3018
  116MPD2    C3 1805   2.595   1.840   0.091 -0.4694  0.3183  0.9402
  116MPD2    C4 1806   2.685   1.740   0.133  0.6719  0.8500 -0.0222
  116MPD2    C5 1807   2.681   1.610   0.079 -0.1531  0.5055 -0.3352
  116MPD2     H 1808   2.420   1.865  17.706  2.5008  2.7783  1.0112
  116MPD2    H1 1809   2.771   1.757   0.197  0.3153  1.3288  0.3268
  116MPD2    H2 1810   2.592   1.469  17.687  3.4710  0.1567  0.2820
  116MPD2    H3 1811   2.759   1.541   0.106 -0.8928  0.4567  1.6403
  116MPD2     N 1812   2.609   1.970   0.141 -0.7268  0.7691 -0.3795
  116MPD2    H5 1813   2.687   1.986   0.204  0.7506  1.0747 -2.2954
  116MPD2    N1 1814   2.384   1.617  17.608  0.2109 -0.3130 -0.4075
  116MPD2    H7 1815   2.391   1.518  17.585 -2.3264 -0.5066 -0.3838
  117TMC2    C1 1816   1.691   3.841  13.811  0.2157 -0.0283 -0.7093
  117TMC2    C2 1817   1.803   3.857  13.726  0.1129 -0.4033 -0.6695
  117TMC2    C3 1818   1.845   3.983  13.695 -0.5140  0.4619 -0.9334
  117TMC2    C4 1819   1.610   3.947  13.840  0.3780 -0.0820  0.1467
  117TMC2    C5 1820   1.640   4.072  13.788 -0.1122  0.4574 -0.7192
  117TMC2    C6 1821   1.764   4.087  13.725  0.2226  0.1157  0.8096
  117TMC2     C 1822   1.647   3.707  13.828 -0.0270 -0.2565  0.2499
  117TMC2     O 1823   1.728   3.622  13.852  0.1709 -0.1742 -0.4039
  117TMC2     H 1824   1.869   3.774  13.705  0.1161 -1.3009  2.8481
  117TMC2    H1 1825   1.526   3.928  13.906  0.4270  0.0481  0.2459
  117TMC2    H2 1826   1.786   4.184  13.682  1.4152 -0.1179  0.8797
  117TMC2    C7 1827   1.554   4.188  13.805 -0.5992 -0.7284 -0.1332
  117TMC2    C8 1828   1.949   3.982  13.596 -0.2082 -0.0528  0.1314
  117TMC2    O1 1829   1.603   4.299  13.774  0.1372  0.9842 -0.5506
  117TMC2    O2 1830   1.971   3.884  13.534  0.0639  0.0943 -0.3950
  117TMC2    O5 1831   1.995   4.110  13.573 -0.5500  0.1634 -0.4331
  117TMC2    H5 1832   1.973   4.169  13.649  0.8058 -0.4178  0.4226
  118MPD2     C 1833   1.194   4.227  13.807  0.4517  0.1157 -0.0758
  118MPD2    C1 1834   1.327   4.257  13.842  0.1101 -0.4683  0.4819
  118MPD2    C2 1835   1.356   4.388  13.890 -0.3892  0.3205 -0.4696
  118MPD2    C3 1836   1.265   4.486  13.876  0.6462  0.1980 -0.5018
  118MPD2    C4 1837   1.137   4.452  13.824  0.2289  0.7435 -0.5131
  118MPD2    C5 1838   1.105   4.326  13.796  0.9552 -0.1828 -0.0767
  118MPD2     H 1839   1.456   4.420  13.917 -0.5475 -0.2004  0.7102
  118MPD2    H1 1840   1.075   4.539  13.807 -0.5262  0.6049  1.5230
  118MPD2    H2 1841   1.153   4.128  13.790 -4.5716  2.4050 -1.3013
  118MPD2    H3 1842   1.008   4.298  13.758  0.2633  1.1410  0.6766
  118MPD2     N 1843   1.278   4.624  13.903 -0.2165  0.1681 -0.0297
  118MPD2    H5 1844   1.192   4.677  13.892  1.3516  2.0215 -3.3712
  118MPD2    N1 1845   1.425   4.157  13.831 -0.3159 -0.1548  0.0718
  118MPD2    H7 1846   1.399   4.061  13.812  0.1539 -0.2665 -0.0082
  119TMC2    C1 1847   3.725   0.110  12.970  0.0091 -0.0150  0.5350
  119TMC2    C2 1848   3.727   0.061  12.841 -0.2430 -0.3940 -0.4859
  119TMC2    C3 1849   3.610   0.019  12.787 -0.3268 -0.0512 -0.0540
  119TMC2    C4 1850   3.606   0.123  13.050  1.2093  0.3466  1.0163
  119TMC2    C5 1851   3.491   0.078  12.988  0.0781 -0.7797  1.3846
  119TMC2    C6 1852   3.495   0.023  12.862  0.1720 -0.0597  0.2583
  119TMC2     C 1853   3.844   0.154  13.037 -0.2155 -0.0496  0.6344
  119TMC2     O 1854   3.844   0.144  13.159 -0.1375 -0.4471  0.2496
  119TMC2     H 1855   3.821   0.049  12.788 -0.8657 -1.8265 -1.2810
  119TMC2    H1 1856   3.606   0.186  13.138  3.1335 -1.0436  2.0098
  119TMC2    H2 1857   3.411   4.701  12.823 -1.2142  1.9029  0.4178
  119TMC2    C7 1858   3.386   0.041  13.078  0.2951 -0.7592  1.0022
  119TMC2    C8 1859   3.615   4.674  12.664  0.3323 -0.5270 -0.8926
  119TMC2    O1 1860   3.276   0.021  13.027  0.4877 -0.2778 -0.0648
  119TMC2    O2 1861   3.535   4.583  12.653  0.0677  0.3126 -0.0147
  119TMC2    O5 1862   3.669   0.008  12.559 -0.3967  0.1767 -0.1101
  119TMC2    H5 1863   3.721   0.085  12.590  1.4631 -1.0150 -0.2591
  120MPD2     C 1864   4.244   0.436  13.099 -0.9452  0.2604  0.0179
  120MPD2    C1 1865   4.199   0.337  13.179  0.2692  0.1825  0.0135
  120MPD2    C2 1866   4.099   0.266  13.126 -0.2934 -0.2003  0.2376
  120MPD2    C3 1867   4.043   0.299  13.003  0.4176  0.7069 -0.5365
  120MPD2    C4 1868   4.093   0.399  12.923 -0.3420 -0.2962  0.0805
  120MPD2    C5 1869   4.199   0.464  12.975  0.5554  0.6230 -0.3723
  120MPD2     H 1870   4.072   0.174  13.175 -1.0199  0.9397  1.9774
  120MPD2    H1 1871   4.040   0.430  12.833  0.2084  3.1360  0.9375
  120MPD2    H2 1872   4.330   0.495  13.131 -2.0600  2.0668 -0.2870
  120MPD2    H3 1873   4.249   0.543  12.919 -2.0999  0.3237 -3.1750
  120MPD2     N 1874   3.927   0.233  12.954 -0.0764  0.6090  0.6019
  120MPD2    H5 1875   3.893   0.271  12.866  1.2058  0.6873  0.1350
  120MPD2    N1 1876   4.259   0.304  13.302 -0.0326 -0.5834 -0.1111
  120MPD2    H7 1877   4.347   0.351  13.321  0.4916 -1.5712 -0.1049
  121TMC2    C1 1878   0.952   2.205  14.085  0.2468  0.5688 -0.7894
  121TMC2    C2 1879   1.042   2.107  14.059  0.1946 -0.9667 -0.5203
  121TMC2    C3 1880   0.998   1.984  14.093  0.0728 -0.2726 -0.0331
  121TMC2    C4 1881   0.822   2.184  14.134 -0.0225  0.3493 -0.1188
  121TMC2    C5 1882   0.782   2.054  14.153 -0.6213  0.1085 -0.1366
  121TMC2    C6 1883   0.877   1.954  14.141  0.0700  0.0039  0.0773
  121TMC2     C 1884   0.997   2.341  14.071  0.1811  0.0957 -0.2845
  121TMC2     O 1885   0.984   2.419  14.163 -0.2400 -0.0081 -0.4133
  121TMC2     H 1886   1.139   2.117  14.012  0.0178  0.6031 -0.5585
  121TMC2    H1 1887   0.759   2.266  14.166 -0.8975 -0.3390 -0.0906
  121TMC2    H2 1888   0.842   1.853  14.161 -1.5074  1.2049  3.2901
  121TMC2    C7 1889   0.647   2.030  14.206 -0.4487 -0.6902 -0.2938
  121TMC2    C8 1890   1.112   1.898  14.130 -0.6421 -0.4711 -0.1212
  121TMC2    O1 1891   0.630   1.926  14.268 -0.4300 -0.5409  0.0588
  121TMC2    O2 1892   1.227   1.945  14.134 -0.0876  0.5507  0.2533
  121TMC2    O5 1893   1.074   1.777  14.173 -0.4820  0.4427  0.3473
  121TMC2    H5 1894   0.990   1.737  14.144 -0.3452  0.4664 -0.0819
  122MPD2     C 1895   1.120   2.601  13.987  1.0797 -0.4978 -0.4540
  122MPD2    C1 1896   1.091   2.498  13.896 -0.0212  1.1982  1.2539
  122MPD2    C2 1897   1.107   2.521  13.758  1.0949  0.5268  0.1287
  122MPD2    C3 1898   1.159   2.645  13.725  0.0171  0.2985 -0.3662
  122MPD2    C4 1899   1.186   2.744  13.812  0.0494 -0.5784  0.5963
  122MPD2    C5 1900   1.159   2.721  13.942 -0.2177 -0.3079 -0.2189
  122MPD2     H 1901   1.097   2.436  13.691 -0.6613 -1.4967  2.9348
  122MPD2    H1 1902   1.219   2.837  13.768  3.1423 -2.2811 -0.6630
  122MPD2    H2 1903   1.105   2.593  14.094  0.5473  0.1127 -0.4802
  122MPD2    H3 1904   1.193   2.790  14.019 -1.2054 -0.7112  0.5804
  122MPD2     N 1905   1.203   2.685  13.591 -0.7576 -0.0824 -0.3794
  122MPD2    H5 1906   1.268   2.763  13.586 -2.3756  1.4138  2.1465
  122MPD2    N1 1907   1.052   2.372  13.947  0.4889  0.0891 -0.3501
  122MPD2    H7 1908   1.055   2.292  13.885 -1.6056 -0.8128  0.7309
  123TMC2    C1 1909   4.316   1.044  10.887 -0.8838  0.1812 -0.4398
  123TMC2    C2 1910   4.341   1.172  10.851 -0.6831 -0.4102  0.5359
  123TMC2    C3 1911   4.427   1.180  10.742  0.7510 -0.3558 -0.3351
  123TMC2    C4 1912   4.361   0.935  10.819 -0.0504  0.1970  0.0365
  123TMC2    C5 1913   4.444   0.950  10.708 -0.1285  0.1170  0.2572
  123TMC2    C6 1914   4.478   1.077  10.665  0.3423 -0.0267 -0.2448
  123TMC2     C 1915   4.215   1.022  10.986  0.3082  0.0497 -0.1091
  123TMC2     O 1916   4.197   1.107  11.071 -0.3747  0.5272  0.2332
  123TMC2     H 1917   4.297   1.254  10.908 -1.0143 -1.0833  1.2462
  123TMC2    H1 1918   4.342   0.834  10.852 -0.6167 -0.3464 -1.9694
  123TMC2    H2 1919   4.552   1.091  10.586 -2.3118 -1.8400 -3.0364
  123TMC2    C7 1920   4.472   0.827  10.629 -0.1203  0.6294  0.0955
  123TMC2    C8 1921   4.440   1.306  10.678 -0.7533 -0.0466 -0.1910
  123TMC2    O1 1922   4.423   0.721  10.669 -0.0921 -0.9652 -0.1737
  123TMC2    O2 1923   4.526   1.333  10.605 -0.1944 -0.2622 -0.1394
  123TMC2    O5 1924   4.351   1.394  10.737  0.3021  0.3199 -0.1395
  123TMC2    H5 1925   4.282   1.346  10.787 -0.1263  0.9073 -0.1641
  124MPD2     C 1926   3.958   0.640  11.233 -0.0094  1.0282  0.0396
  124MPD2    C1 1927   3.994   0.599  11.109  0.7379 -0.1042  0.2785
  124MPD2    C2 1928   4.053   0.690  11.020 -0.8197  0.2129 -0.4015
  124MPD2    C3 1929   4.086   0.815  11.059  0.2567 -0.0167  0.0332
  124MPD2    C4 1930   4.067   0.852  11.192 -0.9222  0.0895 -0.0719
  124MPD2    C5 1931   4.009   0.763  11.276 -0.0456  0.4316  0.8911
  124MPD2     H 1932   4.090   0.660  10.922 -1.1775 -1.2928 -0.0739
  124MPD2    H1 1933   4.092   0.954  11.217 -1.6786  0.2820 -0.0982
  124MPD2    H2 1934   3.905   0.570  11.297  1.1527 -1.4360 -1.6705
  124MPD2    H3 1935   3.995   0.801  11.377  0.7635  0.2227  1.0784
  124MPD2     N 1936   4.151   0.897  10.964  0.1506  0.4383  0.6362
  124MPD2    H5 1937   4.170   0.862  10.870  1.5338  0.7215  0.8054
  124MPD2    N1 1938   3.944   0.463  11.075 -0.2459  0.5356  0.4802
  124MPD2    H7 1939   3.903   0.407  11.149  1.7268 -0.1905  1.0243
  125TMC2    C1 1940   0.999   0.962   8.757  0.1953 -0.0841  0.3006
  125TMC2    C2 1941   0.898   0.977   8.665 -0.7104 -0.3467 -1.0363
  125TMC2    C3 1942   0.893   1.082   8.584 -0.0878  0.2694  0.2194
  125TMC2    C4 1943   1.078   1.072   8.788 -0.2765  0.1800 -0.5695
  125TMC2    C5 1944   1.058   1.186   8.715 -0.3127  0.8948 -0.1744
  125TMC2    C6 1945   0.975   1.189   8.607  0.6583  0.7317 -0.5664
  125TMC2     C 1946   1.013   0.840   8.829  0.1500  0.7867  0.0306
  125TMC2     O 1947   0.930   0.754   8.796 -0.1822 -0.4628 -0.3357
  125TMC2     H 1948   0.815   0.908   8.655 -0.1006 -1.3916  1.1519
  125TMC2    H1 1949   1.143   1.063   8.874 -0.6914 -3.1371 -0.6182
  125TMC2    H2 1950   0.960   1.278   8.547 -1.5721  1.5156  1.1802
  125TMC2    C7 1951   1.124   1.311   8.765 -0.1323  0.2111 -0.1823
  125TMC2    C8 1952   0.769   1.106   8.518  0.2915 -0.7109  1.0054
  125TMC2    O1 1953   1.210   1.295   8.849 -0.3998  0.0730 -0.3317
  125TMC2    O2 1954   0.728   1.221   8.509  0.7005 -0.5139  0.1110
  125TMC2    O5 1955   0.742   1.002   8.440 -0.2231 -0.0250 -0.1659
  125TMC2    H5 1956   0.797   0.922   8.435 -2.0515 -1.3118  0.3703
  126MPD1     C 1957   1.248   0.527   9.165  0.1743 -0.4422  0.7117
  126MPD1    C1 1958   1.330   0.637   9.159 -0.3649  0.0810 -0.0664
  126MPD1    C2 1959   1.295   0.732   9.058 -0.0733  0.2088 -0.3616
  126MPD1    C3 1960   1.176   0.729   8.990 -0.2576  0.0668  0.4825
  126MPD1    C4 1961   1.095   0.619   9.000 -0.6232  0.0934  0.2666
  126MPD1    C5 1962   1.134   0.519   9.085  0.4624  0.0554 -0.4750
  126MPD1     H 1963   1.370   0.807   9.035 -2.1113  2.1412 -0.7529
  126MPD1    H1 1964   1.003   0.604   8.945 -0.6838 -0.5035  0.5355
  126MPD1    H2 1965   1.266   0.451   9.240  0.6409 -1.9751 -0.9682
  126MPD1    H3 1966   1.067   0.434   9.086 -0.1803  0.5760  0.7761
  126MPD1     N 1967   1.131   0.829   8.904 -0.0137 -0.1261  0.5480
  126MPD1    H5 1968   1.183   0.916   8.905  0.8520 -0.6766  3.0238
  126MPD1    N1 1969   1.455   0.640   9.229  0.8559  0.0736  0.6323
  126MPD1    H6 1970   1.460   0.580   9.310  0.3563 -1.0641 -0.1786
  126MPD1    H7 1971   1.503   0.729   9.235  0.0791  0.3993  1.9803
  127TMC2    C1 1972   1.499   1.304   9.561 -0.1585  0.0906  0.1967
  127TMC2    C2 1973   1.565   1.270   9.679  0.5135 -0.0121  0.3412
  127TMC2    C3 1974   1.503   1.197   9.770 -0.2198  0.1320 -0.5938
  127TMC2    C4 1975   1.376   1.256   9.535 -0.4219  0.2410 -0.1502
  127TMC2    C5 1976   1.315   1.177   9.626  0.3613 -0.8026  0.3815
  127TMC2    C6 1977   1.374   1.153   9.753  0.4992  0.5274  0.1256
  127TMC2     C 1978   1.569   1.399   9.469 -0.3685 -0.1386  0.1964
  127TMC2     O 1979   1.661   1.464   9.515  1.2025  0.2160  0.2312
  127TMC2     H 1980   1.671   1.293   9.689  1.2968 -2.4852 -2.4106
  127TMC2    H1 1981   1.324   1.292   9.447 -1.6721  0.1291  0.5411
  127TMC2    H2 1982   1.329   1.087   9.826  0.1520 -0.3660 -0.8914
  127TMC2    C7 1983   1.178   1.139   9.599 -0.5464 -0.4255  1.0121
  127TMC2    C8 1984   1.565   1.167   9.903  0.1982 -0.5926  0.0598
  127TMC2    O1 1985   1.137   1.176   9.489 -0.3877 -0.4089  0.4355
  127TMC2    O2 1986   1.524   1.071   9.967 -0.3956  0.4110  0.3049
  127TMC2    O5 1987   1.680   1.236   9.924  0.4722  0.1014 -0.2268
  127TMC2    H5 1988   1.684   1.317   9.869  0.7144  1.1417  1.3405
  128MPD2     C 1989   1.531   1.421   9.105 -0.1008  0.1895  0.7247
  128MPD2    C1 1990   1.556   1.466   9.230 -0.4077 -0.6966  0.2249
  128MPD2    C2 1991   1.603   1.593   9.245 -0.5861  0.2699  1.2112
  128MPD2    C3 1992   1.612   1.684   9.144  0.7436 -0.3127  0.3159
  128MPD2    C4 1993   1.596   1.632   9.013  0.0680  0.3853  0.3215
  128MPD2    C5 1994   1.558   1.503   8.999 -0.3809  0.8805 -0.3192
  128MPD2     H 1995   1.618   1.632   9.345  0.5233  0.0314  1.1367
  128MPD2    H1 1996   1.602   1.692   8.923 -1.1005 -0.6705 -0.4671
  128MPD2    H2 1997   1.476   1.329   9.086 -3.3887  2.4139 -0.6156
  128MPD2    H3 1998   1.532   1.473   8.898 -0.2603  1.0566 -0.4032
  128MPD2     N 1999   1.661   1.810   9.178 -0.2859  0.2245 -0.4823
  128MPD2    H5 2000   1.680   1.818   9.278  1.6118  1.4163 -0.9490
  128MPD2    N1 2001   1.536   1.381   9.337 -0.0133  0.1597 -0.6563
  128MPD2    H7 2002   1.494   1.290   9.325  0.8495 -0.5538  1.7589
  129TMC2    C1 2003   0.125   1.198   1.438  0.5101 -0.1456 -0.0070
  129TMC2    C2 2004   0.052   1.296   1.499  0.0431  0.7399  0.2195
  129TMC2    C3 2005   4.643   1.282   1.508  1.0771  0.9385 -0.6624
  129TMC2    C4 2006   0.068   1.081   1.396  0.0203 -1.2365  0.1001
  129TMC2    C5 2007   4.667   1.063   1.420  0.7198 -0.1939  0.4171
  129TMC2    C6 2008   4.587   1.169   1.459  0.3523  0.3545  0.4496
  129TMC2     C 2009   0.254   1.232   1.384  0.1439  0.0106 -0.0168
  129TMC2     O 2010   0.315   1.142   1.333 -0.1395  0.5420 -0.0229
  129TMC2     H 2011   0.097   1.384   1.544  0.0601  0.7032  0.2750
  129TMC2    H1 2012   0.121   1.012   1.330 -0.2402 -0.8420 -0.5211
  129TMC2    H2 2013   4.482   1.147   1.471  0.1963  0.5258 -0.6483
  129TMC2    C7 2014   4.592   0.941   1.375  0.2880  0.0423 -0.2269
  129TMC2    C8 2015   4.561   1.397   1.545  1.0040  0.8253 -0.7286
  129TMC2    O1 2016   4.469   0.934   1.386  0.3442 -0.0214  0.1968
  129TMC2    O2 2017   4.571   1.500   1.484  0.2711 -0.0896  0.3162
  129TMC2    O5 2018   4.446   1.341   1.593 -0.7087  0.0418  0.0877
  129TMC2    H5 2019   4.472   1.269   1.654  1.0003  0.2333 -0.4216
  130MPD2     C 2020   0.513   1.354   1.308 -1.0317  0.2164 -0.1712
  130MPD2    C1 2021   0.396   1.424   1.338 -0.0214  0.6038 -0.0267
  130MPD2    C2 2022   0.400   1.557   1.323 -0.5686 -0.3233 -0.0377
  130MPD2    C3 2023   0.506   1.629   1.272  0.2058 -0.0832 -0.4331
  130MPD2    C4 2024   0.622   1.564   1.252  0.5095  0.4088 -0.1908
  130MPD2    C5 2025   0.622   1.428   1.276  0.4237  0.1245 -0.0163
  130MPD2     H 2026   0.306   1.610   1.333 -0.3758  0.2075 -1.0458
  130MPD2    H1 2027   0.708   1.617   1.214  0.3434  1.4196  0.8587
  130MPD2    H2 2028   0.517   1.248   1.333 -0.4059  0.2023 -0.3396
  130MPD2    H3 2029   0.709   1.365   1.261  0.4001  0.2417 -0.6358
  130MPD2     N 2030   0.475   1.758   1.235  0.2662  0.5414 -0.4316
  130MPD2    H5 2031   0.381   1.784   1.263  0.0570  0.9526 -1.4941
  130MPD2    N1 2032   0.275   1.367   1.388  0.6412  0.0381 -0.3078
  130MPD2    H7 2033   0.197   1.429   1.405  1.4373  0.8535  0.3958
  131TMC2    C1 2034   3.846   0.647  10.100 -0.0605 -0.6117 -0.2221
  131TMC2    C2 2035   3.745   0.651  10.007 -0.0764 -0.0227 -0.1629
  131TMC2    C3 2036   3.702   0.769   9.951  0.7233  0.8091 -0.8611
  131TMC2    C4 2037   3.898   0.765  10.141 -0.4822 -0.2207 -0.0496
  131TMC2    C5 2038   3.859   0.879  10.083  0.3498 -0.4710 -0.2181
  131TMC2    C6 2039   3.762   0.888   9.989 -0.4901 -0.3219  0.5575
  131TMC2     C 2040   3.869   0.532  10.190 -0.0016  0.7727 -0.3119
  131TMC2     O 2041   3.918   0.554  10.303  0.0294 -0.5375  0.0455
  131TMC2     H 2042   3.691   0.561   9.981 -2.1660  1.6647 -1.6531
  131TMC2    H1 2043   3.968   0.766  10.223  0.0021  1.6880 -0.4735
  131TMC2    H2 2044   3.728   0.983   9.948  0.3145 -0.1812  0.2285
  131TMC2    C7 2045   3.868   1.003  10.165  0.0111  0.3278  0.0577
  131TMC2    C8 2046   3.645   0.773   9.818  0.0980  0.2225  0.3126
  131TMC2    O1 2047   3.764   1.056  10.203 -0.0097  0.6718  0.4408
  131TMC2    O2 2048   3.590   0.876   9.781  0.0526  0.2596  0.2792
  131TMC2    O5 2049   3.654   0.656   9.740 -0.2991  0.9727  0.0683
  131TMC2    H5 2050   3.682   0.572   9.781  0.8758  0.6326 -1.4110
  132MPD2     C 2051   3.771   0.171  10.139  0.1887  0.5814  0.3929
  132MPD2    C1 2052   3.798   0.290  10.208  1.0980 -0.8845 -0.1059
  132MPD2    C2 2053   3.826   0.280  10.341 -0.1380 -0.4125  0.5846
  132MPD2    C3 2054   3.809   0.161  10.413 -0.2107 -0.4610 -0.7647
  132MPD2    C4 2055   3.771   0.043  10.348 -0.7136 -0.2576 -0.1881
  132MPD2    C5 2056   3.751   0.055  10.211 -0.1754 -0.0055 -0.1252
  132MPD2     H 2057   3.860   0.365  10.400 -2.8353 -0.0716  1.6686
  132MPD2    H1 2058   3.780   4.681  10.399 -2.6573 -1.3116 -1.8384
  132MPD2    H2 2059   3.744   0.170  10.033 -1.5796 -0.0288  0.8439
  132MPD2    H3 2060   3.716   4.699  10.162  0.7292  0.1344 -1.0182
  132MPD2     N 2061   3.870   0.163  10.543 -0.1394 -0.0904 -0.3856
  132MPD2    H5 2062   3.914   0.249  10.573 -2.8002  1.5737 -1.1827
  132MPD2    N1 2063   3.815   0.412  10.139  0.4498 -0.0550 -0.2137
  132MPD2    H7 2064   3.779   0.409  10.044 -0.6040 -1.3525  0.2276
  133TMC2    C1 2065   4.164   2.182   9.792  0.5383 -0.0501  0.1557
  133TMC2    C2 2066   4.247   2.144   9.691 -0.1154 -0.0906 -0.0531
  133TMC2    C3 2067   4.358   2.219   9.658 -0.7785 -0.9006  0.5176
  133TMC2    C4 2068   4.186   2.301   9.860  0.3031  0.4070 -0.1370
  133TMC2    C5 2069   4.293   2.374   9.819 -0.4381 -0.2409  0.2350
  133TMC2    C6 2070   4.383   2.338   9.719  0.6143 -0.2141  0.2225
  133TMC2     C 2071   4.037   2.109   9.802 -0.1039  0.5742  0.6546
  133TMC2     O 2072   4.038   1.993   9.771  0.0630  0.4279 -0.0616
  133TMC2     H 2073   4.230   2.055   9.630 -1.2103 -0.2457  0.4813
  133TMC2    H1 2074   4.115   2.341   9.932  1.1396  0.3417  0.7239
  133TMC2    H2 2075   4.458   2.410   9.688 -2.3099  2.3628 -0.8135
  133TMC2    C7 2076   4.340   2.477   9.909  0.5730 -0.1888 -0.3913
  133TMC2    C8 2077   4.450   2.189   9.549 -0.3989 -0.4925 -0.0301
  133TMC2    O1 2078   4.437   2.542   9.873 -0.5595  0.4888  0.2200
  133TMC2    O2 2079   4.536   2.266   9.510  0.3569 -0.2141  0.0920
  133TMC2    O5 2080   4.477   2.060   9.549 -0.2181 -0.4249 -0.3647
  133TMC2    H5 2081   4.407   2.018   9.603 -0.3121 -0.2842 -0.3786
  134MPD2     C 2082   3.713   2.220   9.946  0.3389 -0.2649 -0.1558
  134MPD2    C1 2083   3.805   2.125   9.893  0.0229  0.2277  0.4409
  134MPD2    C2 2084   3.766   1.989   9.877 -0.6773  0.5918 -0.9213
  134MPD2    C3 2085   3.634   1.955   9.913 -0.1135 -0.5473  0.5416
  134MPD2    C4 2086   3.551   2.042   9.968 -0.0254 -0.6453 -0.0821
  134MPD2    C5 2087   3.586   2.174   9.981 -0.1198  0.2441 -0.2941
  134MPD2     H 2088   3.838   1.922   9.831  0.4458  2.3442 -1.6988
  134MPD2    H1 2089   3.445   2.022   9.981 -0.1103 -0.2557 -0.1673
  134MPD2    H2 2090   3.736   2.326   9.946 -1.2471  0.0695 -2.2783
  134MPD2    H3 2091   3.510   2.238  10.024  0.3114 -0.1752  1.0809
  134MPD2     N 2092   3.583   1.827   9.873  0.4189  0.4626  0.0577
  134MPD2    H5 2093   3.483   1.823   9.889  0.7350  0.0656  1.9993
  134MPD2    N1 2094   3.935   2.180   9.855  0.2825  0.1277  0.6554
  134MPD2    H7 2095   3.946   2.278   9.879  0.4652 -0.0416  1.2614
  135TMC2    C1 2096   0.957   3.000   9.507  0.0650 -0.1999 -0.0506
  135TMC2    C2 2097   0.953   3.099   9.599  0.3239 -0.1952  0.7267
  135TMC2    C3 2098   0.912   3.071   9.724  0.4179  0.5078  0.0371
  135TMC2    C4 2099   0.922   2.873   9.536  0.5362 -0.2596 -0.1847
  135TMC2    C5 2100   0.882   2.845   9.666  0.4791  0.1658 -0.1682
  135TMC2    C6 2101   0.879   2.942   9.762  0.1838 -0.4441  0.4597
  135TMC2     C 2102   0.966   3.042   9.369  0.2438  0.0168  0.0547
  135TMC2     O 2103   0.915   3.150   9.337  0.2684  0.1813 -0.9447
  135TMC2     H 2104   0.972   3.200   9.564  2.6329 -0.3945  1.3969
  135TMC2    H1 2105   0.914   2.798   9.457 -0.0327  0.3288 -0.6899
  135TMC2    H2 2106   0.846   2.919   9.863 -0.3411 -1.2493  0.1045
  135TMC2    C7 2107   0.780   2.747   9.681  0.5753  0.6647  0.2970
  135TMC2    C8 2108   0.886   3.183   9.818  0.0938  0.2237  0.2631
  135TMC2    O1 2109   0.691   2.750   9.597  0.1979 -0.4209  0.1656
  135TMC2    O2 2110   0.959   3.280   9.826  0.0485 -0.3541  0.6303
  135TMC2    O5 2111   0.798   3.138   9.907  0.2330  0.3006  0.1174
  135TMC2    H5 2112   0.732   3.072   9.878 -1.8392  1.6062  1.8606
  136MPD2     C 2113   0.973   3.027   9.076  0.0322  0.2299 -0.0430
  136MPD2    C1 2114   1.063   2.966   9.157  0.6001 -0.1860  0.2424
  136MPD2    C2 2115   1.174   2.902   9.103 -0.2082  0.4053  0.5819
  136MPD2    C3 2116   1.184   2.897   8.965 -0.0170  0.4112  0.3405
  136MPD2    C4 2117   1.091   2.965   8.888 -1.0090  0.8321 -0.3254
  136MPD2    C5 2118   0.983   3.031   8.938 -0.2812 -0.3511 -0.5597
  136MPD2     H 2119   1.238   2.855   9.177  1.6282 -1.0735 -1.9313
  136MPD2    H1 2120   1.103   2.961   8.780 -1.2005  2.8470 -0.4098
  136MPD2    H2 2121   0.892   3.080   9.125 -0.0606 -0.9993  1.1053
  136MPD2    H3 2122   0.911   3.083   8.875 -1.8135 -2.9636 -0.9554
  136MPD2     N 2123   1.285   2.837   8.896 -1.2458 -0.0091 -0.2060
  136MPD2    H5 2124   1.263   2.819   8.798 -1.8529  0.5317 -0.1732
  136MPD2    N1 2125   1.054   2.967   9.297 -0.4066 -0.3530 -0.6692
  136MPD2    H7 2126   1.112   2.899   9.345 -2.7596 -1.2645  0.8620
  137TMC2    C1 2127   0.494   1.014   9.381  0.0574  0.8653  0.4212
  137TMC2    C2 2128   0.458   0.938   9.279 -0.3011  0.0005  0.0499
  137TMC2    C3 2129   0.432   0.804   9.306  0.0350 -0.3515 -0.2109
  137TMC2    C4 2130   0.498   0.966   9.507 -0.6599  0.2920  0.2519
  137TMC2    C5 2131   0.462   0.835   9.533  0.0466  1.1198 -0.1001
  137TMC2    C6 2132   0.434   0.749   9.432 -0.2768 -0.1285 -0.1360
  137TMC2     C 2133   0.566   1.138   9.357  0.4493  0.6627 -0.0990
  137TMC2     O 2134   0.661   1.154   9.430  0.7243 -0.1336 -0.5075
  137TMC2     H 2135   0.451   0.979   9.179 -0.5140 -0.9960 -0.3457
  137TMC2    H1 2136   0.556   1.009   9.588 -0.4857  0.1126  0.2211
  137TMC2    H2 2137   0.381   0.655   9.448 -0.5598  0.1386  0.4795
  137TMC2    C7 2138   0.438   0.781   9.663  0.4079 -0.2562 -0.7634
  137TMC2    C8 2139   0.397   0.717   9.197  0.3721 -0.7026 -0.6324
  137TMC2    O1 2140   0.433   0.660   9.687  0.3511 -0.4092  0.6629
  137TMC2    O2 2141   0.358   0.765   9.093 -0.1090 -0.0192 -0.0165
  137TMC2    O5 2142   0.407   0.590   9.223 -0.0445  0.6122 -0.3098
  137TMC2    H5 2143   0.453   0.563   9.305 -2.6401 -0.7537  0.7235
  138MPD2     C 2144   0.485   1.423   9.138 -0.1747  0.2248  0.0864
  138MPD2    C1 2145   0.562   1.344   9.222  0.7217  0.8526 -0.2252
  138MPD2    C2 2146   0.681   1.397   9.264  0.0963  0.2657 -0.1649
  138MPD2    C3 2147   0.717   1.529   9.245  0.0596  0.1292  0.3161
  138MPD2    C4 2148   0.638   1.604   9.157  0.5951 -0.0253  0.5679
  138MPD2    C5 2149   0.520   1.550   9.107  0.9174  0.1020 -0.2765
  138MPD2     H 2150   0.737   1.335   9.333 -0.9532 -1.0579 -0.5138
  138MPD2    H1 2151   0.662   1.705   9.125 -1.3603  1.2543  3.1821
  138MPD2    H2 2152   0.390   1.391   9.098  0.2682  0.2088 -0.9405
  138MPD2    H3 2153   0.459   1.611   9.042 -0.8451  0.3495  1.6040
  138MPD2     N 2154   0.826   1.580   9.327 -0.7360  0.1894 -0.5846
  138MPD2    H5 2155   0.878   1.511   9.380  1.4698  1.1548 -1.4615
  138MPD2    N1 2156   0.512   1.214   9.258  0.3907 -0.2268 -0.0241
  138MPD2    H7 2157   0.428   1.178   9.213  0.6350 -2.7517  1.5098
  139TMC2    C1 2158   1.494   0.344  13.364  0.0155 -0.4637 -0.0089
  139TMC2    C2 2159   1.568   0.458  13.324  0.2522 -0.6568 -0.2837
  139TMC2    C3 2160   1.494   0.566  13.279 -0.1277  0.5420 -0.5584
  139TMC2    C4 2161   1.362   0.349  13.346  0.0332 -0.5991  0.0319
  139TMC2    C5 2162   1.296   0.464  13.309  0.5598 -0.7764 -0.1134
  139TMC2    C6 2163   1.361   0.573  13.263  0.9550 -0.7384  0.2848
  139TMC2     C 2164   1.566   0.214  13.371 -0.6800 -0.4415 -0.3858
  139TMC2     O 2165   1.656   0.192  13.288 -0.0800  0.2410 -0.0077
  139TMC2     H 2166   1.675   0.456  13.338 -0.1229 -0.1963  2.6719
  139TMC2    H1 2167   1.291   0.274  13.377  0.7420 -0.9754  0.7323
  139TMC2    H2 2168   1.319   0.662  13.215  0.5862 -0.8615  0.3806
  139TMC2    C7 2169   1.150   0.462  13.280  0.1703 -0.0538  0.7061
  139TMC2    C8 2170   1.564   0.674  13.227  0.0836  0.2306 -0.1816
  139TMC2    O1 2171   1.103   0.571  13.261  0.4139 -0.2546  0.2775
  139TMC2    O2 2172   1.582   0.687  13.107  0.2074 -0.5901  0.6176
  139TMC2    O5 2173   1.664   0.702  13.321 -0.0142  0.6722  0.3966
  139TMC2    H5 2174   1.628   0.676  13.409  1.0431 -1.5681  0.1699
  140MPD2     C 2175   1.437   4.646  13.536  0.1131 -0.3340  0.2207
  140MPD2    C1 2176   1.518   4.720  13.458 -0.1159  0.8598 -0.0220
  140MPD2    C2 2177   1.617   4.643  13.393 -0.2315 -0.2529  0.2963
  140MPD2    C3 2178   1.626   4.503  13.404  0.1987  0.2947  1.1258
  140MPD2    C4 2179   1.530   4.435  13.477  0.9066 -0.0762 -0.2077
  140MPD2    C5 2180   1.447   4.508  13.549  0.3221 -0.4977 -0.2731
  140MPD2     H 2181   1.690   4.691  13.328 -0.5133 -0.3097 -0.0647
  140MPD2    H1 2182   1.526   4.328  13.493 -1.3748 -0.0332 -0.4261
  140MPD2    H2 2183   1.353   4.691  13.587 -0.1650 -1.7288  1.0070
  140MPD2    H3 2184   1.377   4.453  13.611  0.5765 -0.0812  0.3800
  140MPD2     N 2185   1.742   4.445  13.358  0.3638 -0.4841  0.1579
  140MPD2    H5 2186   1.804   4.505  13.306 -1.4887  0.1256 -1.3388
  140MPD2    N1 2187   1.500   0.125  13.445  0.1250  0.2991 -0.5006
  140MPD2    H7 2188   1.421   0.160  13.500 -0.2366 -2.5953  0.8512
  141TMC2    C1 2189   1.964   1.385  14.397  1.0877 -0.7333 -0.3244
  141TMC2    C2 2190   1.957   1.267  14.466 -0.7115  0.0063 -0.1912
  141TMC2    C3 2191   1.995   1.271  14.596 -0.8922  0.6539  0.3416
  141TMC2    C4 2192   1.996   1.502  14.454 -0.6294  0.2857  0.0985
  141TMC2    C5 2193   2.042   1.501  14.586 -0.5983  0.0228  0.3203
  141TMC2    C6 2194   2.040   1.379  14.656  0.3151 -0.1868 -0.6221
  141TMC2     C 2195   1.938   1.383  14.256 -0.4294 -0.1292 -0.1004
  141TMC2     O 2196   1.903   1.482  14.196  0.8448 -1.0046  0.1147
  141TMC2     H 2197   1.913   1.176  14.427 -1.3670  0.0245  0.5101
  141TMC2    H1 2198   1.995   1.590  14.390 -3.7441 -0.6011 -1.0439
  141TMC2    H2 2199   2.076   1.367  14.758 -1.3955  3.7566  0.4627
  141TMC2    C7 2200   2.103   1.616  14.646  0.0736 -0.3001 -0.1114
  141TMC2    C8 2201   1.993   1.146  14.665 -0.2442 -0.7048  0.3899
  141TMC2    O1 2202   2.163   1.592  14.751 -0.5466 -0.0866  0.2099
  141TMC2    O2 2203   2.006   1.136  14.787 -1.0545  0.0605 -0.5922
  141TMC2    O5 2204   2.038   1.045  14.582  0.1298 -0.1520  0.1102
  141TMC2    H5 2205   2.042   1.075  14.489 -0.7573 -0.0253  0.1076
  142TMC2    C1 2206   4.139   0.086  10.303  0.1348  0.4223  0.1124
  142TMC2    C2 2207   4.102   0.074  10.172 -0.3027  0.3714 -0.3492
  142TMC2    C3 2208   4.151   0.175  10.088  0.7668  0.2898  0.0566
  142TMC2    C4 2209   4.197   0.200  10.359  0.2977  0.9982 -0.3120
  142TMC2    C5 2210   4.233   0.295  10.268  0.5408 -0.6497  0.1484
  142TMC2    C6 2211   4.208   0.293  10.134 -0.2186 -0.6357  0.0069
  142TMC2     C 2212   4.148   4.695  10.374  0.5277 -1.0375 -0.2975
  142TMC2     O 2213   4.109   4.598  10.315  0.1119 -0.5953 -0.2522
  142TMC2     H 2214   4.033   4.730  10.141 -0.3854  0.4841 -0.4526
  142TMC2    H1 2215   4.217   0.221  10.463 -0.8080 -1.6375  0.4340
  142TMC2    H2 2216   4.222   0.377  10.067  1.6520 -1.1481 -0.2574
  142TMC2    C7 2217   4.301   0.413  10.322 -0.1502  0.0136 -0.5178
  142TMC2    C8 2218   4.063   0.205   9.972  0.0825  0.2318  0.4487
  142TMC2    O1 2219   4.270   0.448  10.436 -0.5849 -0.7798  0.6668
  142TMC2    O2 2220   4.041   0.313   9.917 -0.6962 -0.3466 -0.1469
  142TMC2    O5 2221   4.082   0.094   9.903 -0.2656  0.0440  0.1207
  142TMC2    H5 2222   4.123   0.023   9.956  0.1327  1.1156  1.2653
  143MPD2     C 2223   4.230   4.374  10.751  0.3408 -0.3731  0.2545
  143MPD2    C1 2224   4.203   4.353  10.617  0.0322 -0.1742 -0.8775
  143MPD2    C2 2225   4.201   4.459  10.536 -0.0372 -0.6237 -0.2799
  143MPD2    C3 2226   4.216   4.592  10.583  0.1577  0.1016 -0.1762
  143MPD2    C4 2227   4.244   4.611  10.713 -0.0992  0.2499 -0.6648
  143MPD2    C5 2228   4.252   4.501  10.801  0.6710 -0.0820 -0.1967
  143MPD2     H 2229   4.191   4.432  10.432 -1.8420 -2.1274  0.2837
  143MPD2    H1 2230   4.253   4.706  10.764  3.2508 -0.3595 -0.1289
  143MPD2    H2 2231   4.232   4.291  10.821  1.4430 -0.2958  0.3069
  143MPD2    H3 2232   4.284   4.522  10.903 -1.6097  3.6234 -0.2246
  143MPD2     N 2233   4.190   4.708  10.502  0.3434 -0.0723 -0.0055
  143MPD2    H5 2234   4.219   0.066  10.535  0.6240  0.6293 -2.2056
  143MPD2    N1 2235   4.182   4.215  10.571  0.2383 -0.6711 -0.4498
  143MPD2    H7 2236   4.224   4.144  10.630  0.6588  0.2917  0.4232
  144TMC2    C1 2237   1.239   3.256   0.928 -0.2059 -0.7231  0.2005
  144TMC2    C2 2238   1.138   3.177   0.972  0.1878  0.3234  0.2177
  144TMC2    C3 2239   1.143   3.142   1.102  0.0054  0.1239 -0.3603
  144TMC2    C4 2240   1.355   3.272   0.999  0.5249 -0.4338 -0.0207
  144TMC2    C5 2241   1.353   3.233   1.135  0.3882 -0.3362 -0.0937
  144TMC2    C6 2242   1.246   3.177   1.195  0.0640 -0.5730 -0.2033
  144TMC2     C 2243   1.222   3.291   0.787  0.3464  0.4531 -0.5820
  144TMC2     O 2244   1.293   3.383   0.740 -0.0286 -0.4654 -0.2465
  144TMC2     H 2245   1.041   3.179   0.925  0.0622  1.0538  0.5039
  144TMC2    H1 2246   1.444   3.309   0.948  0.1576 -1.3142 -1.2887
  144TMC2    H2 2247   1.234   3.164   1.302  2.2379  0.0341  0.1100
  144TMC2    C7 2248   1.461   3.266   1.224 -0.3886  0.3235  0.5627
  144TMC2    C8 2249   1.024   3.079   1.168  0.3611  0.5169  0.5375
  144TMC2    O1 2250   1.456   3.210   1.335  0.1023  0.0617 -0.2674
  144TMC2    O2 2251   1.027   3.070   1.289  0.5933  0.0496  0.5326
  144TMC2    O5 2252   0.977   2.982   1.084  0.1270  0.6840  0.0459
  144TMC2    H5 2253   0.990   2.988   0.987 -2.5051  1.0054 -0.2906
  145MPD2     C 2254   1.045   3.219   0.309 -0.4035 -0.2814  0.0630
  145MPD2    C1 2255   1.128   3.314   0.355  0.6408 -0.2224  0.2855
  145MPD2    C2 2256   1.157   3.321   0.494 -0.4510 -0.0642  0.0688
  145MPD2    C3 2257   1.126   3.215   0.579 -0.0985  0.7555 -0.0690
  145MPD2    C4 2258   1.061   3.107   0.524  0.1909 -0.1870 -0.3405
  145MPD2    C5 2259   1.017   3.111   0.389  0.1222  0.1558 -0.7334
  145MPD2     H 2260   1.209   3.404   0.541 -0.1662 -0.1100 -0.1597
  145MPD2    H1 2261   1.029   3.020   0.581 -0.9907  0.9845  0.7679
  145MPD2    H2 2262   1.008   3.216   0.207 -1.6301 -0.7534  0.5284
  145MPD2    H3 2263   0.950   3.036   0.348 -2.3428  2.1072 -0.2753
  145MPD2     N 2264   1.144   3.203   0.718  0.0261 -0.2420  0.3400
  145MPD2    H5 2265   1.120   3.117   0.766 -2.2571  0.2651  0.1144
  145MPD2    N1 2266   1.180   3.415   0.264 -0.1876  0.2058 -0.0403
  145MPD2    H7 2267   1.224   3.496   0.306  1.2444 -1.1149  1.0331
  146TMC2    C1 2268   4.192   1.938  12.192 -0.0502  0.1535 -0.4418
  146TMC2    C2 2269   4.199   1.906  12.054 -0.4808  0.4174  0.7260
  146TMC2    C3 2270   4.313   1.846  12.007  0.1258 -0.3442 -0.3474
  146TMC2    C4 2271   4.298   1.912  12.280 -0.1265 -0.0904 -0.4329
  146TMC2    C5 2272   4.402   1.843  12.225  0.4854 -0.3236  0.5374
  146TMC2    C6 2273   4.411   1.810  12.094  0.2243  0.4687  0.1765
  146TMC2     C 2274   4.065   1.999  12.237  0.1032  0.2716  0.3966
  146TMC2     O 2275   3.989   2.023  12.144  0.3589  0.2747 -0.0711
  146TMC2     H 2276   4.115   1.920  11.986  0.8725 -0.8974 -1.2059
  146TMC2    H1 2277   4.280   1.948  12.381  0.4592 -0.6810 -0.1244
  146TMC2    H2 2278   4.485   1.733  12.073  0.2194  0.5818 -0.2540
  146TMC2    C7 2279   4.518   1.823  12.315 -0.4627  0.1827  0.0928
  146TMC2    C8 2280   4.294   1.770  11.885  0.5086 -0.2332 -0.3547
  146TMC2    O1 2281   4.627   1.822  12.264 -1.3749  0.8055  0.8831
  146TMC2    O2 2282   4.195   1.702  11.876  0.3887 -0.2322 -0.2899
  146TMC2    O5 2283   4.422   1.733  11.854 -0.1609  0.4488  0.2771
  146TMC2    H5 2284   4.483   1.808  11.874 -0.2759  0.0835  2.0222
  147MPD2     C 2285   0.000   1.862  12.769  0.6447 -0.5504 -0.8745
  147MPD2    C1 2286   4.603   1.831  12.793  0.1599 -0.0004  1.1797
  147MPD2    C2 2287   4.523   1.825  12.681  0.7406  0.4071  0.5468
  147MPD2    C3 2288   4.569   1.841  12.555  0.9109 -0.4574  0.0373
  147MPD2    C4 2289   4.699   1.877  12.536  0.4292  0.1665  0.1758
  147MPD2    C5 2290   0.048   1.876  12.644  0.2332  0.2172  0.1091
  147MPD2     H 2291   4.416   1.809  12.691  0.4222  2.6396  0.8213
  147MPD2    H1 2292   0.013   1.893  12.440 -0.0517 -1.7987 -0.3923
  147MPD2    H2 2293   0.067   1.884  12.851  0.7276 -0.3922 -0.9865
  147MPD2    H3 2294   0.150   1.907  12.628 -0.0742  0.6142 -1.0659
  147MPD2     N 2295   4.483   1.827  12.447  0.3433  0.2389 -0.2331
  147MPD2    H5 2296   4.387   1.804  12.472  0.4328 -1.4061 -1.3782
  147MPD2    N1 2297   4.568   1.818  12.927 -0.0609 -0.6570  0.2798
  147MPD2    H7 2298   4.641   1.836  12.995 -2.1125  0.4844  2.1877
  148TMC2    C1 2299   3.704   1.467  10.931 -0.0035  0.3388  0.6829
  148TMC2    C2 2300   3.757   1.549  11.032 -0.0715  0.3052 -0.3292
  148TMC2    C3 2301   3.888   1.532  11.069 -0.1344  0.4359  0.2294
  148TMC2    C4 2302   3.782   1.372  10.868 -0.1814 -0.4813 -0.3267
  148TMC2    C5 2303   3.915   1.373  10.898  0.3456  0.2749 -0.5918
  148TMC2    C6 2304   3.972   1.455  10.992 -0.0640 -0.4844  0.6380
  148TMC2     C 2305   3.603   1.531  10.854  0.3550 -0.1211 -1.1591
  148TMC2     O 2306   3.591   1.651  10.871  0.0320  0.6084 -0.0902
  148TMC2     H 2307   3.714   1.643  11.063 -1.9813 -0.5041 -0.5228
  148TMC2    H1 2308   3.752   1.338  10.770  0.4006 -0.4733 -0.5103
  148TMC2    H2 2309   4.077   1.457  11.016  0.0806 -0.2371 -0.0118
  148TMC2    C7 2310   3.994   1.289  10.807  0.6147 -1.2809 -0.0979
  148TMC2    C8 2311   3.937   1.662  11.112 -0.2222 -0.1008 -0.1400
  148TMC2    O1 2312   4.109   1.327  10.790 -0.3310 -0.4815  0.2756
  148TMC2    O2 2313   3.892   1.767  11.075 -0.2591  0.6532 -0.3928
  148TMC2    O5 2314   4.065   1.648  11.150 -0.0410  0.2277  0.5519
  148TMC2    H5 2315   4.063   1.576  11.216  1.5103 -0.4043 -0.0958
  149MPD2     C 2316   3.382   1.625  10.657 -0.0494  0.3799 -0.0815
  149MPD2    C1 2317   3.416   1.494  10.687 -0.4281 -0.1921 -0.5962
  149MPD2    C2 2318   3.366   1.396  10.610 -0.0204  0.3373 -0.1554
  149MPD2    C3 2319   3.289   1.420  10.499 -0.0511 -0.8380  0.3674
  149MPD2    C4 2320   3.241   1.549  10.477 -0.4877  0.7579  0.1924
  149MPD2    C5 2321   3.296   1.649  10.554 -0.2307 -0.2954 -0.6044
  149MPD2     H 2322   3.389   1.294  10.637  0.2843  0.7794  1.2544
  149MPD2    H1 2323   3.189   1.583  10.388 -1.5181  0.2543  0.6016
  149MPD2    H2 2324   3.406   1.704  10.726  0.5931 -0.6669  0.8998
  149MPD2    H3 2325   3.282   1.752  10.523  0.1228  0.0940  0.5338
  149MPD2     N 2326   3.262   1.320  10.397  0.2663  0.1172 -0.2924
  149MPD2    H5 2327   3.189   1.341  10.330 -0.5768 -2.5818 -0.2079
  149MPD2    N1 2328   3.511   1.450  10.787 -0.0703 -0.3152  0.2048
  149MPD2    H7 2329   3.524   1.351  10.807 -1.1695 -0.2948  1.0329
  150TMC2    C1 2330   0.855   0.836  12.257 -0.9087  0.3232 -0.6330
  150TMC2    C2 2331   0.851   0.797  12.383  0.2421 -0.3560  0.4036
  150TMC2    C3 2332   0.932   0.701  12.417 -0.1954 -0.3582 -0.5547
  150TMC2    C4 2333   0.950   0.780  12.166  0.4478  0.5848  0.0939
  150TMC2    C5 2334   1.036   0.681  12.211  0.5029  0.4106  0.7466
  150TMC2    C6 2335   1.022   0.640  12.335  0.7262 -0.8185 -0.3976
  150TMC2     C 2336   0.728   0.883  12.216  0.0246  0.4501  0.0744
  150TMC2     O 2337   0.687   0.980  12.280 -0.3434  0.2673  0.4763
  150TMC2     H 2338   0.767   0.823  12.446 -1.7734 -0.5922 -2.1733
  150TMC2    H1 2339   0.963   0.823  12.067 -1.0304  2.4978  0.7397
  150TMC2    H2 2340   1.076   0.556  12.377  1.0761 -0.5639 -0.3347
  150TMC2    C7 2341   1.150   0.654  12.125  0.0486  0.0754  0.8393
  150TMC2    C8 2342   0.913   0.663  12.552  0.1923 -0.3510 -0.3258
  150TMC2    O1 2343   1.151   0.726  12.026 -0.0043 -0.3071  0.0503
  150TMC2    O2 2344   0.802   0.655  12.601  0.4701 -0.2130  0.0950
  150TMC2    O5 2345   1.021   0.611  12.611 -0.7293 -0.5560 -0.1999
  150TMC2    H5 2346   1.104   0.628  12.561 -0.3555 -1.5779  0.0864
  151MPD2     C 2347   0.286   0.817  11.985 -0.5660  0.9800  0.2176
  151MPD2    C1 2348   0.374   0.724  11.943 -0.4610  1.0596 -0.6081
  151MPD2    C2 2349   0.504   0.733  11.974 -0.3885  0.2784 -0.2578
  151MPD2    C3 2350   0.537   0.818  12.079 -0.2261  0.1263  0.3116
  151MPD2    C4 2351   0.442   0.902  12.134  0.4272  0.0406 -0.1815
  151MPD2    C5 2352   0.313   0.902  12.088 -0.0030  0.1095  0.3231
  151MPD2     H 2353   0.584   0.673  11.931 -0.6640 -0.7526  0.6669
  151MPD2    H1 2354   0.463   0.959  12.223 -2.5121  2.4001 -0.9955
  151MPD2    H2 2355   0.182   0.811  11.955 -0.5666  1.4229  0.1308
  151MPD2    H3 2356   0.236   0.956  12.142  0.7603  1.0505  0.4754
  151MPD2     N 2357   0.669   0.807  12.129 -0.7717 -0.3525 -0.1855
  151MPD2    H5 2358   0.722   0.732  12.085 -2.7689 -1.7813 -0.1636
  151MPD2    N1 2359   0.328   0.634  11.851  0.0063 -0.2162  0.0046
  151MPD2    H7 2360   0.228   0.635  11.835 -0.3402  0.1486  2.3057
  152TMC2    C1 2361   0.856   4.582  13.051 -0.4860 -0.0416  0.1424
  152TMC2    C2 2362   0.964   4.508  13.091  0.0529 -0.5392 -0.9298
  152TMC2    C3 2363   1.087   4.557  13.060  0.2549 -0.4206  0.3624
  152TMC2    C4 2364   0.864   4.694  12.957 -0.5450  0.6849 -0.7957
  152TMC2    C5 2365   0.993   4.731  12.932  0.0788 -0.2720 -0.3820
  152TMC2    C6 2366   1.102   4.668  12.982  0.2672 -0.6609  0.1895
  152TMC2     C 2367   0.725   4.573  13.112  0.0934  0.6800 -0.1097
  152TMC2     O 2368   0.645   4.668  13.098 -0.0248  0.0350 -0.0018
  152TMC2     H 2369   0.959   4.421  13.156 -1.9065 -0.9636 -1.6510
  152TMC2    H1 2370   0.778   4.730  12.901 -2.2382 -2.3841 -0.2218
  152TMC2    H2 2371   1.203   4.690  12.949 -0.2529  0.1988 -0.8114
  152TMC2    C7 2372   1.006   0.139  12.907  0.2176  0.6858 -0.6816
  152TMC2    C8 2373   1.212   4.478  13.081  0.2098 -0.0117 -0.6785
  152TMC2    O1 2374   0.897   0.199  12.910  0.0223  0.3201  0.3364
  152TMC2    O2 2375   1.301   4.504  13.160  0.4826  0.8000 -0.1694
  152TMC2    O5 2376   1.163   4.358  13.038  0.5235  0.3148 -0.4912
  152TMC2    H5 2377   1.081   4.364  12.985  0.5803  2.3562 -0.3663
  153MPD2     C 2378   0.532   4.283  13.219  0.0267  0.0060 -0.4255
  153MPD2    C1 2379   0.575   4.415  13.224 -0.3261 -0.0220  0.9401
  153MPD2    C2 2380   0.481   4.511  13.270 -0.2898 -0.6322  0.5391
  153MPD2    C3 2381   0.347   4.482  13.296 -0.1466  0.3579  0.4640
  153MPD2    C4 2382   0.312   4.350  13.290  0.4467  0.3427 -0.1995
  153MPD2    C5 2383   0.402   4.253  13.254  1.1496 -0.6643  0.5704
  153MPD2     H 2384   0.516   4.613  13.273  1.5781 -1.2342 -0.9319
  153MPD2    H1 2385   0.209   4.318  13.291  1.2569 -2.2020  0.0617
  153MPD2    H2 2386   0.597   4.200  13.193  0.6177 -0.1585  1.5543
  153MPD2    H3 2387   0.363   4.152  13.251 -1.9340  0.5495  0.0045
  153MPD2     N 2388   0.256   4.585  13.325  0.3071 -0.3126 -0.4794
  153MPD2    H5 2389   0.292   4.679  13.322  1.3648 -0.7032 -0.0679
  153MPD2    N1 2390   0.701   4.453  13.168  0.3182  0.0143 -0.2262
  153MPD2    H7 2391   0.764   4.375  13.153 -0.0101 -0.5661  1.4253
  154TMC2    C1 2392   2.203   4.526   0.842 -0.1392 -0.0760 -0.6229
  154TMC2    C2 2393   2.252   4.547   0.967 -0.3938 -0.0004 -0.0656
  154TMC2    C3 2394   2.373   4.483   0.999 -0.2353 -0.1576 -0.4146
  154TMC2    C4 2395   2.250   4.426   0.763 -0.1248  0.0661 -0.1862
  154TMC2    C5 2396   2.364   4.355   0.799  0.3249 -0.6101  0.7718
  154TMC2    C6 2397   2.426   4.383   0.915 -0.6000 -0.3100 -0.7677
  154TMC2     C 2398   2.109   4.626   0.795  0.0942 -0.0718  0.1128
  154TMC2     O 2399   2.119   0.006   0.842 -0.7109  0.9100  0.3267
  154TMC2     H 2400   2.220   4.628   1.031  0.3023  0.1835  0.0551
  154TMC2    H1 2401   2.218   4.419   0.659 -2.0219 -0.5818  0.4368
  154TMC2    H2 2402   2.512   4.325   0.946 -0.3143  0.1344 -0.7281
  154TMC2    C7 2403   2.402   4.230   0.738 -0.6862  0.2657  0.1119
  154TMC2    C8 2404   2.448   4.522   1.109 -0.7865 -0.9958 -0.1158
  154TMC2    O1 2405   2.472   4.152   0.798  0.0978 -0.0799 -0.5364
  154TMC2    O2 2406   2.431   4.625   1.173  0.5443 -0.1447  0.5281
  154TMC2    O5 2407   2.509   4.418   1.172  0.3975 -0.6333 -0.1057
  154TMC2    H5 2408   2.470   4.331   1.148 -0.8984 -0.2481  0.6563
  155MPD2     C 2409   1.868   4.573   0.520  0.2122 -0.6410  0.1309
  155MPD2    C1 2410   1.922   4.637   0.630  0.2513 -1.0858  0.0008
  155MPD2    C2 2411   1.857   0.016   0.675  0.7409  0.0448  0.3445
  155MPD2    C3 2412   1.750   0.072   0.606  0.1835  0.6847  0.0408
  155MPD2    C4 2413   1.705   0.014   0.488 -0.1326 -0.0536  0.1323
  155MPD2    C5 2414   1.766   4.632   0.453  0.6123 -0.3236 -0.2949
  155MPD2     H 2415   1.888   0.064   0.767  2.8492  0.5724 -0.6347
  155MPD2    H1 2416   1.625   0.056   0.427  1.4428 -0.7179 -2.3397
  155MPD2    H2 2417   1.913   4.480   0.488 -2.2420 -1.6772 -0.3112
  155MPD2    H3 2418   1.722   4.575   0.372  0.4195  0.8390 -1.0019
  155MPD2     N 2419   1.687   0.178   0.667 -0.2179  0.4232  0.5538
  155MPD2    H5 2420   1.721   0.204   0.759 -0.5108  2.0134  0.2129
  155MPD2    N1 2421   2.038   4.576   0.690  0.2457  0.1278  0.3023
  155MPD2    H7 2422   2.065   4.483   0.661 -0.0927  0.4836 -1.1372
  156TMC2    C1 2423   0.791   2.218  11.397 -0.1330 -0.4901  0.9966
  156TMC2    C2 2424   0.847   2.184  11.273 -0.7700 -0.2297  0.1342
  156TMC2    C3 2425   0.805   2.259  11.172  0.4800  0.1805  0.1264
  156TMC2    C4 2426   0.694   2.311  11.416  0.2798  0.1348 -0.2736
  156TMC2    C5 2427   0.664   2.387  11.307 -0.1452  0.4801  0.2569
  156TMC2    C6 2428   0.713   2.364  11.180  0.8738 -0.2337  0.7650
  156TMC2     C 2429   0.847   2.169  11.520 -0.7426  0.1294 -0.0894
  156TMC2     O 2430   0.788   2.205  11.624 -0.2930  0.3387  0.2767
  156TMC2     H 2431   0.915   2.100  11.264 -1.4283 -0.8235  0.6599
  156TMC2    H1 2432   0.641   2.334  11.508 -2.1200 -1.2906 -1.2950
  156TMC2    H2 2433   0.682   2.420  11.093  3.2709  0.6583  0.4903
  156TMC2    C7 2434   0.683   2.527  11.346 -0.1781 -0.1787  0.5421
  156TMC2    C8 2435   0.862   2.237  11.043  0.9425 -0.3932 -0.0137
  156TMC2    O1 2436   0.762   2.543  11.438  0.0622  0.0270  0.1696
  156TMC2    O2 2437   0.786   2.260  10.950 -0.2505 -0.0050 -0.3676
  156TMC2    O5 2438   0.984   2.290  11.073 -0.4370  0.4400  0.2697
  156TMC2    H5 2439   1.025   2.278  11.161 -0.6715 -1.6867  0.1097
  157MPD2     C 2440   1.186   2.067  11.580  0.4930  0.1610 -0.3419
  157MPD2    C1 2441   1.059   2.099  11.614 -0.0171 -0.0638  0.5564
  157MPD2    C2 2442   1.032   2.141  11.745  0.1134  0.2929  0.0843
  157MPD2    C3 2443   1.137   2.157  11.834  0.0665 -0.7674  0.3990
  157MPD2    C4 2444   1.262   2.129  11.794 -0.6771 -0.2605 -0.0954
  157MPD2    C5 2445   1.290   2.078  11.667 -0.1245  0.1908  0.4511
  157MPD2     H 2446   0.934   2.162  11.787 -0.7051 -1.3917 -0.9594
  157MPD2    H1 2447   1.343   2.139  11.865  0.0692  0.0481 -0.9885
  157MPD2    H2 2448   1.217   2.033  11.481 -0.4886  1.4504 -1.0827
  157MPD2    H3 2449   1.391   2.053  11.636 -1.6180 -0.8967 -3.4535
  157MPD2     N 2450   1.102   2.194  11.969 -0.0670  0.3801 -0.6231
  157MPD2    H5 2451   1.002   2.195  11.987  0.1051  0.0951  0.3510
  157MPD2    N1 2452   0.966   2.107  11.503  0.7062  0.2783  0.1930
  157MPD2    H7 2453   0.991   2.093  11.406  0.8475  1.9285 -0.0086
  158TMC2    C1 2454   0.999   1.754  13.738 -0.0640 -0.5026 -0.3817
  158TMC2    C2 2455   0.971   1.867  13.661  0.1271 -0.0776 -0.4570
  158TMC2    C3 2456   0.843   1.881  13.612 -0.5621 -0.3025 -0.2854
  158TMC2    C4 2457   0.900   1.660  13.762  0.1369  0.7938 -0.0357
  158TMC2    C5 2458   0.779   1.680  13.707 -0.3682 -0.0322  0.7559
  158TMC2    C6 2459   0.747   1.790  13.631 -0.3688  0.0077  0.6665
  158TMC2     C 2460   1.136   1.745  13.795  0.3391 -0.8529 -0.4782
  158TMC2     O 2461   1.199   1.849  13.816  0.0482  0.5078 -0.3308
  158TMC2     H 2462   1.047   1.942  13.641  0.6839 -0.8517 -1.2485
  158TMC2    H1 2463   0.902   1.580  13.835 -0.4058 -0.8699 -1.8419
  158TMC2    H2 2464   0.646   1.828  13.618 -0.6740 -1.5794 -1.5826
  158TMC2    C7 2465   0.686   1.622  13.795  0.6350 -0.2828  0.0092
  158TMC2    C8 2466   0.828   1.958  13.495  0.4396 -0.1008  0.1774
  158TMC2    O1 2467   0.633   1.692  13.883  0.2893 -0.2015 -0.2449
  158TMC2    O2 2468   0.713   1.959  13.458  0.6663  0.6771 -0.6418
  158TMC2    O5 2469   0.935   1.941  13.417 -0.1975  0.0177 -0.6482
  158TMC2    H5 2470   1.024   1.945  13.457 -1.1549  0.7142  1.4243
  159MPD2     C 2471   1.509   1.453  13.994 -0.1059 -0.0264 -0.5000
  159MPD2    C1 2472   1.396   1.372  13.963  0.8881  0.1421 -0.0796
  159MPD2    C2 2473   1.281   1.433  13.919 -0.3971 -0.3308 -0.2279
  159MPD2    C3 2474   1.278   1.570  13.891 -0.1225 -0.1228 -0.2992
  159MPD2    C4 2475   1.383   1.643  13.923  0.2283 -0.0703 -0.6985
  159MPD2    C5 2476   1.489   1.587  13.979  0.7833  0.3883  0.5075
  159MPD2     H 2477   1.192   1.385  13.881  0.8544 -0.4145 -3.0623
  159MPD2    H1 2478   1.395   1.750  13.914  0.3223  0.1332  1.7612
  159MPD2    H2 2479   1.588   1.416  14.059 -0.8722 -3.9013 -1.7998
  159MPD2    H3 2480   1.580   1.643  14.002  0.3992  1.9541 -1.8342
  159MPD2     N 2481   1.167   1.613  13.819  0.1175 -0.3985  0.2008
  159MPD2    H5 2482   1.095   1.549  13.788  0.4655 -0.5713 -0.2440
  159MPD2    N1 2483   1.399   1.238  14.008  0.3255 -0.1483  0.1286
  159MPD2    H7 2484   1.479   1.213  14.066 -0.7213 -1.5324  0.9854
  160TMC2    C1 2485   0.712   3.698   1.264 -0.6021  0.0575 -0.3596
  160TMC2    C2 2486   0.765   3.708   1.389  0.1869  0.6495  0.0182
  160TMC2    C3 2487   0.860   3.795   1.418  0.3632  0.2570  0.0854
  160TMC2    C4 2488   0.762   3.769   1.157  1.0238 -0.0067  0.2832
  160TMC2    C5 2489   0.862   3.862   1.192 -0.5844 -0.3535  0.1238
  160TMC2    C6 2490   0.918   3.868   1.317 -0.1862 -0.3427  0.1707
  160TMC2     C 2491   0.576   3.655   1.259 -0.1051  0.4309 -0.5944
  160TMC2     O 2492   0.539   3.550   1.314 -0.5445 -0.2074 -0.1276
  160TMC2     H 2493   0.717   3.649   1.467 -0.0184 -0.2677 -0.8062
  160TMC2    H1 2494   0.725   3.749   1.057 -0.6644  1.8938  0.5335
  160TMC2    H2 2495   1.007   3.929   1.324 -1.5864  1.7297 -0.1974
  160TMC2    C7 2496   0.885   3.971   1.101 -0.5202 -0.3533 -0.1094
  160TMC2    C8 2497   0.942   3.782   1.534  0.4862 -0.1894 -0.6462
  160TMC2    O1 2498   0.815   3.950   1.000  0.4719 -0.1284 -0.8842
  160TMC2    O2 2499   1.053   3.831   1.539 -0.0816 -0.3793  0.0315
  160TMC2    O5 2500   0.890   3.702   1.634  0.4425 -0.2482  0.3772
  160TMC2    H5 2501   0.795   3.683   1.645 -0.1183  1.2490 -1.7196
  161MPD2     C 2502   0.283   3.633   1.158 -0.0140 -0.4334 -0.7144
  161MPD2    C1 2503   0.362   3.745   1.175  0.1160 -0.1339 -1.3060
  161MPD2    C2 2504   0.312   3.869   1.147  0.3003 -0.6711  0.2343
  161MPD2    C3 2505   0.182   3.888   1.102 -0.2406 -0.6537 -0.7598
  161MPD2    C4 2506   0.098   3.779   1.091 -0.2140 -0.0411  0.9734
  161MPD2    C5 2507   0.148   3.651   1.129  0.4783  0.8353 -0.3674
  161MPD2     H 2508   0.386   3.949   1.149 -0.6118  0.2326 -1.9211
  161MPD2    H1 2509   4.726   3.785   1.073  0.4286 -0.2270 -2.9424
  161MPD2    H2 2510   0.329   3.537   1.180 -2.2860 -0.9287  1.8670
  161MPD2    H3 2511   0.086   3.562   1.133 -3.5484  3.5619 -2.3500
  161MPD2     N 2512   0.118   4.003   1.069  0.1194 -0.2523 -0.2657
  161MPD2    H5 2513   0.019   4.004   1.043 -0.0183  2.8814  0.3984
  161MPD2    N1 2514   0.502   3.744   1.185  0.5527 -0.0898 -0.8440
  161MPD2    H7 2515   0.552   3.827   1.156 -1.2877  0.8311 -1.3779
  162TMC2    C1 2516   3.245   1.255   1.033  0.0810 -0.2684 -0.3565
  162TMC2    C2 2517   3.155   1.328   1.110 -0.1142 -0.0198 -0.3452
  162TMC2    C3 2518   3.189   1.349   1.238 -0.0660  0.2151  0.1204
  162TMC2    C4 2519   3.353   1.192   1.093 -0.4571  0.4480 -1.0348
  162TMC2    C5 2520   3.371   1.209   1.228  0.2538  0.1257  0.5714
  162TMC2    C6 2521   3.290   1.293   1.301  0.3679  0.0609 -0.3392
  162TMC2     C 2522   3.213   1.222   0.896  0.2787 -0.5061 -0.1700
  162TMC2     O 2523   3.273   1.135   0.837 -0.1317 -0.1210 -0.2853
  162TMC2     H 2524   3.055   1.355   1.079  0.8921  2.4169 -1.4717
  162TMC2    H1 2525   3.420   1.142   1.023  0.6916  0.6886 -0.1037
  162TMC2    H2 2526   3.320   1.327   1.399  2.9156 -1.5155 -0.5669
  162TMC2    C7 2527   3.506   1.191   1.272  0.4384  0.1736 -0.0960
  162TMC2    C8 2528   3.097   1.427   1.310 -0.2827 -0.1927 -0.1885
  162TMC2    O1 2529   3.541   1.262   1.365  0.1643  0.2697  0.3248
  162TMC2    O2 2530   3.040   1.519   1.253 -0.7999 -0.3266  0.1019
  162TMC2    O5 2531   3.024   1.330   1.363 -0.3803 -0.1631  0.3252
  162TMC2    H5 2532   3.079   1.249   1.368 -0.7923 -0.4236  0.7106
  163MPD2     C 2533   2.991   1.391   0.455  0.0217  0.5137  0.1571
  163MPD2    C1 2534   3.067   1.276   0.483  0.1418  0.5909  0.4726
  163MPD2    C2 2535   3.118   1.252   0.609 -0.1045  0.2558 -0.7470
  163MPD2    C3 2536   3.088   1.337   0.713  0.2279  0.7755  0.5021
  163MPD2    C4 2537   3.016   1.453   0.690 -0.6127  0.0379 -0.9879
  163MPD2    C5 2538   2.966   1.474   0.561 -0.5749 -0.6916 -0.0288
  163MPD2     H 2539   3.178   1.163   0.624 -0.6127 -0.2154 -1.4960
  163MPD2    H1 2540   2.980   1.512   0.773  0.4643 -0.1086 -0.4173
  163MPD2    H2 2541   2.956   1.413   0.355  1.1484 -1.7933 -0.7418
  163MPD2    H3 2542   2.903   1.562   0.552  2.9001  1.7590 -0.5224
  163MPD2     N 2543   3.147   1.331   0.840 -0.6721  0.7100  0.2553
  163MPD2    H5 2544   3.139   1.413   0.899  0.7343  0.2299  1.1101
  163MPD2    N1 2545   3.099   1.191   0.374  0.4213  0.7102  0.1705
  163MPD2    H7 2546   3.077   1.215   0.277 -1.0113  1.7961  0.7662
  164TMC2    C1 2547   4.397   1.184  11.299  0.4752 -0.3887  0.1656
  164TMC2    C2 2548   4.457   1.258  11.200 -0.1620  0.0250  0.1721
  164TMC2    C3 2549   4.412   1.388  11.189 -0.1184 -0.7304 -0.1496
  164TMC2    C4 2550   4.299   1.240  11.379 -1.5396  0.2530  0.2343
  164TMC2    C5 2551   4.265   1.374  11.362  0.5083  0.0120  0.6153
  164TMC2    C6 2552   4.320   1.453  11.268 -0.1868 -0.5413  0.6524
  164TMC2     C 2553   4.419   1.044  11.308  0.0489 -0.1868 -0.3537
  164TMC2     O 2554   4.373   0.994  11.403 -0.1464 -0.3524 -0.0145
  164TMC2     H 2555   4.534   1.204  11.146 -2.8606 -4.0361  0.4067
  164TMC2    H1 2556   4.273   1.187  11.470 -3.1352 -0.5533 -0.7006
  164TMC2    H2 2557   4.289   1.555  11.248 -0.5730 -1.1205 -1.6963
  164TMC2    C7 2558   4.129   1.405  11.395  0.4492  1.3167  0.3182
  164TMC2    C8 2559   4.461   1.462  11.072  0.1790 -0.4132 -0.2087
  164TMC2    O1 2560   4.059   1.438  11.301 -0.0970 -0.0176 -0.1805
  164TMC2    O2 2561   4.414   1.566  11.029 -0.5081 -0.3688 -0.2646
  164TMC2    O5 2562   4.557   1.393  11.008  0.2639 -0.0278 -0.2670
  164TMC2    H5 2563   4.624   1.353  11.067 -0.3963 -2.0594 -0.9111
  165TMC2    C1 2564   0.407   3.304   0.918 -0.4934 -0.0156 -0.1646
  165TMC2    C2 2565   0.444   3.231   0.811  0.7530 -0.3776 -0.0470
  165TMC2    C3 2566   0.575   3.223   0.779  0.4404  0.5248 -0.9987
  165TMC2    C4 2567   0.498   3.339   1.015  0.5605  0.0735  0.0705
  165TMC2    C5 2568   0.629   3.296   0.990 -0.0065 -0.2585  0.1761
  165TMC2    C6 2569   0.670   3.253   0.870  0.4527 -0.5894  0.0392
  165TMC2     C 2570   0.282   3.277   0.988 -1.1669  0.1729 -0.7073
  165TMC2     O 2571   0.296   3.214   1.091 -0.3547 -0.3840  0.7204
  165TMC2     H 2572   0.367   3.205   0.739 -1.9386 -3.2476  3.8847
  165TMC2    H1 2573   0.463   3.358   1.115 -0.5341 -0.5675 -0.1905
  165TMC2    H2 2574   0.773   3.246   0.837 -0.2055 -0.2760 -2.1366
  165TMC2    C7 2575   0.739   3.331   1.076  0.0088  0.1320 -0.7016
  165TMC2    C8 2576   0.630   3.178   0.652  0.0179 -0.1656 -0.2173
  165TMC2    O1 2577   0.858   3.325   1.039 -0.0081 -0.0149  0.8356
  165TMC2    O2 2578   0.745   3.195   0.613  0.0706 -0.0804 -0.3801
  165TMC2    O5 2579   0.555   3.073   0.625 -0.1963 -0.2432 -0.2204
  165TMC2    H5 2580   0.482   3.058   0.688 -1.2285  0.3818 -1.2560
  166MPD2     C 2581   4.509   3.267   1.001 -0.3352 -0.2564 -0.0818
  166MPD2    C1 2582   4.603   3.185   1.058 -0.4135 -0.0723 -0.2980
  166MPD2    C2 2583   0.003   3.213   1.039  0.0744 -0.7973  0.2609
  166MPD2    C3 2584   0.043   3.315   0.957 -0.3246 -0.2967  0.9259
  166MPD2    C4 2585   4.681   3.390   0.890 -0.0849 -1.1366  0.5927
  166MPD2    C5 2586   4.547   3.367   0.919  0.6130  0.3028 -0.3263
  166MPD2     H 2587   0.083   3.165   1.093 -1.0763 -0.2844  2.3966
  166MPD2    H1 2588   4.699   3.474   0.824 -1.0143  0.4351  2.3487
  166MPD2    H2 2589   4.402   3.256   1.018 -0.7627  1.6514 -1.5056
  166MPD2    H3 2590   4.470   3.434   0.879 -1.6915 -2.7284 -0.9470
  166MPD2     N 2591   0.173   3.331   0.923 -0.2008  0.3555 -0.0695
  166MPD2    H5 2592   0.182   3.386   0.838  2.1963 -0.1643 -0.1358
  166MPD2    N1 2593   4.545   3.083   1.137  0.0739 -0.2451 -0.1089
  166MPD2    H7 2594   4.445   3.098   1.150  0.2942  1.2928 -0.1226
  167TMC2    C1 2595   3.646   1.165  12.966  1.5090 -0.2914  0.1499
  167TMC2    C2 2596   3.641   1.222  13.089  0.0791 -0.2070  0.1497
  167TMC2    C3 2597   3.650   1.130  13.193  0.0099 -0.1047  0.8875
  167TMC2    C4 2598   3.669   1.033  12.939 -0.2793  0.6022 -0.0595
  167TMC2    C5 2599   3.683   0.947  13.049  0.4364 -0.9730  0.0199
  167TMC2    C6 2600   3.667   0.995  13.179 -0.6455  0.1497  0.3807
  167TMC2     C 2601   3.576   1.240  12.862 -0.7157  0.0123  0.1584
  167TMC2     O 2602   3.562   1.364  12.879  0.3687 -0.3773 -0.0652
  167TMC2     H 2603   3.618   1.326  13.105  1.8244  0.3031 -0.5742
  167TMC2    H1 2604   3.696   0.998  12.841 -0.9977 -1.3139  0.4190
  167TMC2    H2 2605   3.656   0.926  13.261  0.8425  1.0924  1.3614
  167TMC2    C7 2606   3.655   0.811  13.025 -0.3087 -0.3057 -0.6033
  167TMC2    C8 2607   3.639   1.166  13.333 -0.0741 -0.4271  0.0652
  167TMC2    O1 2608   3.577   0.752  13.098  0.5656 -0.0997 -0.1786
  167TMC2    O2 2609   3.611   1.088  13.426  0.2220  0.9131 -0.1582
  167TMC2    O5 2610   3.686   1.291  13.349  0.1574  0.1492  0.3500
  167TMC2    H5 2611   3.740   1.324  13.274  0.0125  0.2778  0.3032
  168MPD2     C 2612   3.489   1.349  12.595  0.0056  0.0032  0.0553
  168MPD2    C1 2613   3.515   1.221  12.630 -0.0041 -0.1342 -0.5582
  168MPD2    C2 2614   3.504   1.124  12.528  0.0282 -0.4015  0.7653
  168MPD2    C3 2615   3.474   1.152  12.400  0.3173  0.7946 -0.5169
  168MPD2    C4 2616   3.458   1.279  12.360  0.5046 -0.5247  0.4675
  168MPD2    C5 2617   3.459   1.375  12.460 -0.6684 -0.0913  0.0959
  168MPD2     H 2618   3.519   1.020  12.555 -0.7047 -1.0417 -1.2593
  168MPD2    H1 2619   3.439   1.312  12.258 -0.5871  0.4045  0.9627
  168MPD2    H2 2620   3.509   1.430  12.664 -3.1851  1.1511 -0.3957
  168MPD2    H3 2621   3.453   1.479  12.430 -1.2584 -0.1241  0.1121
  168MPD2     N 2622   3.483   1.050  12.305  0.3420  0.2411 -0.5032
  168MPD2    H5 2623   3.491   0.956  12.341  3.3022 -0.0189 -1.8505
  168MPD2    N1 2624   3.545   1.166  12.754 -0.5597  0.2750 -0.3159
  168MPD2    H7 2625   3.566   1.067  12.757 -0.0578  0.2843 -3.6932
  169MPD1     C 2626   0.607   1.093   8.826  0.4827 -0.1791 -0.2424
  169MPD1    C1 2627   0.664   1.170   8.929  0.5882  0.1287  0.1226
  169MPD1    C2 2628   0.724   1.098   9.030 -0.2602  0.3599  0.4383
  169MPD1    C3 2629   0.725   0.959   9.038 -0.2033  1.0608 -0.4241
  169MPD1    C4 2630   0.653   0.890   8.947 -0.1176 -0.7386 -0.1331
  169MPD1    C5 2631   0.593   0.955   8.843  0.0076 -0.2099 -0.2386
  169MPD1     H 2632   0.782   1.150   9.106  1.5202 -1.1572  0.1317
  169MPD1    H1 2633   0.631   0.784   8.951 -0.7833 -0.5935 -0.0126
  169MPD1    H2 2634   0.571   1.132   8.732 -1.6764 -1.7512 -0.0507
  169MPD1    H3 2635   0.548   0.897   8.763  0.1137 -3.1340  1.8236
  169MPD1     N 2636   0.798   0.900   9.144 -0.1872  0.2388 -0.3848
  169MPD1    H5 2637   0.853   0.956   9.209 -1.5516 -0.1412  1.1046
  169MPD1    N1 2638   0.692   1.311   8.913  0.1157 -0.2080 -0.0408
  169MPD1    H6 2639   0.691   1.361   9.002  2.4804 -0.3819  0.0889
  169MPD1    H7 2640   0.621   1.356   8.857 -0.3193 -1.4155 -0.4573
  170MPD1     C 2641   4.016   2.848  12.767 -0.2334  0.3406 -0.8402
  170MPD1    C1 2642   3.958   2.967  12.806 -0.1712  0.8685  0.7049
  170MPD1    C2 2643   4.003   3.029  12.919  0.1546 -0.4370  0.4787
  170MPD1    C3 2644   4.070   2.964  13.015 -0.0824 -0.6521  0.2250
  170MPD1    C4 2645   4.130   2.843  12.976  0.0228  0.0067 -0.2854
  170MPD1    C5 2646   4.100   2.786  12.855  0.5547 -0.0855 -0.5157
  170MPD1     H 2647   3.966   3.126  12.950 -0.3278 -0.6965  0.7146
  170MPD1    H1 2648   4.201   2.794  13.041 -1.0570 -1.1177  0.0422
  170MPD1    H2 2649   3.995   2.795  12.675 -1.1747 -1.6201  0.5142
  170MPD1    H3 2650   4.162   2.700  12.829  0.5298 -0.3583  0.3248
  170MPD1     N 2651   4.085   3.024  13.142  0.1748 -0.4404 -0.4487
  170MPD1    H5 2652   4.048   3.118  13.149  1.7922  0.3493 -2.4728
  170MPD1    N1 2653   3.891   3.049  12.709  0.3368 -0.8368 -0.4798
  170MPD1    H6 2654   3.838   2.997  12.640 -0.9235  0.5016 -0.5102
  170MPD1    H7 2655   3.828   3.119  12.745  2.2573  1.1065 -0.8764
  171MPD1     C 2656   3.033   4.561  14.795  0.3651 -0.5834 -0.4577
  171MPD1    C1 2657   3.007   4.428  14.793 -0.3937  0.5119  0.2504
  171MPD1    C2 2658   3.011   4.361  14.917  0.2989 -0.5965 -0.0322
  171MPD1    C3 2659   3.051   4.419  15.037 -0.7099 -0.2224  0.3959
  171MPD1    C4 2660   3.089   4.549  15.029 -0.4610  0.1281 -0.4816
  171MPD1    C5 2661   3.074   4.614  14.914 -0.1581  0.0747 -0.0026
  171MPD1     H 2662   3.001   4.254  14.908  1.9466 -0.7865  0.2903
  171MPD1    H1 2663   3.104   4.607  15.119  0.0356  0.3922 -0.7349
  171MPD1    H2 2664   3.032   4.625  14.707 -0.6426  1.8860  1.3285
  171MPD1    H3 2665   3.094   4.720  14.921  0.5196 -0.0280 -0.4106
  171MPD1     N 2666   3.064   4.341  15.158  0.6325 -0.5193 -0.1655
  171MPD1    H5 2667   3.102   4.382  15.242 -1.3337 -1.9402  1.3973
  171MPD1    N1 2668   2.942   4.370  14.685  0.1280  0.8513 -0.1456
  171MPD1    H6 2669   2.965   4.420  14.599  1.4027 -3.2400 -2.1997
  171MPD1    H7 2670   2.966   4.272  14.667  0.0257  0.9247 -0.6780
  172MPD1     C 2671   2.266   3.530   1.199 -0.4912 -0.4240 -0.1449
  172MPD1    C1 2672   2.299   3.663   1.172 -0.0516  0.1230 -0.0277
  172MPD1    C2 2673   2.244   3.728   1.065  0.2116  0.0309 -0.1037
  172MPD1    C3 2674   2.141   3.667   0.992 -0.6040 -1.1017 -0.1357
  172MPD1    C4 2675   2.102   3.533   1.026 -0.4052 -0.7327 -0.1870
  172MPD1    C5 2676   2.161   3.473   1.133  0.3161  0.2369  0.1906
  172MPD1     H 2677   2.272   3.829   1.036  1.3859 -0.1196  0.5257
  172MPD1    H1 2678   2.011   3.496   0.980 -1.5810  3.3425 -1.1232
  172MPD1    H2 2679   2.328   3.470   1.265  0.8452 -0.2601 -1.2272
  172MPD1    H3 2680   2.125   3.377   1.168  1.2611 -1.2576 -2.9223
  172MPD1     N 2681   2.092   3.727   0.879  0.4430 -0.4976 -0.2870
  172MPD1    H5 2682   2.030   3.666   0.827  1.8930 -3.4379  1.4547
  172MPD1    N1 2683   2.406   3.720   1.237 -0.0422  0.3031  0.3040
  172MPD1    H6 2684   2.378   3.817   1.251 -0.1996  0.4363 -0.9080
  172MPD1    H7 2685   2.412   3.681   1.330 -1.7465 -1.1451 -0.1910
  173MPD1     C 2686   3.728   3.774  13.786 -0.1757  0.0725  0.8312
  173MPD1    C1 2687   3.680   3.769  13.915  0.3306 -0.0179  0.2715
  173MPD1    C2 2688   3.720   3.662  13.994 -0.3114  0.3898  0.2343
  173MPD1    C3 2689   3.811   3.567  13.947 -0.5732  0.4279  0.6062
  173MPD1    C4 2690   3.865   3.587  13.821  0.0497 -0.3510  0.0549
  173MPD1    C5 2691   3.827   3.695  13.751 -0.2830  0.5326  1.5942
  173MPD1     H 2692   3.671   3.659  14.091 -0.8580 -0.9162 -0.0956
  173MPD1    H1 2693   3.943   3.523  13.779  0.1204 -1.1093  1.3510
  173MPD1    H2 2694   3.674   3.841  13.720  1.2288  0.2009 -0.1996
  173MPD1    H3 2695   3.854   3.694  13.646 -2.7591 -0.8345  0.9749
  173MPD1     N 2696   3.842   3.463  14.033  0.2300  0.0628  0.1111
  173MPD1    H5 2697   3.782   3.463  14.114 -0.9837  1.4545 -0.7798
  173MPD1    N1 2698   3.565   3.846  13.936  0.3655  0.0238 -0.7014
  173MPD1    H6 2699   3.571   3.938  13.893 -1.4802  0.3579 -0.2461
  173MPD1    H7 2700   3.547   3.874  14.032  0.2747  0.3747 -0.8210
  174MPD1     C 2701   4.721   3.122  14.338 -0.3714  0.0318 -0.4286
  174MPD1    C1 2702   4.651   3.151  14.449 -0.1295  0.4821 -0.5258
  174MPD1    C2 2703   4.510   3.143  14.436 -0.5627 -0.6269 -0.5637
  174MPD1    C3 2704   4.453   3.122  14.307 -0.6620  0.2423  0.0848
  174MPD1    C4 2705   4.532   3.099  14.197  0.3672  0.5157 -0.3355
  174MPD1    C5 2706   4.664   3.102  14.218 -0.4259  0.9954  0.1759
  174MPD1     H 2707   4.455   3.155  14.529 -0.9113 -0.0857 -0.8407
  174MPD1    H1 2708   4.495   3.080  14.096 -0.6085  2.4715 -0.3336
  174MPD1    H2 2709   0.095   3.121  14.336 -0.3960 -1.7254 -0.6195
  174MPD1    H3 2710   4.724   3.081  14.130  0.8912  2.7818  0.6548
  174MPD1     N 2711   4.316   3.139  14.274 -0.2184  0.3557 -0.1837
  174MPD1    H5 2712   4.286   3.131  14.178 -1.7721  0.4070  0.2836
  174MPD1    N1 2713   4.717   3.161  14.574 -0.0112  0.2944 -0.2034
  174MPD1    H6 2714   4.656   3.210  14.640 -0.7772 -0.3310 -0.4504
  174MPD1    H7 2715   0.074   3.207  14.578  0.7445 -1.2000 -0.1371
  175MPD1     C 2716   1.270   0.872  15.585  0.3008  0.3089  0.2001
  175MPD1    C1 2717   1.377   0.798  15.540 -0.2350  0.0445 -0.6447
  175MPD1    C2 2718   1.385   0.664  15.578  0.1032  0.7055 -0.5047
  175MPD1    C3 2719   1.279   0.605  15.646 -0.0382  0.9672  0.1184
  175MPD1    C4 2720   1.164   0.672  15.676 -0.1039  0.2939 -0.0450
  175MPD1    C5 2721   1.162   0.807  15.642 -0.7307  0.1771  0.5295
  175MPD1     H 2722   1.476   0.611  15.551  1.2107  1.1652  2.4158
  175MPD1    H1 2723   1.086   0.624  15.734  0.1577  1.3545  1.1809
  175MPD1    H2 2724   1.265   0.976  15.556  3.0474  0.1187 -0.8840
  175MPD1    H3 2725   1.070   0.861  15.663  0.4753  2.1153  0.8306
  175MPD1     N 2726   1.291   0.469  15.692 -0.6323 -0.3436  0.4285
  175MPD1    H5 2727   1.210   0.431  15.740 -1.1437  0.8728  0.5228
  175MPD1    N1 2728   1.484   0.866  15.485 -0.4197  0.1879 -0.7112
  175MPD1    H6 2729   1.548   0.805  15.434  0.6928 -0.0615  0.9928
  175MPD1    H7 2730   1.448   0.927  15.412  1.2082  2.0498  0.0279
  176MPD1     C 2731   3.655   1.253  16.923  0.3364  0.4381 -0.3780
  176MPD1    C1 2732   3.665   1.348  16.825  0.5900 -0.4496  0.3540
  176MPD1    C2 2733   3.698   1.474  16.875 -0.7937  0.7459  0.6839
  176MPD1    C3 2734   3.689   1.507  17.009  0.3538 -0.2138 -0.0936
  176MPD1    C4 2735   3.650   1.410  17.100 -0.1040  0.2072 -0.1619
  176MPD1    C5 2736   3.636   1.280  17.053 -0.4064 -0.0244  0.4942
  176MPD1     H 2737   3.731   1.558  16.815 -2.5585 -0.0522 -1.3894
  176MPD1    H1 2738   3.638   1.432  17.206 -1.8602 -2.2201  0.1218
  176MPD1    H2 2739   3.642   1.151  16.890 -0.8372  0.0391  1.3493
  176MPD1    H3 2740   3.622   1.200  17.124  1.4655 -0.6732  0.1249
  176MPD1     N 2741   3.739   1.633  17.055  0.1064 -0.0941 -0.0634
  176MPD1    H5 2742   3.763   1.701  16.983  0.4950 -0.0094  0.1481
  176MPD1    N1 2743   3.691   1.311  16.691  0.0665  0.4306  0.7560
  176MPD1    H6 2744   3.652   1.222  16.659 -0.8234  0.3010  2.2066
  176MPD1    H7 2745   3.656   1.384  16.630  0.7187 -0.1796 -0.3679
  177MPD1     C 2746   2.184   2.045   9.826  0.0511 -1.0631  1.0885
  177MPD1    C1 2747   2.181   1.947   9.732 -0.1939  0.3235 -0.4366
  177MPD1    C2 2748   2.087   1.955   9.627  0.3836  0.8884  0.3368
  177MPD1    C3 2749   2.002   2.068   9.614 -0.3676 -0.6465  0.1833
  177MPD1    C4 2750   2.007   2.167   9.711  0.4851  0.0266 -0.4377
  177MPD1    C5 2751   2.100   2.152   9.812 -0.4971  0.2906 -0.1136
  177MPD1     H 2752   2.085   1.880   9.549 -2.3555  0.2224  1.0542
  177MPD1    H1 2753   1.949   2.258   9.706 -1.7837 -1.4318 -0.4511
  177MPD1    H2 2754   2.254   2.050   9.908 -0.0640 -1.0699  1.1870
  177MPD1    H3 2755   2.106   2.225   9.891  0.6601 -2.3312  2.2176
  177MPD1     N 2756   1.915   2.063   9.508 -0.0118 -0.0209  0.6269
  177MPD1    H5 2757   1.942   1.998   9.434 -0.0287  2.1344 -1.2685
  177MPD1    N1 2758   2.263   1.836   9.756 -0.5393 -0.6792 -0.3202
  177MPD1    H6 2759   2.325   1.809   9.679  0.9070 -2.1747  1.3644
  177MPD1    H7 2760   2.326   1.839   9.835 -1.6964  0.8248  0.5259
  178MPD1     C 2761   4.701   1.777   0.554  0.5859 -0.9101  0.5953
  178MPD1    C1 2762   4.585   1.752   0.478 -0.3140  0.3251  0.9404
  178MPD1    C2 2763   4.576   1.819   0.351  0.5902 -0.1997 -0.0517
  178MPD1    C3 2764   4.673   1.905   0.310  0.8590 -0.2754 -0.2007
  178MPD1    C4 2765   0.041   1.943   0.394  0.3477  0.0370 -0.2645
  178MPD1    C5 2766   0.052   1.874   0.509 -0.0740 -0.1489  0.3962
  178MPD1     H 2767   4.484   1.793   0.300  0.8341 -1.6542  0.2473
  178MPD1    H1 2768   0.127   2.002   0.364  0.4343  1.1609  2.2597
  178MPD1    H2 2769   4.711   1.722   0.648  1.1298 -0.8727  0.5586
  178MPD1    H3 2770   0.139   1.889   0.573 -0.2315 -2.4001  1.1663
  178MPD1     N 2771   4.658   1.991   0.192  0.5018  0.2527  0.1282
  178MPD1    H5 2772   4.734   2.056   0.178  0.0055  1.3729  2.5611
  178MPD1    N1 2773   4.509   1.640   0.514  0.1467  0.1048 -0.5609
  178MPD1    H6 2774   4.414   1.641   0.479 -0.1868  1.6950  0.3736
  178MPD1    H7 2775   4.503   1.632   0.616 -0.5934 -0.6602 -0.6660
  179MPD1     C 2776   3.594   0.860  15.372 -0.0022  0.3750 -0.0286
  179MPD1    C1 2777   3.625   0.875  15.507  0.5610  0.4261 -0.4283
  179MPD1    C2 2778   3.530   0.892  15.608  0.4685 -0.5411 -0.0436
  179MPD1    C3 2779   3.395   0.904  15.571  0.0808 -0.4163 -0.5149
  179MPD1    C4 2780   3.367   0.907  15.438 -0.5773 -0.6412 -0.4529
  179MPD1    C5 2781   3.459   0.886  15.340 -0.0563 -0.4768 -0.1297
  179MPD1     H 2782   3.571   0.889  15.708 -2.8857  2.2342  1.4350
  179MPD1    H1 2783   3.271   0.934  15.396  0.0722  2.1662 -0.0757
  179MPD1    H2 2784   3.665   0.846  15.291 -0.3463 -2.8890  0.2469
  179MPD1    H3 2785   3.445   0.889  15.233 -2.3095  0.1178  0.1845
  179MPD1     N 2786   3.285   0.907  15.664  0.5766  0.5190 -0.3169
  179MPD1    H5 2787   3.195   0.917  15.618  1.1424 -0.0368 -1.5598
  179MPD1    N1 2788   3.759   0.842  15.540 -0.5782 -0.3739  0.4242
  179MPD1    H6 2789   3.790   0.887  15.625  0.0751 -0.1084  0.0493
  179MPD1    H7 2790   3.820   0.872  15.464  2.6380 -1.5568  2.5296
  180MPD1     C 2791   4.064   2.051  15.138 -0.1497 -0.2578 -0.0604
  180MPD1    C1 2792   4.136   2.016  15.026  0.1678  0.0611  0.4485
  180MPD1    C2 2793   4.063   2.020  14.902  0.0475  0.2667  0.0907
  180MPD1    C3 2794   3.924   2.029  14.897  0.3402  0.0819 -0.0420
  180MPD1    C4 2795   3.859   2.061  15.011 -0.4055  0.3332  0.5214
  180MPD1    C5 2796   3.922   2.082  15.124  0.3118  0.2878 -0.0945
  180MPD1     H 2797   4.111   2.004  14.806  0.0881  0.7384  0.0332
  180MPD1    H1 2798   3.751   2.072  15.016 -0.3098  1.3450  0.3433
  180MPD1    H2 2799   4.117   2.072  15.230 -1.1000  0.2577  0.3702
  180MPD1    H3 2800   3.864   2.113  15.210  1.5846  1.0229  0.5165
  180MPD1     N 2801   3.866   2.003  14.770 -0.4493 -0.3968  0.1458
  180MPD1    H5 2802   3.930   2.000  14.692 -0.2648  1.7898  0.2052
  180MPD1    N1 2803   4.280   2.021  15.026  0.2204  0.0942 -0.0405
  180MPD1    H6 2804   4.318   1.971  14.945 -0.1175  0.3968 -0.3862
  180MPD1    H7 2805   4.311   1.970  15.108  0.3967 -1.7731 -1.2671
  181MPD1     C 2806   0.764   3.397  10.297  0.4010 -0.4276 -0.1276
  181MPD1    C1 2807   0.840   3.494  10.362 -0.1647  0.4477 -0.2909
  181MPD1    C2 2808   0.938   3.566  10.293 -0.2288 -0.0915  0.2707
  181MPD1    C3 2809   0.941   3.552  10.158 -0.1168 -0.8023 -0.3786
  181MPD1    C4 2810   0.867   3.461  10.092 -0.8920 -0.5767  0.4431
  181MPD1    C5 2811   0.785   3.381  10.163 -0.1316  0.3924 -0.9133
  181MPD1     H 2812   1.011   3.628  10.343 -0.7607  0.6445  0.1427
  181MPD1    H1 2813   0.874   3.446   9.985 -0.5426 -1.6925  0.6273
  181MPD1    H2 2814   0.695   3.331  10.348  0.4597 -1.3333 -1.2169
  181MPD1    H3 2815   0.745   3.298  10.106  0.0482 -0.4224  0.1468
  181MPD1     N 2816   1.032   3.631  10.078 -0.2922 -0.2233 -0.2618
  181MPD1    H5 2817   1.045   3.607   9.980  2.5382  2.5125 -0.5668
  181MPD1    N1 2818   0.843   3.498  10.503  0.3209  0.7903  0.3781
  181MPD1    H6 2819   0.762   3.463  10.554 -1.1654  3.2126 -0.3444
  181MPD1    H7 2820   0.874   3.584  10.546  0.5147  2.0671 -2.2957
  182MPD1     C 2821   1.145   1.891   1.638  0.1976  0.0518 -0.2614
  182MPD1    C1 2822   1.220   1.891   1.522  0.6414 -0.8012 -0.0952
  182MPD1    C2 2823   1.215   2.001   1.438  0.1176 -0.5036 -0.1187
  182MPD1    C3 2824   1.121   2.103   1.460 -0.3448  0.2515  0.4133
  182MPD1    C4 2825   1.045   2.092   1.578  0.7032  0.3860  0.4107
  182MPD1    C5 2826   1.067   1.994   1.671 -0.0234  0.5652 -0.1966
  182MPD1     H 2827   1.262   2.004   1.341  0.2162 -0.8996 -0.0866
  182MPD1    H1 2828   0.966   2.163   1.601  0.5824  0.8592 -1.4284
  182MPD1    H2 2829   1.153   1.804   1.702 -0.9104  0.3703  0.3207
  182MPD1    H3 2830   1.016   1.990   1.767  1.3814  2.4498  0.6218
  182MPD1     N 2831   1.112   2.219   1.379  0.2153  0.4011  1.0791
  182MPD1    H5 2832   1.031   2.274   1.408 -0.1601  0.6504 -0.4364
  182MPD1    N1 2833   1.313   1.787   1.502 -0.1364 -0.1352  0.3993
  182MPD1    H6 2834   1.296   1.705   1.560 -1.6462  0.4643  0.8104
  182MPD1    H7 2835   1.331   1.748   1.409  0.1714  2.0449 -0.4449
  183MPD1     C 2836   1.929   2.934   8.308 -0.4535  0.1504 -1.0441
  183MPD1    C1 2837   1.837   3.028   8.344  0.1506 -0.0276 -0.5769
  183MPD1    C2 2838   1.872   3.107   8.448 -0.0079  0.5261  0.1884
  183MPD1    C3 2839   1.981   3.083   8.526 -0.4360  0.0054  0.1450
  183MPD1    C4 2840   2.066   2.985   8.498  0.5687  0.1534 -0.2895
  183MPD1    C5 2841   2.043   2.911   8.386 -0.0567 -0.2705 -0.3811
  183MPD1     H 2842   1.813   3.195   8.474 -2.0259 -0.6733 -0.3436
  183MPD1    H1 2843   2.146   2.955   8.565  0.2243  2.8083  1.2972
  183MPD1    H2 2844   1.927   2.873   8.218  1.2994 -3.3381  1.3020
  183MPD1    H3 2845   2.105   2.825   8.360  1.4434  1.1769 -1.5467
  183MPD1     N 2846   2.001   3.173   8.638  0.0859 -0.3899 -0.5287
  183MPD1    H5 2847   1.936   3.252   8.646  1.2618  0.5441 -0.1901
  183MPD1    N1 2848   1.733   3.039   8.254 -0.0933 -0.0199 -0.0818
  183MPD1    H6 2849   1.648   3.089   8.281 -1.3677 -2.2424 -0.0093
  183MPD1    H7 2850   1.694   2.949   8.225  0.2437 -0.3732  0.5658
  184MPD1     C 2851   1.009   1.014  10.044  0.1457 -0.3145  0.9053
  184MPD1    C1 2852   1.122   1.051  10.102 -0.3099  0.2838 -0.5431
  184MPD1    C2 2853   1.181   1.171  10.050  0.2777 -0.2972  0.2386
  184MPD1    C3 2854   1.109   1.251   9.964 -0.2847 -0.6417 -0.4457
  184MPD1    C4 2855   0.984   1.215   9.921  0.1797  0.8632 -0.0888
  184MPD1    C5 2856   0.933   1.099   9.965  0.2149 -0.1957  0.0543
  184MPD1     H 2857   1.272   1.210  10.094  0.3115  1.4841 -1.3932
  184MPD1    H1 2858   0.930   1.270   9.844 -3.2354 -1.4147  0.6632
  184MPD1    H2 2859   0.961   0.921  10.071  1.7369 -0.8238  2.0273
  184MPD1    H3 2860   0.836   1.078   9.922  0.3738 -2.3945  0.7172
  184MPD1     N 2861   1.157   1.379   9.917  0.6345 -0.4091  0.2798
  184MPD1    H5 2862   1.100   1.432   9.852  2.0187  2.0268  1.0296
  184MPD1    N1 2863   1.205   0.967  10.178 -0.2159  0.9080  0.4460
  184MPD1    H6 2864   1.287   1.008  10.221  0.2124  2.2517 -1.6618
  184MPD1    H7 2865   1.163   0.893  10.235 -1.3241 -0.5074 -2.2136
  185MPD1     C 2866   1.257   1.906   9.077 -0.3669  0.3846 -0.5910
  185MPD1    C1 2867   1.241   1.772   9.110 -0.0621  0.7621 -0.6029
  185MPD1    C2 2868   1.255   1.733   9.244 -0.4682 -0.2870 -0.1522
  185MPD1    C3 2869   1.313   1.818   9.337 -0.0078 -0.1193 -0.4480
  185MPD1    C4 2870   1.341   1.957   9.294  0.0149 -0.2638  0.2842
  185MPD1    C5 2871   1.310   1.995   9.164  0.3445  0.1855 -0.4935
  185MPD1     H 2872   1.244   1.627   9.262 -1.6492 -0.3134 -1.0218
  185MPD1    H1 2873   1.370   2.039   9.358 -1.4509 -0.9088  1.7679
  185MPD1    H2 2874   1.218   1.948   8.984  1.0007 -1.3266 -1.9357
  185MPD1    H3 2875   1.335   2.097   9.139  1.3347 -0.8517 -3.6688
  185MPD1     N 2876   1.343   1.787   9.476  0.3143 -0.1505  0.3235
  185MPD1    H5 2877   1.388   1.863   9.526 -1.9435  2.4517 -1.6122
  185MPD1    N1 2878   1.173   1.686   9.016  0.2232  0.1029  0.3744
  185MPD1    H6 2879   1.205   1.711   8.922 -0.5874  1.3643  0.4280
  185MPD1    H7 2880   1.196   1.591   9.044 -2.4839 -1.1066 -1.5162
  186MPD1     C 2881   4.219   0.552  15.481  0.0874  1.3333  0.6308
  186MPD1    C1 2882   4.105   0.624  15.495 -0.4335  0.2099 -0.0536
  186MPD1    C2 2883   4.107   0.734  15.586 -0.1542 -0.2596 -0.1261
  186MPD1    C3 2884   4.197   0.733  15.686  0.5424 -0.3220  0.7908
  186MPD1    C4 2885   4.300   0.640  15.675  0.3054 -0.3540 -0.7551
  186MPD1    C5 2886   4.315   0.553  15.575  0.3425 -0.2169  0.0483
  186MPD1     H 2887   4.021   0.801  15.585 -1.7330 -2.3150 -1.0967
  186MPD1    H1 2888   4.372   0.641  15.756 -1.4927  1.9537  0.8048
  186MPD1    H2 2889   4.228   0.482  15.399 -0.9936 -2.0940  3.4047
  186MPD1    H3 2890   4.403   0.489  15.570  0.2086 -0.3351 -0.9355
  186MPD1     N 2891   4.215   0.829  15.789  0.4041 -0.4396  0.5487
  186MPD1    H5 2892   4.307   0.815  15.830  0.3032 -0.4678  0.7661
  186MPD1    N1 2893   4.012   0.614  15.393  0.8988 -0.2781  0.1394
  186MPD1    H6 2894   3.922   0.657  15.413  1.3350  2.1078 -2.8271
  186MPD1    H7 2895   4.006   0.518  15.362 -1.1195 -0.2598  0.5055
  187MPD1     C 2896   4.257   2.396  17.696  0.0899  0.6775  0.0522
  187MPD1    C1 2897   4.173   2.312  17.627  0.4837 -0.0406  0.4751
  187MPD1    C2 2898   4.069   2.369  17.554  0.3028 -0.4773 -0.0562
  187MPD1    C3 2899   4.046   2.510  17.556  0.4297 -0.1867 -0.0052
  187MPD1    C4 2900   4.133   2.591  17.633  0.1153 -0.4137  0.1652
  187MPD1    C5 2901   4.237   2.532  17.699 -0.0670  0.6024 -0.2563
  187MPD1     H 2902   4.005   2.304  17.496  2.4519 -0.4398 -2.4842
  187MPD1    H1 2903   4.118   2.696  17.657  1.4043  0.2899 -1.9806
  187MPD1    H2 2904   4.335   2.356   0.024  1.2258  2.0105 -0.4944
  187MPD1    H3 2905   4.302   2.587   0.030  0.8286  1.6390 -2.0224
  187MPD1     N 2906   3.947   2.578  17.491  0.3549  0.0866 -0.1447
  187MPD1    H5 2907   3.933   2.677  17.508  1.3743  0.1688  0.2386
  187MPD1    N1 2908   4.197   2.172  17.629  0.3502 -0.0701  0.5202
  187MPD1    H6 2909   4.112   2.118  17.616 -0.7121  1.9451 -0.9691
  187MPD1    H7 2910   4.248   2.147  17.713  0.0256 -0.4829  0.5920
  188MPD1     C 2911   3.689   3.043   9.937  0.2495  0.9182 -0.3291
  188MPD1    C1 2912   3.819   3.017   9.971  0.1061 -0.2924  0.2298
  188MPD1    C2 2913   3.837   2.895  10.040  0.3262  0.0282  0.8348
  188MPD1    C3 2914   3.734   2.801  10.053 -0.2604  0.2638 -0.6525
  188MPD1    C4 2915   3.625   2.818   9.981  0.1881 -0.6250 -0.3803
  188MPD1    C5 2916   3.599   2.940   9.933  0.5846  0.2278  0.3211
  188MPD1     H 2917   3.938   2.876  10.073  0.3997 -0.6665  0.2109
  188MPD1    H1 2918   3.530   2.765   9.982 -0.3609  0.3280 -1.5376
  188MPD1    H2 2919   3.667   3.135   9.884  2.0495  1.7027  0.2630
  188MPD1    H3 2920   3.499   2.960   9.897  0.5738 -1.6709 -0.6915
  188MPD1     N 2921   3.744   2.696  10.140  0.7210 -0.8382  0.0858
  188MPD1    H5 2922   3.664   2.633  10.134  0.6611 -0.6039 -1.4624
  188MPD1    N1 2923   3.913   3.112   9.977  0.0391 -0.4714  0.0855
  188MPD1    H6 2924   3.900   3.181   9.903  1.0130 -0.0769  0.2699
  188MPD1    H7 2925   4.007   3.073   9.984 -0.1250 -0.8226  0.3239
  189MPD1     C 2926   0.485   3.477   0.464 -0.3177 -0.4964 -0.0492
  189MPD1    C1 2927   0.391   3.401   0.396 -0.3711 -0.1365  0.6539
  189MPD1    C2 2928   0.282   3.472   0.349 -0.2121 -0.1027  0.1277
  189MPD1    C3 2929   0.286   3.613   0.351  0.0397  0.2528 -0.4289
  189MPD1    C4 2930   0.395   3.684   0.413  0.1155  0.1312 -0.2110
  189MPD1    C5 2931   0.494   3.613   0.470 -0.5055  0.0205 -1.0894
  189MPD1     H 2932   0.199   3.414   0.308  1.0923 -2.9358  1.5223
  189MPD1    H1 2933   0.392   3.792   0.414  1.8897  0.1723 -0.1503
  189MPD1    H2 2934   0.574   3.433   0.507 -1.1232 -1.4294  0.6606
  189MPD1    H3 2935   0.582   3.655   0.516 -1.4933  1.2472 -0.3208
  189MPD1     N 2936   0.179   3.679   0.288 -0.0304  0.6571 -0.1933
  189MPD1    H5 2937   0.114   3.619   0.238  0.0240  0.4529 -0.0199
  189MPD1    N1 2938   0.381   3.259   0.405  0.0236 -0.1873 -0.3490
  189MPD1    H6 2939   0.345   3.223   0.318 -1.6255 -0.9612  0.6605
  189MPD1    H7 2940   0.475   3.222   0.418  0.1814  0.0169 -0.9092
  190MPD1     C 2941   3.497   1.629  15.719  0.0135  0.7238 -0.1038
  190MPD1    C1 2942   3.567   1.708  15.812 -0.4949 -0.2988  0.5445
  190MPD1    C2 2943   3.682   1.765  15.767  0.0668 -0.3140  0.0855
  190MPD1    C3 2944   3.727   1.754  15.646 -0.4333 -0.2537  0.6071
  190MPD1    C4 2945   3.668   1.668  15.549  0.1036  1.1375  0.3208
  190MPD1    C5 2946   3.555   1.611  15.591 -0.0642 -0.2923  0.0418
  190MPD1     H 2947   3.735   1.840  15.824  0.1584  1.2981 -2.1453
  190MPD1    H1 2948   3.717   1.657  15.453 -0.6399  1.6730 -0.1215
  190MPD1    H2 2949   3.399   1.591  15.743 -1.0305  3.0444 -0.6377
  190MPD1    H3 2950   3.498   1.550  15.521  0.2704  0.4458 -0.8665
  190MPD1     N 2951   3.850   1.822  15.626  0.0134  0.1637  0.4753
  190MPD1    H5 2952   3.897   1.867  15.704 -0.2664  1.0136  0.1626
  190MPD1    N1 2953   3.530   1.719  15.950  0.4664  0.6046  0.3487
  190MPD1    H6 2954   3.565   1.806  15.988  1.2463  0.1116  0.7823
  190MPD1    H7 2955   3.430   1.725  15.963  0.1258 -1.2624 -1.3676
  191MPD1     C 2956   3.170   3.515  11.397  0.0148 -0.0392 -0.5792
  191MPD1    C1 2957   3.256   3.625  11.393  0.2933 -0.2764 -0.2423
  191MPD1    C2 2958   3.303   3.671  11.510  0.0160 -0.2729  0.1181
  191MPD1    C3 2959   3.268   3.624  11.637 -0.6708 -0.3414  0.2506
  191MPD1    C4 2960   3.178   3.519  11.631  0.3593 -0.5094  1.0022
  191MPD1    C5 2961   3.133   3.464  11.513 -0.0635 -0.2538 -0.1115
  191MPD1     H 2962   3.369   3.757  11.514  1.0228 -0.9721 -1.4996
  191MPD1    H1 2963   3.143   3.467  11.719 -0.0350 -0.6602  0.7596
  191MPD1    H2 2964   3.126   3.477  11.306 -1.4090  0.4530 -0.0901
  191MPD1    H3 2965   3.067   3.378  11.518 -1.0076  0.3922 -1.4316
  191MPD1     N 2966   3.302   3.687  11.763 -0.1013  0.1618  0.3109
  191MPD1    H5 2967   3.369   3.763  11.757  0.0523 -0.1228 -1.4084
  191MPD1    N1 2968   3.307   3.676  11.271  0.5178 -0.4006 -0.1324
  191MPD1    H6 2969   3.316   3.777  11.267  1.3948 -0.4866 -0.2792
  191MPD1    H7 2970   3.243   3.656  11.194 -0.4840  0.8790  0.3759
  192MPD1     C 2971   3.024   3.884  12.823 -0.6612  0.2928 -0.6368
  192MPD1    C1 2972   2.997   3.778  12.738  0.2168 -0.7292  0.3537
  192MPD1    C2 2973   3.061   3.775  12.612  0.4203 -0.1263 -0.1294
  192MPD1    C3 2974   3.156   3.869  12.569 -0.2531  0.0129  0.6161
  192MPD1    C4 2975   3.186   3.972  12.657 -0.2938  0.1951 -0.0921
  192MPD1    C5 2976   3.121   3.973  12.777 -0.3400 -0.1451 -0.6410
  192MPD1     H 2977   3.045   3.688  12.550 -2.4968 -0.8029  1.5681
  192MPD1    H1 2978   3.272   4.033  12.632 -0.5181  0.0937 -1.1411
  192MPD1    H2 2979   2.988   3.886  12.925 -2.3888 -2.3579 -1.1837
  192MPD1    H3 2980   3.154   4.061  12.831  2.1157 -0.3014 -1.8890
  192MPD1     N 2981   3.218   3.863  12.442 -0.4398  0.1600 -0.1324
  192MPD1    H5 2982   3.259   3.951  12.415 -0.8898  0.5840  0.5721
  192MPD1    N1 2983   2.924   3.668  12.781 -0.1336  0.5977 -0.6280
  192MPD1    H6 2984   2.851   3.699  12.845 -1.1600 -3.3996  0.1356
  192MPD1    H7 2985   2.879   3.621  12.703  0.7481  0.8391 -1.2842
  193MPD1     C 2986   1.954   0.083  16.179 -0.1083  0.2213  0.6088
  193MPD1    C1 2987   2.035   4.728  16.240  0.2254  0.0195  0.0700
  193MPD1    C2 2988   2.161   0.031  16.278 -0.9697 -0.2655 -1.1239
  193MPD1    C3 2989   2.203   0.165  16.273  0.5387 -0.4118  0.0341
  193MPD1    C4 2990   2.115   0.258  16.229  0.7278 -0.6176 -0.2606
  193MPD1    C5 2991   1.987   0.218  16.184  0.0257  0.3492 -0.7251
  193MPD1     H 2992   2.221   4.694  16.334  1.1068  0.4392 -2.4514
  193MPD1    H1 2993   2.144   0.362  16.242  1.3791 -0.8989  0.5352
  193MPD1    H2 2994   1.856   0.066  16.135  0.6161  0.1643 -0.9932
  193MPD1    H3 2995   1.913   0.288  16.146 -2.1943 -0.0030  2.9432
  193MPD1     N 2996   2.329   0.203  16.309 -0.2838  0.1017 -0.2554
  193MPD1    H5 2997   2.327   0.304  16.319 -0.5323 -0.2753  3.2495
  193MPD1    N1 2998   1.994   4.596  16.240  0.1236 -0.2618  0.6322
  193MPD1    H6 2999   1.893   4.583  16.232  0.3691 -0.9499 -1.1731
  193MPD1    H7 3000   2.020   4.549  16.327  1.5779 -0.2539  0.1998
  194MPD1     C 3001   4.190   1.010  17.379 -0.2904 -0.1930 -0.0720
  194MPD1    C1 3002   4.271   1.009  17.492  0.1542  0.7463 -0.1346
  194MPD1    C2 3003   4.408   1.033  17.479 -0.4494 -0.8483 -0.4747
  194MPD1    C3 3004   4.462   1.022  17.352 -0.0741 -0.9828 -0.9867
  194MPD1    C4 3005   4.381   0.999  17.242  0.6848  0.1273 -0.4040
  194MPD1    C5 3006   4.245   0.992  17.253 -0.3329  0.3356  0.3034
  194MPD1     H 3007   4.470   1.010  17.565 -0.2344  0.1965 -0.3485
  194MPD1    H1 3008   4.429   0.995  17.145  0.9971 -0.5380 -0.2235
  194MPD1    H2 3009   4.085   0.986  17.394  0.1476 -2.0545  0.0707
  194MPD1    H3 3010   4.182   0.978  17.166 -1.4316 -0.8079  1.2769
  194MPD1     N 3011   4.603   1.021  17.335  0.5182  0.1196 -0.3718
  194MPD1    H5 3012   4.627   0.977  17.247  0.0304 -0.8334 -0.0233
  194MPD1    N1 3013   4.210   1.016  17.621  0.0538 -0.1222  0.5031
  194MPD1    H6 3014   4.124   0.964  17.634 -0.3962  1.3414  3.3940
  194MPD1    H7 3015   4.272   0.960  17.680  2.7210  1.9296 -0.3476
  195MPD1     C 3016   3.515   3.133  17.540 -0.2544 -0.7524  0.2409
  195MPD1    C1 3017   3.385   3.111  17.564 -0.3537 -0.7474  0.1795
  195MPD1    C2 3018   3.352   3.004  17.645  0.4559  0.2668 -0.2812
  195MPD1    C3 3019   3.452   2.918  17.693 -0.2056  0.2339 -0.5009
  195MPD1    C4 3020   3.581   2.944  17.664  0.3299  0.4021 -0.0302
  195MPD1    C5 3021   3.613   3.054  17.595  0.3244 -0.8615  0.0571
  195MPD1     H 3022   3.251   2.972  17.668  1.3749  0.2169  3.7441
  195MPD1    H1 3023   3.661   2.879  17.698  0.7188  0.7429 -0.3000
  195MPD1    H2 3024   3.542   3.219  17.479 -1.6064  0.5617  1.5028
  195MPD1    H3 3025   3.716   3.071  17.566 -0.0329  0.5762 -0.3843
  195MPD1     N 3026   3.433   2.801   0.038  0.4380 -0.2975  0.2929
  195MPD1    H5 3027   3.518   2.756   0.070 -0.1574 -1.0044  0.8743
  195MPD1    N1 3028   3.287   3.169  17.480  0.3872 -0.1858 -0.2305
  195MPD1    H6 3029   3.193   3.141  17.507  1.3192  2.0568  5.2436
  195MPD1    H7 3030   3.311   3.267  17.468  1.2208 -0.2824  0.6664
  196MPD1     C 3031   1.689   2.025   0.711  0.1680 -0.0759 -1.4343
  196MPD1    C1 3032   1.639   2.002   0.833  0.0162  0.3456  0.0495
  196MPD1    C2 3033   1.700   2.053   0.948 -0.3349  0.5644  0.4594
  196MPD1    C3 3034   1.810   2.142   0.930 -0.0924  0.2802  0.2483
  196MPD1    C4 3035   1.855   2.163   0.804 -0.6745  0.7687  0.9899
  196MPD1    C5 3036   1.800   2.112   0.693  0.5524 -0.0954  0.4170
  196MPD1     H 3037   1.650   2.038   1.042  0.6466  0.0037  0.8961
  196MPD1    H1 3038   1.941   2.228   0.789 -1.1487  0.7217 -1.9515
  196MPD1    H2 3039   1.649   1.986   0.618 -0.0623 -3.4484  0.0758
  196MPD1    H3 3040   1.839   2.134   0.595  1.4356 -0.2524  0.7384
  196MPD1     N 3041   1.881   2.203   1.033  0.5943 -0.4467 -0.2469
  196MPD1    H5 3042   1.953   2.270   1.011  0.2694  0.1302  0.4676
  196MPD1    N1 3043   1.544   1.896   0.856  0.7361  0.0877 -0.9432
  196MPD1    H6 3044   1.474   1.891   0.782 -0.5043  0.5337  0.1823
  196MPD1    H7 3045   1.492   1.924   0.939  0.3158 -0.7190 -0.9318
  197MPD1     C 3046   1.319   4.260  17.344  0.4776 -0.1415  0.0270
  197MPD1    C1 3047   1.450   4.231  17.349 -0.0442 -0.3323  0.2466
  197MPD1    C2 3048   1.544   4.314  17.291 -0.5795 -1.0421  0.2029
  197MPD1    C3 3049   1.507   4.427  17.221  0.1599  0.2506  0.3419
  197MPD1    C4 3050   1.373   4.456  17.215  0.3922  0.8037  0.3178
  197MPD1    C5 3051   1.284   4.374  17.282 -0.8651 -0.5396  0.7097
  197MPD1     H 3052   1.648   4.283  17.289 -0.6840 -1.2547 -1.4958
  197MPD1    H1 3053   1.334   4.546  17.169 -0.2965 -0.8093 -2.2211
  197MPD1    H2 3054   1.231   4.205  17.378  0.4610  0.0060  0.2218
  197MPD1    H3 3055   1.179   4.381  17.256 -0.4117  0.2673 -0.9155
  197MPD1     N 3056   1.593   4.520  17.157  0.6897 -0.2537  0.1125
  197MPD1    H5 3057   1.546   4.572  17.084  1.2542  1.6893  1.1397
  197MPD1    N1 3058   1.492   4.115  17.425  0.0179 -0.1016  0.3907
  197MPD1    H6 3059   1.416   4.049  17.442  0.6199 -1.1205 -0.8870
  197MPD1    H7 3060   1.555   4.069  17.360  0.4601 -0.4198  1.0440
  198MPD1     C 3061   3.687   3.759  15.383  0.1528 -0.1378 -0.1564
  198MPD1    C1 3062   3.768   3.755  15.268 -0.5343 -0.0153  0.2051
  198MPD1    C2 3063   3.886   3.694  15.284  0.3576 -0.2796  1.0523
  198MPD1    C3 3064   3.936   3.642  15.398  0.0670 -0.8790 -0.2189
  198MPD1    C4 3065   3.868   3.680  15.518 -0.7239 -0.4657 -0.0740
  198MPD1    C5 3066   3.745   3.723  15.501  0.5286 -0.3607  0.6886
  198MPD1     H 3067   3.936   3.680  15.189  1.0082  0.9012  1.2242
  198MPD1    H1 3068   3.910   3.678  15.618 -1.6670 -1.0842  0.3087
  198MPD1    H2 3069   3.591   3.810  15.390 -0.7893 -1.8523 -0.6750
  198MPD1    H3 3070   3.691   3.745  15.592  0.6789  0.8151  0.4891
  198MPD1     N 3071   4.077   3.597  15.400  0.3414  0.1310  0.0890
  198MPD1    H5 3072   4.127   3.595  15.312 -1.4016  0.5269 -0.9074
  198MPD1    N1 3073   3.729   3.809  15.147 -0.1292 -0.3218 -0.2558
  198MPD1    H6 3074   3.629   3.796  15.135  0.1859 -2.0675 -0.9504
  198MPD1    H7 3075   3.780   3.791  15.061 -1.5511  0.3799 -1.2407
  199MPD1     C 3076   2.159   4.380   9.415  0.4438 -0.8153  0.1518
  199MPD1    C1 3077   2.144   4.512   9.458  0.6789  0.0637 -0.4823
  199MPD1    C2 3078   2.034   4.543   9.538 -0.5164 -0.1439 -0.6457
  199MPD1    C3 3079   1.952   4.441   9.579  0.4217 -0.7807  0.3764
  199MPD1    C4 3080   1.978   4.306   9.553 -0.5017 -0.0789  0.0067
  199MPD1    C5 3081   2.083   4.284   9.474  0.0855  0.3454  0.5314
  199MPD1     H 3082   2.002   4.644   9.558  0.6183 -0.1468  1.1233
  199MPD1    H1 3083   1.913   4.224   9.579  0.1222 -0.6664 -0.2815
  199MPD1    H2 3084   2.240   4.347   9.352  0.2474 -1.2671  0.1325
  199MPD1    H3 3085   2.105   4.179   9.453  2.1519  1.3345 -2.2346
  199MPD1     N 3086   1.834   4.464   9.655  0.8889 -0.1947 -0.0081
  199MPD1    H5 3087   1.772   4.387   9.674 -1.0057  1.5201  0.7954
  199MPD1    N1 3088   2.223   4.607   9.397  0.3017 -0.4215  0.1152
  199MPD1    H6 3089   2.315   4.575   9.368 -0.3296 -2.3302  0.2242
  199MPD1    H7 3090   2.235   4.699   9.439 -0.9404 -0.0842 -0.2483
  200MPD1     C 3091   4.721   4.429  14.926  1.2676  0.2175 -0.4221
  200MPD1    C1 3092   4.719   4.372  14.799  0.5109 -0.3423  0.1383
  200MPD1    C2 3093   0.110   4.342  14.745  0.2382  0.3784  0.4706
  200MPD1    C3 3094   0.223   4.388  14.808  0.0259 -0.0816  0.2887
  200MPD1    C4 3095   0.219   4.455  14.929  0.3925  0.2153  0.1609
  200MPD1    C5 3096   0.100   4.468  14.993 -0.1279 -0.3830  0.2773
  200MPD1     H 3097   0.120   4.294  14.648 -2.6607  1.9590 -0.6034
  200MPD1    H1 3098   0.307   4.486  14.984  0.5340  0.1207 -0.0153
  200MPD1    H2 3099   4.630   4.457  14.979  1.9068  0.7795  0.3861
  200MPD1    H3 3100   0.097   4.522  15.087  3.7505  0.9495 -0.3621
  200MPD1     N 3101   0.344   4.351  14.746 -0.2257 -0.3738  0.0261
  200MPD1    H5 3102   0.346   4.275  14.679 -0.2523 -0.7569  0.4594
  200MPD1    N1 3103   4.604   4.315  14.736 -0.4272 -0.4117 -0.2076
  200MPD1    H6 3104   4.525   4.372  14.767  0.8507  0.6192  1.1376
  200MPD1    H7 3105   4.608   4.319  14.635 -0.7956  1.6136 -0.1394
  201MPD1     C 3106   2.640   3.275  12.761  0.3122 -0.5470 -0.4304
  201MPD1    C1 3107   2.607   3.164  12.683 -1.2016 -0.7406 -0.1177
  201MPD1    C2 3108   2.680   3.050  12.687  0.4758 -0.7976  0.4116
  201MPD1    C3 3109   2.794   3.050  12.773 -0.0364  0.7992 -0.3758
  201MPD1    C4 3110   2.819   3.168  12.844 -0.6641 -0.0315 -0.6774
  201MPD1    C5 3111   2.739   3.276  12.847  1.7886 -0.1830 -0.8515
  201MPD1     H 3112   2.655   2.973  12.615 -0.9971 -0.2659  0.3580
  201MPD1    H1 3113   2.909   3.178  12.905 -0.7111 -2.1789 -0.2566
  201MPD1    H2 3114   2.585   3.368  12.754 -2.0897 -1.9433 -0.1747
  201MPD1    H3 3115   2.761   3.365  12.904 -0.3086  0.5823 -1.2217
  201MPD1     N 3116   2.881   2.935  12.775  0.0674 -0.3878 -0.2824
  201MPD1    H5 3117   2.828   2.853  12.750 -1.3824  0.6553 -0.6559
  201MPD1    N1 3118   2.515   3.185  12.585 -0.4381 -0.3545 -0.7752
  201MPD1    H6 3119   2.474   3.102  12.544 -2.7279 -0.6334  2.0629
  201MPD1    H7 3120   2.445   3.250  12.621  0.6644 -0.3053  1.2975
  202MPD1     C 3121   2.306   2.329   8.938 -0.2459 -0.3910  0.5921
  202MPD1    C1 3122   2.359   2.253   9.040 -0.9259  0.2970  0.3995
  202MPD1    C2 3123   2.425   2.322   9.145  0.7144  0.5945  0.7329
  202MPD1    C3 3124   2.426   2.460   9.153 -0.0261 -0.3827 -0.3436
  202MPD1    C4 3125   2.359   2.532   9.062  0.6800 -0.6912 -0.2421
  202MPD1    C5 3126   2.305   2.465   8.955  0.2541  0.1498 -0.4197
  202MPD1     H 3127   2.492   2.270   9.212  0.3276  0.0178  0.6697
  202MPD1    H1 3128   2.356   2.639   9.049  0.5031 -1.0720 -3.5442
  202MPD1    H2 3129   2.267   2.291   8.844 -1.7807 -0.4448  1.2456
  202MPD1    H3 3130   2.263   2.521   8.873 -2.7833 -0.1320  0.9130
  202MPD1     N 3131   2.492   2.538   9.250 -0.8571 -0.3367  0.5057
  202MPD1    H5 3132   2.466   2.636   9.246  2.0570  0.3948 -0.7378
  202MPD1    N1 3133   2.406   2.124   9.010  0.5083  0.0421 -0.3424
  202MPD1    H6 3134   2.439   2.058   9.081 -0.9498 -0.7548 -0.3847
  202MPD1    H7 3135   2.340   2.072   8.952 -1.6808  0.2439  1.9474
  203MPD1     C 3136   1.178   4.005  12.039  0.9176  0.2191  0.8248
  203MPD1    C1 3137   1.156   3.881  11.981 -0.9478 -0.3141  0.1114
  203MPD1    C2 3138   1.222   3.778  12.044 -0.3009  0.2610  0.1274
  203MPD1    C3 3139   1.301   3.795  12.151 -0.1008  0.3471  0.3764
  203MPD1    C4 3140   1.321   3.918  12.208  0.2900 -0.0713 -0.1234
  203MPD1    C5 3141   1.259   4.024  12.150 -0.0580 -0.4798 -0.4520
  203MPD1     H 3142   1.198   3.681  12.003 -1.7094  0.9772 -0.7075
  203MPD1    H1 3143   1.384   3.944  12.293  1.3674 -1.8235 -0.3789
  203MPD1    H2 3144   1.134   4.095  11.998 -1.3844 -0.8208  0.9880
  203MPD1    H3 3145   1.268   4.127  12.184 -0.5086 -1.2156  1.8408
  203MPD1     N 3146   1.349   3.676  12.211 -0.0661  0.6324 -0.7183
  203MPD1    H5 3147   1.341   3.594  12.152 -3.4363  1.3426 -1.2250
  203MPD1    N1 3148   1.059   3.851  11.879 -0.2739 -0.5005  0.2704
  203MPD1    H6 3149   1.066   3.919  11.804  0.2917 -0.6572  0.1871
  203MPD1    H7 3150   1.097   3.769  11.833  0.2794 -1.4886  2.5023
  204MPD1     C 3151   4.669   0.412   0.040 -0.4552 -0.3353  0.3143
  204MPD1    C1 3152   0.060   0.387   0.090 -0.1932  0.3394  0.2950
  204MPD1    C2 3153   0.149   0.308   0.016 -0.6519 -0.1417  0.5780
  204MPD1    C3 3154   0.105   0.251  17.632 -0.4788  0.1605  0.2479
  204MPD1    C4 3155   4.710   0.282  17.585  0.4314  0.6772  0.2136
  204MPD1    C5 3156   4.622   0.350  17.656  0.5570 -0.6756 -0.2392
  204MPD1     H 3157   0.247   0.284   0.056 -0.2135  1.3888  0.3939
  204MPD1    H1 3158   4.664   0.237  17.498  0.0742 -0.2951  0.9003
  204MPD1    H2 3159   4.596   0.482   0.078  1.1677  2.1739 -1.0850
  204MPD1    H3 3160   4.526   0.384  17.621  0.4093  1.4040  2.1865
  204MPD1     N 3161   0.189   0.168  17.563  0.1300  0.4559  0.2287
  204MPD1    H5 3162   0.281   0.147  17.602  0.5292 -0.8012 -1.4132
  204MPD1    N1 3163   0.095   0.436   0.216  0.1455 -0.1022  0.1011
  204MPD1    H6 3164   0.042   0.520   0.241 -1.7446 -1.2859  0.1291
  204MPD1    H7 3165   0.195   0.443   0.230  0.1296 -1.3998  0.9204
  205MPD1     C 3166   1.258   3.992  16.880 -0.0360 -0.2444  0.5748
  205MPD1    C1 3167   1.317   4.054  16.988 -0.4593 -0.0012 -0.1185
  205MPD1    C2 3168   1.286   3.993  17.110 -0.3143 -0.0597 -0.1345
  205MPD1    C3 3169   1.204   3.876  17.123  0.1991 -0.4949 -0.7118
  205MPD1    C4 3170   1.160   3.817  17.000 -1.1199 -0.8794  0.4709
  205MPD1    C5 3171   1.187   3.869  16.879 -0.0880 -0.2301  0.3402
  205MPD1     H 3172   1.322   4.030  17.205  1.5765 -2.2338 -0.0040
  205MPD1    H1 3173   1.092   3.733  17.002  0.1921 -1.9459  0.3692
  205MPD1    H2 3174   1.264   4.047  16.787  0.0955 -0.9446  0.1647
  205MPD1    H3 3175   1.133   3.837  16.790 -2.3821  2.0438  0.9139
  205MPD1     N 3176   1.155   3.819  17.240 -0.0563 -0.0644  0.3145
  205MPD1    H5 3177   1.079   3.752  17.233 -2.0803  2.1414  1.0143
  205MPD1    N1 3178   1.358   4.185  16.972 -0.0552  0.4677  0.5161
  205MPD1    H6 3179   1.272   4.239  16.968 -0.5918 -0.4670 -0.4824
  205MPD1    H7 3180   1.403   4.227  17.053 -1.1780  0.0695  1.3533
  206MPD1     C 3181   0.247   1.473  17.209 -0.1130 -0.3434 -0.4212
  206MPD1    C1 3182   0.258   1.601  17.156 -0.1924 -0.8876  0.4889
  206MPD1    C2 3183   0.251   1.620  17.018 -0.5440  0.3237 -0.2775
  206MPD1    C3 3184   0.247   1.514  16.924 -0.2045  0.0067  0.1668
  206MPD1    C4 3185   0.255   1.382  16.982 -0.2134  0.3634 -0.3085
  206MPD1    C5 3186   0.247   1.364  17.122  0.0456  0.2035  0.4637
  206MPD1     H 3187   0.240   1.725  16.993 -1.5410  0.0987 -0.8188
  206MPD1    H1 3188   0.259   1.295  16.919  1.9496 -0.6950  1.3060
  206MPD1    H2 3189   0.232   1.458  17.315  0.0037  1.5039 -0.1500
  206MPD1    H3 3190   0.247   1.263  17.161  2.5161  0.0338  0.0214
  206MPD1     N 3191   0.240   1.525  16.780 -0.0127  0.3218  0.5834
  206MPD1    H5 3192   0.232   1.440  16.725 -1.7365  1.6924 -1.2663
  206MPD1    N1 3193   0.252   1.707  17.250  0.5402 -0.1820 -0.1380
  206MPD1    H6 3194   0.269   1.802  17.218  0.0492 -0.0502 -0.0120
  206MPD1    H7 3195   0.304   1.698  17.337 -1.0204  0.4224  0.8506
  207MPD1     C 3196   3.587   3.520  10.006  0.1897 -0.0396 -0.9251
  207MPD1    C1 3197   3.584   3.653   9.997  0.1707 -0.0180  0.5614
  207MPD1    C2 3198   3.685   3.713  10.069  0.0139  0.5382  0.1488
  207MPD1    C3 3199   3.769   3.652  10.162  0.1396 -0.3592  0.3397
  207MPD1    C4 3200   3.757   3.516  10.170  0.2094  0.2219  0.0845
  207MPD1    C5 3201   3.667   3.448  10.092  0.0964 -0.0441 -0.2387
  207MPD1     H 3202   3.691   3.821  10.061  3.5104  0.4435  1.1578
  207MPD1    H1 3203   3.818   3.448  10.230  0.5657  0.3753 -0.1058
  207MPD1    H2 3204   3.518   3.465   9.941  0.0062 -1.0119  0.0904
  207MPD1    H3 3205   3.657   3.341  10.103  0.2734 -0.1148 -0.7903
  207MPD1     N 3206   3.851   3.715  10.250 -0.9024  0.2825  1.1521
  207MPD1    H5 3207   3.906   3.656  10.312  0.4565  0.8192  0.4650
  207MPD1    N1 3208   3.533   3.729   9.885 -0.0402  0.6861  0.0459
  207MPD1    H6 3209   3.441   3.695   9.857 -0.5070  0.2574  2.0718
  207MPD1    H7 3210   3.527   3.829   9.903  0.1136  0.5826  0.6613
  208MPD1     C 3211   1.806   3.247  17.587 -0.3686 -0.0082  0.1405
  208MPD1    C1 3212   1.682   3.293  17.539  0.1231 -0.6944 -0.0075
  208MPD1    C2 3213   1.568   3.239  17.592  0.3707  0.1622 -0.1893
  208MPD1    C3 3214   1.564   3.150  17.702 -0.6546 -0.2170  0.0868
  208MPD1    C4 3215   1.687   3.124   0.032  0.1013 -0.1112 -0.1484
  208MPD1    C5 3216   1.799   3.155  17.693 -0.3464  0.6693 -0.0631
  208MPD1     H 3217   1.472   3.264  17.546  0.4225  0.6956 -0.0139
  208MPD1    H1 3218   1.702   3.058   0.117  2.6471  0.9180  0.1989
  208MPD1    H2 3219   1.898   3.281  17.541  0.0712 -0.7615  0.4663
  208MPD1    H3 3220   1.892   3.110  17.726 -0.4475  0.9787  0.6451
  208MPD1     N 3221   1.443   3.094   0.022  0.6482  0.3815  0.2943
  208MPD1    H5 3222   1.356   3.100  17.704 -0.4893  2.7659  2.4235
  208MPD1    N1 3223   1.665   3.376  17.425 -0.5566 -0.1330 -0.2330
  208MPD1    H6 3224   1.744   3.430  17.388  0.3671 -1.5924 -0.3676
  208MPD1    H7 3225   1.580   3.432  17.425 -0.9337 -0.7141 -0.8034
  209MPD1     C 3226   4.225   2.619  11.115 -0.8433  0.0855 -0.0936
  209MPD1    C1 3227   4.315   2.660  11.018 -0.5434 -0.2627  0.1530
  209MPD1    C2 3228   4.393   2.761  11.048  0.4829  0.7214  0.3519
  209MPD1    C3 3229   4.380   2.835  11.167 -0.3415  0.6482  0.1584
  209MPD1    C4 3230   4.291   2.795  11.264  0.4793 -0.5206  0.2156
  209MPD1    C5 3231   4.218   2.679  11.238  0.3378 -0.2381 -1.0201
  209MPD1     H 3232   4.468   2.788  10.974  0.7967 -1.2184 -0.0330
  209MPD1    H1 3233   4.271   2.843  11.359  1.6630 -0.1199  0.2637
  209MPD1    H2 3234   4.157   2.536  11.099  1.0429 -1.1524 -1.7932
  209MPD1    H3 3235   4.145   2.656  11.316  2.1963  1.1601  1.1181
  209MPD1     N 3236   4.459   2.949  11.179  0.0781  0.0894  0.3605
  209MPD1    H5 3237   4.496   2.986  11.093 -1.1678  0.5725  0.0280
  209MPD1    N1 3238   4.319   2.604  10.886 -0.1027  0.1679  0.3680
  209MPD1    H6 3239   4.391   2.626  10.818 -2.8328 -1.6460 -3.1093
  209MPD1    H7 3240   4.280   2.511  10.871 -0.3818  0.3440 -0.0123
  210MPD1     C 3241   0.262   3.854  11.410  0.5804  0.0895 -0.2711
  210MPD1    C1 3242   0.290   3.720  11.399 -0.2064 -0.1449  0.1875
  210MPD1    C2 3243   0.195   3.628  11.381  0.2447 -0.0866 -0.2792
  210MPD1    C3 3244   0.061   3.663  11.391  0.0316  0.3116 -0.9876
  210MPD1    C4 3245   0.032   3.798  11.409 -0.5962 -0.2883 -0.3653
  210MPD1    C5 3246   0.131   3.895  11.409 -0.4070 -0.0252 -0.1745
  210MPD1     H 3247   0.217   3.522  11.378  0.6313  0.0354 -1.4185
  210MPD1    H1 3248   4.663   3.828  11.425 -1.9124 -3.5673 -2.7275
  210MPD1    H2 3249   0.339   3.930  11.417  1.8546 -0.9974 -2.5007
  210MPD1    H3 3250   0.105   4.000  11.419 -0.6130 -0.1022  0.0729
  210MPD1     N 3251   4.684   3.574  11.391  0.2753  0.6276  0.5467
  210MPD1    H5 3252   4.593   3.613  11.370  0.9059  2.6293  1.4744
  210MPD1    N1 3253   0.423   3.681  11.382  0.3252 -0.0271 -0.1430
  210MPD1    H6 3254   0.438   3.582  11.402 -1.6777 -0.4021 -0.4793
  210MPD1    H7 3255   0.482   3.741  11.439  1.3177 -1.1394 -0.0161
  211MPD1     C 3256   2.039   4.058  16.695  0.0774  0.0623  0.1069
  211MPD1    C1 3257   1.990   4.064  16.561  0.3831 -0.1223  0.2131
  211MPD1    C2 3258   1.874   3.996  16.530 -0.0174  1.0177  0.1743
  211MPD1    C3 3259   1.797   3.937  16.628 -0.0975 -0.0974 -0.4095
  211MPD1    C4 3260   1.852   3.925  16.750 -0.2212  0.5518  0.2850
  211MPD1    C5 3261   1.974   3.979  16.790  0.0147 -0.6389  0.3638
  211MPD1     H 3262   1.842   4.006  16.427 -0.1738 -2.6644 -0.1297
  211MPD1    H1 3263   1.794   3.874  16.826 -0.8469  2.3367  1.0154
  211MPD1    H2 3264   2.131   4.103  16.731 -0.4804  1.0702  0.2967
  211MPD1    H3 3265   2.020   3.956  16.885  0.4460  0.1534  0.3529
  211MPD1     N 3266   1.667   3.903  16.591 -0.0981  0.3615  0.1005
  211MPD1    H5 3267   1.641   3.932  16.497 -0.0394 -1.8838 -0.6089
  211MPD1    N1 3268   2.068   4.107  16.454 -0.9471  0.1052  0.3732
  211MPD1    H6 3269   2.006   4.150  16.385 -2.5418  1.0848  2.4208
  211MPD1    H7 3270   2.140   4.176  16.476 -1.3923  0.8330 -0.4323
  212MPD1     C 3271   4.617   2.113  16.738  0.1912  0.0741 -0.1667
  212MPD1    C1 3272   4.620   2.021  16.634  0.5196  0.8339 -0.1019
  212MPD1    C2 3273   4.636   1.890  16.676  0.3398  0.7530 -0.3385
  212MPD1    C3 3274   4.623   1.854  16.810  0.5548  0.3171  0.0149
  212MPD1    C4 3275   4.626   1.955  16.907 -0.1135 -0.0102 -0.8075
  212MPD1    C5 3276   4.614   2.083  16.872  0.4337  0.6621 -0.7143
  212MPD1     H 3277   4.661   1.815  16.602 -3.1674 -0.4750 -0.2354
  212MPD1    H1 3278   4.628   1.921  17.010  1.4937 -0.0552 -0.8522
  212MPD1    H2 3279   4.605   2.219  16.716 -0.3800  0.6416  2.8078
  212MPD1    H3 3280   4.596   2.163  16.942  3.0907  0.8903 -0.3222
  212MPD1     N 3281   4.629   1.719  16.860  0.1150 -0.1487 -0.4451
  212MPD1    H5 3282   4.635   1.714  16.961 -0.0721 -2.5790 -0.5610
  212MPD1    N1 3283   4.643   2.048  16.499 -0.2615  0.4695  0.0888
  212MPD1    H6 3284   4.630   2.145  16.473  1.3077  0.2352 -1.5352
  212MPD1    H7 3285   4.592   1.988  16.434 -1.2173  1.8531 -0.4249
  213MPD1     C 3286   3.830   2.632  16.436 -0.0095 -0.0387 -0.5036
  213MPD1    C1 3287   3.700   2.589  16.429 -0.3247 -0.7307 -0.4686
  213MPD1    C2 3288   3.643   2.559  16.305 -0.0442  0.5722 -0.0412
  213MPD1    C3 3289   3.724   2.541  16.195  0.0066  0.2490 -0.5520
  213MPD1    C4 3290   3.861   2.547  16.207 -0.1651 -0.7196  0.3249
  213MPD1    C5 3291   3.905   2.599  16.329 -0.3241  0.0678 -0.0883
  213MPD1     H 3292   3.535   2.553  16.297 -0.0185  0.1187 -0.0041
  213MPD1    H1 3293   3.920   2.526  16.119 -1.0684 -0.1750 -0.4068
  213MPD1    H2 3294   3.880   2.659  16.529 -0.2265  1.4665 -0.8309
  213MPD1    H3 3295   4.011   2.616  16.346 -0.3081 -0.6360  0.5184
  213MPD1     N 3296   3.658   2.532  16.068 -0.5692 -0.3763 -0.0047
  213MPD1    H5 3297   3.556   2.528  16.077 -0.3825  0.7493  2.7653
  213MPD1    N1 3298   3.612   2.646  16.522 -0.7567 -0.2338  0.2322
  213MPD1    H6 3299   3.660   2.636  16.611 -0.1353 -0.4607 -0.1287
  213MPD1    H7 3300   3.530   2.586  16.529 -0.6363 -0.1572  2.4567
  214MPD1     C 3301   2.839   2.107  15.834 -0.1414  0.3373  0.3068
  214MPD1    C1 3302   2.915   2.143  15.944  0.2586 -0.2736  0.0488
  214MPD1    C2 3303   3.035   2.215  15.917 -0.4211 -0.8411 -0.6613
  214MPD1    C3 3304   3.093   2.225  15.787  0.4596 -0.6431 -0.9421
  214MPD1    C4 3305   3.011   2.194  15.684 -0.8136 -0.2059  0.3418
  214MPD1    C5 3306   2.880   2.154  15.709  0.4379  0.3050 -0.2795
  214MPD1     H 3307   3.090   2.241  16.006  0.6675 -0.6829 -1.3861
  214MPD1    H1 3308   3.032   2.211  15.579  1.6830  2.8125  1.3292
  214MPD1    H2 3309   2.740   2.063  15.831 -0.4626  0.8932  2.3931
  214MPD1    H3 3310   2.819   2.137  15.621 -0.1705  1.4131 -0.0687
  214MPD1     N 3311   3.214   2.288  15.753  0.7061 -0.1429  0.0937
  214MPD1    H5 3312   3.241   2.287  15.655  0.4746  1.4448  0.0081
  214MPD1    N1 3313   2.858   2.125  16.076  0.1647 -0.2128 -0.0482
  214MPD1    H6 3314   2.937   2.118  16.139  2.9885  0.2785 -3.5690
  214MPD1    H7 3315   2.788   2.052  16.091 -0.7728  0.6707 -0.1415
  215MPD1     C 3316   3.923   2.747  10.635 -0.4509 -0.2696 -0.3925
  215MPD1    C1 3317   3.991   2.745  10.754 -0.3342  0.7551 -0.0875
  215MPD1    C2 3318   4.013   2.863  10.814  0.1898 -0.2101 -0.4770
  215MPD1    C3 3319   3.986   2.986  10.759 -0.5528  1.1796 -0.4879
  215MPD1    C4 3320   3.941   2.988  10.630 -0.4307 -0.1898  0.0338
  215MPD1    C5 3321   3.918   2.865  10.566 -0.3883  0.0545 -0.6217
  215MPD1     H 3322   4.023   2.845  10.920 -0.5181  0.6293 -0.2748
  215MPD1    H1 3323   3.914   3.079  10.578 -0.8330  0.1774  0.8985
  215MPD1    H2 3324   3.890   2.658  10.582 -0.8058 -0.0144 -0.5966
  215MPD1    H3 3325   3.880   2.873  10.465  2.4692 -0.9616 -1.7641
  215MPD1     N 3326   3.993   3.102  10.841  0.5135 -0.0134 -0.3492
  215MPD1    H5 3327   4.027   3.090  10.936  1.5892  1.3539 -0.5681
  215MPD1    N1 3328   4.000   2.621  10.816 -0.4342 -0.7455  0.0731
  215MPD1    H6 3329   4.017   2.548  10.748  1.0014  0.5949 -0.9853
  215MPD1    H7 3330   4.085   2.615  10.872 -0.5723  1.1125  0.4656
  216MPD1     C 3331   4.419   1.250   0.225  0.2684 -0.2327  0.0415
  216MPD1    C1 3332   4.368   1.209   0.344 -0.1757  0.1364 -0.7239
  216MPD1    C2 3333   4.332   1.075   0.365 -0.2428  0.3021 -0.1746
  216MPD1    C3 3334   4.327   0.978   0.263 -0.6806  0.2373  0.6643
  216MPD1    C4 3335   4.387   1.022   0.144 -0.1481  0.0451 -0.2305
  216MPD1    C5 3336   4.414   1.153   0.129 -0.1110  0.1011 -0.3029
  216MPD1     H 3337   4.299   1.047   0.464  3.3287  0.6105  1.1106
  216MPD1    H1 3338   4.399   0.953   0.061  2.7259  0.7467 -0.4025
  216MPD1    H2 3339   4.465   1.345   0.202 -2.1010  1.1480  1.0044
  216MPD1    H3 3340   4.460   1.174   0.033 -1.0146 -1.5866 -1.1060
  216MPD1     N 3341   4.290   0.850   0.292  0.8061  0.4755  0.7962
  216MPD1    H5 3342   4.272   0.817   0.386 -0.8045  0.9936  0.6763
  216MPD1    N1 3343   4.385   1.296   0.454 -0.2962  0.2149  0.5497
  216MPD1    H6 3344   4.332   1.267   0.536 -1.4648  0.2659 -0.1970
  216MPD1    H7 3345   4.368   1.395   0.441 -0.8190  0.1773  0.9642
  217MPD1     C 3346   1.069   2.444   8.202 -0.2694  1.0723  0.8101
  217MPD1    C1 3347   1.153   2.347   8.254 -0.1641 -0.8015  0.7704
  217MPD1    C2 3348   1.242   2.386   8.353  0.0150 -0.2199 -0.3703
  217MPD1    C3 3349   1.243   2.512   8.407 -0.0744  0.1734 -0.4635
  217MPD1    C4 3350   1.154   2.604   8.356  0.4442  0.1116  0.1226
  217MPD1    C5 3351   1.067   2.569   8.257  1.1332  0.4685 -0.1074
  217MPD1     H 3352   1.314   2.316   8.394  1.5412  1.0657 -0.8569
  217MPD1    H1 3353   1.142   2.699   8.406  0.2832  0.4705 -0.5991
  217MPD1    H2 3354   1.003   2.431   8.117 -1.3177 -1.5198  2.0366
  217MPD1    H3 3355   1.004   2.646   8.215  2.7472  1.1212 -1.3453
  217MPD1     N 3356   1.319   2.555   8.518  0.0453 -0.1053  0.8637
  217MPD1    H5 3357   1.295   2.651   8.542  0.5061  0.0330  0.7677
  217MPD1    N1 3358   1.157   2.226   8.184 -0.2490 -0.5545  0.6926
  217MPD1    H6 3359   1.075   2.208   8.127 -0.3624 -1.3787  1.1243
  217MPD1    H7 3360   1.177   2.144   8.241  0.4847  0.1796  1.5022
  218MPD1     C 3361   3.213   3.969  13.254  0.7801 -0.2343  0.1382
  218MPD1    C1 3362   3.140   3.856  13.234  0.3147 -0.7831  0.0370
  218MPD1    C2 3363   3.175   3.782  13.121 -0.9367  0.0806  0.0499
  218MPD1    C3 3364   3.279   3.810  13.038 -0.2837 -0.0487 -0.3959
  218MPD1    C4 3365   3.343   3.930  13.061 -0.8394  0.5172 -0.1591
  218MPD1    C5 3366   3.311   4.008  13.166  1.0334  0.2968 -0.0357
  218MPD1     H 3367   3.106   3.702  13.094  1.3920 -1.1982 -2.0931
  218MPD1    H1 3368   3.416   3.969  12.991  1.0316 -3.2242 -0.3320
  218MPD1    H2 3369   3.189   4.036  13.335 -1.8350  0.0435 -0.8528
  218MPD1    H3 3370   3.353   4.108  13.177  1.3645  0.1534  0.0253
  218MPD1     N 3371   3.307   3.724  12.930  0.1696 -0.2218  0.0660
  218MPD1    H5 3372   3.247   3.642  12.931 -0.0556 -0.0719 -0.7684
  218MPD1    N1 3373   3.021   3.827  13.306  0.0167 -0.0445 -0.6697
  218MPD1    H6 3374   3.029   3.851  13.405 -4.2065  2.1791 -0.8619
  218MPD1    H7 3375   3.012   3.725  13.303 -1.4771  0.1126 -1.2838
  219MPD1     C 3376   3.624   3.543  11.897  0.8076  0.2967  0.4502
  219MPD1    C1 3377   3.697   3.612  11.984  0.5817  0.4371 -0.3731
  219MPD1    C2 3378   3.647   3.615  12.115  0.8309 -0.0286 -0.1084
  219MPD1    C3 3379   3.539   3.538  12.161  0.0037  0.0270 -0.2192
  219MPD1    C4 3380   3.473   3.462  12.066 -0.6069 -0.4944 -0.3732
  219MPD1    C5 3381   3.516   3.468  11.934  0.2058 -0.1729 -0.4697
  219MPD1     H 3382   3.704   3.673  12.187  0.4924  1.6959 -1.2269
  219MPD1    H1 3383   3.395   3.396  12.099 -1.4001  1.8873  2.5079
  219MPD1    H2 3384   3.636   3.560  11.790 -0.6258  1.0817  0.4214
  219MPD1    H3 3385   3.453   3.427  11.856  0.1287  0.6788 -0.8651
  219MPD1     N 3386   3.507   3.530  12.301 -0.3117 -0.2098  0.3628
  219MPD1    H5 3387   3.451   3.450  12.326  1.0082 -1.4396 -0.5754
  219MPD1    N1 3388   3.790   3.707  11.939  0.2883 -0.4330  0.7345
  219MPD1    H6 3389   3.836   3.676  11.853  0.1070  2.0969 -0.2795
  219MPD1    H7 3390   3.860   3.730  12.010 -0.1978 -1.5342  1.5725
  220MPD1     C 3391   3.125   4.612   9.974 -0.1834  0.4684 -0.9984
  220MPD1    C1 3392   3.116   4.588  10.107  0.2126 -0.0281 -0.0334
  220MPD1    C2 3393   3.156   4.467  10.155  0.5054 -0.7381 -0.6796
  220MPD1    C3 3394   3.203   4.368  10.067 -0.3327 -0.0041  0.0732
  220MPD1    C4 3395   3.208   4.394   9.935 -0.2964  0.1773  0.1465
  220MPD1    C5 3396   3.154   4.510   9.890 -0.0913  0.8837  0.2552
  220MPD1     H 3397   3.176   4.459  10.261  0.3303 -2.2324 -0.7566
  220MPD1    H1 3398   3.245   4.317   9.869  0.4186  0.0607  0.6779
  220MPD1    H2 3399   3.102   4.710   9.934  2.5751  1.3986 -0.3129
  220MPD1    H3 3400   3.142   4.524   9.783 -0.8826 -0.8324  0.1197
  220MPD1     N 3401   3.259   4.248  10.113  0.1748  0.2191  0.2315
  220MPD1    H5 3402   3.255   4.240  10.214  1.2727  2.2019  0.4411
  220MPD1    N1 3403   3.085   4.703  10.187 -0.2450  0.1924 -0.1672
  220MPD1    H6 3404   3.025   0.033  10.135  1.4830  0.7546 -1.4936
  220MPD1    H7 3405   3.032   4.677  10.270 -1.5062 -0.8686 -1.2887
  221MPD1     C 3406   4.651   2.712  16.286 -0.0157 -0.1903  0.4367
  221MPD1    C1 3407   4.673   2.723  16.423 -0.1751 -0.0490  0.8405
  221MPD1    C2 3408   0.071   2.714  16.464  0.8023 -0.1167  0.5255
  221MPD1    C3 3409   0.169   2.678  16.377  0.3834 -0.2707  0.8512
  221MPD1    C4 3410   0.140   2.655  16.244 -0.3023  0.7359  0.2339
  221MPD1    C5 3411   0.014   2.684  16.198  0.5166  0.1576 -0.5708
  221MPD1     H 3412   0.099   2.729  16.568  0.0542 -0.2719  0.7505
  221MPD1    H1 3413   0.216   2.630  16.171 -0.6198  0.4172  0.0108
  221MPD1    H2 3414   4.556   2.741  16.242 -0.0013 -2.3559 -1.0141
  221MPD1    H3 3415   4.722   2.687  16.093 -0.4398 -0.9364 -0.3590
  221MPD1     N 3416   0.304   2.663  16.409  0.3252  0.9136 -0.0636
  221MPD1    H5 3417   0.372   2.649  16.335 -0.0924 -0.9733 -0.0791
  221MPD1    N1 3418   4.578   2.778  16.513  0.1225  0.1564 -0.8701
  221MPD1    H6 3419   4.594   2.742  16.606  0.5527  2.9018  0.1283
  221MPD1    H7 3420   4.491   2.744  16.473  0.4233 -0.9538 -0.5852
  222MPD1     C 3421   4.478   2.590  16.900 -0.3463 -0.1648 -0.2933
  222MPD1    C1 3422   4.613   2.589  16.909  0.1038 -0.1563 -0.2962
  222MPD1    C2 3423   4.681   2.489  16.973 -0.0710  0.2093  0.0664
  222MPD1    C3 3424   4.618   2.401  17.059 -0.7117 -0.4085  0.1185
  222MPD1    C4 3425   4.477   2.408  17.063 -0.2253 -0.3450  0.2872
  222MPD1    C5 3426   4.415   2.503  16.985  0.0065  0.1416  0.2348
  222MPD1     H 3427   0.052   2.474  16.953 -0.8642 -3.5503 -1.3526
  222MPD1    H1 3428   4.413   2.350  17.127  0.3715  0.9564  2.0611
  222MPD1    H2 3429   4.421   2.657  16.835 -1.7978 -1.3672 -0.2420
  222MPD1    H3 3430   4.307   2.497  16.984 -0.1059  2.0893 -0.3245
  222MPD1     N 3431   4.687   2.328  17.156 -0.0245 -0.1117 -0.2114
  222MPD1    H5 3432   4.618   2.276  17.209  0.8666  0.4177  1.4636
  222MPD1    N1 3433   4.686   2.659  16.808  0.2478  0.4086  0.0193
  222MPD1    H6 3434   0.050   2.661  16.835 -0.0723 -0.4358  1.2275
  222MPD1    H7 3435   4.650   2.755  16.805  2.0027  0.9995 -2.1749
  223MPD1     C 3436   0.098   1.516   0.007 -0.0454  0.4313  0.3641
  223MPD1    C1 3437   0.117   1.626   0.082 -0.5115 -0.4496 -0.5194
  223MPD1    C2 3438   0.137   1.748   0.016  0.3872 -0.3152 -0.0207
  223MPD1    C3 3439   0.106   1.762  17.621  0.7730  0.7108 -0.0582
  223MPD1    C4 3440   0.095   1.653  17.547  0.2420 -1.0462 -0.1852
  223MPD1    C5 3441   0.093   1.530  17.605  0.0803  0.3830  0.6296
  223MPD1     H 3442   0.158   1.840   0.070 -1.8910  1.4900 -2.1679
  223MPD1    H1 3443   0.078   1.665  17.441  1.8013  0.1078 -0.3086
  223MPD1    H2 3444   0.080   1.421   0.056  0.8755  1.7806  3.3136
  223MPD1    H3 3445   0.080   1.439  17.548  1.7470  0.6898 -0.2435
  223MPD1     N 3446   0.136   1.890  17.572  0.7073 -0.4348  0.5394
  223MPD1    H5 3447   0.182   1.960  17.630  0.4334 -1.5612  2.1132
  223MPD1    N1 3448   0.131   1.608   0.219 -0.0993 -0.5053 -0.3956
  223MPD1    H6 3449   0.102   1.687   0.276 -0.6335 -1.0559  0.0998
  223MPD1    H7 3450   0.079   1.528   0.255 -0.5681  0.0794  0.2224
  224MPD1     C 3451   1.678   2.844   8.592 -0.0413 -0.3573  0.5334
  224MPD1    C1 3452   1.605   2.947   8.640  0.2855  0.3193 -0.7521
  224MPD1    C2 3453   1.652   3.007   8.753  0.8959 -0.3060  0.3959
  224MPD1    C3 3454   1.770   2.972   8.819  0.1075  0.4114 -0.3766
  224MPD1    C4 3455   1.840   2.865   8.773 -0.0929  0.1820  0.0176
  224MPD1    C5 3456   1.798   2.811   8.650 -0.2929  0.1985  0.2890
  224MPD1     H 3457   1.584   3.078   8.799  0.9837  1.1206 -1.6970
  224MPD1    H1 3458   1.933   2.831   8.816  1.7446  0.9114 -3.3997
  224MPD1    H2 3459   1.646   2.793   8.502  0.2612 -1.0694  0.8327
  224MPD1    H3 3460   1.849   2.724   8.611  0.0402  1.2015 -1.5369
  224MPD1     N 3461   1.815   3.023   8.941  0.4706 -0.6374 -0.5326
  224MPD1    H5 3462   1.900   2.984   8.980  0.9288  1.0414  0.1524
  224MPD1    N1 3463   1.478   2.980   8.588  0.0298  0.5746  0.4517
  224MPD1    H6 3464   1.490   2.986   8.487  1.6840  1.7636  0.7142
  224MPD1    H7 3465   1.457   3.076   8.614  0.5102  0.8351 -0.1431
  225MPD1     C 3466   2.757   4.363  12.844  0.1828  0.2120  0.1272
  225MPD1    C1 3467   2.818   4.260  12.781  0.4781  0.0100 -0.3576
  225MPD1    C2 3468   2.771   4.225  12.653 -0.2900  0.2033 -0.5318
  225MPD1    C3 3469   2.659   4.288  12.606 -1.2486 -0.3258 -0.1249
  225MPD1    C4 3470   2.593   4.389  12.680 -0.0802  0.1744  0.7374
  225MPD1    C5 3471   2.649   4.433  12.793 -0.4701  0.1874 -0.0764
  225MPD1     H 3472   2.828   4.156  12.593  0.7961  2.3167 -1.9327
  225MPD1    H1 3473   2.514   4.445  12.632 -0.8105 -1.2531  0.2677
  225MPD1    H2 3474   2.803   4.410  12.931  1.2873  1.3617 -1.0640
  225MPD1    H3 3475   2.600   4.515  12.845 -1.4948 -1.2627  1.2467
  225MPD1     N 3476   2.610   4.248  12.482 -0.3444 -0.1530  0.4687
  225MPD1    H5 3477   2.546   4.314  12.438  1.0996  1.2238  0.4165
  225MPD1    N1 3478   2.938   4.213  12.824 -0.8403  0.4195  0.1294
  225MPD1    H6 3479   2.945   4.222  12.925 -1.0854 -2.9866  0.4417
  225MPD1    H7 3480   2.964   4.122  12.788  1.1496  1.5545 -1.3376
  226MPD1     C 3481   1.229   3.241   8.545  0.1175  0.4919  0.1877
  226MPD1    C1 3482   1.340   3.289   8.613 -0.6161 -0.0853 -0.7773
  226MPD1    C2 3483   1.320   3.324   8.741  0.5014 -0.7132  1.0899
  226MPD1    C3 3484   1.197   3.321   8.805  0.2527  0.4815 -0.3020
  226MPD1    C4 3485   1.086   3.276   8.733  0.1644 -0.8973 -1.0617
  226MPD1    C5 3486   1.105   3.238   8.603  0.3376 -0.3580  0.1607
  226MPD1     H 3487   1.405   3.348   8.804  0.9252 -0.1084  0.3046
  226MPD1    H1 3488   0.987   3.266   8.778  1.1948 -1.1174  1.1343
  226MPD1    H2 3489   1.238   3.204   8.444 -1.5357  1.0062 -0.1509
  226MPD1    H3 3490   1.017   3.197   8.554  0.7689 -1.3492  0.2227
  226MPD1     N 3491   1.199   3.349   8.939 -0.0645  0.0894  0.2213
  226MPD1    H5 3492   1.289   3.381   8.973 -0.2098 -0.0018  0.6950
  226MPD1    N1 3493   1.467   3.275   8.565 -0.4280 -0.2858 -0.3983
  226MPD1    H6 3494   1.482   3.288   8.465 -0.3970 -0.1676 -0.3779
  226MPD1    H7 3495   1.527   3.345   8.608 -0.9872 -0.6191  0.9360
  227MPD1     C 3496   0.530   3.293   9.682  1.2030 -0.2881  0.7650
  227MPD1    C1 3497   0.564   3.212   9.578  0.2033  0.0637  0.0496
  227MPD1    C2 3498   0.677   3.255   9.507  0.0555 -0.7568 -0.8629
  227MPD1    C3 3499   0.745   3.368   9.536  0.3783  0.5741  0.3574
  227MPD1    C4 3500   0.710   3.441   9.644 -0.4921 -0.0888 -0.1011
  227MPD1    C5 3501   0.596   3.406   9.706  0.2681  0.2740 -0.1357
  227MPD1     H 3502   0.705   3.187   9.427  0.5373 -1.1471 -0.3625
  227MPD1    H1 3503   0.762   3.528   9.681 -0.3089  0.0919 -0.7969
  227MPD1    H2 3504   0.445   3.277   9.747  2.9943  0.4867  3.3143
  227MPD1    H3 3505   0.561   3.459   9.793  1.6360  2.0992 -0.6990
  227MPD1     N 3506   0.837   3.405   9.442 -0.7142  0.0817 -0.4522
  227MPD1    H5 3507   0.864   3.329   9.380  2.7311  1.2000 -0.3327
  227MPD1    N1 3508   0.497   3.100   9.556  0.4919  0.8910 -0.2271
  227MPD1    H6 3509   0.514   3.065   9.461 -0.1675  0.5881 -0.2307
  227MPD1    H7 3510   0.398   3.097   9.579  0.9645  1.4419  1.8216
  228MPD1     C 3511   0.354   1.910  13.567 -0.2450  0.3921  1.2666
  228MPD1    C1 3512   0.327   1.974  13.454 -0.2833  0.0805 -0.1836
  228MPD1    C2 3513   0.200   1.957  13.396  0.3850  0.5918 -0.0812
  228MPD1    C3 3514   0.109   1.872  13.455  0.5143 -0.6157 -0.0236
  228MPD1    C4 3515   0.138   1.824  13.583  1.1089  0.8554  0.7372
  228MPD1    C5 3516   0.266   1.834  13.632 -0.4773 -0.0863  0.6386
  228MPD1     H 3517   0.173   2.003  13.302  1.5742 -0.2223 -0.8165
  228MPD1    H1 3518   0.075   1.755  13.637 -0.4017  2.5907  1.2070
  228MPD1    H2 3519   0.451   1.917  13.616 -0.8155  0.7461  2.3586
  228MPD1    H3 3520   0.314   1.790  13.719 -1.6793 -2.2318  0.2130
  228MPD1     N 3521   4.728   1.842  13.383  0.1790  0.4908  0.2610
  228MPD1    H5 3522   4.723   1.865  13.284 -0.7059  1.7404  0.5981
  228MPD1    N1 3523   0.423   2.053  13.398 -0.2036 -0.1085 -0.2386
  228MPD1    H6 3524   0.434   2.041  13.297  1.0553 -0.2975 -0.0871
  228MPD1    H7 3525   0.515   2.033  13.438 -0.1978  1.1442  0.3796
  229MPD1     C 3526   0.189   1.179  14.269 -1.1731  0.3890 -0.0364
  229MPD1    C1 3527   0.257   1.057  14.274 -0.5616 -0.1736 -0.5289
  229MPD1    C2 3528   0.188   0.937  14.297 -0.8933  0.3493  0.1271
  229MPD1    C3 3529   0.050   0.946  14.281 -0.3417 -0.0847 -0.0988
  229MPD1    C4 3530   4.716   1.068  14.265  0.7916 -0.0489 -0.1350
  229MPD1    C5 3531   0.052   1.187  14.262  0.5269  0.5601  0.2732
  229MPD1     H 3532   0.236   0.840  14.299 -1.8748 -0.1405 -0.2189
  229MPD1    H1 3533   4.608   1.079  14.264  0.8489  1.0660  6.0092
  229MPD1    H2 3534   0.246   1.271  14.268  0.7552 -0.8224  0.0388
  229MPD1    H3 3535   0.002   1.283  14.259  0.2256  0.3632 -0.9509
  229MPD1     N 3536   4.701   0.829  14.288  0.0925  0.5131 -0.4666
  229MPD1    H5 3537   4.603   0.831  14.263  0.0624  2.4866 -0.2240
  229MPD1    N1 3538   0.396   1.049  14.299 -0.3324  1.0410  0.5883
  229MPD1    H6 3539   0.444   0.965  14.266  1.0069  2.0990 -0.1073
  229MPD1    H7 3540   0.442   1.123  14.247  0.0326  1.9571  2.2035
  230MPD1     C 3541   4.274   0.546  15.054 -0.3596 -0.6743 -0.8574
  230MPD1    C1 3542   4.360   0.439  15.033 -0.4234 -0.2360 -0.5325
  230MPD1    C2 3543   4.406   0.429  14.903  0.5882  0.1534 -0.0847
  230MPD1    C3 3544   4.354   0.499  14.797 -0.6836 -0.3406  0.1448
  230MPD1    C4 3545   4.265   0.599  14.823  0.0117  0.0575  0.0663
  230MPD1    C5 3546   4.232   0.618  14.951  0.2459  0.7661  0.4779
  230MPD1     H 3547   4.492   0.369  14.876  0.3227  0.8138 -2.3489
  230MPD1    H1 3548   4.212   0.662  14.753 -0.3998  0.4810  0.7538
  230MPD1    H2 3549   4.252   0.576  15.156 -2.5824 -1.9113 -0.9899
  230MPD1    H3 3550   4.167   0.705  14.957 -0.7687  0.1966 -2.2966
  230MPD1     N 3551   4.408   0.491  14.671 -0.2381  0.2321  0.0405
  230MPD1    H5 3552   4.490   0.432  14.658  1.2747  2.4367 -0.5130
  230MPD1    N1 3553   4.435   0.385  15.134  0.6693 -0.1357  0.2131
  230MPD1    H6 3554   4.480   0.300  15.101 -1.9832 -2.1023  1.6172
  230MPD1    H7 3555   4.385   0.351  15.216  0.0787 -1.2959 -0.6157
  231MPD1     C 3556   3.069   2.603  15.820  0.1705 -0.4179 -0.0395
  231MPD1    C1 3557   3.021   2.559  15.696 -0.4817  0.0720  0.2610
  231MPD1    C2 3558   3.065   2.622  15.581 -0.8220  1.2805  0.2126
  231MPD1    C3 3559   3.171   2.709  15.590  0.7296  0.5010 -0.2055
  231MPD1    C4 3560   3.230   2.737  15.711  0.4505 -0.6601  0.4447
  231MPD1    C5 3561   3.169   2.698  15.829  0.4383  0.1993  0.2920
  231MPD1     H 3562   3.026   2.594  15.484  0.7358  0.4111 -0.1597
  231MPD1    H1 3563   3.316   2.803  15.717  0.6126 -0.8308  0.0300
  231MPD1    H2 3564   3.009   2.567  15.903  0.5283 -0.3801  0.2311
  231MPD1    H3 3565   3.202   2.734  15.926  0.6903  1.6700 -0.3336
  231MPD1     N 3566   3.235   2.738  15.460  0.4742 -0.0742 -0.7562
  231MPD1    H5 3567   3.194   2.690  15.381  1.1378  1.2598 -1.8938
  231MPD1    N1 3568   2.905   2.481  15.693  0.2092  0.0613 -0.2835
  231MPD1    H6 3569   2.911   2.409  15.765 -1.3776  1.3561  1.1549
  231MPD1    H7 3570   2.903   2.446  15.598 -1.0480 -1.8788  0.4731
  232MPD1     C 3571   4.036   0.488   0.425 -0.0439  0.7569  0.1259
  232MPD1    C1 3572   3.955   0.588   0.360  0.0813 -0.6866  1.1903
  232MPD1    C2 3573   3.892   0.551   0.241 -0.0664 -0.3708 -0.0181
  232MPD1    C3 3574   3.895   0.423   0.189  0.5178  0.6808  0.0785
  232MPD1    C4 3575   3.974   0.336   0.253  0.9590  0.0464 -0.1790
  232MPD1    C5 3576   4.042   0.367   0.367 -0.4963  0.1684  0.2296
  232MPD1     H 3577   3.831   0.624   0.189  0.0198 -0.9612 -0.9382
  232MPD1    H1 3578   3.977   0.233   0.221  0.5752 -0.1413  0.3863
  232MPD1    H2 3579   4.087   0.506   0.519  0.7287 -0.3165 -0.0891
  232MPD1    H3 3580   4.112   0.297   0.412  0.9344 -0.0205 -2.2836
  232MPD1     N 3581   3.797   0.394   0.084 -1.1577  0.1890  0.1238
  232MPD1    H5 3582   3.735   0.471   0.061 -0.2259  0.7808 -0.4089
  232MPD1    N1 3583   3.930   0.716   0.421 -0.0744  0.3163  0.1524
  232MPD1    H6 3584   4.009   0.746   0.478  1.5393 -1.0217 -1.3822
  232MPD1    H7 3585   3.898   0.790   0.359  1.3674 -0.6241 -1.7130
  233MPD1     C 3586   4.309   3.004   1.610  0.8264 -0.1417 -0.0509
  233MPD1    C1 3587   4.282   2.872   1.640 -0.5467  0.4752 -0.1642
  233MPD1    C2 3588   4.392   2.787   1.630 -0.1800  0.6428 -0.1677
  233MPD1    C3 3589   4.518   2.830   1.586  0.3289  0.1232  1.1021
  233MPD1    C4 3590   4.537   2.955   1.547  0.8949 -0.3646 -0.0164
  233MPD1    C5 3591   4.433   3.045   1.560 -0.0666 -0.4038  0.0500
  233MPD1     H 3592   4.374   2.688   1.672 -2.1790  1.0286 -0.1347
  233MPD1    H1 3593   4.631   2.996   1.510  1.4683 -3.1179 -1.6153
  233MPD1    H2 3594   4.241   3.088   1.617  1.1641 -0.0769  2.4704
  233MPD1    H3 3595   4.441   3.145   1.520  0.2952 -1.2141 -1.9117
  233MPD1     N 3596   4.636   2.750   1.571 -0.7360 -0.2200  0.3152
  233MPD1    H5 3597   4.722   2.794   1.540 -0.5364 -1.8263 -1.4090
  233MPD1    N1 3598   4.168   2.838   1.712 -0.5912 -0.6115  0.3251
  233MPD1    H6 3599   4.138   2.740   1.714 -0.6057 -0.5880  1.4705
  233MPD1    H7 3600   4.083   2.890   1.690 -0.2952  0.3761  1.5540
  234MPD1     C 3601   2.929   1.940   9.707 -0.2383  0.5601 -0.4780
  234MPD1    C1 3602   2.881   2.030   9.805 -0.6470  0.2255 -0.2808
  234MPD1    C2 3603   2.773   2.107   9.772  0.0488  0.3884 -0.7785
  234MPD1    C3 3604   2.695   2.075   9.663  0.4710  0.2441 -0.5487
  234MPD1    C4 3605   2.742   1.981   9.574 -0.3226 -0.7537 -0.1978
  234MPD1    C5 3606   2.855   1.913   9.599 -0.1933  0.1276  0.0831
  234MPD1     H 3607   2.740   2.182   9.843  2.4384  3.4837 -2.9174
  234MPD1    H1 3608   2.703   1.966   9.474  1.1147 -1.3461 -0.6749
  234MPD1    H2 3609   3.021   1.885   9.727 -1.4478 -1.2399  0.1404
  234MPD1    H3 3610   2.892   1.843   9.526  0.2253  0.4625 -0.0258
  234MPD1     N 3611   2.567   2.144   9.640  0.3688 -0.2463 -0.5103
  234MPD1    H5 3612   2.532   2.200   9.717  1.4514  1.8055 -1.4893
  234MPD1    N1 3613   2.954   2.069   9.920  0.0212  0.5549 -0.0860
  234MPD1    H6 3614   2.999   1.990   9.966 -1.8051 -1.5687 -1.9887
  234MPD1    H7 3615   2.908   2.128   9.989 -0.2534  0.0774  0.1371
  235MPD1     C 3616   4.122   4.184  11.203  0.7609 -0.4930 -0.0873
  235MPD1    C1 3617   4.183   4.303  11.247 -0.5309 -0.0501 -0.3263
  235MPD1    C2 3618   4.146   4.422  11.190 -0.4992 -0.5929 -0.5149
  235MPD1    C3 3619   4.061   4.429  11.083  0.8629  0.3447 -0.1290
  235MPD1    C4 3620   4.016   4.311  11.030 -1.1495  1.1773  0.5950
  235MPD1    C5 3621   4.044   4.188  11.091  0.3106  0.8338 -0.1123
  235MPD1     H 3622   4.172   4.516  11.238 -1.4259 -1.5261  1.8173
  235MPD1    H1 3623   3.950   4.310  10.944  1.2277  0.5510 -1.2445
  235MPD1    H2 3624   4.131   4.092  11.260  1.6759 -0.3472  0.0130
  235MPD1    H3 3625   3.996   4.104  11.041  0.8832  0.1339  0.5182
  235MPD1     N 3626   4.016   4.548  11.019  0.1142  0.4233 -0.1387
  235MPD1    H5 3627   3.955   4.536  10.939  2.1259  2.3057 -1.9484
  235MPD1    N1 3628   4.258   4.298  11.365  0.5116  0.3825 -0.4788
  235MPD1    H6 3629   4.319   4.218  11.360  0.5537  0.4125 -0.4443
  235MPD1    H7 3630   4.305   4.388  11.375 -2.7292  2.0966 -0.5466
  236MPD1     C 3631   2.886   1.144   9.583 -0.2333  0.3374  0.6392
  236MPD1    C1 3632   2.822   1.062   9.668  0.3013 -0.3907 -0.5655
  236MPD1    C2 3633   2.880   1.036   9.797 -0.3536 -0.1510 -0.8993
  236MPD1    C3 3634   2.997   1.101   9.838 -1.0487 -0.3684  0.4882
  236MPD1    C4 3635   3.061   1.179   9.742  0.1361  0.3089 -0.1907
  236MPD1    C5 3636   3.002   1.209   9.621 -0.4745  0.0866 -0.2853
  236MPD1     H 3637   2.818   0.975   9.861  1.4820  0.3626  1.3453
  236MPD1    H1 3638   3.156   1.227   9.765  0.5299 -1.1231  1.1827
  236MPD1    H2 3639   2.855   1.163   9.481 -1.2544  1.1341  1.1011
  236MPD1    H3 3640   3.055   1.270   9.549 -0.7367  1.4597  0.6831
  236MPD1     N 3641   3.058   1.089   9.968 -0.2086  0.4558  0.1127
  236MPD1    H5 3642   3.145   1.141   9.974  1.0908 -1.5729 -1.2683
  236MPD1    N1 3643   2.714   0.978   9.624  0.3034  0.5169  0.4513
  236MPD1    H6 3644   2.642   0.976   9.696  0.0351  3.7033  0.2867
  236MPD1    H7 3645   2.666   1.011   9.540  0.3899 -0.7239 -0.0818
  237MPD1     C 3646   2.859   4.630  15.361  0.3601  0.4776 -0.3205
  237MPD1    C1 3647   2.794   4.600  15.481 -0.6877 -0.4109  0.3514
  237MPD1    C2 3648   2.707   4.493  15.478  0.0082 -0.2476 -0.5676
  237MPD1    C3 3649   2.683   4.422  15.364  0.3761 -0.1963 -0.0824
  237MPD1    C4 3650   2.744   4.459  15.243  0.2701  0.6591  0.1677
  237MPD1    C5 3651   2.833   4.560  15.247  0.7746  0.5838  0.1606
  237MPD1     H 3652   2.659   4.474  15.573  2.1881 -0.2436  0.5551
  237MPD1    H1 3653   2.707   4.421  15.149  2.6915  1.9505 -1.3073
  237MPD1    H2 3654   2.936   4.705  15.349 -0.2128  1.1622  0.2602
  237MPD1    H3 3655   2.876   4.609  15.161  0.6931 -2.7238 -1.7782
  237MPD1     N 3656   2.592   4.315  15.354 -0.2495 -0.7110  0.4151
  237MPD1    H5 3657   2.587   4.268  15.264  0.4863  0.1251 -0.0600
  237MPD1    N1 3658   2.808   4.692  15.582  0.3094 -0.4543  0.7896
  237MPD1    H6 3659   2.895   0.011  15.577 -0.9212  1.4143 -0.5671
  237MPD1    H7 3660   2.811   4.636  15.667 -0.5240 -1.1539  0.3548
  238MPD1     C 3661   0.215   2.800  14.702  0.2146  0.8214  0.2295
  238MPD1    C1 3662   0.210   2.716  14.808  0.1370  0.6576  0.5593
  238MPD1    C2 3663   0.090   2.664  14.850 -0.4061  0.7573 -0.5310
  238MPD1    C3 3664   4.706   2.709  14.792  0.2647 -0.6925 -0.4393
  238MPD1    C4 3665   4.713   2.796  14.690 -0.3801 -0.3609  0.3336
  238MPD1    C5 3666   0.095   2.830  14.635 -0.3348  0.1811 -0.0669
  238MPD1     H 3667   0.088   2.586  14.925 -2.5752 -0.0880 -1.4719
  238MPD1    H1 3668   4.625   2.822  14.632 -1.5465  0.6680  2.5809
  238MPD1    H2 3669   0.308   2.844  14.668  1.2906 -1.5409  0.1127
  238MPD1    H3 3670   0.109   2.886  14.543  0.2509  2.5555  1.4747
  238MPD1     N 3671   4.575   2.655  14.813  0.0170 -0.4269 -0.1256
  238MPD1    H5 3672   4.497   2.679  14.753 -0.1886 -1.9036 -0.4579
  238MPD1    N1 3673   0.332   2.656  14.847 -0.4833  0.5050 -0.0436
  238MPD1    H6 3674   0.333   2.629  14.945  2.4214  0.5607 -0.0691
  238MPD1    H7 3675   0.411   2.704  14.805  0.1335  0.3163  0.9128
  239MPD1     C 3676   0.175   3.480  14.870 -0.6124  0.3073 -0.1287
  239MPD1    C1 3677   0.232   3.466  14.747  0.5234  0.2936 -0.5105
  239MPD1    C2 3678   0.144   3.466  14.645  0.7296 -0.2108  0.0984
  239MPD1    C3 3679   0.016   3.507  14.653 -0.5725 -0.5498  0.0473
  239MPD1    C4 3680   4.698   3.525  14.779  0.0137 -0.3870  0.5354
  239MPD1    C5 3681   0.042   3.505  14.889  0.0518  0.1132 -0.2793
  239MPD1     H 3682   0.192   3.446  14.550  0.9470  0.8472 -0.0110
  239MPD1    H1 3683   4.591   3.536  14.790  0.0929 -0.7444  1.6419
  239MPD1    H2 3684   0.239   3.477  14.958 -1.7693 -0.2661  0.6932
  239MPD1    H3 3685   4.728   3.515  14.985  1.3504  2.3819  0.1435
  239MPD1     N 3686   4.657   3.499  14.544  0.6757  1.1544  0.4203
  239MPD1    H5 3687   4.564   3.538  14.555 -0.1927 -0.8907  0.1615
  239MPD1    N1 3688   0.351   3.399  14.740 -0.4547  0.1641 -0.2247
  239MPD1    H6 3689   0.408   3.431  14.818  0.9091 -1.7422 -0.4413
  239MPD1    H7 3690   0.406   3.399  14.654  0.6580 -1.1868  0.4940
  240MPD1     C 3691   4.252   2.740  14.115  0.2550 -0.0299 -0.5969
  240MPD1    C1 3692   4.146   2.821  14.146 -0.0738  0.6251  0.1359
  240MPD1    C2 3693   4.112   2.831  14.277 -0.3750 -0.3419  0.5172
  240MPD1    C3 3694   4.198   2.786  14.371  0.0628 -0.3516  0.3748
  240MPD1    C4 3695   4.308   2.710  14.338 -0.2069 -0.2293  1.1800
  240MPD1    C5 3696   4.327   2.681  14.213 -1.3907 -0.1606  0.0154
  240MPD1     H 3697   4.023   2.885  14.309  0.0783  1.3148 -1.0271
  240MPD1    H1 3698   4.368   2.648  14.403  1.7592 -0.6985 -1.0381
  240MPD1    H2 3699   4.267   2.708  14.012 -0.2806 -0.1244 -0.6467
  240MPD1    H3 3700   4.411   2.618  14.188 -0.6736  0.7668  0.0996
  240MPD1     N 3701   4.160   2.797  14.506  0.2612 -0.0014  0.4394
  240MPD1    H5 3702   4.064   2.828  14.520 -0.0939 -0.9431  0.1570
  240MPD1    N1 3703   4.059   2.871  14.048  0.3322  0.0234  0.9035
  240MPD1    H6 3704   4.112   2.916  13.972 -0.6329  1.2670  0.9689
  240MPD1    H7 3705   3.991   2.940  14.080  0.0663 -1.4368  3.4701
  241MPD1     C 3706   4.113   2.767  15.596 -0.3733 -0.9775 -0.6066
  241MPD1    C1 3707   4.190   2.844  15.512 -0.1426 -0.1867 -0.6774
  241MPD1    C2 3708   4.174   2.831  15.373 -0.5164  0.1892  0.1358
  241MPD1    C3 3709   4.068   2.758  15.321  0.2764 -0.2456 -0.2175
  241MPD1    C4 3710   3.989   2.687  15.407  0.4295  0.5812  0.1826
  241MPD1    C5 3711   4.013   2.693  15.545 -0.0457 -0.4760  0.3866
  241MPD1     H 3712   4.252   2.885  15.320  0.9140 -0.3166  1.7017
  241MPD1    H1 3713   3.908   2.620  15.382  0.4799 -0.0306  1.6399
  241MPD1    H2 3714   4.144   2.763  15.700  0.5813 -1.4905 -0.9187
  241MPD1    H3 3715   3.954   2.630  15.610  0.8449 -1.1067  0.5853
  241MPD1     N 3716   4.048   2.736  15.184 -0.1861 -0.3514 -0.2813
  241MPD1    H5 3717   3.978   2.669  15.154  0.3967 -1.3830  0.6827
  241MPD1    N1 3718   4.291   2.924  15.567 -0.3945 -0.0691 -0.0573
  241MPD1    H6 3719   4.323   2.990  15.495  0.7152 -1.8646 -1.2114
  241MPD1    H7 3720   4.272   2.979  15.650  1.3372 -1.4639  1.2644
  242MPD1     C 3721   3.295   1.209  16.143  0.1679  0.4784  0.1312
  242MPD1    C1 3722   3.218   1.260  16.038  0.0696 -0.1090 -0.5695
  242MPD1    C2 3723   3.258   1.278  15.909  0.6601  0.2491 -0.4980
  242MPD1    C3 3724   3.382   1.221  15.880  0.5340  0.2751 -0.8559
  242MPD1    C4 3725   3.454   1.160  15.981 -0.9866  0.6836  0.5027
  242MPD1    C5 3726   3.415   1.160  16.115 -0.7729  0.1419 -0.1416
  242MPD1     H 3727   3.191   1.327  15.840 -0.3185  1.0762  1.0350
  242MPD1    H1 3728   3.555   1.124  15.961 -1.0927  0.3565  0.5568
  242MPD1    H2 3729   3.263   1.206  16.247  1.5510 -3.0437  0.4652
  242MPD1    H3 3730   3.482   1.122  16.191  0.6743  2.5197 -0.2573
  242MPD1     N 3731   3.445   1.226  15.750  0.1174 -0.1532 -0.1656
  242MPD1    H5 3732   3.543   1.204  15.742 -0.4245 -1.9671 -1.8174
  242MPD1    N1 3733   3.102   1.324  16.080 -0.2466 -0.0313 -0.2918
  242MPD1    H6 3734   3.036   1.343  16.005 -1.3862  1.8264  1.1689
  242MPD1    H7 3735   3.055   1.281  16.159 -2.3212  2.8609  0.0613
  243MPD1     C 3736   0.038   4.540  17.416  0.8226  0.0666  0.1493
  243MPD1    C1 3737   0.148   4.467  17.449 -0.0254  0.6140  0.3129
  243MPD1    C2 3738   0.239   4.430  17.355 -0.7879  0.0798 -0.6620
  243MPD1    C3 3739   0.227   4.475  17.225  0.2256 -0.1927  0.6750
  243MPD1    C4 3740   0.110   4.548  17.193 -0.3077 -0.0630 -0.1647
  243MPD1    C5 3741   0.017   4.578  17.288  0.7476 -1.0486 -0.7394
  243MPD1     H 3742   0.326   4.374  17.388 -0.7710  0.3767 -0.1961
  243MPD1    H1 3743   0.104   4.589  17.093 -3.1367 -1.0178 -0.3986
  243MPD1    H2 3744   4.694   4.563  17.488 -0.1238  0.7008 -1.0995
  243MPD1    H3 3745   4.663   4.634  17.259 -0.0450 -2.5083 -1.1301
  243MPD1     N 3746   0.313   4.438  17.123  0.6376 -0.2221  0.0102
  243MPD1    H5 3747   0.396   4.387  17.152 -0.2391 -0.0170  2.8340
  243MPD1    N1 3748   0.164   4.437  17.588  0.0514  0.2473 -0.4679
  243MPD1    H6 3749   0.089   4.473  17.648 -1.0987 -0.9339 -1.2042
  243MPD1    H7 3750   0.163   4.339  17.615  0.7399  0.2114 -0.5905
  244MPD1     C 3751   1.094   4.705  17.264  0.1694 -0.4538  0.1035
  244MPD1    C1 3752   1.009   4.635  17.345 -0.1443  0.6561 -0.3965
  244MPD1    C2 3753   0.915   4.557  17.278  0.3739 -0.3987 -0.7354
  244MPD1    C3 3754   0.895   4.562  17.142  0.6811  0.3374 -0.8557
  244MPD1    C4 3755   0.969   4.651  17.065 -0.1656  0.0821  0.7183
  244MPD1    C5 3756   1.081   4.705  17.129 -0.2539 -0.4351  0.3371
  244MPD1     H 3757   0.854   4.491  17.338 -0.1286 -0.0416 -0.8525
  244MPD1    H1 3758   0.978   4.648  16.957 -0.2012  0.4359  0.7041
  244MPD1    H2 3759   1.168   0.037  17.306 -1.7456  1.0614  1.1058
  244MPD1    H3 3760   1.151   0.032  17.073 -2.2875  1.1356 -0.5158
  244MPD1     N 3761   0.801   4.479  17.083  0.0363 -0.6434  0.6030
  244MPD1    H5 3762   0.760   4.407  17.141 -1.8445 -1.2754 -1.4635
  244MPD1    N1 3763   1.026   4.633  17.485 -0.4460  0.6669  0.6722
  244MPD1    H6 3764   1.125   4.626  17.510 -0.4631  0.3528  0.6514
  244MPD1    H7 3765   1.001   4.544  17.527 -1.0271  0.2734 -0.5171
  245MPD1     C 3766   2.412   0.813  13.385  0.2702 -0.2493  0.3092
  245MPD1    C1 3767   2.530   0.816  13.469 -0.1919 -0.5543  0.5318
  245MPD1    C2 3768   2.585   0.936  13.502  0.0662  0.3110 -0.7010
  245MPD1    C3 3769   2.523   1.056  13.458  0.3366 -0.4243  0.4229
  245MPD1    C4 3770   2.427   1.054  13.360  0.0639  0.0605 -0.7228
  245MPD1    C5 3771   2.376   0.933  13.322  0.0469 -0.1750 -0.2361
  245MPD1     H 3772   2.682   0.934  13.551  0.9344 -1.3939 -2.5165
  245MPD1    H1 3773   2.391   1.140  13.305 -2.4505  0.5729  1.7277
  245MPD1    H2 3774   2.373   0.721  13.343  1.8431 -0.3302 -0.9867
  245MPD1    H3 3775   2.312   0.919  13.236  1.2829  0.1725 -1.1970
  245MPD1     N 3776   2.578   1.174  13.501 -0.0972 -0.3162 -0.5157
  245MPD1    H5 3777   2.659   1.167  13.562 -0.4475 -0.9704 -0.1300
  245MPD1    N1 3778   2.612   0.701  13.492  0.4901  0.1365 -0.2600
  245MPD1    H6 3779   2.666   0.710  13.577 -0.7588  1.8646  0.3619
  245MPD1    H7 3780   2.558   0.615  13.495  1.0700 -0.1911  0.5311
  246MPD1     C 3781   4.373   2.707  10.371 -0.1019 -0.3700 -0.2559
  246MPD1    C1 3782   4.288   2.599  10.379 -0.3571 -0.0593  0.2694
  246MPD1    C2 3783   4.275   2.515  10.266  0.3167 -0.2544  0.0162
  246MPD1    C3 3784   4.326   2.544  10.146 -0.0449  1.0128 -0.3722
  246MPD1    C4 3785   4.402   2.659  10.138  0.4461 -0.1379 -0.2199
  246MPD1    C5 3786   4.426   2.727  10.250  0.9950 -0.2610 -0.0442
  246MPD1     H 3787   4.206   2.431  10.272  1.1562 -0.9272  0.3483
  246MPD1    H1 3788   4.457   2.686  10.048 -1.5155  2.8115 -0.5051
  246MPD1    H2 3789   4.381   2.791  10.439 -2.1584  0.8260 -1.4733
  246MPD1    H3 3790   4.476   2.823  10.238 -1.3099  1.0614  1.0424
  246MPD1     N 3791   4.286   2.463  10.037 -0.5388  0.0229 -0.7761
  246MPD1    H5 3792   4.216   2.393  10.058  0.4165 -0.8118 -0.3836
  246MPD1    N1 3793   4.221   2.575  10.497  0.0177  0.0183 -0.0735
  246MPD1    H6 3794   4.140   2.515  10.480 -1.2329  1.3408  1.1479
  246MPD1    H7 3795   4.178   2.657  10.540  1.5956  1.5336 -1.3890
  247MPD1     C 3796   1.476   1.614  16.770 -0.2735  0.0970 -0.4122
  247MPD1    C1 3797   1.507   1.517  16.866  0.5004  0.5390 -0.7014
  247MPD1    C2 3798   1.541   1.390  16.824  0.1171  0.7202 -0.5929
  247MPD1    C3 3799   1.529   1.363  16.694 -0.5049  0.1531 -0.1331
  247MPD1    C4 3800   1.473   1.448  16.603  0.2488  0.5182  0.3090
  247MPD1    C5 3801   1.444   1.574  16.643  0.2868 -0.3300 -0.7986
  247MPD1     H 3802   1.574   1.316  16.896 -1.1500  1.3943  0.6839
  247MPD1    H1 3803   1.457   1.405  16.505 -1.3720  1.8730 -0.0301
  247MPD1    H2 3804   1.453   1.715  16.801 -1.1534 -0.6027  1.2222
  247MPD1    H3 3805   1.408   1.645  16.570 -1.6823 -0.3573  0.1389
  247MPD1     N 3806   1.557   1.233  16.642  0.8648  0.0278  0.4020
  247MPD1    H5 3807   1.554   1.219  16.542  0.2553 -1.1354  0.5907
  247MPD1    N1 3808   1.531   1.565  16.996  0.4186  0.2942  0.3529
  247MPD1    H6 3809   1.459   1.626  17.035  1.2208  0.9709  0.7634
  247MPD1    H7 3810   1.539   1.489  17.063  3.5239  0.0319 -0.3214
  248MPD1     C 3811   2.445   3.913   0.325 -0.1000 -0.1638 -0.0492
  248MPD1    C1 3812   2.398   4.034   0.286  0.0096 -0.3830 -0.0525
  248MPD1    C2 3813   2.353   4.124   0.380  0.3189 -0.2809  0.4955
  248MPD1    C3 3814   2.386   4.106   0.516  0.0783 -0.6701  0.1516
  248MPD1    C4 3815   2.446   3.988   0.551 -0.3608  0.1789  0.2830
  248MPD1    C5 3816   2.478   3.886   0.455 -0.0596  0.0697 -0.2736
  248MPD1     H 3817   2.311   4.218   0.346 -0.3398 -1.2648 -1.3972
  248MPD1    H1 3818   2.458   3.958   0.655 -1.0743  0.5592  0.4767
  248MPD1    H2 3819   2.467   3.829   0.260 -0.1941  1.5972 -2.3767
  248MPD1    H3 3820   2.516   3.786   0.476 -0.7634 -0.0600  0.4042
  248MPD1     N 3821   2.362   4.217   0.605 -0.4867  0.3227  0.1381
  248MPD1    H5 3822   2.323   4.303   0.568  2.5214  1.5321 -0.2001
  248MPD1    N1 3823   2.384   4.062   0.147  0.0501  0.7984  0.1232
  248MPD1    H6 3824   2.296   4.111   0.133 -0.0811  0.7757  0.8482
  248MPD1    H7 3825   2.369   3.976   0.096 -1.4604  0.4054  1.2091
  249MPD1     C 3826   0.010   2.880  10.340 -0.1838 -0.8266  0.6288
  249MPD1    C1 3827   0.059   2.989  10.271  0.0574  0.2274 -0.1450
  249MPD1    C2 3828   0.044   3.109  10.337  0.0736 -0.1543 -0.2395
  249MPD1    C3 3829   4.725   3.118  10.462  0.7577  0.4342 -0.2136
  249MPD1    C4 3830   4.677   3.006  10.528  0.2560 -0.0178  0.2464
  249MPD1    C5 3831   4.690   2.888  10.464  0.0971 -0.1546  0.3859
  249MPD1     H 3832   0.080   3.203  10.296  1.6638 -1.8748 -2.7746
  249MPD1    H1 3833   4.623   3.014  10.622 -0.8231  2.4307 -0.6012
  249MPD1    H2 3834   0.014   2.780  10.298 -1.5183 -0.7225  0.2507
  249MPD1    H3 3835   4.660   2.793  10.508  0.8228 -1.0014 -0.9359
  249MPD1     N 3836   4.713   3.250  10.519  0.2929 -0.0700  0.0838
  249MPD1    H5 3837   0.024   3.324  10.468 -0.4866  1.6880  1.9461
  249MPD1    N1 3838   0.095   2.976  10.135 -0.1255  0.1410 -0.1590
  249MPD1    H6 3839   0.142   3.060  10.100  1.7258 -1.2769 -1.1410
  249MPD1    H7 3840   0.148   2.891  10.114 -1.0838 -1.1068  2.5438
  250MPD2     C 3841   1.132   3.561  13.269  0.9351 -0.1719  0.3124
  250MPD2    C1 3842   1.198   3.604  13.159 -0.1218 -0.3712 -0.1789
  250MPD2    C2 3843   1.180   3.543  13.039 -0.6549  0.7672  0.8892
  250MPD2    C3 3844   1.093   3.444  13.038 -0.1520 -0.0140  0.5387
  250MPD2    C4 3845   1.030   3.399  13.148 -0.1635  0.2236  0.2848
  250MPD2    C5 3846   1.051   3.457  13.267 -0.1274 -0.3458 -0.4811
  250MPD2     H 3847   1.224   3.585  12.949 -0.0032 -0.5651  0.5790
  250MPD2    H1 3848   0.967   3.311  13.148  1.6221 -1.0519  1.5170
  250MPD2    H2 3849   1.136   3.622  13.359  0.2350  0.4419 -0.0747
  250MPD2    H3 3850   1.002   3.425  13.358 -0.4616 -0.5045 -0.7155
  250MPD2     N 3851   1.059   3.385  12.917  0.2737  0.0632  0.2118
  250MPD2    H5 3852   0.989   3.312  12.912  0.1215  0.1796  0.6979
  250MPD2    N1 3853   1.271   3.724  13.184  0.2307 -0.4011  0.5627
  250MPD2    H7 3854   1.271   3.745  13.283 -1.8354 -0.0312  0.4987
  251TMC3    C1 3855   1.365   3.944  13.154 -0.1586  0.0930 -0.1373
  251TMC3    C2 3856   1.284   3.988  13.257 -0.8642  0.6688  0.2913
  251TMC3    C3 3857   1.294   4.120  13.287  0.7084  0.3209 -0.1364
  251TMC3    C4 3858   1.445   4.020  13.077 -0.1254 -0.2786  0.4538
  251TMC3    C5 3859   1.465   4.150  13.126  0.2501  0.1523  0.0038
  251TMC3    C6 3860   1.388   4.206  13.227  0.1040  0.0328  0.1203
  251TMC3     C 3861   1.331   3.808  13.094  0.1224  0.1732  0.0085
  251TMC3     O 3862   1.358   3.785  12.976 -0.2568  0.6696 -0.1329
  251TMC3     H 3863   1.213   3.922  13.305 -0.7277 -0.6442 -1.3183
  251TMC3    H1 3864   1.511   3.981  13.001 -0.5509 -1.4597  0.6874
  251TMC3    H2 3865   1.395   4.311  13.254 -1.6398 -0.3466  2.0831
  251TMC3    C7 3866   1.579   4.228  13.083  0.1731 -0.1326 -0.1007
  251TMC3    C8 3867   1.182   4.176  13.357  0.3456  0.7216 -0.0702
  251TMC3    O1 3868   1.682   4.169  13.069  0.5647 -0.0634  0.4146
  251TMC3    O2 3869   1.089   4.097  13.381 -0.4566 -0.2249  0.0376
  252TMC3    C1 3870   0.897   0.728   9.275 -0.1585  0.3178 -0.1074
  252TMC3    C2 3871   1.018   0.793   9.294  0.3637  0.4582  0.5218
  252TMC3    C3 3872   1.097   0.742   9.399  0.0567 -0.1575  0.1192
  252TMC3    C4 3873   0.850   0.624   9.352  0.0466  0.3067 -0.7117
  252TMC3    C5 3874   0.939   0.582   9.450 -0.2119 -0.2697 -0.4811
  252TMC3    C6 3875   1.058   0.641   9.481 -0.0130 -0.4690 -0.5377
  252TMC3     C 3876   0.799   0.762   9.170  0.0631 -0.0154 -0.5451
  252TMC3     O 3877   0.715   0.684   9.129  0.5567 -0.3546 -0.0102
  252TMC3     H 3878   1.043   0.874   9.227  0.3733  2.2922  2.7273
  252TMC3    H1 3879   0.760   0.571   9.325 -0.0956 -0.2859  0.9122
  252TMC3    H2 3880   1.125   0.605   9.558 -0.9863 -2.3609 -0.5602
  252TMC3    C7 3881   0.891   0.469   9.528 -0.6434 -0.7550 -0.0618
  252TMC3    C8 3882   1.227   0.810   9.414 -0.1755  0.8480  0.9233
  252TMC3    O1 3883   0.774   0.445   9.525 -0.4838 -0.4025 -0.1911
  252TMC3    O2 3884   1.245   0.906   9.338  0.3520  0.1812  0.3870
  253MPD2     C 3885   2.153   4.441  15.203  0.1105  0.1392 -0.3597
  253MPD2    C1 3886   2.015   4.409  15.190  0.6023 -0.1566  0.5719
  253MPD2    C2 3887   1.935   4.397  15.303 -0.4763 -0.4992 -0.5459
  253MPD2    C3 3888   1.989   4.398  15.424  0.9790  0.1873  0.4729
  253MPD2    C4 3889   2.124   4.438  15.437 -0.8772  0.3717  0.1449
  253MPD2    C5 3890   2.201   4.456  15.331  0.3745  0.1737 -0.0229
  253MPD2     H 3891   1.834   4.370  15.274 -0.6145  0.0250 -0.5507
  253MPD2    H1 3892   2.166   4.465  15.533 -1.3599  3.9951 -0.6565
  253MPD2    H2 3893   2.222   4.469  15.125  0.8294  0.9346  0.5664
  253MPD2    H3 3894   2.304   4.479  15.356 -0.4351  3.1236  0.6177
  253MPD2     N 3895   1.912   4.384  15.541  0.4679 -0.2007 -0.2071
  253MPD2    H5 3896   1.959   4.379  15.631  2.2074  2.0546 -0.9940
  253MPD2    N1 3897   1.958   4.390  15.062 -0.3434 -0.3262 -0.0280
  253MPD2    H7 3898   1.864   4.350  15.067 -0.3671 -0.3232 -0.4517
  254TMC3    C1 3899   1.738   4.338  15.675  0.1410 -0.6414 -0.5617
  254TMC3    C2 3900   1.614   4.384  15.715 -0.5517 -0.1639  1.0494
  254TMC3    C3 3901   1.585   4.384  15.849 -0.1452 -0.0000 -0.3106
  254TMC3    C4 3902   1.828   4.283  15.764 -0.1562 -1.1820  0.3063
  254TMC3    C5 3903   1.785   4.270  15.894  0.2098  0.3083  0.0099
  254TMC3    C6 3904   1.663   4.322  15.937  1.1128  0.7433 -0.2319
  254TMC3     C 3905   1.779   4.361  15.543 -1.3142 -0.0251  0.3920
  254TMC3     O 3906   1.696   4.381  15.453  0.0802 -0.0444 -0.0342
  254TMC3     H 3907   1.556   4.437  15.640  2.0867  0.2320 -0.7184
  254TMC3    H1 3908   1.917   4.249  15.712  0.6901  0.9889  0.3036
  254TMC3    H2 3909   1.633   4.306  16.040 -0.8741 -0.7959 -1.0386
  254TMC3    C7 3910   1.849   4.188  15.983 -0.0773 -0.0760 -0.6228
  254TMC3    C8 3911   1.459   4.430  15.898  0.0850 -0.4839  0.4832
  254TMC3    O1 3912   1.790   4.162  16.085  0.1796 -0.0658  0.4121
  254TMC3    O2 3913   1.422   4.379  15.998  0.1435  0.5182  0.0382
  255MPD2     C 3914   0.785   1.652  10.279  0.0648  0.5880 -0.1803
  255MPD2    C1 3915   0.803   1.780  10.235 -0.0545 -0.7631 -0.1756
  255MPD2    C2 3916   0.850   1.805  10.104  0.2930  0.7482  0.0180
  255MPD2    C3 3917   0.899   1.702  10.025  0.1176  0.0031  0.1342
  255MPD2    C4 3918   0.888   1.569  10.076  0.0398  0.4129  0.0731
  255MPD2    C5 3919   0.829   1.552  10.200  0.7253 -0.0445  0.0058
  255MPD2     H 3920   0.855   1.905  10.063  0.3241  0.9318  0.4587
  255MPD2    H1 3921   0.928   1.483  10.025  0.0627 -0.5481  1.7243
  255MPD2    H2 3922   0.755   1.619  10.378  0.3474  0.2464 -0.2072
  255MPD2    H3 3923   0.830   1.452  10.242 -1.9912  0.5577  1.5027
  255MPD2     N 3924   0.942   1.744   9.899  0.1849  0.1572  0.1928
  255MPD2    H5 3925   0.952   1.844   9.889  0.3527 -0.0353 -1.6793
  255MPD2    N1 3926   0.753   1.884  10.319 -0.1404 -0.5298  0.3701
  255MPD2    H7 3927   0.688   1.853  10.390 -0.1584 -0.1806  0.5052
  256TMC3    C1 3928   0.710   2.105  10.393  0.9848  0.0467  0.4091
  256TMC3    C2 3929   0.680   2.230  10.350 -0.1487  0.2883  0.0525
  256TMC3    C3 3930   0.547   2.273  10.357  0.0309  0.1629 -0.3234
  256TMC3    C4 3931   0.620   2.026  10.462  0.1695  0.7303  0.7567
  256TMC3    C5 3932   0.491   2.080  10.471 -0.3923  0.0390 -0.0847
  256TMC3    C6 3933   0.454   2.197  10.421  0.0623  0.1847 -0.3906
  256TMC3     C 3934   0.789   2.019  10.304 -0.2522  0.1841  0.3741
  256TMC3     O 3935   0.872   2.073  10.230  0.3475  0.1009  0.5990
  256TMC3     H 3936   0.757   2.277  10.290 -0.5688 -0.9356 -1.4206
  256TMC3    H1 3937   0.644   1.932  10.509 -1.0168  0.6162  1.1454
  256TMC3    H2 3938   0.353   2.232  10.439 -1.3568 -3.3855 -1.4260
  256TMC3    C7 3939   0.383   1.986  10.468  1.0481  0.1650 -0.8253
  256TMC3    C8 3940   0.492   2.365  10.257 -1.2112 -0.0517 -0.2567
  256TMC3    O1 3941   0.406   1.892  10.400 -0.1798  0.1849 -0.5223
  256TMC3    O2 3942   0.369   2.364  10.251 -0.5381  0.3428  0.4292
  257MPD2     C 3943   4.112   3.893  13.376  0.9358  0.6507 -0.1923
  257MPD2    C1 3944   4.127   3.824  13.254 -0.2000 -0.4533 -0.3441
  257MPD2    C2 3945   4.132   3.684  13.258  0.1613 -0.1921  0.0897
  257MPD2    C3 3946   4.123   3.620  13.374  0.2009 -0.5948 -1.2269
  257MPD2    C4 3947   4.120   3.692  13.492  0.0184 -0.3328 -0.0576
  257MPD2    C5 3948   4.112   3.833  13.495 -0.1071  0.2866 -0.5612
  257MPD2     H 3949   4.136   3.623  13.169 -0.3387  1.6571 -1.2180
  257MPD2    H1 3950   4.129   3.642  13.588 -0.7651 -1.7351 -0.7192
  257MPD2    H2 3951   4.112   4.001  13.378 -0.2864  0.6417 -0.2422
  257MPD2    H3 3952   4.120   3.892  13.586 -1.0265 -0.6550  0.1371
  257MPD2     N 3953   4.147   3.481  13.375 -0.3600  0.2219  0.1451
  257MPD2    H5 3954   4.157   3.439  13.283  1.1314 -0.1339  0.4717
  257MPD2    N1 3955   4.138   3.900  13.132 -0.4712  0.1423  0.0941
  257MPD2    H7 3956   4.114   3.999  13.133 -1.4830 -0.1025  0.2997
  258TMC3    C1 3957   4.221   3.272  13.456 -0.2397  0.3736  0.7446
  258TMC3    C2 3958   4.172   3.196  13.350  0.4258 -0.4650 -0.5009
  258TMC3    C3 3959   4.183   3.060  13.361  0.1114 -0.5050 -0.7268
  258TMC3    C4 3960   4.268   3.209  13.569 -0.6954  0.1153  0.0877
  258TMC3    C5 3961   4.257   3.068  13.573  0.0093 -0.0196  0.3055
  258TMC3    C6 3962   4.225   2.989  13.468  0.0276 -0.4989  0.5430
  258TMC3     C 3963   4.169   3.405  13.491  0.1832 -0.0150 -0.0900
  258TMC3     O 3964   4.142   3.435  13.607  0.3857  0.5565 -0.9085
  258TMC3     H 3965   4.130   3.238  13.259 -3.1524 -2.6019  0.1591
  258TMC3    H1 3966   4.270   3.260  13.664  0.7198 -0.2956  0.2887
  258TMC3    H2 3967   4.233   2.882  13.482 -0.2743 -0.4970  0.7308
  258TMC3    C7 3968   4.330   3.003  13.678  0.0950  0.4386 -0.1416
  258TMC3    C8 3969   4.160   2.970  13.246 -0.4479  1.0349  0.7040
  258TMC3    O1 3970   4.255   2.941  13.757 -0.4523  0.7810 -0.4446
  258TMC3    O2 3971   4.188   2.855  13.261 -0.0049 -0.0011 -0.4260
  259MPD2     C 3972   2.736   0.664   0.811 -0.2714  0.1716 -0.0463
  259MPD2    C1 3973   2.794   0.561   0.746  0.4757 -0.1836  0.0623
  259MPD2    C2 3974   2.804   0.566   0.607  0.0750 -0.3863  0.9087
  259MPD2    C3 3975   2.753   0.677   0.533  0.3289 -0.4873 -0.4540
  259MPD2    C4 3976   2.694   0.778   0.606  0.0240 -0.1331  0.2144
  259MPD2    C5 3977   2.683   0.773   0.745  0.3906  1.0521 -0.0856
  259MPD2     H 3978   2.855   0.484   0.557  0.6771 -0.9111  2.3883
  259MPD2    H1 3979   2.648   0.859   0.550  0.7328 -0.3497 -0.6843
  259MPD2    H2 3980   2.715   0.663   0.918  2.6543 -1.3038  0.5378
  259MPD2    H3 3981   2.630   0.850   0.800 -0.1000 -0.3820  1.4521
  259MPD2     N 3982   2.772   0.673   0.394 -0.1849 -0.2659 -0.2853
  259MPD2    H5 3983   2.802   0.584   0.355  0.1411 -0.8958  1.4257
  259MPD2    N1 3984   2.835   0.451   0.828 -0.0474 -0.1707  0.4886
  259MPD2    H7 3985   2.817   0.450   0.928 -0.2867  1.5746  0.4734
  260TMC3    C1 3986   2.807   0.752   0.180 -0.6566  0.2784 -0.3292
  260TMC3    C2 3987   2.849   0.857   0.097  0.4768  0.3474 -0.3900
  260TMC3    C3 3988   2.884   0.825  17.707 -0.4850 -0.2413 -0.7071
  260TMC3    C4 3989   2.796   0.619   0.136  0.0072  0.0406 -0.0425
  260TMC3    C5 3990   2.823   0.602   0.002 -0.2994 -0.8492  0.1222
  260TMC3    C6 3991   2.860   0.701  17.650 -0.7189 -0.3591 -0.2357
  260TMC3     C 3992   2.769   0.787   0.319 -0.7424  0.0879  0.1178
  260TMC3     O 3993   2.764   0.902   0.359  0.3067 -0.3702  0.2063
  260TMC3     H 3994   2.856   0.958   0.135  0.0094  1.0536 -2.1894
  260TMC3    H1 3995   2.750   0.541   0.195  0.0801 -0.7733 -1.0821
  260TMC3    H2 3996   2.873   0.676  17.545 -2.9098  0.2210 -0.6602
  260TMC3    C7 3997   2.848   0.464  17.700 -0.1188  0.0629 -0.0532
  260TMC3    C8 3998   3.015   0.875  17.669  0.7653 -0.0110  0.0251
  260TMC3    O1 3999   2.843   0.446  17.581 -0.2090 -0.0016 -0.3255
  260TMC3    O2 4000   3.039   0.989  17.698 -0.2227  0.3665 -0.2011
  261MPD2     C 4001   0.490   3.452  12.398 -0.3272 -0.1242  0.6463
  261MPD2    C1 4002   0.619   3.494  12.365 -0.3246  0.0458 -0.4037
  261MPD2    C2 4003   0.631   3.606  12.280  0.6017 -0.3493 -1.1899
  261MPD2    C3 4004   0.522   3.672  12.234 -0.0522 -0.0994 -0.1570
  261MPD2    C4 4005   0.391   3.622  12.266 -0.6017  0.3451  0.1631
  261MPD2    C5 4006   0.378   3.510  12.348 -0.4613  0.5400  0.4433
  261MPD2     H 4007   0.730   3.647  12.262  2.0513 -2.3213  2.1957
  261MPD2    H1 4008   0.301   3.670  12.228 -0.1333  3.5702  3.1339
  261MPD2    H2 4009   0.478   3.369  12.467 -1.2415 -0.6541 -0.1535
  261MPD2    H3 4010   0.276   3.475  12.365 -0.7967  0.3070 -1.9614
  261MPD2     N 4011   0.547   3.788  12.159 -0.3602 -0.3408  0.6951
  261MPD2    H5 4012   0.638   3.799  12.115 -0.8559  0.5065 -0.1219
  261MPD2    N1 4013   0.735   3.444  12.425  0.3816  0.7950  0.0495
  261MPD2    H7 4014   0.820   3.498  12.431  1.2478 -0.4692 -0.9602
  262TMC3    C1 4015   0.506   3.988  12.051 -0.0646 -0.0379 -0.0558
  262TMC3    C2 4016   0.468   4.121  12.069  0.0389  0.0063 -0.2487
  262TMC3    C3 4017   0.518   4.210  11.976 -0.0340  0.2551  0.1263
  262TMC3    C4 4018   0.584   3.947  11.947  0.5125  0.1927 -0.9581
  262TMC3    C5 4019   0.648   4.045  11.870  0.1031  0.1349 -0.0792
  262TMC3    C6 4020   0.613   4.175  11.888 -0.4786 -0.3676  0.0956
  262TMC3     C 4021   0.462   3.890  12.149 -0.8433 -0.2628  0.6784
  262TMC3     O 4022   0.362   3.919  12.213  0.3323 -0.3882  0.5094
  262TMC3     H 4023   0.416   4.148  12.161  0.9848  1.6318 -0.1904
  262TMC3    H1 4024   0.625   3.846  11.941 -0.0589 -0.0625 -0.5321
  262TMC3    H2 4025   0.645   4.243  11.809 -1.5693  0.3171  0.2292
  262TMC3    C7 4026   0.736   4.003  11.764  0.5743 -0.8273  0.3225
  262TMC3    C8 4027   0.450   4.338  11.955  0.0259  0.8027 -0.7726
  262TMC3    O1 4028   0.723   3.884  11.732  0.1678  0.7864  0.0517
  262TMC3    O2 4029   0.504   4.395  11.861 -0.0356 -0.3886 -0.0646
  263MPD2     C 4030   1.328   3.036  11.066  0.4781  0.3769 -0.0132
  263MPD2    C1 4031   1.415   3.129  11.116 -0.1115  0.4412 -0.2504
  263MPD2    C2 4032   1.469   3.222  11.031  0.1525 -0.0358  0.3702
  263MPD2    C3 4033   1.436   3.222  10.894 -0.7645  0.7065 -0.1438
  263MPD2    C4 4034   1.333   3.140  10.849 -0.4663  0.6790  0.1644
  263MPD2    C5 4035   1.287   3.045  10.938 -0.0788 -0.2132  0.1167
  263MPD2     H 4036   1.550   3.288  11.060  0.4669  0.8281 -2.4731
  263MPD2    H1 4037   1.307   3.129  10.745 -2.5605  2.7735  0.4767
  263MPD2    H2 4038   1.287   2.965  11.137 -0.5186  0.9402 -0.0360
  263MPD2    H3 4039   1.208   2.978  10.908  1.6882 -2.7657  1.1938
  263MPD2     N 4040   1.507   3.308  10.805  0.8385  0.1919  0.9783
  263MPD2    H5 4041   1.581   3.359  10.853  1.3887 -1.2760  1.6675
  263MPD2    N1 4042   1.455   3.110  11.251  0.0851 -0.1263  0.0412
  263MPD2    H7 4043   1.392   3.044  11.297  0.5946 -0.6660 -0.0337
  264TMC3    C1 4044   1.611   3.395  10.608  0.2994 -0.1809  0.7933
  264TMC3    C2 4045   1.575   3.530  10.634  0.3688  0.0682  0.3408
  264TMC3    C3 4046   1.592   3.624  10.530  0.2585  0.0611 -0.5112
  264TMC3    C4 4047   1.653   3.361  10.485  0.1794  0.1033 -0.6533
  264TMC3    C5 4048   1.694   3.455  10.397 -0.0580  0.6395  0.0961
  264TMC3    C6 4049   1.652   3.588  10.413  0.2529  0.0749  0.0046
  264TMC3     C 4050   1.517   3.297  10.666 -0.7491 -0.4336 -0.3179
  264TMC3     O 4051   1.463   3.214  10.594  0.0712 -0.7457  0.7100
  264TMC3     H 4052   1.533   3.565  10.728  1.2140 -0.0071  0.7488
  264TMC3    H1 4053   1.683   3.257  10.481 -0.5021 -0.1152 -0.1127
  264TMC3    H2 4054   1.656   3.661  10.334  1.3275  0.3700  0.3344
  264TMC3    C7 4055   1.831   3.453  10.362  0.3046  0.1818 -0.2025
  264TMC3    C8 4056   1.623   3.756  10.575 -0.4761  0.5055 -0.3154
  264TMC3    O1 4057   1.880   3.340  10.344  0.4993  0.0069  0.0431
  264TMC3    O2 4058   1.733   3.799  10.541  0.0850 -0.2799  0.1317
  265MPD2     C 4059   3.185   3.554  15.492  0.0729  0.5089 -0.6968
  265MPD2    C1 4060   3.231   3.648  15.401  0.0566  0.6050  0.6522
  265MPD2    C2 4061   3.347   3.624  15.327  0.3590  0.4994  0.2053
  265MPD2    C3 4062   3.413   3.503  15.345  0.8913 -0.3383  0.0928
  265MPD2    C4 4063   3.366   3.413  15.441 -0.0728 -0.5526 -0.4045
  265MPD2    C5 4064   3.253   3.434  15.512  0.6845  0.4667  0.3072
  265MPD2     H 4065   3.380   3.702  15.259  0.2957  0.5694  0.2552
  265MPD2    H1 4066   3.417   3.322  15.469  0.4759  0.2900  1.3404
  265MPD2    H2 4067   3.091   3.560  15.547 -1.8704  0.0632 -3.9674
  265MPD2    H3 4068   3.213   3.360  15.581  0.8431 -0.6693 -0.8125
  265MPD2     N 4069   3.530   3.468  15.282  0.3727  0.7263 -0.0886
  265MPD2    H5 4070   3.589   3.397  15.323 -0.0821  0.1667 -0.4096
  265MPD2    N1 4071   3.165   3.771  15.370 -0.1162  0.6373 -0.6173
  265MPD2    H7 4072   3.203   3.830  15.296  1.9248  0.9636  0.6854
  266TMC3    C1 4073   3.008   3.948  15.404  0.2998  0.3664  0.0450
  266TMC3    C2 4074   2.908   3.992  15.485 -0.4223 -0.1491  0.9578
  266TMC3    C3 4075   2.876   4.127  15.486 -0.2023 -0.2134 -0.0249
  266TMC3    C4 4076   3.053   4.028  15.304 -0.2930  0.1397  0.3738
  266TMC3    C5 4077   3.024   4.166  15.311  0.6667  0.7239 -0.2277
  266TMC3    C6 4078   2.936   4.215  15.402 -0.3837 -0.2958 -0.1312
  266TMC3     C 4079   3.047   3.807  15.429 -0.0510  0.1251  0.0478
  266TMC3     O 4080   2.975   3.744  15.507 -0.6570  0.8840  0.0566
  266TMC3     H 4081   2.880   3.935  15.574 -1.6302 -2.0279 -0.6284
  266TMC3    H1 4082   3.120   3.989  15.229 -0.0391  0.2377  0.5492
  266TMC3    H2 4083   2.922   4.322  15.411 -0.1506 -0.2788  0.0335
  266TMC3    C7 4084   3.003   4.216  15.180 -0.1129 -0.7535  0.1617
  266TMC3    C8 4085   2.801   4.176  15.606 -0.4079 -0.1164  0.0820
  266TMC3    O1 4086   2.948   4.136  15.098 -0.3602  0.5488  0.3671
  266TMC3    O2 4087   2.736   4.093  15.672  0.0866 -0.5346 -0.5038
  267MPD2     C 4088   0.220   0.263   0.716  0.7893  0.3305 -0.6597
  267MPD2    C1 4089   0.206   0.390   0.670  0.2462 -0.0110  0.3749
  267MPD2    C2 4090   0.091   0.433   0.603 -0.7857 -0.3813 -0.5795
  267MPD2    C3 4091   4.712   0.346   0.604  0.9864  0.1089  0.0960
  267MPD2    C4 4092   4.725   0.219   0.656 -0.1122  0.3632 -0.3380
  267MPD2    C5 4093   0.116   0.176   0.705  0.3441 -0.9520  0.5537
  267MPD2     H 4094   0.072   0.533   0.566 -1.5622  0.3831  1.8275
  267MPD2    H1 4095   4.637   0.156   0.658  0.2559 -0.1029  1.0205
  267MPD2    H2 4096   0.305   0.237   0.778  1.6797 -1.4245 -2.6032
  267MPD2    H3 4097   0.122   0.074   0.741 -0.1385 -0.4530  2.0467
  267MPD2     N 4098   4.594   0.369   0.524  0.3017 -0.3609  0.1334
  267MPD2    H5 4099   4.529   0.296   0.496  2.7041 -1.4992 -2.6287
  267MPD2    N1 4100   0.308   0.488   0.690 -0.1147  0.3285 -0.4284
  267MPD2    H7 4101   0.394   0.453   0.731  0.1813  0.5830 -0.8344
  268TMC3    C1 4102   0.445   0.677   0.650  0.0986  0.0409  0.1213
  268TMC3    C2 4103   0.476   0.769   0.564 -0.4637  0.0083  0.4681
  268TMC3    C3 4104   0.599   0.816   0.562  0.2254  0.2607 -0.8685
  268TMC3    C4 4105   0.529   0.632   0.752  0.3092  0.1571  0.6602
  268TMC3    C5 4106   0.647   0.696   0.758  0.8390 -0.4100 -0.2424
  268TMC3    C6 4107   0.685   0.790   0.665 -0.3827  0.1660  0.0849
  268TMC3     C 4108   0.313   0.619   0.639 -0.5062  0.0402 -0.0835
  268TMC3     O 4109   0.219   0.683   0.587  0.6540  0.2433  0.4392
  268TMC3     H 4110   0.390   0.808   0.511  0.7593 -0.7245 -2.0592
  268TMC3    H1 4111   0.518   0.545   0.816 -3.4571 -0.4521 -0.8042
  268TMC3    H2 4112   0.783   0.835   0.670 -1.5722  2.9948 -2.5666
  268TMC3    C7 4113   0.747   0.641   0.846  0.4527 -0.4229 -0.1105
  268TMC3    C8 4114   0.626   0.936   0.493 -0.5213  0.4406 -0.0395
  268TMC3    O1 4115   0.738   0.519   0.870 -0.3355  0.2947 -0.3735
  268TMC3    O2 4116   0.716   1.014   0.521 -0.3242  0.6395 -0.0135
  269MPD2     C 4117   1.359   4.463  15.453 -0.0879 -0.3683  0.9710
  269MPD2    C1 4118   1.228   4.459  15.507 -0.4457 -0.3759 -0.3744
  269MPD2    C2 4119   1.151   4.573  15.492  0.5828  0.4172 -0.6722
  269MPD2    C3 4120   1.208   4.688  15.441 -0.3211 -0.5514  0.0236
  269MPD2    C4 4121   1.338   4.689  15.402  0.1327  0.1589  0.0704
  269MPD2    C5 4122   1.413   4.575  15.397  0.3405 -0.0862  0.1640
  269MPD2     H 4123   1.054   4.578  15.539  1.1085 -0.3778  0.4832
  269MPD2    H1 4124   1.392   0.044  15.370  1.4423 -0.0213  1.7878
  269MPD2    H2 4125   1.424   4.376  15.461 -1.0082 -1.0808  0.6672
  269MPD2    H3 4126   1.516   4.567  15.364  0.8643  0.3863  1.6715
  269MPD2     N 4127   1.116   0.061  15.415 -0.8103 -0.2014 -0.6251
  269MPD2    H5 4128   1.017   0.038  15.419 -0.9120  0.1175 -1.3471
  269MPD2    N1 4129   1.190   4.338  15.578 -0.6288  0.0463  0.2818
  269MPD2    H7 4130   1.252   4.258  15.587 -0.1225  0.5382  1.0911
  270TMC3    C1 4131   1.034   4.189  15.679 -0.3094  0.7955  0.6279
  270TMC3    C2 4132   0.907   4.142  15.678 -0.1691 -0.2503  0.1690
  270TMC3    C3 4133   0.872   4.033  15.756 -0.2918  0.1884 -0.0408
  270TMC3    C4 4134   1.128   4.132  15.762  0.8488  0.5336  0.4305
  270TMC3    C5 4135   1.092   4.022  15.850  0.0245  0.3225 -0.2516
  270TMC3    C6 4136   0.963   3.980  15.843  0.0484  0.1191  0.2285
  270TMC3     C 4137   1.068   4.322  15.632  0.2304  0.1452  0.5358
  270TMC3     O 4138   0.964   4.389  15.624 -0.0265  0.2847  0.6279
  270TMC3     H 4139   0.828   4.183  15.615  0.0105 -0.0870  0.0511
  270TMC3    H1 4140   1.230   4.166  15.749  1.1832 -0.0252  1.5800
  270TMC3    H2 4141   0.941   3.888  15.897  1.4362 -0.8082 -0.7778
  270TMC3    C7 4142   1.190   3.915  15.816 -0.1639  0.0382 -0.3604
  270TMC3    C8 4143   0.795   3.938  15.688  0.2570  0.7242  0.0481
  270TMC3    O1 4144   1.206   3.822  15.894 -0.1938  0.0643 -0.1523
  270TMC3    O2 4145   0.742   3.849  15.752 -0.3069  0.1977  0.3429
  271MPD2     C 4146   0.078   3.730  13.963 -0.3915 -0.5809 -0.1043
  271MPD2    C1 4147   0.053   3.749  14.100  0.7862  0.2568 -1.1679
  271MPD2    C2 4148   4.661   3.792  14.141  0.1886  0.5112  0.3343
  271MPD2    C3 4149   4.558   3.817  14.052 -0.3487  0.4694  0.0263
  271MPD2    C4 4150   4.583   3.799  13.917  0.0572  0.7990 -0.0104
  271MPD2    C5 4151   4.710   3.758  13.875  0.6395 -0.6411  0.5975
  271MPD2     H 4152   4.639   3.807  14.246  2.3927 -1.4620  1.0664
  271MPD2    H1 4153   4.511   3.818  13.839  0.8200  2.2793 -0.3681
  271MPD2    H2 4154   0.170   3.698  13.916  0.3481 -0.6944  1.4392
  271MPD2    H3 4155   4.719   3.733  13.770 -1.9915 -2.6758  0.8606
  271MPD2     N 4156   4.428   3.859  14.083 -0.1928 -0.0503  0.0430
  271MPD2    H5 4157   4.371   3.900  14.010 -0.8627  1.1289  1.2418
  271MPD2    N1 4158   0.155   3.730  14.195 -0.2528  0.1634 -0.4798
  271MPD2    H7 4159   0.137   3.769  14.287  0.6088 -1.0913  0.2248
  272TMC3    C1 4160   0.358   3.678  14.290  0.1435  0.3505  1.1403
  272TMC3    C2 4161   0.494   3.666  14.271  0.2829 -0.3780 -0.0086
  272TMC3    C3 4162   0.573   3.676  14.385  0.1475  0.5454 -0.3625
  272TMC3    C4 4163   0.303   3.708  14.413 -0.3307  0.2561 -0.4145
  272TMC3    C5 4164   0.392   3.735  14.519 -0.6706  0.4198  0.3989
  272TMC3    C6 4165   0.530   3.723  14.505  0.3298 -0.1269  0.4822
  272TMC3     C 4166   0.281   3.663  14.173  0.2362  0.3299  0.0333
  272TMC3     O 4167   0.332   3.624  14.070  0.0022 -0.2014 -0.0364
  272TMC3     H 4168   0.536   3.654  14.171  1.3598  1.1460  0.2641
  272TMC3    H1 4169   0.198   3.696  14.437  0.0550 -2.4925 -0.1515
  272TMC3    H2 4170   0.601   3.736  14.586  3.1694  3.2625 -2.5818
  272TMC3    C7 4171   0.327   3.789  14.637  0.4922  0.3331 -0.7967
  272TMC3    C8 4172   0.714   3.670  14.366  1.1619  0.5724 -0.8533
  272TMC3    O1 4173   0.205   3.782  14.655 -0.2804  0.0347 -0.6563
  272TMC3    O2 4174   0.755   3.710  14.256 -0.5186 -0.0907 -0.2615
  273MPD2     C 4175   1.471   1.792  11.662  1.0994  0.0072  0.4093
  273MPD2    C1 4176   1.593   1.855  11.671  0.8808 -0.0351  0.4075
  273MPD2    C2 4177   1.666   1.892  11.559  0.4013 -0.2708 -0.4556
  273MPD2    C3 4178   1.612   1.884  11.431 -0.2763 -0.1008  0.1082
  273MPD2    C4 4179   1.489   1.828  11.421 -0.0534  0.6464  0.3265
  273MPD2    C5 4180   1.417   1.782  11.534 -0.6696  0.1683  0.1222
  273MPD2     H 4181   1.764   1.936  11.573  0.2502  0.2634 -1.0674
  273MPD2    H1 4182   1.427   1.836  11.332  1.7703 -2.1203 -1.1851
  273MPD2    H2 4183   1.410   1.760  11.746 -1.5672  0.2158 -1.4438
  273MPD2    H3 4184   1.314   1.749  11.525  0.0337 -1.7200 -1.0217
  273MPD2     N 4185   1.670   1.913  11.309  0.1259 -0.4392  0.2329
  273MPD2    H5 4186   1.614   1.905  11.225  0.0818 -1.5053  0.3633
  273MPD2    N1 4187   1.649   1.875  11.803 -0.4609  1.0267  0.5629
  273MPD2    H7 4188   1.611   1.818  11.877 -2.8746  0.5830 -1.0268
  274TMC3    C1 4189   1.824   2.001  11.161  0.3982  0.6063  0.1464
  274TMC3    C2 4190   1.757   1.949  11.051  0.3265 -0.8451  0.0673
  274TMC3    C3 4191   1.792   1.995  10.921 -0.2312 -0.0272 -0.1190
  274TMC3    C4 4192   1.908   2.106  11.152 -0.1251  0.2225  0.0666
  274TMC3    C5 4193   1.928   2.150  11.028 -0.0134 -0.0095  0.4509
  274TMC3    C6 4194   1.884   2.096  10.912 -0.5574  0.1481  0.1879
  274TMC3     C 4195   1.806   1.938  11.295 -0.5443  0.7312 -0.4451
  274TMC3     O 4196   1.896   1.961  11.379  0.2335 -0.2294  0.0883
  274TMC3     H 4197   1.690   1.865  11.062 -2.0820  0.9658 -0.9321
  274TMC3    H1 4198   1.941   2.153  11.244  1.3139  0.0148 -0.3579
  274TMC3    H2 4199   1.887   2.161  10.825 -0.9103  0.3843  0.3541
  274TMC3    C7 4200   2.000   2.278  11.014 -0.2564 -0.8613  0.5438
  274TMC3    C8 4201   1.701   1.972  10.812 -0.1027  0.4628 -0.0473
  274TMC3    O1 4202   2.065   2.297  10.911  0.0213  0.2551  0.3273
  274TMC3    O2 4203   1.720   2.043  10.712 -0.5737 -0.1236  0.1122
  275MPD2     C 4204   1.811   0.357  14.469  0.2717 -0.0892 -0.1279
  275MPD2    C1 4205   1.694   0.429  14.476  0.1198 -0.0147  0.1064
  275MPD2    C2 4206   1.576   0.363  14.470  0.1124  0.1898  0.0716
  275MPD2    C3 4207   1.572   0.222  14.456 -0.0273 -0.4678 -0.3258
  275MPD2    C4 4208   1.693   0.156  14.446 -0.3549  0.2470  0.2885
  275MPD2    C5 4209   1.809   0.220  14.454  0.0540 -0.1195 -0.3169
  275MPD2     H 4210   1.484   0.420  14.479  0.3117  0.4970  0.1910
  275MPD2    H1 4211   1.696   0.049  14.429  0.3904  0.2390  0.4525
  275MPD2    H2 4212   1.909   0.404  14.465 -0.8890  2.3857  0.6271
  275MPD2    H3 4213   1.897   0.158  14.443  1.1197  1.1374  1.2870
  275MPD2     N 4214   1.453   0.147  14.430 -0.0352 -0.6723  0.1511
  275MPD2    H5 4215   1.460   0.047  14.414  0.5202 -0.7404  0.7918
  275MPD2    N1 4216   1.698   0.564  14.511  0.0731 -0.7986  0.2770
  275MPD2    H7 4217   1.782   0.599  14.556 -1.3619  2.4211  0.3829
  276TMC3    C1 4218   1.568   0.721  14.618  0.6870 -0.9886  0.1966
  276TMC3    C2 4219   1.441   0.702  14.656  0.3635  0.7544 -0.0892
  276TMC3    C3 4220   1.424   0.655  14.782  0.7257 -0.1241  0.2070
  276TMC3    C4 4221   1.672   0.732  14.710  0.1872  0.3462 -0.5715
  276TMC3    C5 4222   1.639   0.692  14.836 -0.1911 -0.0934  0.8200
  276TMC3    C6 4223   1.523   0.644  14.870  0.0548 -0.6285 -1.0618
  276TMC3     C 4224   1.598   0.647  14.493 -0.3027  0.3234  0.0120
  276TMC3     O 4225   1.513   0.641  14.400 -0.3408 -0.2675 -0.3776
  276TMC3     H 4226   1.365   0.676  14.582  1.3616  0.6762 -1.0904
  276TMC3    H1 4227   1.766   0.773  14.675  0.3184 -2.3798 -3.4189
  276TMC3    H2 4228   1.508   0.595  14.965  0.5111 -0.5627 -0.9577
  276TMC3    C7 4229   1.727   0.730  14.942 -0.9339 -0.1382  0.4540
  276TMC3    C8 4230   1.347   0.534  14.773 -0.9155 -0.2799 -0.2422
  276TMC3    O1 4231   1.673   0.749  15.051  0.1358  0.0155  0.6123
  276TMC3    O2 4232   1.239   0.548  14.719  0.0176 -0.0155  0.1592
  277MPD2     C 4233   3.739   3.805  13.237 -0.4359 -0.2389 -0.0571
  277MPD2    C1 4234   3.667   3.836  13.344  0.2627  0.1265  0.4366
  277MPD2    C2 4235   3.648   3.737  13.440 -0.2922  0.8593  0.1052
  277MPD2    C3 4236   3.685   3.605  13.422 -0.5393  0.0473 -0.5365
  277MPD2    C4 4237   3.744   3.571  13.300  0.1249 -0.1025  0.5969
  277MPD2    C5 4238   3.775   3.671  13.213  0.4777 -0.2092 -0.2952
  277MPD2     H 4239   3.593   3.764  13.529 -2.1430 -1.2411 -0.3921
  277MPD2    H1 4240   3.776   3.470  13.274 -0.4186  0.0210 -0.5523
  277MPD2    H2 4241   3.756   3.879  13.159  0.8671 -1.1820 -0.6813
  277MPD2    H3 4242   3.842   3.632  13.137 -0.1670 -0.1500 -0.8923
  277MPD2     N 4243   3.658   3.516  13.526 -0.8229 -0.1874 -0.0734
  277MPD2    H5 4244   3.603   3.553  13.602 -0.7365  1.1546 -0.6675
  277MPD2    N1 4245   3.618   3.964  13.351 -0.4742  0.1847  0.1985
  277MPD2    H7 4246   3.645   4.033  13.282  3.1372  0.8978  2.3205
  278TMC3    C1 4247   3.613   3.309  13.631 -0.6388 -0.6229  0.0367
  278TMC3    C2 4248   3.557   3.194  13.587  0.0647  0.2379  0.5454
  278TMC3    C3 4249   3.497   3.110  13.681 -0.9794 -0.0846  0.7860
  278TMC3    C4 4250   3.602   3.360  13.764  0.7724 -0.6315 -0.5417
  278TMC3    C5 4251   3.542   3.274  13.850  0.6802 -0.9691 -0.3301
  278TMC3    C6 4252   3.493   3.146  13.817  0.5122 -0.6286 -0.0779
  278TMC3     C 4253   3.680   3.382  13.523 -0.0990  0.5487 -0.4709
  278TMC3     O 4254   3.714   3.308  13.432 -0.0137  0.1859 -0.5416
  278TMC3     H 4255   3.560   3.173  13.481 -1.3317  3.1267 -0.0780
  278TMC3    H1 4256   3.643   3.453  13.801  1.6771 -1.8319  1.4921
  278TMC3    H2 4257   3.448   3.083  13.892  1.5764  1.6512  2.4931
  278TMC3    C7 4258   3.462   3.349  13.948 -0.0707 -0.0036  0.5830
  278TMC3    C8 4259   3.479   2.964  13.664  0.0546 -0.2853  0.4375
  278TMC3    O1 4260   3.523   3.416  14.031 -0.4931  0.0236 -0.7055
  278TMC3    O2 4261   3.458   2.892  13.765 -0.0055  0.0562  0.2380
  279MPD2     C 4262   2.408   3.506   0.426 -0.4943  0.7268  0.3804
  279MPD2    C1 4263   2.322   3.583   0.349  0.3761  0.3970  0.1092
  279MPD2    C2 4264   2.338   3.585   0.207  0.0728 -0.6184  0.1423
  279MPD2    C3 4265   2.441   3.514   0.155  0.6546 -0.4442 -0.2743
  279MPD2    C4 4266   2.521   3.435   0.231 -0.2032  0.2309  0.4215
  279MPD2    C5 4267   2.496   3.420   0.361  0.3574  0.5267 -0.1003
  279MPD2     H 4268   2.274   3.647   0.145 -0.2233  0.9840  2.0589
  279MPD2    H1 4269   2.594   3.368   0.186 -0.5877  0.4331 -0.5159
  279MPD2    H2 4270   2.407   3.503   0.535 -2.4934  0.0199  0.3328
  279MPD2    H3 4271   2.539   3.335   0.413 -0.7371  0.4829  0.7324
  279MPD2     N 4272   2.475   3.508   0.014 -0.0786  0.2004  0.8989
  279MPD2    H5 4273   2.558   3.457  17.723 -0.1962 -0.5313  1.9804
  279MPD2    N1 4274   2.233   3.668   0.421  0.3549  0.6282 -1.1029
  279MPD2    H7 4275   2.241   3.676   0.522 -1.4357 -0.2642 -0.8960
  280TMC3    C1 4276   2.073   3.827   0.464  0.1659  0.1979  0.0481
  280TMC3    C2 4277   2.083   3.778   0.597  0.2520 -0.4121  0.5506
  280TMC3    C3 4278   2.061   3.873   0.693  0.1266  0.2327 -0.1322
  280TMC3    C4 4279   2.028   3.953   0.420 -1.0563  0.2305  0.2468
  280TMC3    C5 4280   2.004   4.044   0.524  0.0395 -0.4945 -0.2314
  280TMC3    C6 4281   2.033   4.009   0.653  0.6863  0.1819 -0.5980
  280TMC3     C 4282   2.137   3.751   0.363  0.6362  0.0256  0.0143
  280TMC3     O 4283   2.109   3.778   0.244  0.2550 -0.6539  0.3483
  280TMC3     H 4284   2.121   3.679   0.622 -3.7243 -2.4239 -1.3725
  280TMC3    H1 4285   2.026   3.979   0.315 -4.0412 -1.1222 -0.0574
  280TMC3    H2 4286   2.035   4.081   0.734  1.0168 -1.2107  0.6263
  280TMC3    C7 4287   2.003   4.182   0.481 -0.2499 -0.2428 -0.2678
  280TMC3    C8 4288   2.113   3.850   0.827  0.0041  0.0435  0.0238
  280TMC3    O1 4289   2.035   4.268   0.561 -0.6873 -0.1381  0.4025
  280TMC3    O2 4290   2.172   3.944   0.881  0.2707 -0.5938 -0.4544
  281TMC3    C1 4291   1.869   4.266  13.284  0.1200  0.1455 -0.5285
  281TMC3    C2 4292   1.939   4.346  13.201  0.3387  0.5007 -0.5321
  281TMC3    C3 4293   2.010   4.282  13.100 -0.0089  0.0201  0.5881
  281TMC3    C4 4294   1.884   4.128  13.281 -0.5707 -0.4441  0.5145
  281TMC3    C5 4295   1.969   4.075  13.186  0.5245 -0.1289  0.1456
  281TMC3    C6 4296   2.035   4.147  13.090  0.0639 -0.0534 -0.1870
  281TMC3     C 4297   1.771   4.309  13.366 -0.2819  0.8092 -0.2584
  281TMC3     O 4298   1.710   4.224  13.426 -0.2735 -0.4534 -0.4018
  281TMC3     H 4299   1.960   4.451  13.219 -1.7823  1.3631 -2.9738
  281TMC3    H1 4300   1.843   4.061  13.356 -0.1360 -0.0193  1.1332
  281TMC3    H2 4301   2.101   4.099  13.019 -1.9283 -0.6490 -1.6203
  281TMC3    C7 4302   1.971   3.932  13.181  0.5776 -0.0082  0.5435
  281TMC3    C8 4303   2.077   4.372  13.006 -0.1889 -0.0463 -0.8048
  281TMC3    O1 4304   2.068   3.880  13.129 -0.6371 -0.1610 -0.6695
  281TMC3    O2 4305   2.190   4.336  12.966 -0.7494 -0.1946  0.1792
  282MPD2     C 4306   3.055   0.853  15.234 -0.1180  0.4590 -0.0942
  282MPD2    C1 4307   2.938   0.921  15.233 -0.2464 -0.2515 -0.1420
  282MPD2    C2 4308   2.889   0.963  15.111  0.4196 -0.1542  0.3328
  282MPD2    C3 4309   2.941   0.925  14.994  0.4606  0.0805 -0.0207
  282MPD2    C4 4310   3.058   0.845  14.996 -0.0675  0.3518  0.7067
  282MPD2    C5 4311   3.110   0.812  15.115 -0.2133  0.5884  0.2833
  282MPD2     H 4312   2.791   1.007  15.104 -0.2650 -1.7266  0.0122
  282MPD2    H1 4313   3.117   0.812  14.911  0.4770  0.3686  1.0785
  282MPD2    H2 4314   3.097   0.810  15.324 -1.3188  1.4687  0.9550
  282MPD2    H3 4315   3.192   0.741  15.115  0.4143  1.3083  0.7060
  282MPD2     N 4316   2.885   0.961  14.873  0.1138  0.5837  0.2954
  282MPD2    H5 4317   2.807   1.025  14.879  0.2829  0.7107  1.1637
  282MPD2    N1 4318   2.885   0.978  15.349 -0.0863 -0.2190 -0.2714
  282MPD2    H7 4319   2.795   1.026  15.345 -1.3706 -2.5741  0.4161
  283TMC3    C1 4320   2.876   1.060  15.553 -0.7340 -0.3787 -0.5443
  283TMC3    C2 4321   2.926   1.173  15.606 -0.3485 -0.2559 -0.8028
  283TMC3    C3 4322   2.859   1.243  15.695  0.0066  1.3627 -0.2229
  283TMC3    C4 4323   2.750   1.021  15.580  0.2339  0.8756 -0.5375
  283TMC3    C5 4324   2.684   1.090  15.677 -0.1935  0.0475 -0.0765
  283TMC3    C6 4325   2.735   1.200  15.736 -0.5871 -0.2253 -0.4069
  283TMC3     C 4326   2.956   0.992  15.463 -0.2310  0.4716  0.1012
  283TMC3     O 4327   3.073   0.992  15.481 -0.4387 -0.3081  0.0167
  283TMC3     H 4328   3.020   1.207  15.565 -0.1434  0.4393  0.2381
  283TMC3    H1 4329   2.710   0.931  15.536  0.9230  0.5603 -0.5193
  283TMC3    H2 4330   2.664   1.250  15.800  0.8704  2.2803 -0.7672
  283TMC3    C7 4331   2.563   1.045  15.731 -0.0144  0.0310  0.5281
  283TMC3    C8 4332   2.911   1.348  15.780 -0.5222  0.0179 -0.1430
  283TMC3    O1 4333   2.543   1.055  15.850 -0.3319 -0.1479 -0.4130
  283TMC3    O2 4334   2.865   1.356  15.895 -0.2659  0.0111 -0.2659
  284MPD2     C 4335   1.571   0.020  11.810  0.5656  0.3527  0.8294
  284MPD2    C1 4336   1.662   4.662  11.752 -0.2667  0.6780  0.0709
  284MPD2    C2 4337   1.620   4.532  11.743 -0.1062  0.0910 -0.1362
  284MPD2    C3 4338   1.506   4.484  11.811 -0.1458 -0.6263  0.0359
  284MPD2    C4 4339   1.430   4.571  11.881 -0.3367  0.1073  0.2391
  284MPD2    C5 4340   1.456   4.706  11.874 -0.2757 -0.5060 -0.0986
  284MPD2     H 4341   1.688   4.469  11.687  0.4061 -0.4948  1.1480
  284MPD2    H1 4342   1.344   4.530  11.934  0.0170 -1.5885 -0.5068
  284MPD2    H2 4343   1.570   0.126  11.787  3.4559  1.1422  4.4546
  284MPD2    H3 4344   1.367   0.027  11.903 -0.6580 -2.2121  1.9165
  284MPD2     N 4345   1.468   4.356  11.814 -0.1392  0.1252  0.0982
  284MPD2    H5 4346   1.405   4.333  11.890  1.1133  1.3841  1.5196
  284MPD2    N1 4347   1.772   4.709  11.681  0.0604  0.7897 -0.1593
  284MPD2    H7 4348   1.828   4.643  11.628 -2.2275 -0.3698 -1.1136
  285TMC3    C1 4349   1.944   0.152  11.651  0.5452  0.0218 -0.5212
  285TMC3    C2 4350   1.967   0.114  11.519  0.2929  0.6399 -0.4141
  285TMC3    C3 4351   2.062   0.174  11.446  0.2771  0.7463  0.5410
  285TMC3    C4 4352   2.011   0.257  11.708 -0.3220  0.3713 -0.1722
  285TMC3    C5 4353   2.112   0.310  11.628 -0.0662  0.0080 -0.8430
  285TMC3    C6 4354   2.135   0.272  11.497 -0.7057  0.8708 -1.0921
  285TMC3     C 4355   1.825   0.098  11.723  0.2767  0.0840 -0.6649
  285TMC3     O 4356   1.794   0.159  11.824 -0.1189 -0.3508  0.1027
  285TMC3     H 4357   1.905   0.043  11.466 -0.0309  1.3842 -1.0290
  285TMC3    H1 4358   1.995   0.289  11.810 -1.4910  0.0593 -0.2574
  285TMC3    H2 4359   2.204   0.336  11.443 -0.9615  0.9089 -1.3740
  285TMC3    C7 4360   2.139   0.452  11.652 -0.0106 -0.0458 -0.0211
  285TMC3    C8 4361   2.102   0.113  11.323  0.2258  0.3022  0.3442
  285TMC3    O1 4362   2.127   0.525  11.555 -0.0659 -0.2894  0.9754
  285TMC3    O2 4363   2.017   0.058  11.254  0.1647  0.4028 -0.2075
  286MPD2     C 4364   1.881   3.508   1.765  0.4334 -0.9778 -0.5601
  286MPD2    C1 4365   1.795   3.429   1.696  0.7974  0.3759  0.1020
  286MPD2    C2 4366   1.802   3.293   1.694 -0.1162 -0.4247 -0.0738
  286MPD2    C3 4367   1.914   3.232   1.742  0.4470  0.3233 -0.7124
  286MPD2    C4 4368   2.012   3.319   1.803 -0.3315 -0.4630 -0.2772
  286MPD2    C5 4369   1.994   3.451   1.819 -0.2102  0.5564 -0.3230
  286MPD2     H 4370   1.726   3.232   1.646 -0.3879  0.1245 -0.3455
  286MPD2    H1 4371   2.101   3.286   1.854  0.6921  2.0090 -0.4529
  286MPD2    H2 4372   1.870   3.615   1.780  0.0443 -0.9411 -1.0989
  286MPD2    H3 4373   2.073   3.513   1.861 -2.4185  2.7392  0.5989
  286MPD2     N 4374   1.941   3.091   1.732  0.0840 -0.0085  0.2865
  286MPD2    H5 4375   2.036   3.059   1.748 -0.2486 -1.9603 -1.6239
  286MPD2    N1 4376   1.678   3.486   1.635  0.0936  0.1184 -0.2991
  286MPD2    H7 4377   1.606   3.427   1.595  2.3132 -0.9853 -2.6920
  287TMC3    C1 4378   1.931   2.881   1.616 -0.1757  0.4004  0.2966
  287TMC3    C2 4379   1.877   2.813   1.507  0.5858 -0.8571 -0.4869
  287TMC3    C3 4380   1.970   2.748   1.434  0.5768 -0.2290  0.1472
  287TMC3    C4 4381   2.062   2.871   1.663  0.7262  0.1432  0.2738
  287TMC3    C5 4382   2.149   2.787   1.590  0.2622  0.5782  0.0327
  287TMC3    C6 4383   2.102   2.728   1.473 -1.1241  0.3073  0.1691
  287TMC3     C 4384   1.855   2.991   1.680  0.0344  0.9153 -0.4520
  287TMC3     O 4385   1.734   2.991   1.667  0.0603 -0.3091  0.8166
  287TMC3     H 4386   1.778   2.825   1.465  0.8089 -0.8626 -1.0215
  287TMC3    H1 4387   2.101   2.916   1.753  0.5187 -0.8691  0.8770
  287TMC3    H2 4388   2.172   2.664   1.422 -0.7072  1.3101 -0.5245
  287TMC3    C7 4389   2.286   2.810   1.627  0.5211 -0.6514 -0.4205
  287TMC3    C8 4390   1.932   2.679   1.316 -0.0905  0.0341 -0.5301
  287TMC3    O1 4391   2.311   2.914   1.685  0.0348  0.4724 -0.1772
  287TMC3    O2 4392   1.814   2.645   1.306  0.0156 -0.2039 -0.4055
  288TMC3    C1 4393   4.086   3.187  14.308 -0.2123  0.5003 -0.1706
  288TMC3    C2 4394   3.978   3.175  14.399 -1.0506  0.4163 -0.0834
  288TMC3    C3 4395   3.857   3.228  14.351  0.3164  0.1039  0.8506
  288TMC3    C4 4396   4.072   3.232  14.179 -0.0413 -0.1466 -0.2410
  288TMC3    C5 4397   3.954   3.283  14.139 -0.6075  0.4495 -0.5637
  288TMC3    C6 4398   3.846   3.275  14.224  0.5160 -0.0963 -0.1099
  288TMC3     C 4399   4.216   3.178  14.367 -0.0618  0.4537  0.8722
  288TMC3     O 4400   4.225   3.184  14.487 -0.0199  0.1933 -0.2972
  288TMC3     H 4401   3.985   3.129  14.497 -0.2627 -0.3742 -0.5198
  288TMC3    H1 4402   4.161   3.252  14.121 -1.3702  0.3468 -2.0803
  288TMC3    H2 4403   3.748   3.287  14.179  0.2430  3.1343  1.3087
  288TMC3    C7 4404   3.951   3.379  14.025  0.5341  0.5739  0.3993
  288TMC3    C8 4405   3.747   3.278  14.434 -0.5511  0.3911 -0.2764
  288TMC3    O1 4406   4.040   3.362  13.941  0.0416  0.5512 -1.0500
  288TMC3    O2 4407   3.672   3.359  14.379 -0.2388 -0.2393  0.0044
  289MPD2     C 4408   3.787   2.287  14.518  0.2354  0.2523 -0.4122
  289MPD2    C1 4409   3.744   2.390  14.599 -0.1142 -0.0502  0.0787
  289MPD2    C2 4410   3.614   2.437  14.581 -0.5548 -0.2988 -0.6650
  289MPD2    C3 4411   3.535   2.384  14.478 -0.1852 -0.3115 -1.3623
  289MPD2    C4 4412   3.574   2.268  14.415  0.5377 -0.0253 -0.1135
  289MPD2    C5 4413   3.705   2.225  14.430  0.5551  0.2243 -0.4944
  289MPD2     H 4414   3.579   2.514  14.649  1.9904  0.2288  0.0553
  289MPD2    H1 4415   3.516   2.214  14.341 -1.6213  0.4687  1.2144
  289MPD2    H2 4416   3.885   2.241  14.519  0.7481  1.3458 -0.3930
  289MPD2    H3 4417   3.749   2.137  14.383 -1.1286 -1.0588  0.3390
  289MPD2     N 4418   3.403   2.433  14.462  0.2995  0.1816 -0.8719
  289MPD2    H5 4419   3.337   2.367  14.422 -0.0858  1.1479 -1.8504
  289MPD2    N1 4420   3.841   2.445  14.684 -0.1994 -0.5274  0.2279
  289MPD2    H7 4421   3.933   2.405  14.670 -0.7492 -1.1195 -1.6997
  290TMC3    C1 4422   3.235   2.607  14.449 -0.4830 -0.2379  0.5436
  290TMC3    C2 4423   3.215   2.736  14.401  0.2375 -0.1230 -0.6402
  290TMC3    C3 4424   3.088   2.766  14.358 -0.2712  0.8900 -0.5385
  290TMC3    C4 4425   3.135   2.513  14.464 -0.1798  0.4209  0.9404
  290TMC3    C5 4426   3.012   2.554  14.421  0.4454  0.3973 -0.1364
  290TMC3    C6 4427   2.985   2.677  14.368 -0.1341  0.3144 -0.4499
  290TMC3     C 4428   3.373   2.568  14.471 -0.1163  0.3767  0.6655
  290TMC3     O 4429   3.451   2.661  14.490 -0.4087  0.5434 -0.6590
  290TMC3     H 4430   3.306   2.795  14.407  1.0255 -1.4866  0.8884
  290TMC3    H1 4431   3.163   2.417  14.507 -0.5207  0.2863  0.8609
  290TMC3    H2 4432   2.887   2.699  14.327  0.0419  3.7540  0.9426
  290TMC3    C7 4433   2.913   2.452  14.398  0.1051  0.3070  0.5428
  290TMC3    C8 4434   3.056   2.900  14.320  0.1105  0.0332  0.2768
  290TMC3    O1 4435   2.821   2.475  14.324 -0.3732 -0.4755 -0.1580
  290TMC3    O2 4436   2.974   2.930  14.234 -0.1868 -0.6226 -0.0313
  291MPD2     C 4437   2.547   2.592   0.444 -0.3576  0.3771 -0.6821
  291MPD2    C1 4438   2.625   2.491   0.494  0.4507  0.3532 -0.7670
  291MPD2    C2 4439   2.764   2.493   0.471  0.1065 -0.5506 -0.5490
  291MPD2    C3 4440   2.823   2.586   0.384 -0.3398  0.8784  0.3473
  291MPD2    C4 4441   2.740   2.684   0.334 -0.0270 -0.8300  0.2653
  291MPD2    C5 4442   2.605   2.691   0.365  0.3906  0.3075  0.1938
  291MPD2     H 4443   2.816   2.407   0.511  0.8207  0.5006  0.7768
  291MPD2    H1 4444   2.778   2.757   0.263 -0.7402 -1.9674 -1.2747
  291MPD2    H2 4445   2.441   2.585   0.462 -0.0504 -0.9791  0.5531
  291MPD2    H3 4446   2.538   2.767   0.327 -1.3293 -1.4212 -0.1944
  291MPD2     N 4447   2.959   2.588   0.338  0.1787 -0.3025 -0.5134
  291MPD2    H5 4448   2.981   2.663   0.274  1.7395  0.1769  0.5667
  291MPD2    N1 4449   2.562   2.387   0.570 -0.6488 -0.1346 -0.1610
  291MPD2    H7 4450   2.628   2.317   0.603 -3.3162 -1.5952  2.0368
  292TMC3    C1 4451   2.395   2.257   0.670 -0.2511  0.0613  0.2622
  292TMC3    C2 4452   2.295   2.248   0.768  0.5144  1.5308  0.4327
  292TMC3    C3 4453   2.253   2.122   0.806  0.2089  0.5458  0.3546
  292TMC3    C4 4454   2.452   2.142   0.609  0.5263  0.8445 -0.1674
  292TMC3    C5 4455   2.416   2.022   0.659  0.0472 -0.2886  0.4105
  292TMC3    C6 4456   2.310   2.005   0.748  0.0845 -0.1046  0.5042
  292TMC3     C 4457   2.433   2.389   0.621 -0.1415  0.2695  0.4201
  292TMC3     O 4458   2.352   2.482   0.638 -0.1388  0.3996  0.0053
  292TMC3     H 4459   2.265   2.336   0.824  0.9125 -0.0183  3.0658
  292TMC3    H1 4460   2.528   2.152   0.532  1.5338  0.9470  0.8311
  292TMC3    H2 4461   2.282   1.904   0.776 -2.0679 -0.3858 -2.6623
  292TMC3    C7 4462   2.473   1.898   0.603  0.0154  0.8269 -0.0788
  292TMC3    C8 4463   2.202   2.119   0.941 -0.0050 -0.1515 -0.1685
  292TMC3    O1 4464   2.500   1.890   0.484  0.3500  0.1798 -0.0142
  292TMC3    O2 4465   2.219   2.212   1.012  0.2358 -0.0315 -0.3841
  293MPD2     C 4466   4.332   3.889  12.420 -0.6083 -0.3048 -0.4980
  293MPD2    C1 4467   4.292   3.777  12.492 -0.5904 -0.6135 -0.9791
  293MPD2    C2 4468   4.330   3.764  12.620  0.7742 -0.4692 -0.2330
  293MPD2    C3 4469   4.408   3.860  12.681  0.2824  0.9512  0.1346
  293MPD2    C4 4470   4.455   3.966  12.602  0.4351 -0.3898  0.4546
  293MPD2    C5 4471   4.409   3.980  12.473  0.2576 -0.1330  0.3695
  293MPD2     H 4472   4.307   3.677  12.680  1.0005 -0.8126 -0.6399
  293MPD2    H1 4473   4.518   4.047  12.636  1.9883 -1.1957 -0.5114
  293MPD2    H2 4474   4.300   3.892  12.316 -2.3385  1.7198  0.0982
  293MPD2    H3 4475   4.449   4.071  12.428 -0.3896 -0.7478 -1.4506
  293MPD2     N 4476   4.456   3.835  12.816  0.1486  0.5496  0.0508
  293MPD2    H5 4477   4.431   3.742  12.849  0.0983 -0.1976 -2.0699
  293MPD2    N1 4478   4.213   3.686  12.415 -0.3553  0.4281  0.3622
  293MPD2    H7 4479   4.182   3.717  12.324  2.1036  0.7508 -0.3453
  294TMC3    C1 4480   4.072   3.511  12.364  0.4602 -0.0059  0.0942
  294TMC3    C2 4481   3.960   3.463  12.412 -0.1597  0.2478  0.4811
  294TMC3    C3 4482   3.871   3.402  12.325  0.1539 -0.4581 -0.0718
  294TMC3    C4 4483   4.102   3.522  12.237  0.0539  0.8572 -0.0742
  294TMC3    C5 4484   4.016   3.459  12.148  0.3267  0.1050  0.2328
  294TMC3    C6 4485   3.897   3.400  12.188 -0.2312 -0.5349  0.1665
  294TMC3     C 4486   4.154   3.577  12.465  0.3337  0.8250  0.1541
  294TMC3     O 4487   4.167   3.523  12.576 -0.4100  0.0422 -0.0832
  294TMC3     H 4488   3.938   3.457  12.518 -1.3167  2.3727  0.3731
  294TMC3    H1 4489   4.197   3.570  12.212  1.1424 -1.0411  0.3881
  294TMC3    H2 4490   3.822   3.364  12.118  0.1236 -1.3671  0.2128
  294TMC3    C7 4491   4.070   3.377  12.040  0.5858  0.3656  0.3225
  294TMC3    C8 4492   3.791   3.295  12.376 -0.2843 -0.0213  0.8748
  294TMC3    O1 4493   4.041   3.258  12.028  0.2257  0.4194  0.3094
  294TMC3    O2 4494   3.745   3.310  12.492 -0.3170 -0.0203  0.2939
  295MPD2     C 4495   0.738   2.759   0.855 -0.2201  0.9330  0.1885
  295MPD2    C1 4496   0.730   2.643   0.778 -0.8030  0.2658 -0.6744
  295MPD2    C2 4497   0.701   2.526   0.839  0.1011 -0.1054 -0.6428
  295MPD2    C3 4498   0.681   2.516   0.979  0.5433 -0.3235  0.9009
  295MPD2    C4 4499   0.699   2.632   1.051  0.0494 -0.4647 -0.2120
  295MPD2    C5 4500   0.723   2.751   0.990 -0.5092  0.1967 -0.5429
  295MPD2     H 4501   0.663   2.446   0.776 -0.1970  0.4498 -1.1604
  295MPD2    H1 4502   0.689   2.637   1.159  1.3231 -0.2368 -0.1097
  295MPD2    H2 4503   0.765   2.856   0.814  1.4703  0.8792  1.1955
  295MPD2    H3 4504   0.709   2.843   1.045  0.6106 -1.6187  2.7349
  295MPD2     N 4505   0.635   2.393   1.044  0.1068  0.2227 -0.0024
  295MPD2    H5 4506   0.628   2.391   1.145  0.3807 -0.6158 -0.0030
  295MPD2    N1 4507   0.736   2.657   0.639  0.4349 -0.4626  0.6553
  295MPD2    H7 4508   0.701   2.574   0.592 -1.8812 -0.2372  1.9930
  296TMC3    C1 4509   0.563   2.179   1.085 -0.5191 -0.5687  0.2427
  296TMC3    C2 4510   0.467   2.236   1.165  0.5328  1.0324 -0.2838
  296TMC3    C3 4511   0.395   2.149   1.242 -0.0314  0.4409 -0.4782
  296TMC3    C4 4512   0.559   2.047   1.055 -0.2720 -0.7417 -0.0002
  296TMC3    C5 4513   0.499   1.965   1.141 -0.9251  0.2618 -0.1132
  296TMC3    C6 4514   0.416   2.018   1.237  0.6795  0.2676  0.3388
  296TMC3     C 4515   0.617   2.267   0.983  0.1870  0.3151  0.3258
  296TMC3     O 4516   0.633   2.229   0.870 -0.4177 -0.0393  0.8293
  296TMC3     H 4517   0.465   2.342   1.188 -0.0260  1.5232 -2.5311
  296TMC3    H1 4518   0.611   2.002   0.972 -0.4005 -0.4032 -0.2641
  296TMC3    H2 4519   0.351   1.961   1.302  1.1518  0.5859  1.0926
  296TMC3    C7 4520   0.562   1.835   1.162 -0.5627  0.2296 -0.0326
  296TMC3    C8 4521   0.265   2.209   1.288  0.5109 -0.4560  0.6031
  296TMC3    O1 4522   0.654   1.801   1.087  0.3343  0.8320 -0.1103
  296TMC3    O2 4523   0.264   2.333   1.310  0.3286  0.8809  0.4360
  297MPD2     C 4524   1.915   4.658  15.866 -0.9037 -0.9550  0.3892
  297MPD2    C1 4525   1.886   0.060  15.861  0.3370 -0.0920 -0.3534
  297MPD2    C2 4526   1.993   0.147  15.845 -0.1381  0.0050 -0.1833
  297MPD2    C3 4527   2.126   0.103  15.863 -0.3264  0.3572  0.5744
  297MPD2    C4 4528   2.152   4.700  15.878  0.1136  0.1202  0.2760
  297MPD2    C5 4529   2.043   4.618  15.881  0.3601 -0.3274  0.1176
  297MPD2     H 4530   1.979   0.254  15.835 -1.0871  0.0040  0.9881
  297MPD2    H1 4531   2.253   4.663  15.881  0.3963  1.0861  3.2247
  297MPD2    H2 4532   1.844   4.577  15.875  0.0659 -1.9638 -1.1148
  297MPD2    H3 4533   2.071   4.514  15.881  0.6333 -0.2451  2.1036
  297MPD2     N 4534   2.236   0.194  15.863  0.8617  0.1682  0.4008
  297MPD2    H5 4535   2.327   0.152  15.882  0.1355 -1.1094  1.1168
  297MPD2    N1 4536   1.749   0.107  15.853 -0.2395 -0.0138  0.4816
  297MPD2    H7 4537   1.729   0.203  15.827 -1.0303 -0.0531  0.9348
  298TMC3    C1 4538   1.526   0.121  15.897  0.7828  0.0279 -0.2542
  298TMC3    C2 4539   1.510   0.199  15.788 -0.5100 -1.3282 -0.1320
  298TMC3    C3 4540   1.404   0.280  15.789  0.5384  0.6495  0.7541
  298TMC3    C4 4541   1.435   0.120  15.999 -0.3399  0.5061  0.2191
  298TMC3    C5 4542   1.337   0.207  16.002 -0.1673  0.4227 -0.7024
  298TMC3    C6 4543   1.323   0.295  15.896 -0.3349 -0.6400  0.0738
  298TMC3     C 4544   1.646   0.042  15.917  0.2437 -0.3319  0.3012
  298TMC3     O 4545   1.650   4.680  15.997 -0.4287  0.4075 -0.2524
  298TMC3     H 4546   1.574   0.201  15.700  1.5704 -0.0797  1.4038
  298TMC3    H1 4547   1.445   0.048  16.079  1.6284  0.1647 -0.3154
  298TMC3    H2 4548   1.250   0.374  15.910 -0.0254 -0.5377  1.0966
  298TMC3    C7 4549   1.245   0.199  16.110  0.6611 -0.0880  0.1837
  298TMC3    C8 4550   1.394   0.380  15.679  0.3972 -0.6335  0.4983
  298TMC3    O1 4551   1.289   0.149  16.216  0.0180  0.2335  0.2537
  298TMC3    O2 4552   1.493   0.382  15.601 -0.0843 -0.1144 -0.2420
  299MPD2     C 4553   3.432   3.712  10.820 -0.3204 -0.0255 -0.1859
  299MPD2    C1 4554   3.407   3.840  10.782 -0.2594  0.1720 -0.4105
  299MPD2    C2 4555   3.320   3.856  10.674 -0.0293  0.3141  0.1351
  299MPD2    C3 4556   3.259   3.745  10.622 -0.5085  0.4861  0.0159
  299MPD2    C4 4557   3.265   3.625  10.686  0.6395 -0.5396 -0.1837
  299MPD2    C5 4558   3.366   3.604  10.776  1.1060  0.5846  0.0326
  299MPD2     H 4559   3.302   3.951  10.625  0.5717  0.5008  0.2722
  299MPD2    H1 4560   3.224   3.536  10.639  0.0742 -0.3454 -0.0594
  299MPD2    H2 4561   3.504   3.688  10.898  1.2043  1.3905 -1.1655
  299MPD2    H3 4562   3.384   3.502  10.808 -0.1115  0.2979 -0.1595
  299MPD2     N 4563   3.169   3.752  10.508 -0.8333 -0.1235  0.0018
  299MPD2    H5 4564   3.136   3.660  10.481 -1.4664  0.4531 -1.1929
  299MPD2    N1 4565   3.455   3.952  10.858  0.1804  0.0395 -0.7950
  299MPD2    H7 4566   3.506   3.925  10.942 -0.1520 -1.4386 -1.0774
  300TMC3    C1 4567   3.008   3.828  10.352 -0.2252 -0.2476 -0.4570
  300TMC3    C2 4568   2.977   3.927  10.265  0.5506 -0.2985  0.0811
  300TMC3    C3 4569   2.859   3.933  10.203  0.4153 -0.1218 -0.2236
  300TMC3    C4 4570   2.928   3.723  10.361  0.0249 -0.4557  0.0701
  300TMC3    C5 4571   2.801   3.731  10.303 -0.1257 -0.8288  0.4742
  300TMC3    C6 4572   2.763   3.840  10.226  0.5645 -0.3073  0.9548
  300TMC3     C 4573   3.117   3.864  10.449  0.0273  0.6059 -0.0720
  300TMC3     O 4574   3.147   3.982  10.467  0.0881 -0.1247 -0.9320
  300TMC3     H 4575   3.052   4.005  10.255  0.2378 -0.0387 -0.2262
  300TMC3    H1 4576   2.939   3.667  10.453  1.3492  1.0571  0.8389
  300TMC3    H2 4577   2.669   3.841  10.171  1.4878 -0.4086 -0.6535
  300TMC3    C7 4578   2.700   3.687  10.394 -1.0535 -0.2792 -0.2841
  300TMC3    C8 4579   2.823   4.060  10.142  0.5091 -0.1333  0.3836
  300TMC3    O1 4580   2.721   3.589  10.457 -0.2672  0.1106  0.2221
  300TMC3    O2 4581   2.791   4.062  10.022  0.4804  0.1020 -0.4790
  301MPD2     C 4582   0.341   0.284   1.135 -0.9715 -0.8277 -0.0145
  301MPD2    C1 4583   0.218   0.262   1.075 -0.0729  0.1849 -0.0182
  301MPD2    C2 4584   0.163   0.136   1.073 -0.4490  0.1868 -0.1252
  301MPD2    C3 4585   0.240   0.029   1.113  0.1597 -0.8103 -0.1029
  301MPD2    C4 4586   0.368   0.052   1.163  0.0380 -0.6325  0.2320
  301MPD2    C5 4587   0.413   0.181   1.179 -0.5158 -0.3581 -0.3418
  301MPD2     H 4588   0.072   0.121   1.015 -2.0537  1.6547  1.9942
  301MPD2    H1 4589   0.428   4.702   1.195  1.7532  0.9291  1.1007
  301MPD2    H2 4590   0.382   0.384   1.147  0.2628 -1.2426 -0.8164
  301MPD2    H3 4591   0.512   0.201   1.218 -0.2998 -2.1805  0.0488
  301MPD2     N 4592   0.197   4.631   1.101 -0.2332 -0.1529  0.2711
  301MPD2    H5 4593   0.267   4.561   1.125  0.1907  0.2051  0.0671
  301MPD2    N1 4594   0.126   0.361   1.030  0.6892  0.0347  0.5756
  301MPD2    H7 4595   0.038   0.330   0.991  1.0514 -1.0713  0.6411
  302TMC3    C1 4596   0.060   4.461   1.016 -0.5590  0.5953 -0.5693
  302TMC3    C2 4597   0.127   4.361   1.076  0.2766  0.0912  0.2037
  302TMC3    C3 4598   0.103   4.234   1.028 -1.1542 -1.0922  0.3253
  302TMC3    C4 4599   4.714   4.441   0.908  0.5384 -0.3125 -0.3361
  302TMC3    C5 4600   4.697   4.313   0.862 -0.5660  0.7665  0.2432
  302TMC3    C6 4601   0.031   4.207   0.913 -0.0238  0.4076 -0.4534
  302TMC3     C 4602   0.073   4.598   1.057 -0.2627 -0.2871  0.5695
  302TMC3     O 4603   4.709   4.668   1.035  0.0534  0.7840  0.3030
  302TMC3     H 4604   0.186   4.378   1.165  1.1168  1.4000 -0.5881
  302TMC3    H1 4605   4.680   4.530   0.857 -0.6739 -0.9786 -0.7066
  302TMC3    H2 4606   0.016   4.108   0.870  1.2162 -0.6312  1.5175
  302TMC3    C7 4607   4.608   4.301   0.749  0.4370  0.7013 -0.1236
  302TMC3    C8 4608   0.174   4.127   1.090  1.0373 -1.0049 -0.5422
  302TMC3    O1 4609   4.638   4.214   0.670  0.1417  0.8909  0.0226
  302TMC3    O2 4610   0.279   4.150   1.151  0.0059  0.3482  0.1916
  303MPD2     C 4611   1.080   3.843  10.750 -0.6165 -0.5565 -0.1687
  303MPD2    C1 4612   0.942   3.811  10.760 -0.3656  0.2966  0.4236
  303MPD2    C2 4613   0.871   3.810  10.640 -0.2857  0.5371 -0.2130
  303MPD2    C3 4614   0.916   3.879  10.529  0.5662  0.3419  0.2093
  303MPD2    C4 4615   1.043   3.931  10.537 -0.5982  1.0788 -0.4913
  303MPD2    C5 4616   1.131   3.899  10.638  0.0567 -0.1680 -0.3281
  303MPD2     H 4617   0.775   3.760  10.639  0.9790 -1.8866  0.6777
  303MPD2    H1 4618   1.086   3.980  10.450 -0.6170  0.2336 -0.9863
  303MPD2    H2 4619   1.151   3.834  10.831 -0.2071  0.3570 -0.4222
  303MPD2    H3 4620   1.232   3.934  10.626 -1.1928  3.3813 -0.3537
  303MPD2     N 4621   0.856   3.883  10.408  0.0080 -0.4498  0.0502
  303MPD2    H5 4622   0.911   3.902  10.325 -2.3066  2.0595 -0.8856
  303MPD2    N1 4623   0.895   3.754  10.874 -0.4045 -0.0714  0.4276
  303MPD2    H7 4624   0.970   3.740  10.940 -2.1431  0.0081  2.4396
  304TMC3    C1 4625   0.759   3.630  11.029 -0.8126 -0.0596  0.8012
  304TMC3    C2 4626   0.629   3.614  11.071 -0.5229 -0.7487 -1.0346
  304TMC3    C3 4627   0.610   3.498  11.136  0.3447 -0.5122 -0.6118
  304TMC3    C4 4628   0.865   3.545  11.045  0.5925 -0.0522  0.4814
  304TMC3    C5 4629   0.830   3.423  11.100 -0.8802  0.2950  0.6100
  304TMC3    C6 4630   0.710   3.403  11.160  0.2683 -0.1161  0.1245
  304TMC3     C 4631   0.768   3.714  10.907 -0.4375 -0.3480  0.5253
  304TMC3     O 4632   0.653   3.737  10.853  0.1023  0.2851 -0.3820
  304TMC3     H 4633   0.553   3.690  11.056  0.6144  0.3058 -1.3928
  304TMC3    H1 4634   0.960   3.555  10.992  0.7771 -0.2463  0.7725
  304TMC3    H2 4635   0.678   3.304  11.190  0.2304 -0.8098 -2.1604
  304TMC3    C7 4636   0.855   3.320  10.999 -0.1784 -0.3985  0.2865
  304TMC3    C8 4637   0.487   3.444  11.093  0.4180 -0.5763 -0.3548
  304TMC3    O1 4638   0.840   3.342  10.879 -0.0734 -0.5622  0.0736
  304TMC3    O2 4639   0.453   3.469  10.978  0.0492 -0.2671  0.1091
  305MPD2     C 4640   2.995   0.927  13.925 -0.6001 -0.2798 -0.7472
  305MPD2    C1 4641   3.099   0.846  13.966  0.2355  0.0194  0.6358
  305MPD2    C2 4642   3.170   0.782  13.875  0.4381  0.1166 -0.8863
  305MPD2    C3 4643   3.121   0.771  13.747  0.3608  0.1856  0.3531
  305MPD2    C4 4644   3.006   0.841  13.714 -0.1212 -0.0393 -0.1308
  305MPD2    C5 4645   2.947   0.934  13.800  0.3840  0.2712  0.4744
  305MPD2     H 4646   3.252   0.721  13.910 -0.1970 -0.0437  0.3306
  305MPD2    H1 4647   2.959   0.834  13.617 -3.3180 -2.8306  1.6352
  305MPD2    H2 4648   2.941   0.985  13.999  0.4109 -1.5977  1.0168
  305MPD2    H3 4649   2.869   0.998  13.760  3.3956  2.9404 -1.1286
  305MPD2     N 4650   3.174   0.688  13.648  0.1444  0.0811 -0.4813
  305MPD2    H5 4651   3.125   0.676  13.560  0.3184 -0.4700 -0.5030
  305MPD2    N1 4652   3.120   0.835  14.105  0.1002 -0.6085  0.0976
  305MPD2    H7 4653   3.056   0.888  14.163 -1.1058 -2.9917  0.9378
  306TMC3    C1 4654   3.226   0.780  14.306 -0.7063  0.4853 -0.8645
  306TMC3    C2 4655   3.264   0.672  14.385 -0.0304  0.1319 -0.3516
  306TMC3    C3 4656   3.292   0.692  14.513 -0.6389  0.2733  0.5734
  306TMC3    C4 4657   3.204   0.907  14.355 -0.3049  0.8580 -0.5942
  306TMC3    C5 4658   3.229   0.921  14.490 -0.1222 -0.2332  0.0607
  306TMC3    C6 4659   3.272   0.815  14.571 -0.1658  0.2181 -0.0018
  306TMC3     C 4660   3.207   0.747  14.163  0.6007 -0.0853 -0.0137
  306TMC3     O 4661   3.272   0.660  14.114  0.4596  0.0450  0.3455
  306TMC3     H 4662   3.281   0.581  14.329  1.0312  0.8495 -1.1816
  306TMC3    H1 4663   3.169   0.985  14.288  0.5734  1.9761  0.2602
  306TMC3    H2 4664   3.294   0.832  14.676 -0.7348 -1.2341  0.3596
  306TMC3    C7 4665   3.190   1.044  14.557 -0.1525  0.4839  0.1698
  306TMC3    C8 4666   3.383   0.595  14.575  0.5892  0.2385  0.0144
  306TMC3    O1 4667   3.132   1.123  14.477  0.1775 -0.3059 -0.1768
  306TMC3    O2 4668   3.482   0.627  14.635 -0.4375  0.0152 -0.0560
  307MPD2     C 4669   1.061   3.654   0.553 -0.0870 -0.6783 -0.1985
  307MPD2    C1 4670   1.021   3.784   0.539 -0.4157  0.4113 -0.5680
  307MPD2    C2 4671   0.891   3.823   0.585 -0.1177  0.3615  0.3585
  307MPD2    C3 4672   0.813   3.722   0.644 -0.4573  0.0156 -0.1139
  307MPD2    C4 4673   0.854   3.590   0.650 -0.9612  0.0563  0.7056
  307MPD2    C5 4674   0.981   3.559   0.615  0.5842 -0.0292  0.2940
  307MPD2     H 4675   0.867   3.928   0.572  1.4329  0.7967  0.9944
  307MPD2    H1 4676   0.787   3.511   0.681  0.8021 -1.6605  0.1072
  307MPD2    H2 4677   1.157   3.618   0.518  0.9854  2.0353 -0.0828
  307MPD2    H3 4678   1.014   3.456   0.619  0.4930 -0.0734 -0.1065
  307MPD2     N 4679   0.692   3.768   0.712  0.3900 -0.2944  0.2174
  307MPD2    H5 4680   0.659   3.861   0.688 -0.5283 -0.4831  0.7381
  307MPD2    N1 4681   1.107   3.894   0.498  0.2537  0.1919 -0.0911
  307MPD2    H7 4682   1.056   3.979   0.476  0.4891 -0.0986 -1.7572
  308TMC3    C1 4683   0.254   3.723   0.773  0.6735  1.2334 -0.6430
  308TMC3    C2 4684   0.237   3.860   0.780  0.4401 -0.2609 -0.2815
  308TMC3    C3 4685   0.348   3.936   0.805 -0.7616 -0.1289 -0.1823
  308TMC3    C4 4686   0.378   3.664   0.791  0.2143  0.4082 -0.2778
  308TMC3    C5 4687   0.483   3.746   0.820  0.2905 -0.1065 -0.4541
  308TMC3    C6 4688   0.472   3.881   0.817  0.6856  0.7211  0.4155
  308TMC3     C 4689   0.161   3.637   0.703 -1.1833 -0.0812  0.7843
  308TMC3     O 4690   0.186   3.516   0.697  0.3963  0.4316  0.0785
  308TMC3     H 4691   0.146   3.918   0.771 -0.3713 -1.2665  1.5099
  308TMC3    H1 4692   0.406   3.563   0.764 -1.7733  0.2634 -1.7941
  308TMC3    H2 4693   0.552   3.954   0.815  1.6042 -0.2803  0.8211
  308TMC3    C7 4694   0.614   3.688   0.789 -0.0589  0.5026 -0.3990
  308TMC3    C8 4695   0.340   4.080   0.784 -0.4279 -0.1998  0.4092
  308TMC3    O1 4696   0.633   3.573   0.826  0.3271 -0.3703 -0.1008
  308TMC3    O2 4697   0.249   4.123   0.715  0.7241 -0.4303 -0.0128
  309MPD2     C 4698   0.143   4.132  17.052  0.2716 -0.2407  0.5671
  309MPD2    C1 4699   0.062   4.124  16.940 -0.1043  0.5499 -0.5829
  309MPD2    C2 4700   4.662   4.140  16.947  0.5335 -0.2837 -0.1645
  309MPD2    C3 4701   4.600   4.176  17.072 -0.9542  0.1398  0.1996
  309MPD2    C4 4702   4.681   4.193  17.182 -0.3699  0.8561  0.0463
  309MPD2    C5 4703   0.082   4.174  17.170  0.4091 -0.2419  0.0673
  309MPD2     H 4704   4.601   4.117  16.861  0.4839  2.1433 -0.7627
  309MPD2    H1 4705   4.638   4.224  17.277 -0.5568  1.1459 -0.1323
  309MPD2    H2 4706   0.250   4.113  17.050 -0.2862 -3.4162  0.8761
  309MPD2    H3 4707   0.149   4.196  17.252 -0.6539 -1.3749  1.2478
  309MPD2     N 4708   4.459   4.195  17.080  0.1642 -0.2831  0.2687
  309MPD2    H5 4709   4.410   4.241  17.157 -1.5114 -0.4931 -0.6583
  309MPD2    N1 4710   0.116   4.099  16.815  0.3014  0.4539  0.1700
  309MPD2    H7 4711   0.043   4.095  16.745  2.8020 -0.7606 -2.3249
  310TMC3    C1 4712   0.272   4.084  16.639 -0.6492  0.6440 -0.1862
  310TMC3    C2 4713   0.182   4.136  16.546  0.3663  0.9180  0.0253
  310TMC3    C3 4714   0.228   4.141  16.414 -1.3521 -0.8439 -0.2225
  310TMC3    C4 4715   0.394   4.033  16.600 -0.3276 -0.1633  0.2349
  310TMC3    C5 4716   0.429   4.029  16.469 -0.7524 -0.2158  0.2336
  310TMC3    C6 4717   0.355   4.090  16.376  0.3327  0.3888 -0.1985
  310TMC3     C 4718   0.251   4.096  16.779 -0.0698 -0.2309 -0.0796
  310TMC3     O 4719   0.348   4.080  16.844  0.4878  0.2998  0.2019
  310TMC3     H 4720   0.096   4.191  16.582 -0.8919 -0.0538 -1.4777
  310TMC3    H1 4721   0.456   3.975  16.667  0.2049 -0.5809 -0.6280
  310TMC3    H2 4722   0.386   4.087  16.272 -2.1414  0.0520 -0.9366
  310TMC3    C7 4723   0.572   4.005  16.436 -0.1343  0.7573  1.0138
  310TMC3    C8 4724   0.131   4.137  16.300 -0.6356 -0.9229  0.0654
  310TMC3    O1 4725   0.632   3.944  16.523  0.1342  1.1558 -0.3373
  310TMC3    O2 4726   0.186   4.152  16.188 -0.6374  0.0095  0.3766
  311MPD2     C 4727   2.543   0.261  12.636 -0.2317 -0.2786 -0.3967
  311MPD2    C1 4728   2.539   0.354  12.737  0.2917  0.0130  0.2717
  311MPD2    C2 4729   2.421   0.393  12.800 -0.2412  0.0764  0.6588
  311MPD2    C3 4730   2.305   0.334  12.752  0.7995  0.3005 -0.5042
  311MPD2    C4 4731   2.309   0.236  12.654 -0.3443  0.1708  1.1919
  311MPD2    C5 4732   2.428   0.196  12.596  0.0312 -0.2621  0.4329
  311MPD2     H 4733   2.416   0.473  12.872  0.3672 -0.1794  0.9877
  311MPD2    H1 4734   2.225   0.188  12.605  1.5592 -2.9007  0.9444
  311MPD2    H2 4735   2.631   0.255  12.573  1.8635  0.2777  2.4624
  311MPD2    H3 4736   2.442   0.129  12.512 -1.2107  0.5954 -0.4550
  311MPD2     N 4737   2.181   0.374  12.807  0.4303  0.1389 -0.6483
  311MPD2    H5 4738   2.180   0.455  12.868  1.6534 -0.0096 -0.4221
  311MPD2    N1 4739   2.655   0.431  12.775 -1.1800 -0.1222  0.4824
  311MPD2    H7 4740   2.653   0.499  12.851  1.0665  1.2185 -0.6691
  312TMC3    C1 4741   1.951   0.425  12.804 -1.0473 -0.4118  0.0170
  312TMC3    C2 4742   1.823   0.373  12.807  0.1168 -0.4284  0.0356
  312TMC3    C3 4743   1.722   0.456  12.834 -0.2674 -0.4674 -0.0944
  312TMC3    C4 4744   1.982   0.551  12.835  0.3278  0.4944 -0.2103
  312TMC3    C5 4745   1.876   0.633  12.865  0.0893  0.2615 -0.2977
  312TMC3    C6 4746   1.748   0.589  12.865  0.2856 -0.5767 -0.5922
  312TMC3     C 4747   2.056   0.340  12.765  0.8701 -0.1682 -0.0338
  312TMC3     O 4748   2.024   0.236  12.712  0.3922  0.2219  0.0753
  312TMC3     H 4749   1.802   0.271  12.775  0.1821 -1.4386  3.2440
  312TMC3    H1 4750   2.084   0.587  12.846  0.5426 -0.4833  0.9889
  312TMC3    H2 4751   1.674   0.664  12.891  2.1305  1.0208  0.0311
  312TMC3    C7 4752   1.895   0.779  12.875 -0.1170 -0.0707  0.0108
  312TMC3    C8 4753   1.589   0.402  12.849  0.4936 -0.3740  0.7937
  312TMC3    O1 4754   1.826   0.845  12.797 -0.0853 -0.0743  0.1959
  312TMC3    O2 4755   1.587   0.282  12.830 -0.2515 -0.1172  0.4748
  313MPD2     C 4756   2.536   4.440  10.583 -0.6855  0.7080 -0.1540
  313MPD2    C1 4757   2.436   4.489  10.502 -0.2341  0.3540 -0.0060
  313MPD2    C2 4758   2.399   4.413  10.389 -0.4112 -0.3719  0.6290
  313MPD2    C3 4759   2.458   4.289  10.354  0.0741 -0.4867  0.0499
  313MPD2    C4 4760   2.560   4.248  10.439  0.0202  0.0644 -0.0718
  313MPD2    C5 4761   2.594   4.321  10.552  0.3463  0.2790 -0.1533
  313MPD2     H 4762   2.313   4.447  10.333  0.2344  0.7922  0.3416
  313MPD2    H1 4763   2.616   4.161  10.407  1.7727  1.2486 -0.2203
  313MPD2    H2 4764   2.553   4.496  10.674 -1.9120  1.8517 -0.6306
  313MPD2    H3 4765   2.676   4.294  10.617 -0.0782 -1.2033 -0.2468
  313MPD2     N 4766   2.423   4.225  10.234 -0.2955 -0.3447 -0.4298
  313MPD2    H5 4767   2.347   4.270  10.184  1.0954  1.7385 -0.6752
  313MPD2    N1 4768   2.360   4.612  10.522 -0.3148 -0.0187  0.2136
  313MPD2    H7 4769   2.289   4.637  10.454 -0.0652 -0.9210 -0.3782
  314TMC3    C1 4770   2.274   0.057  10.649 -0.8356 -0.5501  0.7578
  314TMC3    C2 4771   2.321   0.146  10.746 -0.0544  0.0513  0.2519
  314TMC3    C3 4772   2.220   0.211  10.820  0.2058  0.4175  0.1996
  314TMC3    C4 4773   2.150   0.001  10.638  0.1501 -0.6181  0.4096
  314TMC3    C5 4774   2.060   0.058  10.724  1.3642 -0.3836 -0.0436
  314TMC3    C6 4775   2.091   0.164  10.812 -0.0492  0.5154  0.2035
  314TMC3     C 4776   2.385   4.699  10.622 -0.3332 -0.0473 -0.2839
  314TMC3     O 4777   2.478   4.701  10.699  0.7576 -0.2603  0.0475
  314TMC3     H 4778   2.418   0.194  10.736  0.6407 -1.5539 -0.5411
  314TMC3    H1 4779   2.122   4.650  10.577  1.4211 -0.7566  0.0136
  314TMC3    H2 4780   2.016   0.204  10.879 -0.5538 -0.1251  0.0165
  314TMC3    C7 4781   1.921   0.041  10.677  0.4796  0.4802 -0.3397
  314TMC3    C8 4782   2.246   0.315  10.920  1.0577  0.1260 -0.0685
  314TMC3    O1 4783   1.884   4.666  10.634  0.2737  0.0747  0.4442
  314TMC3    O2 4784   2.164   0.397  10.953  0.2481 -0.0088  0.0214
  315MPD2     C 4785   1.095   4.159   0.084  0.4981 -0.4481 -0.6896
  315MPD2    C1 4786   1.221   4.114   0.060  0.0670  0.2066 -0.0969
  315MPD2    C2 4787   1.306   4.192  17.720 -0.5663  0.0576  0.2599
  315MPD2    C3 4788   1.283   4.324  17.707  0.5147 -0.1486 -0.2775
  315MPD2    C4 4789   1.164   4.377   0.016 -0.0850  0.0318 -0.4796
  315MPD2    C5 4790   1.068   4.288   0.050 -0.4616  0.3220 -0.3442
  315MPD2     H 4791   1.399   4.149  17.685 -1.0250 -1.0948  0.4335
  315MPD2    H1 4792   1.134   4.481   0.004  3.9972  1.0299 -1.8430
  315MPD2    H2 4793   1.019   4.099   0.134 -0.8861  1.7160 -0.1935
  315MPD2    H3 4794   0.968   4.324   0.072  1.3224  3.6280  2.4312
  315MPD2     N 4795   1.383   4.402  17.639  0.3283 -0.0827  0.0856
  315MPD2    H5 4796   1.471   4.356  17.621 -0.1939 -2.1863  2.8156
  315MPD2    N1 4797   1.256   3.981   0.080  0.3817  0.2186  0.6660
  315MPD2    H7 4798   1.350   3.948   0.064 -0.2852 -1.9910  1.3465
  316TMC3    C1 4799   1.495   4.596  17.558 -0.4704  0.1598  0.2121
  316TMC3    C2 4800   1.615   4.542  17.600  0.1580 -0.4277 -0.2440
  316TMC3    C3 4801   1.726   4.604  17.553  0.2034 -0.1143  0.4139
  316TMC3    C4 4802   1.483   4.699  17.471  0.7771 -0.5264  0.7132
  316TMC3    C5 4803   1.598   0.023  17.427 -0.1653 -0.5845 -0.1601
  316TMC3    C6 4804   1.717   4.707  17.464  0.2116  0.5210  0.6330
  316TMC3     C 4805   1.372   4.532  17.609  0.0366  0.2979  0.1615
  316TMC3     O 4806   1.274   4.602  17.607 -0.3462  0.9818 -0.4968
  316TMC3     H 4807   1.619   4.469  17.679  1.2343  0.5547  0.6204
  316TMC3    H1 4808   1.387   0.010  17.445  0.7168 -2.2074 -2.0822
  316TMC3    H2 4809   1.807   0.011  17.416  2.2600 -1.6799  2.7707
  316TMC3    C7 4810   1.597   0.098  17.297  0.7221 -0.1059  0.4749
  316TMC3    C8 4811   1.855   4.581  17.621 -0.1987  0.1768  0.0970
  316TMC3    O1 4812   1.699   0.147  17.257 -0.1527  0.0792 -0.1692
  316TMC3    O2 4813   1.944   4.659  17.594 -0.2168  0.3975 -0.2175
  317MPD2     C 4814   3.809   2.119  12.369  0.3096  0.2043 -0.1001
  317MPD2    C1 4815   3.916   2.058  12.430  0.7760  0.1314  0.7797
  317MPD2    C2 4816   3.919   2.071  12.568 -0.1234  0.3021  0.0970
  317MPD2    C3 4817   3.818   2.121  12.645 -0.4287 -0.4297  0.7559
  317MPD2    C4 4818   3.705   2.162  12.585  0.3430  0.4421 -0.7706
  317MPD2    C5 4819   3.704   2.169  12.446 -0.2692  0.4171 -0.1447
  317MPD2     H 4820   4.006   2.033  12.619  0.3574 -0.8149 -1.5512
  317MPD2    H1 4821   3.632   2.215  12.646 -0.6367 -0.6358 -1.0167
  317MPD2    H2 4822   3.793   2.119  12.262 -0.0121 -0.2960 -0.0514
  317MPD2    H3 4823   3.617   2.202  12.392  0.6300 -0.2727 -2.0180
  317MPD2     N 4824   3.835   2.116  12.784 -0.1733 -0.6821  0.4289
  317MPD2    H5 4825   3.922   2.081  12.824  1.9528  2.1572 -1.6985
  317MPD2    N1 4826   4.035   1.998  12.370 -0.2082 -0.5929  0.3167
  317MPD2    H7 4827   4.098   1.947  12.431  1.2800  1.2687  0.3338
  318TMC3    C1 4828   3.774   2.130  13.022  0.3537  0.4204 -0.4764
  318TMC3    C2 4829   3.685   2.083  13.110  0.2390 -0.4739 -0.8164
  318TMC3    C3 4830   3.735   2.038  13.226 -0.1000 -0.2141 -0.6558
  318TMC3    C4 4831   3.906   2.123  13.046  0.5107  0.7182 -0.1390
  318TMC3    C5 4832   3.951   2.069  13.160  0.3183  0.1865  0.4324
  318TMC3    C6 4833   3.868   2.029  13.256  1.0704  0.5009  0.3667
  318TMC3     C 4834   3.745   2.167  12.882 -0.9520 -0.2232  0.0781
  318TMC3     O 4835   3.629   2.202  12.869 -0.0415  0.2955 -0.5439
  318TMC3     H 4836   3.582   2.101  13.082 -0.5989  1.2694  3.2719
  318TMC3    H1 4837   3.973   2.163  12.970 -0.2855 -0.7759 -1.6395
  318TMC3    H2 4838   3.901   1.977  13.345  1.9011  0.6692  0.1597
  318TMC3    C7 4839   4.093   2.052  13.160  0.2864 -0.1822 -0.2241
  318TMC3    C8 4840   3.661   1.926  13.287  0.1367 -0.3905  0.3016
  318TMC3    O1 4841   4.148   2.032  13.055 -0.3910 -0.0788 -0.0778
  318TMC3    O2 4842   3.713   1.856  13.372  0.5831 -0.1627 -0.2283
  319MPD2     C 4843   4.153   3.930  16.628  0.1161  0.2062  0.0414
  319MPD2    C1 4844   4.053   3.956  16.708 -0.3152 -0.9384 -0.3402
  319MPD2    C2 4845   3.946   4.034  16.663 -0.2966 -0.2589 -0.1915
  319MPD2    C3 4846   3.945   4.078  16.530  0.5359  0.0670  0.0508
  319MPD2    C4 4847   4.052   4.055  16.449 -0.3361 -0.2185  0.0542
  319MPD2    C5 4848   4.158   3.977  16.496 -0.4407  0.4625  0.4218
  319MPD2     H 4849   3.864   4.054  16.731 -1.0456 -1.9040 -0.5914
  319MPD2    H1 4850   4.053   4.098  16.350 -1.3558  1.1341  0.6313
  319MPD2    H2 4851   4.234   3.865  16.658  1.3723  1.2330 -1.1391
  319MPD2    H3 4852   4.246   3.952  16.439 -1.1157  2.3009 -1.4123
  319MPD2     N 4853   3.836   4.143  16.464 -1.1831  0.4473  0.4178
  319MPD2    H5 4854   3.853   4.160  16.366  0.2797 -1.0230  0.4175
  319MPD2    N1 4855   4.064   3.912  16.844  0.3021  0.4805  0.4981
  319MPD2    H7 4856   4.001   3.948  16.915  1.6867  0.2956  1.8319
  320TMC3    C1 4857   3.626   4.237  16.450  0.1839 -0.0819 -0.4907
  320TMC3    C2 4858   3.625   4.196  16.320  0.6160  0.6255  0.0812
  320TMC3    C3 4859   3.500   4.185  16.261  0.0358 -0.2797 -0.0533
  320TMC3    C4 4860   3.514   4.276  16.522  0.3869 -0.6305  0.6119
  320TMC3    C5 4861   3.397   4.245  16.467 -0.3891 -0.3859 -0.1675
  320TMC3    C6 4862   3.386   4.202  16.336  0.8604  0.2001  0.4378
  320TMC3     C 4863   3.725   4.177  16.530  0.2537  0.3270 -0.4870
  320TMC3     O 4864   3.692   4.172  16.647  0.2215 -0.2272  0.1251
  320TMC3     H 4865   3.710   4.152  16.270  0.7738  1.1530 -0.1186
  320TMC3    H1 4866   3.518   4.317  16.622 -1.3370  1.6126 -0.2470
  320TMC3    H2 4867   3.290   4.188  16.287 -0.0681 -0.1344  2.3594
  320TMC3    C7 4868   3.303   4.173  16.554 -0.5543  0.1870 -0.9528
  320TMC3    C8 4869   3.489   4.182  16.114  0.3173 -0.1890  0.7027
  320TMC3    O1 4870   3.218   4.111  16.487 -0.1778 -0.4693  0.0087
  320TMC3    O2 4871   3.592   4.220  16.053 -0.0397 -0.0752 -0.0521
  321TMC3    C1 4872   4.159   3.805  17.023  0.1495  0.2879  0.5120
  321TMC3    C2 4873   4.190   3.687  17.081 -0.0651  0.0316 -0.2374
  321TMC3    C3 4874   4.215   3.679  17.212 -0.2791 -0.1196  0.3191
  321TMC3    C4 4875   4.138   3.918  17.094 -0.8055 -0.2971  0.3412
  321TMC3    C5 4876   4.144   3.899  17.233  0.4495  0.2984 -0.1551
  321TMC3    C6 4877   4.175   3.781  17.293 -0.3942  0.4393  0.4842
  321TMC3     C 4878   4.141   3.804  16.885  0.3611 -0.3205 -0.0514
  321TMC3     O 4879   4.192   3.717  16.815  0.1046 -0.3404 -0.2793
  321TMC3     H 4880   4.217   3.602  17.019 -0.2219 -1.1707  1.3509
  321TMC3    H1 4881   4.132   4.021  17.063 -0.8078 -0.3106  0.2961
  321TMC3    H2 4882   4.189   3.769  17.400  0.5885  1.1110  0.4226
  321TMC3    C7 4883   4.205   4.006  17.308 -0.4662  0.3178  0.8240
  321TMC3    C8 4884   4.347   3.633  17.259 -0.0624 -0.0512 -0.0319
  321TMC3    O1 4885   4.163   4.120  17.297 -0.0423 -0.1223  0.0441
  321TMC3    O2 4886   4.398   3.708  17.339  0.0124 -0.0170  0.4662
  322MPD2     C 4887   2.935   0.205  14.006  0.4972 -0.1962  0.0419
  322MPD2    C1 4888   3.011   0.125  14.095  0.3623  0.6012  0.1404
  322MPD2    C2 4889   2.997   4.722  14.087  0.6905 -0.6342  1.1084
  322MPD2    C3 4890   2.919   4.672  13.986  0.5893 -0.7218 -0.4893
  322MPD2    C4 4891   2.841   0.017  13.911 -0.3461 -0.3152  0.4478
  322MPD2    C5 4892   2.850   0.152  13.915 -0.6190 -0.0737 -0.1336
  322MPD2     H 4893   3.053   4.651  14.147  1.5030  0.0616  1.1713
  322MPD2    H1 4894   2.775   4.709  13.835  1.3888  1.0762 -1.8185
  322MPD2    H2 4895   2.944   0.313  14.010  0.1980 -0.2623  2.0997
  322MPD2    H3 4896   2.797   0.212  13.843 -1.3531 -1.0859 -0.4415
  322MPD2     N 4897   2.928   4.532  13.958 -0.3613  0.6067  0.1197
  322MPD2    H5 4898   2.972   4.466  14.020 -0.5283  1.4611  1.1540
  322MPD2    N1 4899   3.113   0.193  14.173  0.6331  0.6080  0.1139
  322MPD2    H7 4900   3.135   0.288  14.145  1.1315  0.4378 -0.0601
  323TMC3    C1 4901   3.336   0.172  14.274  0.4575 -0.6023 -0.5300
  323TMC3    C2 4902   3.386   0.281  14.202  0.2616  0.4437 -0.6769
  323TMC3    C3 4903   3.519   0.314  14.213  0.6178 -0.4525  0.5783
  323TMC3    C4 4904   3.420   0.095  14.354  0.1673  0.3766  0.8851
  323TMC3    C5 4905   3.551   0.129  14.366  0.2575 -0.1861 -0.4567
  323TMC3    C6 4906   3.605   0.240  14.292  0.3223 -0.1673 -0.5142
  323TMC3     C 4907   3.197   0.124  14.260  0.9437 -0.5467 -0.3525
  323TMC3     O 4908   3.185   0.010  14.301 -0.0166 -0.4142 -0.1168
  323TMC3     H 4909   3.320   0.343  14.142 -0.2238 -1.0085 -1.6454
  323TMC3    H1 4910   3.390   0.014  14.419  0.2949  0.2662  0.8069
  323TMC3    H2 4911   3.707   0.274  14.302  0.7459 -0.9326 -2.2664
  323TMC3    C7 4912   3.633   0.022  14.420  0.2492 -0.4209  0.2442
  323TMC3    C8 4913   3.574   0.379  14.092 -0.3969 -0.6111 -0.3765
  323TMC3    O1 4914   3.581   4.656  14.458  0.0608  0.4684 -0.0335
  323TMC3    O2 4915   3.679   0.440  14.111  0.2435 -0.0975  0.2200
  324MPD2     C 4916   4.717   0.986  14.719  0.4671 -0.5450  0.2359
  324MPD2    C1 4917   4.683   1.078  14.622  0.5456  0.0538  0.0076
  324MPD2    C2 4918   4.558   1.074  14.558  0.5873 -0.5928 -0.2918
  324MPD2    C3 4919   4.475   0.965  14.583  0.3405 -0.1808  0.5101
  324MPD2    C4 4920   4.523   0.863  14.664  0.4093  0.4695  0.0347
  324MPD2    C5 4921   4.634   0.879  14.743  0.0273 -0.9693 -0.3508
  324MPD2     H 4922   4.530   1.142  14.478  1.2421  1.9801  1.6495
  324MPD2    H1 4923   4.467   0.770  14.669 -1.4757  1.5278 -1.4343
  324MPD2    H2 4924   0.075   0.997  14.775  0.8181  0.5985 -0.5858
  324MPD2    H3 4925   4.666   0.794  14.803  0.1161 -1.7708 -1.5348
  324MPD2     N 4926   4.357   0.935  14.511 -0.2176  0.8161  0.2618
  324MPD2    H5 4927   4.324   0.839  14.512  0.4777  0.5613 -1.1660
  324MPD2    N1 4928   0.033   1.192  14.602  0.2967 -0.1128  0.5887
  324MPD2    H7 4929   4.720   1.261  14.545 -1.7669 -2.2066 -0.2193
  325TMC3    C1 4930   4.182   0.960  14.349  0.7908  0.4166  0.0666
  325TMC3    C2 4931   4.212   0.844  14.289  0.0331 -0.0870  0.0408
  325TMC3    C3 4932   4.134   0.802  14.185 -0.1382  0.0101  0.4480
  325TMC3    C4 4933   4.072   1.030  14.324 -0.8796 -0.0142  0.8873
  325TMC3    C5 4934   3.987   0.978  14.232  0.4807  0.1141  0.0456
  325TMC3    C6 4935   4.011   0.859  14.167 -0.2373  0.8736 -0.5123
  325TMC3     C 4936   4.289   1.020  14.423  0.1161 -0.4150 -0.6613
  325TMC3     O 4937   4.302   1.142  14.406 -0.0175 -0.3185  0.3734
  325TMC3     H 4938   4.309   0.801  14.315  1.0822  3.3543  1.7708
  325TMC3    H1 4939   4.055   1.118  14.386  0.6369 -0.4910  1.9933
  325TMC3    H2 4940   3.946   0.820  14.090 -0.7860 -0.0379  0.3964
  325TMC3    C7 4941   3.893   1.064  14.167  0.4790 -0.3238  0.8094
  325TMC3    C8 4942   4.205   0.742  14.074 -0.1403 -0.2113  0.0234
  325TMC3    O1 4943   3.851   1.028  14.060 -0.4358 -0.3381  0.0796
  325TMC3    O2 4944   4.325   0.728  14.094 -0.0916  0.2401  0.1900
  326MPD2     C 4945   1.278   2.609  11.086  0.0417  0.3455  0.5272
  326MPD2    C1 4946   1.329   2.558  10.967  0.2153  0.3107  0.4016
  326MPD2    C2 4947   1.466   2.559  10.948 -0.6658 -0.1740 -0.5601
  326MPD2    C3 4948   1.554   2.602  11.049 -0.3974 -0.0362 -0.4433
  326MPD2    C4 4949   1.505   2.639  11.171  1.6156  0.0056  0.1378
  326MPD2    C5 4950   1.366   2.647  11.189  0.2119  0.4075  0.3827
  326MPD2     H 4951   1.496   2.513  10.854 -0.9300 -1.1833 -0.1461
  326MPD2    H1 4952   1.579   2.675  11.241 -0.5903  0.5645  2.1865
  326MPD2    H2 4953   1.174   2.616  11.114  0.0744  1.5100  0.3605
  326MPD2    H3 4954   1.325   2.683  11.282 -1.5252 -0.4532 -0.0522
  326MPD2     N 4955   1.690   2.628  11.019  0.2840 -0.0576  0.4498
  326MPD2    H5 4956   1.742   2.684  11.086  3.1639  0.2243 -2.0374
  326MPD2    N1 4957   1.257   2.501  10.866  0.7923  0.2256 -0.8877
  326MPD2    H7 4958   1.295   2.437  10.797  0.2051 -0.1695 -0.8485
  327TMC3    C1 4959   1.067   2.459  10.746 -0.9139  0.6215 -1.0123
  327TMC3    C2 4960   0.954   2.506  10.686  0.6456  0.2228 -0.2629
  327TMC3    C3 4961   0.932   2.458  10.562  0.2709 -0.2716 -0.0402
  327TMC3    C4 4962   1.144   2.353  10.700  0.0703  0.4909  0.3267
  327TMC3    C5 4963   1.107   2.308  10.577  0.5244 -0.5603 -0.2290
  327TMC3    C6 4964   1.016   2.365  10.495 -0.1470 -0.4560 -0.5050
  327TMC3     C 4965   1.121   2.533  10.855  0.3462  0.2621 -0.4106
  327TMC3     O 4966   1.055   2.630  10.900 -0.0058 -0.5145 -0.6680
  327TMC3     H 4967   0.899   2.592  10.723  2.2928  0.9261  0.5364
  327TMC3    H1 4968   1.201   2.289  10.767 -0.7900 -1.5659 -0.8974
  327TMC3    H2 4969   1.004   2.334  10.392  0.1929  0.2727 -0.7647
  327TMC3    C7 4970   1.137   2.164  10.557 -0.5050  0.0759  0.2625
  327TMC3    C8 4971   0.866   2.551  10.473  0.7665 -0.1490 -0.0708
  327TMC3    O1 4972   1.059   2.098  10.489  0.1135 -0.2411 -0.1729
  327TMC3    O2 4973   0.829   2.502  10.366 -0.3439  0.3185  0.2889
  328MPD2     C 4974   3.698   2.475  17.025 -0.3781  0.5404 -0.8263
  328MPD2    C1 4975   3.648   2.347  17.007  0.5697  1.2535 -0.1372
  328MPD2    C2 4976   3.519   2.335  16.952 -0.1364 -0.5584  0.3316
  328MPD2    C3 4977   3.460   2.444  16.892  0.0180  0.2056  0.4777
  328MPD2    C4 4978   3.515   2.566  16.897 -0.2867 -0.4581 -0.4526
  328MPD2    C5 4979   3.627   2.579  16.978  0.8485 -0.3247  0.6297
  328MPD2     H 4980   3.478   2.235  16.944  1.3144 -1.2884  2.1478
  328MPD2    H1 4981   3.465   2.656  16.864  1.3700  1.4116  2.1574
  328MPD2    H2 4982   3.786   2.501  17.084  0.9089 -1.9413 -1.6630
  328MPD2    H3 4983   3.661   2.681  16.993  0.9263 -0.6260  2.4373
  328MPD2     N 4984   3.336   2.435  16.830 -0.6409 -0.1159  0.0014
  328MPD2    H5 4985   3.299   2.517  16.782 -0.9926 -0.2898 -0.0292
  328MPD2    N1 4986   3.722   2.240  17.053  0.0461  0.4389 -0.4315
  328MPD2    H7 4987   3.811   2.260  17.096  0.8789 -3.8608 -0.0988
  329TMC3    C1 4988   3.769   2.024  17.135  0.1378  0.1233  0.3971
  329TMC3    C2 4989   3.826   2.070  17.251  0.3372 -0.1258 -0.2011
  329TMC3    C3 4990   3.886   1.983  17.337  0.7054 -0.5633 -0.3830
  329TMC3    C4 4991   3.771   1.894  17.096 -0.3163  0.1307  0.8403
  329TMC3    C5 4992   3.825   1.803  17.192 -0.0685  0.2858  0.1658
  329TMC3    C6 4993   3.888   1.847  17.304  0.9511  0.3123 -0.0984
  329TMC3     C 4994   3.684   2.108  17.056  0.0302 -0.0364  0.2628
  329TMC3     O 4995   3.583   2.054  17.010 -0.0325 -0.1104 -0.2084
  329TMC3     H 4996   3.822   2.174  17.279  0.6253  0.6724 -3.1195
  329TMC3    H1 4997   3.727   1.859  17.004  1.1722 -1.7253  0.8110
  329TMC3    H2 4998   3.930   1.771  17.369  1.3564  0.6682  0.0554
  329TMC3    C7 4999   3.772   1.668  17.188 -0.6052  0.0896 -0.3338
  329TMC3    C8 5000   3.906   2.016  17.473  0.7185  0.2198  0.3116
  329TMC3    O1 5001   3.759   1.593  17.287  0.0034  0.9046 -0.3448
  329TMC3    O2 5002   3.990   1.939  17.524  0.4483  0.2594  0.1219
  330TMC3    C1 5003   1.605   2.254   9.199 -0.4857 -0.2912  0.4987
  330TMC3    C2 5004   1.613   2.150   9.115  0.0763  0.2925  0.4724
  330TMC3    C3 5005   1.682   2.036   9.158  0.3624  0.6135 -0.1650
  330TMC3    C4 5006   1.660   2.252   9.320 -0.1172  0.0590  0.2762
  330TMC3    C5 5007   1.729   2.141   9.361  0.2114  0.5470 -0.8837
  330TMC3    C6 5008   1.738   2.034   9.277  0.1326  0.1939 -0.8415
  330TMC3     C 5009   1.495   2.352   9.172  0.2895  0.2574 -0.0837
  330TMC3     O 5010   1.481   2.436   9.261 -0.4060  0.0057  0.0528
  330TMC3     H 5011   1.555   2.131   9.025 -0.2569 -0.5005  0.8512
  330TMC3    H1 5012   1.634   2.326   9.395 -1.5165 -1.9978  1.8153
  330TMC3    H2 5013   1.814   1.959   9.296 -3.3332 -2.5662  2.1429
  330TMC3    C7 5014   1.814   2.159   9.487  0.3270 -0.7024  1.2809
  330TMC3    C8 5015   1.658   1.910   9.089  0.8979  0.0466  0.2616
  330TMC3    O1 5016   1.778   2.253   9.555 -0.2730 -0.5037  0.3457
  330TMC3    O2 5017   1.621   1.921   8.972 -0.2870 -0.2180  0.6215
  331MPD2     C 5018   0.339   0.768  13.183  0.0575  0.2939  0.6023
  331MPD2    C1 5019   0.216   0.757  13.125  0.0276  0.2814  0.4967
  331MPD2    C2 5020   0.146   0.638  13.135  0.5395 -0.2332  0.4775
  331MPD2    C3 5021   0.210   0.525  13.187 -0.5102 -0.0507  0.0224
  331MPD2    C4 5022   0.336   0.537  13.239 -0.1934 -0.3262 -0.1196
  331MPD2    C5 5023   0.396   0.655  13.240 -0.0219  0.8070 -0.3857
  331MPD2     H 5024   0.047   0.622  13.094  1.2140 -0.9561 -0.8762
  331MPD2    H1 5025   0.388   0.457  13.291  0.5586  0.2493  0.0182
  331MPD2    H2 5026   0.405   0.852  13.165 -0.0862 -0.4035 -3.1398
  331MPD2    H3 5027   0.497   0.666  13.279 -0.0376  0.1861 -0.1809
  331MPD2     N 5028   0.133   0.407  13.203 -0.4688  0.2124 -0.2869
  331MPD2    H5 5029   0.039   0.417  13.168 -0.7761  0.5576  0.6444
  331MPD2    N1 5030   0.177   0.862  13.048 -0.3194  0.1506 -1.0719
  331MPD2    H7 5031   0.244   0.938  13.039 -0.5670  0.4190 -0.6744
  332TMC3    C1 5032   0.081   0.190  13.285  0.1883  0.0004 -0.0437
  332TMC3    C2 5033   4.699   0.192  13.211  0.2386  0.7065  0.6226
  332TMC3    C3 5034   4.626   0.074  13.204  0.0200 -0.1538  0.4217
  332TMC3    C4 5035   0.127   0.074  13.345  0.2061  0.0710  0.4219
  332TMC3    C5 5036   0.051   4.694  13.333 -0.4129  0.3436  0.0611
  332TMC3    C6 5037   4.670   4.692  13.262 -0.1371  0.1802  0.5266
  332TMC3     C 5038   0.179   0.289  13.254  0.2807  0.5625  0.3721
  332TMC3     O 5039   0.293   0.261  13.279 -0.3855 -0.0894 -0.1326
  332TMC3     H 5040   4.643   0.281  13.187 -1.4942 -1.5331 -3.5398
  332TMC3    H1 5041   0.212   0.086  13.411 -0.6011  2.0781  1.1382
  332TMC3    H2 5042   4.615   4.600  13.247  0.9027 -0.3441 -0.1103
  332TMC3    C7 5043   0.122   4.567  13.358 -0.4068 -0.5665 -0.7667
  332TMC3    C8 5044   4.501   0.073  13.129 -0.1453 -0.3724  0.1911
  332TMC3    O1 5045   0.053   4.470  13.342  0.1348 -0.4474  0.8500
  332TMC3    O2 5046   4.418   4.720  13.153  0.3556  0.3634  0.4913
  333MPD2     C 5047   0.142   0.613  11.237 -0.1010  0.2532  0.1043
  333MPD2    C1 5048   0.202   0.514  11.174  0.3288  0.3035 -0.1998
  333MPD2    C2 5049   0.179   0.382  11.207 -0.4969 -0.1902 -0.1159
  333MPD2    C3 5050   0.088   0.358  11.310  1.1198 -0.1939 -0.0994
  333MPD2    C4 5051   0.014   0.461  11.358  0.3470 -0.1744  0.1875
  333MPD2    C5 5052   0.044   0.589  11.330 -0.5051 -0.4553  0.3713
  333MPD2     H 5053   0.230   0.303  11.152  0.0094 -1.1860  1.7824
  333MPD2    H1 5054   4.674   0.448  11.435  0.3075 -1.7951 -0.1349
  333MPD2    H2 5055   0.175   0.713  11.213  1.7581 -0.4416 -0.2834
  333MPD2    H3 5056   4.733   0.664  11.394 -0.7441 -0.0077 -0.3185
  333MPD2     N 5057   0.071   0.226  11.362  0.2053  0.1025 -0.5230
  333MPD2    H5 5058   0.110   0.148  11.310  0.6701 -0.6325  0.9234
  333MPD2    N1 5059   0.292   0.561  11.067  0.4123  0.4772  0.1243
  333MPD2    H7 5060   0.317   0.658  11.083  0.3835  0.6195 -0.6602
  334TMC3    C1 5061   0.395   0.550  10.853  0.2360 -0.1561 -0.5414
  334TMC3    C2 5062   0.468   0.476  10.768 -0.1691  0.0710 -1.1511
  334TMC3    C3 5063   0.542   0.543  10.676  0.4354  0.6539  0.3493
  334TMC3    C4 5064   0.361   0.683  10.828  0.0502  0.7736  0.5635
  334TMC3    C5 5065   0.433   0.752  10.731  0.4708 -0.0464 -0.3267
  334TMC3    C6 5066   0.537   0.681  10.670  0.0733 -0.7154  0.1308
  334TMC3     C 5067   0.337   0.480  10.964  0.4428  0.5430  0.4927
  334TMC3     O 5068   0.301   0.367  10.930 -0.5986  0.0071  0.5663
  334TMC3     H 5069   0.478   0.369  10.777 -3.8949 -0.0721  0.9273
  334TMC3    H1 5070   0.287   0.740  10.882  0.4816  2.3514 -0.5320
  334TMC3    H2 5071   0.576   0.726  10.580  0.3724  0.1741  0.7010
  334TMC3    C7 5072   0.420   0.897  10.701 -0.1395  0.9745 -0.7849
  334TMC3    C8 5073   0.661   0.475  10.640  0.0903 -0.0785  0.1097
  334TMC3    O1 5074   0.341   0.955  10.777  0.2129 -0.0729 -0.2696
  334TMC3    O2 5075   0.647   0.364  10.593 -0.0736 -0.2087 -0.1316
  335TMC3    C1 5076   4.582   2.065  17.716  0.6692  1.2508 -0.3881
  335TMC3    C2 5077   4.511   2.027  17.601 -0.0125 -0.3793  0.1191
  335TMC3    C3 5078   4.508   2.115  17.495  0.8156 -0.7796  0.8656
  335TMC3    C4 5079   4.647   2.184  17.730  0.0273  0.5884  0.2476
  335TMC3    C5 5080   4.637   2.270  17.618 -0.8607  0.2140 -0.0637
  335TMC3    C6 5081   4.573   2.236  17.505 -0.1907  0.1918 -0.1288
  335TMC3     C 5082   4.562   1.978   0.095 -0.8894  0.1856  0.6933
  335TMC3     O 5083   4.480   1.887   0.089 -0.0051 -0.3348 -0.6084
  335TMC3     H 5084   4.473   1.925  17.600  3.1981 -1.5619 -0.4380
  335TMC3    H1 5085   4.696   2.215   0.087 -0.5946 -2.6544  1.6882
  335TMC3    H2 5086   4.557   2.309  17.426 -0.1337  1.0700  0.6624
  335TMC3    C7 5087   4.733   2.383  17.593  0.6913  0.0048 -0.2383
  335TMC3    C8 5088   4.451   2.100  17.366  1.1936  0.4076  0.3423
  335TMC3    O1 5089   4.726   2.428  17.481  0.1887  0.8459  0.4983
  335TMC3    O2 5090   4.499   2.156  17.266  0.6860  0.0026 -0.0843
  336MPD2     C 5091   3.200   0.748  16.504 -0.0164  0.2955  0.2708
  336MPD2    C1 5092   3.271   0.721  16.387  0.0406 -0.0945 -0.0119
  336MPD2    C2 5093   3.380   0.632  16.394 -0.0191 -0.4433 -0.4942
  336MPD2    C3 5094   3.407   0.568  16.516 -0.1909  0.2970  0.0095
  336MPD2    C4 5095   3.339   0.606  16.630  0.0356 -0.0222 -0.5876
  336MPD2    C5 5096   3.234   0.687  16.619  0.2040  0.1272 -0.2243
  336MPD2     H 5097   3.431   0.616  16.300  1.3871 -0.3487  0.2500
  336MPD2    H1 5098   3.375   0.555  16.719  0.2055 -0.1759 -0.7463
  336MPD2    H2 5099   3.106   0.803  16.508 -1.2260 -1.6086 -1.5257
  336MPD2    H3 5100   3.177   0.715  16.707 -1.8419  0.5539 -1.6888
  336MPD2     N 5101   3.496   0.456  16.527 -0.2824  0.1514 -0.2563
  336MPD2    H5 5102   3.482   0.401  16.611  0.3645 -1.5663 -1.2843
  336MPD2    N1 5103   3.236   0.779  16.264  0.5758  0.2366  0.1094
  336MPD2    H7 5104   3.286   0.750  16.180  0.8652  1.0039  0.0241
  337TMC3    C1 5105   3.108   0.861  16.094  0.5414 -0.1190  0.7938
  337TMC3    C2 5106   2.977   0.858  16.051  0.3701 -0.0728 -0.0550
  337TMC3    C3 5107   2.956   0.876  15.922  0.2616  0.5545 -1.1005
  337TMC3    C4 5108   3.211   0.901  16.014 -0.3483 -0.3564  0.8756
  337TMC3    C5 5109   3.187   0.915  15.882  0.5956 -0.4800  0.2568
  337TMC3    C6 5110   3.060   0.894  15.831  0.0059 -0.3145 -0.2401
  337TMC3     C 5111   3.125   0.854  16.239 -0.7299  0.3355  0.5437
  337TMC3     O 5112   3.041   0.908  16.306 -0.4777  0.1443  0.0159
  337TMC3     H 5113   2.896   0.851  16.123 -0.8766  0.8712 -1.3772
  337TMC3    H1 5114   3.309   0.897  16.060 -0.4186 -0.2452  1.0368
  337TMC3    H2 5115   3.032   0.901  15.726 -0.2776 -1.3103 -0.2363
  337TMC3    C7 5116   3.302   0.910  15.800 -0.0967  0.3046 -0.6822
  337TMC3    C8 5117   2.828   0.823  15.870  1.0755 -0.4338  0.6738
  337TMC3    O1 5118   3.406   0.908  15.865  0.1791  0.7834  0.6070
  337TMC3    O2 5119   2.736   0.810  15.956  0.2570  0.0560  0.6136
  338MPD2     C 5120   3.851   4.262   0.761 -0.2910 -0.2930 -0.1087
  338MPD2    C1 5121   3.803   4.230   0.631  0.2392  0.3392  0.1166
  338MPD2    C2 5122   3.661   4.244   0.595  0.5208 -0.6345 -0.3491
  338MPD2    C3 5123   3.568   4.283   0.694 -0.2876 -0.6278  0.5076
  338MPD2    C4 5124   3.628   4.324   0.813 -0.2645 -0.6821 -0.4230
  338MPD2    C5 5125   3.761   4.315   0.848 -0.4416 -0.5685 -0.1726
  338MPD2     H 5126   3.616   4.202   0.506 -1.1772 -0.5988  0.5073
  338MPD2    H1 5127   3.559   4.356   0.891  0.8536  0.6345  0.0098
  338MPD2    H2 5128   3.954   4.263   0.797 -0.0917  1.5300 -0.7598
  338MPD2    H3 5129   3.787   4.340   0.950 -0.4436 -1.6304  0.0864
  338MPD2     N 5130   3.434   4.296   0.655  0.0063  0.0399 -0.4392
  338MPD2    H5 5131   3.415   4.263   0.561  1.8413 -1.0196 -0.4409
  338MPD2    N1 5132   3.894   4.189   0.533 -0.2222  0.0681 -0.2788
  338MPD2    H7 5133   3.848   4.175   0.444 -2.2175  3.1900  0.2669
  339TMC3    C1 5134   3.212   4.351   0.680  0.1588 -0.5096 -0.2562
  339TMC3    C2 5135   3.099   4.280   0.705 -0.4469 -0.1128 -0.3451
  339TMC3    C3 5136   3.010   4.265   0.598 -0.5216 -0.1239  0.0538
  339TMC3    C4 5137   3.237   4.421   0.563 -0.4098  0.5152  0.3978
  339TMC3    C5 5138   3.137   4.411   0.469  0.5353  0.5937  0.4861
  339TMC3    C6 5139   3.022   4.342   0.480 -0.3711  0.0872 -0.1657
  339TMC3     C 5140   3.334   4.319   0.752  0.1499 -0.4567  1.1812
  339TMC3     O 5141   3.339   4.307   0.870  0.3491 -0.5414 -0.1187
  339TMC3     H 5142   3.083   4.219   0.794 -0.8305 -0.0400 -0.3623
  339TMC3    H1 5143   3.328   4.478   0.556 -1.0708  1.5082 -0.0664
  339TMC3    H2 5144   2.950   4.338   0.399 -0.8775  0.9318  0.2482
  339TMC3    C7 5145   3.177   4.475   0.345 -0.3993 -0.1805  0.6969
  339TMC3    C8 5146   2.923   4.148   0.585  0.5483  1.0399  0.0007
  339TMC3    O1 5147   3.243   4.575   0.356 -0.9037 -0.0187 -0.6141
  339TMC3    O2 5148   2.833   4.138   0.503 -0.2921  0.0657 -0.1740
  340MPD2     C 5149   4.612   1.860  10.521  0.2721 -0.3113 -0.7529
  340MPD2    C1 5150   4.716   1.801  10.452  0.8146  0.4699  0.8320
  340MPD2    C2 5151   0.110   1.859  10.453 -0.0590  0.1579 -0.1614
  340MPD2    C3 5152   0.141   1.968  10.529  0.0306  0.2142  0.2304
  340MPD2    C4 5153   0.043   2.009  10.613  0.4598  0.5884 -0.8866
  340MPD2    C5 5154   4.642   1.960  10.612 -0.3257 -0.3130  0.1810
  340MPD2     H 5155   0.181   1.817  10.383  1.0480 -0.6947  1.4812
  340MPD2    H1 5156   0.064   2.092  10.680  1.1576  0.6378 -1.1639
  340MPD2    H2 5157   4.514   1.815  10.519 -0.1558  0.6048 -0.2835
  340MPD2    H3 5158   4.570   1.997  10.684 -2.2774 -2.0779 -0.8567
  340MPD2     N 5159   0.266   2.033  10.526 -0.0734  0.0883 -0.4801
  340MPD2    H5 5160   0.271   2.110  10.592 -0.5897  0.8074 -1.2840
  340MPD2    N1 5161   4.687   1.685  10.377  0.6297 -0.0352 -0.3730
  340MPD2    H7 5162   4.605   1.629  10.398  0.7761 -0.2985 -0.5007
  341TMC3    C1 5163   4.731   1.485  10.252  0.0322 -0.1302  0.0411
  341TMC3    C2 5164   4.621   1.427  10.304 -0.3505  0.6194 -0.4609
  341TMC3    C3 5165   4.599   1.297  10.294  0.2051  0.9889 -0.0767
  341TMC3    C4 5166   0.098   1.408  10.198 -0.3004 -0.2785  0.3544
  341TMC3    C5 5167   0.085   1.268  10.208 -0.2809  0.4000 -0.0997
  341TMC3    C6 5168   4.699   1.212  10.246 -0.7230  0.1772  0.2764
  341TMC3     C 5169   0.043   1.616  10.295 -0.5678  0.2043  0.8292
  341TMC3     O 5170   0.148   1.649  10.244  0.1495 -0.0721  0.3227
  341TMC3     H 5171   4.542   1.488  10.347  0.2750  0.9371  0.2530
  341TMC3    H1 5172   0.184   1.447  10.145 -0.8876 -1.7244 -1.6385
  341TMC3    H2 5173   4.681   1.105  10.245 -1.0128  0.2287 -0.2844
  341TMC3    C7 5174   0.168   1.187  10.117  0.0518  0.3726  0.0453
  341TMC3    C8 5175   4.469   1.230  10.308  0.7257  0.0912  0.8157
  341TMC3    O1 5176   0.203   1.247  10.014 -0.3480  0.2662 -0.1579
  341TMC3    O2 5177   4.466   1.109  10.288 -0.3824  0.4029 -0.4561
  342MPD2     C 5178   2.082   0.491   0.198 -0.0710  0.2006 -0.3261
  342MPD2    C1 5179   2.204   0.502   0.134 -0.2098 -0.1275  0.2200
  342MPD2    C2 5180   2.280   0.617   0.165  0.1324  0.0428 -0.5769
  342MPD2    C3 5181   2.245   0.717   0.247  0.6845 -0.5113  0.1407
  342MPD2    C4 5182   2.123   0.703   0.304 -0.3405 -0.4605  0.2664
  342MPD2    C5 5183   2.055   0.584   0.288  0.5443 -0.3717 -0.5470
  342MPD2     H 5184   2.377   0.607   0.117  0.4487 -0.9318  0.2416
  342MPD2    H1 5185   2.091   0.780   0.374  0.3756  1.0063 -0.9938
  342MPD2    H2 5186   2.019   0.403   0.191 -0.5422  0.2221  3.8593
  342MPD2    H3 5187   1.961   0.570   0.340  0.0877  0.4999 -1.1360
  342MPD2     N 5188   2.318   0.834   0.255 -0.7341  0.2385 -0.3295
  342MPD2    H5 5189   2.270   0.911   0.300  3.5075  2.9991 -0.5533
  342MPD2    N1 5190   2.243   0.418   0.025 -0.2721 -0.4975 -0.1597
  342MPD2    H7 5191   2.333   0.438  17.717 -1.2523 -1.2174 -2.5420
  343TMC3    C1 5192   2.231   0.271  17.588 -0.8958  0.3622  0.1576
  343TMC3    C2 5193   2.304   0.362  17.514 -0.0737 -0.3929  0.3547
  343TMC3    C3 5194   2.343   0.327  17.391  0.1358  0.9919  0.2669
  343TMC3    C4 5195   2.206   0.137  17.543 -0.0616  0.4621 -0.3144
  343TMC3    C5 5196   2.250   0.102  17.422  1.2837  0.2264  0.2765
  343TMC3    C6 5197   2.318   0.198  17.346  0.9113  0.0948  0.1106
  343TMC3     C 5198   2.171   0.312  17.710  0.1744  0.7758  0.2234
  343TMC3     O 5199   2.069   0.263   0.018  0.3610 -0.4647 -0.5842
  343TMC3     H 5200   2.304   0.468  17.536 -0.5002  0.0202 -1.6588
  343TMC3    H1 5201   2.150   0.066  17.603  2.9827  0.4726  2.5751
  343TMC3    H2 5202   2.359   0.162  17.252  0.5877  0.1743 -0.0594
  343TMC3    C7 5203   2.226   4.705  17.365  0.5919  0.8698 -1.0026
  343TMC3    C8 5204   2.390   0.435  17.306 -0.1504 -0.3418  0.3871
  343TMC3    O1 5205   2.257   4.697  17.247 -0.4297  0.8275 -0.4524
  343TMC3    O2 5206   2.424   0.538  17.363  0.0618  0.6326  0.9619
  344MPD2     C 5207   3.634   4.732  11.144  0.0395 -0.0054 -0.3062
  344MPD2    C1 5208   3.612   4.682  11.014  0.1290  0.2603  0.3716
  344MPD2    C2 5209   3.594   0.036  10.913 -0.5942  0.0867 -0.0075
  344MPD2    C3 5210   3.578   0.170  10.937 -0.0782 -0.5148 -0.0544
  344MPD2    C4 5211   3.602   0.221  11.067 -0.1009  0.0105  0.0533
  344MPD2    C5 5212   3.630   0.135  11.167  0.7352 -0.3577 -0.1480
  344MPD2     H 5213   3.585   0.004  10.810  1.4147 -0.2552 -0.0768
  344MPD2    H1 5214   3.582   0.324  11.095  0.5324  0.1465 -0.0133
  344MPD2    H2 5215   3.640   4.670  11.232 -0.4890  0.6711  0.2088
  344MPD2    H3 5216   3.639   0.169  11.270  0.2003 -1.8437  0.3883
  344MPD2     N 5217   3.576   0.267  10.838  0.8547 -0.4723 -0.1365
  344MPD2    H5 5218   3.594   0.362  10.870 -0.8602  0.4353 -1.8728
  344MPD2    N1 5219   3.609   4.544  10.984 -0.0824  0.5529  0.1589
  344MPD2    H7 5220   3.571   4.517  10.894  2.1287 -1.1734 -0.2460
  345TMC3    C1 5221   3.597   0.364  10.627 -0.0246 -0.1816  0.5132
  345TMC3    C2 5222   3.685   0.457  10.678  0.5292 -0.2765  0.1589
  345TMC3    C3 5223   3.736   0.549  10.590 -1.0893  0.2412  0.3565
  345TMC3    C4 5224   3.547   0.386  10.502 -0.2195 -0.3248  0.1694
  345TMC3    C5 5225   3.586   0.486  10.421  0.7677  0.2842 -0.0255
  345TMC3    C6 5226   3.685   0.571  10.465  0.7365  0.2421  0.2346
  345TMC3     C 5227   3.564   0.247  10.706 -0.1454 -0.1171 -0.3585
  345TMC3     O 5228   3.530   0.145  10.649  0.2530 -0.2220 -0.0454
  345TMC3     H 5229   3.735   0.454  10.775 -0.1684  2.9741  0.6045
  345TMC3    H1 5230   3.480   0.315  10.457 -0.9807 -0.4269  1.4520
  345TMC3    H2 5231   3.724   0.656  10.409  1.3121  1.5527  2.6269
  345TMC3    C7 5232   3.491   0.531  10.321  0.2581 -0.3253  0.4121
  345TMC3    C8 5233   3.793   0.670  10.654 -0.3806 -0.2578 -0.5729
  345TMC3    O1 5234   3.427   0.449  10.255 -0.0496 -0.5716 -0.3958
  345TMC3    O2 5235   3.751   0.701  10.765 -0.1036 -0.0627  0.1976
  346MPD2     C 5236   3.066   1.823  14.050  0.4176  0.2126 -0.6729
  346MPD2    C1 5237   3.189   1.788  14.007  0.3059 -0.2690  0.2089
  346MPD2    C2 5238   3.290   1.784  14.104  0.0114 -0.0944 -0.4618
  346MPD2    C3 5239   3.271   1.826  14.234  0.0476  0.0869  0.4210
  346MPD2    C4 5240   3.146   1.857  14.268 -0.4907 -0.9151  0.9033
  346MPD2    C5 5241   3.046   1.857  14.183  0.0694  0.3763 -0.0352
  346MPD2     H 5242   3.390   1.752  14.075  0.7361  1.9168 -0.1743
  346MPD2    H1 5243   3.109   1.884  14.367 -0.3514 -2.3412  1.3457
  346MPD2    H2 5244   2.985   1.830  13.978 -2.2799 -2.6292  2.0800
  346MPD2    H3 5245   2.946   1.881  14.218  1.1764 -2.8042  5.3185
  346MPD2     N 5246   3.383   1.835  14.316 -0.5064  0.4654  0.9460
  346MPD2    H5 5247   3.473   1.829  14.268 -1.2253  0.3732 -0.3667
  346MPD2    N1 5248   3.226   1.768  13.871 -0.2673 -0.2829 -0.0089
  346MPD2    H7 5249   3.325   1.747  13.859 -0.3218 -0.3428 -0.3391
  347TMC3    C1 5250   3.526   1.859  14.492 -0.6318  0.4748 -0.3344
  347TMC3    C2 5251   3.613   1.788  14.413 -0.0473 -0.9147 -0.4668
  347TMC3    C3 5252   3.742   1.802  14.442  0.0297  0.0685  0.7265
  347TMC3    C4 5253   3.559   1.941  14.593 -0.1761  0.4364  0.3484
  347TMC3    C5 5254   3.698   1.955  14.610 -0.0774  0.5135  0.2647
  347TMC3    C6 5255   3.787   1.884  14.535 -0.2397  0.1006 -0.4291
  347TMC3     C 5256   3.395   1.882  14.443  0.5292  0.0017  0.1714
  347TMC3     O 5257   3.316   1.956  14.505  0.2438 -0.5786  0.3705
  347TMC3     H 5258   3.582   1.712  14.343 -2.1663  0.4515 -1.0485
  347TMC3    H1 5259   3.483   1.982  14.659  0.8110  0.9698  1.1463
  347TMC3    H2 5260   3.894   1.885  14.554 -0.2499  0.4649 -0.3742
  347TMC3    C7 5261   3.730   2.010  14.741 -0.0941 -0.0832 -0.1480
  347TMC3    C8 5262   3.834   1.704  14.386 -0.0114 -0.3650  0.4902
  347TMC3    O1 5263   3.641   2.060  14.806  0.1007  0.1710  0.7809
  347TMC3    O2 5264   3.908   1.653  14.469 -0.2424  0.0999  0.0114
  348MPD2     C 5265   2.267   1.063  12.319 -0.1010  0.0040 -0.6331
  348MPD2    C1 5266   2.349   1.170  12.310  0.3015  0.3083  0.0096
  348MPD2    C2 5267   2.314   1.275  12.225  0.5584 -0.9313  0.1921
  348MPD2    C3 5268   2.197   1.268  12.149 -0.3355 -0.0506  0.3785
  348MPD2    C4 5269   2.116   1.154  12.161 -0.3376  0.4774  0.3284
  348MPD2    C5 5270   2.150   1.058  12.252  0.9420 -0.4469  0.7084
  348MPD2     H 5271   2.387   1.356  12.221  1.8559 -2.1501 -1.1900
  348MPD2    H1 5272   2.025   1.142  12.105 -0.1446  0.9582 -0.0940
  348MPD2    H2 5273   2.284   0.980  12.387  1.5941  1.5652  0.8490
  348MPD2    H3 5274   2.082   0.976  12.273 -1.5811  1.6997  0.8595
  348MPD2     N 5275   2.179   1.378  12.067  0.6967 -0.4235  0.0295
  348MPD2    H5 5276   2.242   1.456  12.084 -1.5255  1.5901 -0.9181
  348MPD2    N1 5277   2.474   1.176  12.375 -0.0860  0.6174  0.3014
  348MPD2    H7 5278   2.530   1.258  12.356  2.4449 -0.9265  1.0180
  349TMC3    C1 5279   2.683   1.088  12.472 -0.7940 -0.3008 -0.3985
  349TMC3    C2 5280   2.738   0.969  12.481  0.7765 -0.0115 -0.0723
  349TMC3    C3 5281   2.841   0.943  12.397  0.7162 -0.2394 -0.0452
  349TMC3    C4 5282   2.734   1.190  12.399 -0.5655  0.3230  0.6050
  349TMC3    C5 5283   2.818   1.160  12.300  0.5427  0.2736  0.5805
  349TMC3    C6 5284   2.890   1.036  12.308  0.0792 -0.5410 -0.4933
  349TMC3     C 5285   2.532   1.077  12.451  0.1464 -1.1771  0.2448
  349TMC3     O 5286   2.480   0.973  12.494  0.4266 -0.1414 -0.3874
  349TMC3     H 5287   2.707   0.896  12.555 -2.1427  0.4185 -0.8354
  349TMC3    H1 5288   2.694   1.291  12.406 -0.7339  0.1748  1.8343
  349TMC3    H2 5289   2.947   1.001  12.222  0.4080 -2.3950  0.4818
  349TMC3    C7 5290   2.783   1.200  12.168  0.1801 -0.7271 -0.0074
  349TMC3    C8 5291   2.891   0.813  12.390  0.0468 -0.3723  0.6155
  349TMC3    O1 5292   2.756   1.109  12.092 -0.2604 -0.0738  0.0353
  349TMC3    O2 5293   2.830   0.731  12.457  0.1033 -0.5418 -0.3402
  350MPD2     C 5294   1.615   4.326   9.995  0.0032 -0.2846  0.2314
  350MPD2    C1 5295   1.635   4.195   9.956  0.3658 -0.2930  0.2899
  350MPD2    C2 5296   1.764   4.151   9.928  0.8399 -0.4861  0.7459
  350MPD2    C3 5297   1.876   4.229   9.933 -0.0811 -0.1601  0.2376
  350MPD2    C4 5298   1.854   4.361   9.963  0.0411  0.8642 -0.3795
  350MPD2    C5 5299   1.724   4.409   9.994  0.3209 -0.0008  0.2870
  350MPD2     H 5300   1.779   4.050   9.891 -1.9209 -0.4849 -0.4078
  350MPD2    H1 5301   1.935   4.433   9.955  0.6122 -0.1019 -3.3800
  350MPD2    H2 5302   1.516   4.359  10.023  0.9200  1.3515  1.5713
  350MPD2    H3 5303   1.713   4.512  10.028 -0.5043  0.2772 -0.8271
  350MPD2     N 5304   1.999   4.167   9.911  0.0723  0.0484  0.4784
  350MPD2    H5 5305   2.001   4.066   9.903  1.1280  0.0675  0.4920
  350MPD2    N1 5306   1.542   4.086   9.949  0.0147  0.1515  0.0621
  350MPD2    H7 5307   1.577   4.001   9.907 -0.1655 -0.7688  1.7652
  351TMC3    C1 5308   1.352   3.951   9.963 -0.1089 -0.6676  0.3911
  351TMC3    C2 5309   1.402   3.862   9.862 -0.0373  0.0878  0.7014
  351TMC3    C3 5310   1.344   3.743   9.844  0.2149 -0.3596  0.0246
  351TMC3    C4 5311   1.246   3.913  10.041  0.2412 -0.3658 -0.3916
  351TMC3    C5 5312   1.199   3.785  10.030  0.4119  1.0611 -0.9261
  351TMC3    C6 5313   1.249   3.702   9.930 -0.7171 -0.2666  0.1094
  351TMC3     C 5314   1.412   4.077   9.996 -0.3158  0.3288 -0.0965
  351TMC3     O 5315   1.349   4.160  10.060  0.5630 -0.0910  0.1881
  351TMC3     H 5316   1.479   3.898   9.795 -1.1142  2.6527  0.8531
  351TMC3    H1 5317   1.217   3.978  10.123 -3.4601 -0.2291 -1.8213
  351TMC3    H2 5318   1.228   3.596   9.937  2.8944 -0.8681  1.9672
  351TMC3    C7 5319   1.097   3.745  10.121  0.1221 -0.0685 -0.0566
  351TMC3    C8 5320   1.411   3.652   9.749 -0.0516  0.3109  0.0177
  351TMC3    O1 5321   1.073   3.820  10.214 -0.1558 -0.1599 -0.1476
  351TMC3    O2 5322   1.526   3.673   9.714  0.2509 -0.4166  0.3613
  352MPD2     C 5323   0.029   1.392   1.116  0.4387  0.8143  0.2476
  352MPD2    C1 5324   4.651   1.321   1.133 -0.1829 -0.2462 -0.1812
  352MPD2    C2 5325   4.646   1.189   1.104 -0.3277  1.0015 -0.6022
  352MPD2    C3 5326   0.021   1.127   1.048 -0.2398  0.3908 -0.4362
  352MPD2    C4 5327   0.134   1.202   1.024 -0.0461 -0.3522  0.1154
  352MPD2    C5 5328   0.137   1.331   1.065  0.6015  0.5583  0.5301
  352MPD2     H 5329   4.564   1.120   1.117  0.3382  0.8843  2.9415
  352MPD2    H1 5330   0.219   1.153   0.977  0.0779  1.4256 -1.5152
  352MPD2    H2 5331   0.038   1.496   1.144 -0.4888  0.7829  0.6740
  352MPD2    H3 5332   0.225   1.393   1.059  0.5201  0.5269 -1.0263
  352MPD2     N 5333   0.023   0.988   1.011  0.5114  0.0945 -0.2860
  352MPD2    H5 5334   0.109   0.944   0.981 -0.4234 -2.4874  0.8500
  352MPD2    N1 5335   4.538   1.391   1.179  0.2758 -0.1692 -0.3532
  352MPD2    H7 5336   4.536   1.492   1.186  1.8357 -0.1461 -0.2957
  353TMC3    C1 5337   4.672   0.774   0.940 -0.1532 -0.4475  0.2366
  353TMC3    C2 5338   0.045   0.705   0.984 -0.3921  0.2402  0.3879
  353TMC3    C3 5339   0.037   0.570   0.973  0.5810 -0.2097  0.8484
  353TMC3    C4 5340   4.564   0.719   0.892  0.0155  0.0230  0.2128
  353TMC3    C5 5341   4.555   0.583   0.879  0.2451 -0.1132 -0.0035
  353TMC3    C6 5342   4.665   0.506   0.912  0.0555 -0.0239  0.0661
  353TMC3     C 5343   4.641   0.912   0.988  0.0087 -0.0220  0.2469
  353TMC3     O 5344   4.523   0.938   0.978  0.2590 -0.1152 -0.9577
  353TMC3     H 5345   0.133   0.750   1.026 -1.0577  4.3587 -2.6719
  353TMC3    H1 5346   4.490   0.780   0.841 -0.0332 -0.4690 -0.3067
  353TMC3    H2 5347   4.663   0.399   0.894 -4.9284  0.0015  0.4454
  353TMC3    C7 5348   4.429   0.516   0.845  0.5188  0.4819  0.7214
  353TMC3    C8 5349   0.146   0.496   1.037 -0.0055  0.3116  0.2023
  353TMC3    O1 5350   4.432   0.398   0.806  0.0494  0.7512  0.2018
  353TMC3    O2 5351   0.245   0.559   1.076  0.4012  0.2022  0.4690
  354TMC3    C1 5352   1.243   2.671  13.358  0.5407 -0.1485  0.3304
  354TMC3    C2 5353   1.274   2.805  13.351  0.7339  0.3128 -0.5469
  354TMC3    C3 5354   1.340   2.847  13.235 -0.6776  0.0776 -0.4924
  354TMC3    C4 5355   1.271   2.583  13.255  0.0106  0.2609 -0.0916
  354TMC3    C5 5356   1.347   2.635  13.155 -0.7334  0.0598 -0.0614
  354TMC3    C6 5357   1.380   2.768  13.136 -0.2561 -0.2219  0.0783
  354TMC3     C 5358   1.179   2.616  13.479  0.2606 -1.3537  0.3510
  354TMC3     O 5359   1.124   2.506  13.459 -0.3080 -0.1042 -0.0777
  354TMC3     H 5360   1.261   2.870  13.437  0.4210  1.3997 -1.4301
  354TMC3    H1 5361   1.260   2.477  13.272 -1.3151  0.4085  0.0023
  354TMC3    H2 5362   1.443   2.801  13.055 -0.3127  0.8796  0.4818
  354TMC3    C7 5363   1.375   2.544  13.051 -0.6142  0.1217  0.2979
  354TMC3    C8 5364   1.385   2.992  13.241  0.1212  0.9727  0.0958
  354TMC3    O1 5365   1.282   2.463  13.031 -0.1938 -0.2101  0.3852
  354TMC3    O2 5366   1.387   3.051  13.351 -0.2393 -0.1322 -0.1375
  355MPD2     C 5367   1.727   3.217  11.810  0.6783 -0.0802 -0.0687
  355MPD2    C1 5368   1.716   3.277  11.684  0.4972  0.0275  0.0416
  355MPD2    C2 5369   1.833   3.274  11.593  0.3223  0.2647 -0.1431
  355MPD2    C3 5370   1.951   3.213  11.640 -0.2004  0.6893  0.8687
  355MPD2    C4 5371   1.954   3.159  11.771 -0.2671 -0.0856 -0.4709
  355MPD2    C5 5372   1.842   3.157  11.854  0.2085 -0.1390 -0.0720
  355MPD2     H 5373   1.826   3.300  11.488 -0.2833  2.0517  0.3455
  355MPD2    H1 5374   2.048   3.117  11.805 -0.1366 -0.5010 -1.3658
  355MPD2    H2 5375   1.642   3.211  11.877  0.3196 -2.5948 -0.7252
  355MPD2    H3 5376   1.848   3.118  11.955  0.2355  4.6400  1.7368
  355MPD2     N 5377   2.073   3.212  11.574  0.7805  0.2422 -0.7585
  355MPD2    H5 5378   2.148   3.183  11.636  0.5778 -1.3673 -1.2716
  355MPD2    N1 5379   1.588   3.328  11.651 -0.6295  0.1734 -0.0821
  355MPD2    H7 5380   1.513   3.310  11.717 -1.4872  2.9112 -0.2928
  356TMC3    C1 5381   2.244   3.266  11.420  0.1472  0.0624 -0.3619
  356TMC3    C2 5382   2.277   3.369  11.333  0.2316  0.5533  0.0599
  356TMC3    C3 5383   2.382   3.446  11.359  0.7312  0.2453  0.1637
  356TMC3    C4 5384   2.327   3.229  11.526 -0.4643 -0.4488  0.2327
  356TMC3    C5 5385   2.430   3.316  11.556 -0.1967 -0.3955  0.4342
  356TMC3    C6 5386   2.465   3.419  11.472  0.1593 -0.4359 -0.3155
  356TMC3     C 5387   2.101   3.259  11.448 -0.0277 -0.5709 -0.3086
  356TMC3     O 5388   2.020   3.300  11.367 -0.1698 -0.5428  0.0101
  356TMC3     H 5389   2.203   3.386  11.256  0.0061 -1.4297 -0.1784
  356TMC3    H1 5390   2.308   3.147  11.593  1.3228  0.6259  2.0518
  356TMC3    H2 5391   2.556   3.472  11.494 -0.9934  2.0034 -1.4389
  356TMC3    C7 5392   2.452   3.328  11.701  0.0274 -0.2513 -0.3923
  356TMC3    C8 5393   2.418   3.536  11.252  0.1020  0.3680 -0.2734
  356TMC3    O1 5394   2.424   3.230  11.766 -0.5742 -0.4184  0.2188
  356TMC3    O2 5395   2.375   3.517  11.139 -0.2003  0.1290  0.6312
  357MPD2     C 5396   0.699   2.955   1.291 -0.4548 -0.1358 -0.4615
  357MPD2    C1 5397   0.718   2.830   1.351 -0.1841 -0.1617  0.1421
  357MPD2    C2 5398   0.626   2.768   1.438 -0.0097 -0.6330 -0.7076
  357MPD2    C3 5399   0.495   2.822   1.447  0.1762  0.2937 -0.7243
  357MPD2    C4 5400   0.470   2.936   1.370  0.0230 -0.3888  0.3269
  357MPD2    C5 5401   0.568   3.001   1.295  0.1143 -0.3187 -0.6674
  357MPD2     H 5402   0.647   2.672   1.483 -1.4353 -0.7075 -0.2083
  357MPD2    H1 5403   0.369   2.973   1.371 -0.6632 -2.2543 -0.1861
  357MPD2    H2 5404   0.772   3.012   1.235  0.2926 -1.7167 -1.0923
  357MPD2    H3 5405   0.540   3.095   1.248 -2.7924 -0.8721 -0.0460
  357MPD2     N 5406   0.388   2.762   1.514  0.4936  0.0315  0.0777
  357MPD2    H5 5407   0.297   2.796   1.485  0.9159  0.5217 -0.6575
  357MPD2    N1 5408   0.843   2.773   1.315 -0.0848  0.3864  0.2963
  357MPD2    H7 5409   0.904   2.823   1.250  0.6653  0.9272  1.4087
  358TMC3    C1 5410   1.007   2.601   1.278 -0.0609  0.7557  0.7242
  358TMC3    C2 5411   1.038   2.630   1.151  0.2857 -0.0287 -0.0496
  358TMC3    C3 5412   1.123   2.549   1.080 -0.8522 -0.0943 -0.3134
  358TMC3    C4 5413   1.058   2.483   1.328  0.2943 -0.7771  0.0045
  358TMC3    C5 5414   1.159   2.410   1.259  0.4491  0.6572  0.1976
  358TMC3    C6 5415   1.199   2.449   1.136 -0.4192  0.3816  0.0904
  358TMC3     C 5416   0.880   2.639   1.333  0.7168 -0.0088 -0.3813
  358TMC3     O 5417   0.821   2.557   1.396  0.4145 -0.4326 -0.0649
  358TMC3     H 5418   0.993   2.711   1.095  1.1299 -0.9490 -2.0838
  358TMC3    H1 5419   1.017   2.443   1.420 -0.5341  1.4441  0.6255
  358TMC3    H2 5420   1.250   2.382   1.068  0.5474  0.4222  0.7714
  358TMC3    C7 5421   1.200   2.273   1.293  0.0225  0.3836  0.2220
  358TMC3    C8 5422   1.133   2.568   0.941 -0.5191  0.1497 -0.0475
  358TMC3    O1 5423   1.298   2.215   1.244  0.3994 -0.6173 -0.4309
  358TMC3    O2 5424   1.145   2.689   0.913 -0.2329  0.5017  0.1011
  359MPD2     C 5425   1.820   1.314  12.182 -0.1679  0.5096  0.1648
  359MPD2    C1 5426   1.730   1.402  12.133  0.2706 -0.6790  0.0060
  359MPD2    C2 5427   1.602   1.356  12.102  0.2895  0.7835 -0.3183
  359MPD2    C3 5428   1.566   1.223  12.133 -0.6898  0.1915  0.4025
  359MPD2    C4 5429   1.657   1.143  12.189 -0.4862  0.1156 -0.1933
  359MPD2    C5 5430   1.781   1.187  12.207 -0.2058 -0.7759  0.3990
  359MPD2     H 5431   1.532   1.429  12.064 -1.4691 -0.6338  0.2186
  359MPD2    H1 5432   1.631   1.043  12.222  0.3302  0.3981  1.3497
  359MPD2    H2 5433   1.922   1.344  12.201  0.5721 -1.1949 -1.0602
  359MPD2    H3 5434   1.856   1.125  12.255  0.3241 -1.0290 -0.7672
  359MPD2     N 5435   1.434   1.175  12.123  0.6292  0.5195  0.0634
  359MPD2    H5 5436   1.410   1.089  12.172 -1.1271  0.8475 -0.2305
  359MPD2    N1 5437   1.763   1.541  12.121 -0.6545 -0.2920 -0.5357
  359MPD2    H7 5438   1.691   1.593  12.073  0.2088  2.3748  1.0602
  360TMC3    C1 5439   1.888   1.744  12.108  0.2562 -0.0538  0.1484
  360TMC3    C2 5440   1.980   1.827  12.165 -0.1254 -0.1380  0.0501
  360TMC3    C3 5441   1.983   1.950  12.116  0.4049 -0.6810  0.6549
  360TMC3    C4 5442   1.807   1.776  11.993 -0.4238  0.4575 -0.1520
  360TMC3    C5 5443   1.803   1.913  11.967  0.6294  0.1835 -0.8194
  360TMC3    C6 5444   1.895   2.001  12.023  0.1917  0.0387 -0.0772
  360TMC3     C 5445   1.879   1.608  12.154  0.8654 -0.6329 -0.3982
  360TMC3     O 5446   1.972   1.574  12.230  0.3115  0.2761 -0.0634
  360TMC3     H 5447   2.025   1.811  12.262  0.1275 -2.6708 -0.4737
  360TMC3    H1 5448   1.734   1.706  11.953  0.7021 -0.1201 -1.1704
  360TMC3    H2 5449   1.904   2.104  11.990 -0.4372 -0.4599 -1.8127
  360TMC3    C7 5450   1.762   1.948  11.831  0.4329  0.4937 -0.4100
  360TMC3    C8 5451   2.064   2.045  12.187 -0.3639 -0.5087 -0.0462
  360TMC3    O1 5452   1.821   2.036  11.771  0.1866  0.2554  1.3447
  360TMC3    O2 5453   2.023   2.162  12.173  0.3354 -0.0811 -0.1513
  361MPD2     C 5454   3.357   1.068  16.531  0.6374 -0.0649 -0.1458
  361MPD2    C1 5455   3.301   1.032  16.651  0.2583 -0.1387 -0.4518
  361MPD2    C2 5456   3.378   0.948  16.736  0.3998  0.5232 -0.2795
  361MPD2    C3 5457   3.514   0.929  16.713 -0.1062  0.3916 -0.1078
  361MPD2    C4 5458   3.572   0.991  16.596 -0.2941  0.4286 -0.0098
  361MPD2    C5 5459   3.487   1.049  16.507 -0.1458  0.1469  0.1755
  361MPD2     H 5460   3.331   0.904  16.823  1.9247  0.2887  0.4145
  361MPD2    H1 5461   3.675   0.983  16.564 -1.1976 -1.2064 -2.4791
  361MPD2    H2 5462   3.302   1.108  16.447 -2.1031  0.3356  1.8295
  361MPD2    H3 5463   3.526   1.113  16.428 -0.4744  1.0969  0.7787
  361MPD2     N 5464   3.595   0.833  16.780  0.9660 -0.3976  0.0380
  361MPD2    H5 5465   3.692   0.829  16.748  0.1034 -2.0248 -2.3809
  361MPD2    N1 5466   3.161   1.057  16.675  0.4698  0.1653 -0.1384
  361MPD2    H7 5467   3.131   0.996  16.751  1.9067  0.5399  0.7309
  362TMC3    C1 5468   2.941   1.129  16.631 -0.6132 -0.0545  0.4685
  362TMC3    C2 5469   2.896   1.078  16.751  0.9234  0.9239  0.6124
  362TMC3    C3 5470   2.766   1.102  16.776 -0.3995 -0.0080 -0.0141
  362TMC3    C4 5471   2.856   1.207  16.549 -0.5730  0.4449 -0.3219
  362TMC3    C5 5472   2.731   1.223  16.589  0.2238 -0.0632  0.3029
  362TMC3    C6 5473   2.684   1.172  16.699  0.5932  0.4572  0.3236
  362TMC3     C 5474   3.080   1.120  16.588  0.0740  1.2611 -0.3699
  362TMC3     O 5475   3.105   1.194  16.494 -0.3205 -0.0039 -0.0861
  362TMC3     H 5476   2.957   1.013  16.813  0.5916 -0.0950 -0.1247
  362TMC3    H1 5477   2.894   1.256  16.460  1.4870 -1.6204 -0.5881
  362TMC3    H2 5478   2.577   1.170  16.713  0.7949  0.0373  1.8165
  362TMC3    C7 5479   2.636   1.307  16.510 -0.4570  0.5680  0.2533
  362TMC3    C8 5480   2.715   1.046  16.898  0.8954  0.6585  0.4154
  362TMC3    O1 5481   2.553   1.369  16.573  0.3769  0.0876 -0.2979
  362TMC3    O2 5482   2.752   0.935  16.933 -0.0814  0.2943 -0.4182
  363TMC3    C1 5483   2.102   3.276   8.822  0.3708  0.4565  0.2731
  363TMC3    C2 5484   2.218   3.302   8.890 -0.3363 -0.3151  1.0542
  363TMC3    C3 5485   2.226   3.421   8.953 -0.2106  0.1235 -0.2316
  363TMC3    C4 5486   1.992   3.359   8.828 -0.7356 -0.1176  1.0900
  363TMC3    C5 5487   2.006   3.478   8.901 -0.4546  0.1710  0.0998
  363TMC3    C6 5488   2.129   3.516   8.943 -0.3918 -0.5135  0.1082
  363TMC3     C 5489   2.101   3.161   8.734  0.0597  0.4536 -0.0059
  363TMC3     O 5490   2.146   3.054   8.769 -0.2130 -0.3871 -0.4150
  363TMC3     H 5491   2.309   3.249   8.866 -1.0723 -0.3353 -1.6128
  363TMC3    H1 5492   1.898   3.324   8.787 -0.1992 -1.1509  0.7475
  363TMC3    H2 5493   2.139   3.608   8.999 -0.2285 -0.9739  0.8364
  363TMC3    C7 5494   1.886   3.537   8.960  0.0676  0.6995  0.5136
  363TMC3    C8 5495   2.287   3.418   9.080  0.2315  0.2046  0.5182
  363TMC3    O1 5496   1.782   3.500   8.906 -0.0272  0.2678  0.1519
  363TMC3    O2 5497   2.295   3.533   9.126 -0.1548 -0.3831 -0.4447
  364MPD2     C 5498   0.824   3.020  10.261  0.0912 -0.0099 -0.6409
  364MPD2    C1 5499   0.895   3.029  10.377  0.1779  0.3735  0.0557
  364MPD2    C2 5500   0.909   2.915  10.453  0.2473  0.2004 -0.1014
  364MPD2    C3 5501   0.860   2.793  10.414 -0.3705  0.3497  0.7612
  364MPD2    C4 5502   0.776   2.785  10.306  0.4834 -0.1571  0.7364
  364MPD2    C5 5503   0.759   2.904  10.238  0.0421 -0.4165  0.1416
  364MPD2     H 5504   0.954   2.924  10.551 -1.8845 -1.1846  1.0087
  364MPD2    H1 5505   0.742   2.695  10.256 -2.4568  0.2462  2.0286
  364MPD2    H2 5506   0.823   3.088  10.176  0.7248  0.7662 -0.0347
  364MPD2    H3 5507   0.714   2.894  10.140  0.9760 -0.3746 -0.2922
  364MPD2     N 5508   0.896   2.680  10.496 -0.4487  1.2799  0.3447
  364MPD2    H5 5509   0.969   2.698  10.565 -0.4215 -0.2492  0.7172
  364MPD2    N1 5510   0.979   3.144  10.397  0.0383 -0.1577  0.1885
  364MPD2    H7 5511   1.002   3.199  10.315 -0.8603 -2.1755 -1.4448
  365TMC3    C1 5512   1.142   3.281  10.506 -0.1867  0.9126 -0.0170
  365TMC3    C2 5513   1.198   3.302  10.383  0.1268 -0.3565  0.2137
  365TMC3    C3 5514   1.236   3.436  10.365  0.6311 -0.1411 -0.1376
  365TMC3    C4 5515   1.136   3.370  10.614 -0.0896 -0.0523  0.4653
  365TMC3    C5 5516   1.196   3.491  10.595 -0.2842 -0.3680  0.0679
  365TMC3    C6 5517   1.245   3.529  10.471  0.2062 -0.8356 -0.7060
  365TMC3     C 5518   1.042   3.173  10.512 -0.2802  0.5799 -0.6882
  365TMC3     O 5519   1.029   3.134  10.624  0.3045 -0.4991 -0.5706
  365TMC3     H 5520   1.216   3.213  10.325 -1.0127 -0.4429 -0.0189
  365TMC3    H1 5521   1.086   3.351  10.708 -0.3183  0.6271  0.4783
  365TMC3    H2 5522   1.292   3.626  10.465 -0.2559 -0.4401  2.2151
  365TMC3    C7 5523   1.258   3.558  10.703  0.5425  0.1982  0.1507
  365TMC3    C8 5524   1.321   3.475  10.258  0.0662  0.9056 -0.1540
  365TMC3    O1 5525   1.315   3.662  10.686 -0.1279 -0.3669 -0.8157
  365TMC3    O2 5526   1.371   3.582  10.262 -0.3533 -0.4601 -0.1194
  366MPD2     C 5527   3.445   3.862  15.608  0.1482  0.1356  0.2833
  366MPD2    C1 5528   3.520   3.978  15.612 -0.0558 -0.1896 -0.1083
  366MPD2    C2 5529   3.611   3.986  15.713 -0.5338 -0.0851 -0.3141
  366MPD2    C3 5530   3.631   3.897  15.812  0.2016 -0.2882  0.4478
  366MPD2    C4 5531   3.553   3.780  15.804  0.0555 -0.0208 -0.6603
  366MPD2    C5 5532   3.452   3.770  15.714  0.0760  0.3516 -0.1977
  366MPD2     H 5533   3.672   4.075  15.719 -2.5580  1.1879  1.2622
  366MPD2    H1 5534   3.561   3.697  15.873 -2.1837  0.0611 -0.2992
  366MPD2    H2 5535   3.368   3.842  15.534  0.8525 -0.4193 -0.2992
  366MPD2    H3 5536   3.378   3.693  15.732 -1.0693  0.8421 -2.7913
  366MPD2     N 5537   3.741   3.925  15.899  0.5877 -0.1165  0.1542
  366MPD2    H5 5538   3.783   4.018  15.899  1.2417 -0.4203 -1.7912
  366MPD2    N1 5539   3.521   4.078  15.509  0.0254 -0.2485 -0.5306
  366MPD2    H7 5540   3.596   4.146  15.516  1.5422 -1.9981  0.1729
  367TMC3    C1 5541   3.531   4.145  15.283 -0.0244 -0.3038  0.0303
  367TMC3    C2 5542   3.670   4.142  15.291 -0.2386 -0.4132  0.8221
  367TMC3    C3 5543   3.736   4.262  15.258  0.7550  0.4713 -0.6343
  367TMC3    C4 5544   3.454   4.257  15.243 -0.4642 -0.0534  0.6924
  367TMC3    C5 5545   3.523   4.370  15.234 -0.3172 -0.3314  0.5602
  367TMC3    C6 5546   3.665   4.373  15.240 -0.1390  0.3790  1.0952
  367TMC3     C 5547   3.459   4.063  15.382  0.0783  0.1335  0.2989
  367TMC3     O 5548   3.362   3.999  15.344  0.2251  0.3181 -0.0329
  367TMC3     H 5549   3.721   4.048  15.307  0.4810 -0.0967  0.4281
  367TMC3    H1 5550   3.345   4.257  15.247 -0.6203 -0.1489 -3.3539
  367TMC3    H2 5551   3.717   4.466  15.220 -1.5372  0.8095 -0.5375
  367TMC3    C7 5552   3.446   4.494  15.202  0.0952  0.8796  0.3846
  367TMC3    C8 5553   3.880   4.256  15.255 -0.1251  0.1934  0.2858
  367TMC3    O1 5554   3.324   4.480  15.210 -0.1061  0.0544  0.4065
  367TMC3    O2 5555   3.928   4.158  15.304 -0.2275 -0.1308 -0.1588
  368MPD2     C 5556   1.304   1.226  13.623  0.7885 -0.6766  0.9048
  368MPD2    C1 5557   1.324   1.329  13.535 -0.3599  0.6348 -0.3307
  368MPD2    C2 5558   1.430   1.325  13.450  0.4459 -0.2055  0.0432
  368MPD2    C3 5559   1.512   1.216  13.441 -0.2204 -0.0206  0.0357
  368MPD2    C4 5560   1.503   1.121  13.537 -0.3748  0.0368  0.4925
  368MPD2    C5 5561   1.399   1.127  13.622  0.2464 -0.3722 -0.0205
  368MPD2     H 5562   1.434   1.398  13.370 -1.8009  2.7251  2.6193
  368MPD2    H1 5563   1.569   1.035  13.543  0.7031  0.8144 -0.0810
  368MPD2    H2 5564   1.226   1.229  13.698 -2.7376 -1.9029 -2.7082
  368MPD2    H3 5565   1.391   1.045  13.693  2.2770  0.0523  0.6995
  368MPD2     N 5566   1.604   1.197  13.338  0.1473 -0.2204  0.7481
  368MPD2    H5 5567   1.668   1.119  13.349  0.2859 -0.1685  0.3292
  368MPD2    N1 5568   1.233   1.436  13.543  0.0393 -0.1225 -0.1786
  368MPD2    H7 5569   1.149   1.420  13.596 -0.9486  0.9995 -1.3857
  369TMC3    C1 5570   1.119   1.591  13.404 -0.7183  0.3769  0.7929
  369TMC3    C2 5571   1.125   1.684  13.304 -0.0244  0.1862 -0.3225
  369TMC3    C3 5572   1.010   1.700  13.235 -0.6306  0.8101  0.0033
  369TMC3    C4 5573   1.002   1.530  13.440 -0.5203 -0.1591 -0.3187
  369TMC3    C5 5574   0.886   1.554  13.369  0.1977 -0.6809 -0.7996
  369TMC3    C6 5575   0.889   1.646  13.268  0.6272 -0.1228 -0.4914
  369TMC3     C 5576   1.246   1.548  13.461  0.1873  0.6940  0.4933
  369TMC3     O 5577   1.348   1.612  13.432 -0.0138  0.0594 -0.0683
  369TMC3     H 5578   1.222   1.720  13.273 -0.2325  2.9886  2.3253
  369TMC3    H1 5579   1.000   1.441  13.503  0.5234 -0.8571 -1.2706
  369TMC3    H2 5580   0.797   1.680  13.221  2.7986  3.4322 -2.2322
  369TMC3    C7 5581   0.766   1.467  13.381  0.5171  0.4697  0.3128
  369TMC3    C8 5582   1.017   1.752  13.101  0.1234  0.0320  0.1677
  369TMC3    O1 5583   0.736   1.428  13.496 -0.5380  0.1077  0.6486
  369TMC3    O2 5584   0.919   1.807  13.057  0.2644  0.6698  0.1335
  370TMC3    C1 5585   4.335   1.908  16.082 -1.0890 -0.3035  0.0061
  370TMC3    C2 5586   4.258   1.828  16.165 -0.2010  0.6477 -0.7272
  370TMC3    C3 5587   4.224   1.704  16.125  0.2238  0.2979 -0.0474
  370TMC3    C4 5588   4.362   1.862  15.954 -0.0063  0.3220  0.0392
  370TMC3    C5 5589   4.323   1.734  15.922 -0.2533  0.1972 -0.4447
  370TMC3    C6 5590   4.253   1.658  16.004  0.6886  0.1639 -0.7227
  370TMC3     C 5591   4.441   1.978  16.142  0.6609 -0.0285 -0.3054
  370TMC3     O 5592   4.474   1.943  16.256  0.4037  0.0847  0.1524
  370TMC3     H 5593   4.254   1.867  16.266 -1.9418  1.9309 -1.2888
  370TMC3    H1 5594   4.450   1.909  15.911 -0.4488  1.0496 -0.0821
  370TMC3    H2 5595   4.215   1.565  15.963 -0.3330  0.3716 -0.2475
  370TMC3    C7 5596   4.382   1.694  15.788 -0.2185  0.1811  0.7170
  370TMC3    C8 5597   4.184   1.597  16.227  0.4430 -0.2761 -0.3634
  370TMC3    O1 5598   4.413   1.776  15.699 -0.2214 -0.5590  0.1744
  370TMC3    O2 5599   4.170   1.480  16.194  0.2360 -0.0355  0.1389
  371TMC3    C1 5600   1.045   0.293  15.391 -0.0484 -0.4341  0.4872
  371TMC3    C2 5601   0.913   0.251  15.378 -0.0536 -0.2070 -0.2883
  371TMC3    C3 5602   0.815   0.349  15.373 -0.7372  0.5277  0.4816
  371TMC3    C4 5603   1.080   0.427  15.391  0.2413  0.1000  0.2903
  371TMC3    C5 5604   0.983   0.521  15.371  0.3129  0.3950  0.2627
  371TMC3    C6 5605   0.849   0.485  15.375  0.2955  0.4754  0.5117
  371TMC3     C 5606   1.155   0.194  15.398  0.8197 -1.1594 -0.4307
  371TMC3     O 5607   1.264   0.242  15.420 -0.1194 -0.9871 -0.0458
  371TMC3     H 5608   0.880   0.148  15.385 -2.5930  0.7984  2.6844
  371TMC3    H1 5609   1.182   0.457  15.411  0.3851 -0.4744  0.4361
  371TMC3    H2 5610   0.776   0.563  15.358  0.1599  0.7573  2.3187
  371TMC3    C7 5611   1.018   0.665  15.354  0.2654 -0.0417  0.1000
  371TMC3    C8 5612   0.685   0.313  15.430  0.5935 -0.0562  0.4930
  371TMC3    O1 5613   0.933   0.747  15.387 -0.3409 -0.7643 -0.0263
  371TMC3    O2 5614   0.642   0.199  15.421 -0.1930  0.1596  0.3532
  372MPD2     C 5615   0.561   1.422  13.974  0.1828 -0.6459  0.3284
  372MPD2    C1 5616   0.597   1.397  13.839 -0.4445  0.8175 -0.1536
  372MPD2    C2 5617   0.554   1.279  13.779  0.1001  0.9759 -0.1641
  372MPD2    C3 5618   0.480   1.186  13.847 -0.2368  0.3281  0.7195
  372MPD2    C4 5619   0.439   1.210  13.973  0.1313 -0.7420  0.3863
  372MPD2    C5 5620   0.488   1.321  14.041  0.1669  0.2789 -0.2952
  372MPD2     H 5621   0.579   1.266  13.674  1.7766  0.2765  0.3267
  372MPD2    H1 5622   0.378   1.143  14.033  0.1396  0.9739  2.3174
  372MPD2    H2 5623   0.571   1.513  14.031  0.6926 -0.0045 -0.7819
  372MPD2    H3 5624   0.446   1.349  14.136  0.2474 -4.2766  1.1076
  372MPD2     N 5625   0.465   1.054  13.803 -0.8129  0.0535  0.5481
  372MPD2    H5 5626   0.397   1.008  13.862 -0.2295  0.2525  1.3622
  372MPD2    N1 5627   0.676   1.491  13.766  0.4522  0.1446  0.0576
  372MPD2    H7 5628   0.714   1.471  13.674 -1.3348 -0.8133 -0.4779
  373TMC3    C1 5629   0.485   0.852  13.680  0.2154  0.3815  0.3278
  373TMC3    C2 5630   0.480   0.777  13.800 -0.1328 -0.5856 -0.8950
  373TMC3    C3 5631   0.524   0.649  13.811  0.3939 -0.0567 -0.0765
  373TMC3    C4 5632   0.524   0.786  13.566  0.3651 -0.1371 -0.6074
  373TMC3    C5 5633   0.559   0.654  13.571  0.4381 -0.0724 -0.4293
  373TMC3    C6 5634   0.562   0.587  13.694  0.5087 -0.7320 -0.2190
  373TMC3     C 5635   0.511   0.995  13.687 -0.0072  0.4470  0.8016
  373TMC3     O 5636   0.574   1.041  13.596  0.5484  0.6371 -0.7558
  373TMC3     H 5637   0.446   0.830  13.888  1.8057 -0.8701  0.0283
  373TMC3    H1 5638   0.510   0.845  13.477 -0.1585 -0.5574 -0.8089
  373TMC3    H2 5639   0.605   0.488  13.693 -0.1909 -1.0322 -0.7283
  373TMC3    C7 5640   0.651   0.609  13.465 -0.3383  0.0480  0.5065
  373TMC3    C8 5641   0.613   0.627  13.921 -0.4536  0.1762 -0.0050
  373TMC3    O1 5642   0.729   0.682  13.405  0.0090 -0.1262  0.1279
  373TMC3    O2 5643   0.655   0.731  13.963 -0.7989 -0.0526  0.1197
  374TMC3    C1 5644   1.320   1.546   9.870 -0.1601 -0.7022 -0.1305
  374TMC3    C2 5645   1.413   1.620   9.927  0.1249  0.4096  0.2936
  374TMC3    C3 5646   1.491   1.701   9.849  0.1960  0.1577  0.0556
  374TMC3    C4 5647   1.280   1.560   9.739 -0.0698 -0.8770  0.4093
  374TMC3    C5 5648   1.352   1.645   9.665 -0.5106  0.0157 -0.0180
  374TMC3    C6 5649   1.468   1.711   9.713  0.0462 -0.1621  0.2765
  374TMC3     C 5650   1.281   1.430   9.953 -0.0892 -0.2454 -0.3082
  374TMC3     O 5651   1.377   1.390  10.019 -0.5416  0.0803 -0.3669
  374TMC3     H 5652   1.440   1.602  10.030  0.5963  2.7216  0.5807
  374TMC3    H1 5653   1.221   1.478   9.698 -0.8024  0.6664 -1.5826
  374TMC3    H2 5654   1.535   1.764   9.647  0.1981  0.3528  0.8498
  374TMC3    C7 5655   1.322   1.657   9.526 -0.2423 -0.2162  0.0884
  374TMC3    C8 5656   1.624   1.738   9.889  0.3950  0.3260  0.2913
  374TMC3    O1 5657   1.261   1.565   9.477 -0.5200 -0.4858 -0.2756
  374TMC3    O2 5658   1.694   1.772   9.791 -0.3055 -0.7974  0.4156
  375MPD2     C 5659   1.100   2.849  17.104 -0.3810  0.4435 -0.0692
  375MPD2    C1 5660   0.997   2.789  17.043 -0.5321 -0.2839 -0.3671
  375MPD2    C2 5661   1.019   2.734  16.915 -0.3828 -0.0616 -0.4953
  375MPD2    C3 5662   1.143   2.735  16.854  0.0239 -0.9056 -0.0067
  375MPD2    C4 5663   1.244   2.808  16.921 -0.3849 -0.2622  0.8981
  375MPD2    C5 5664   1.220   2.859  17.044 -0.2388  0.1294  0.9267
  375MPD2     H 5665   0.939   2.680  16.866 -0.7545 -0.9058  1.0291
  375MPD2    H1 5666   1.346   2.820  16.887 -0.5022  2.4226  1.5346
  375MPD2    H2 5667   1.101   2.882  17.207 -0.2893 -2.3039  0.8057
  375MPD2    H3 5668   1.307   2.895  17.097 -0.1074  1.1412  0.0266
  375MPD2     N 5669   1.169   2.674  16.735 -0.0322  0.1145  0.4187
  375MPD2    H5 5670   1.254   2.704  16.689  1.4081 -0.0792  3.0045
  375MPD2    N1 5671   0.867   2.810  17.090 -0.1306 -0.1167 -0.2396
  375MPD2    H7 5672   0.792   2.785  17.026 -1.2978 -0.0608  1.1026
  376TMC3    C1 5673   1.140   2.516  16.547 -0.0031 -0.9012  0.1240
  376TMC3    C2 5674   1.269   2.539  16.505 -0.3244  0.2956 -0.1765
  376TMC3    C3 5675   1.327   2.450  16.416 -0.0016 -0.5407 -0.3473
  376TMC3    C4 5676   1.060   2.415  16.496 -0.1141 -0.1770 -0.4630
  376TMC3    C5 5677   1.124   2.335  16.404  0.8107 -0.2888  0.9669
  376TMC3    C6 5678   1.254   2.346  16.363 -0.1426  0.0868  0.6773
  376TMC3     C 5679   1.090   2.585  16.667 -0.2633  0.0932 -0.6792
  376TMC3     O 5680   0.979   2.542  16.700 -0.2600  0.3312 -0.0814
  376TMC3     H 5681   1.328   2.619  16.549  1.8691 -2.7751  2.5004
  376TMC3    H1 5682   0.965   2.387  16.540  0.1592  0.1173  0.3152
  376TMC3    H2 5683   1.307   2.279  16.296 -1.0914 -0.9766  0.9990
  376TMC3    C7 5684   1.048   2.220  16.358 -0.1005  0.2323 -0.2081
  376TMC3    C8 5685   1.446   2.481  16.336  0.2130  0.1574 -0.6122
  376TMC3    O1 5686   0.946   2.196  16.416 -0.2394  0.0062  0.0915
  376TMC3    O2 5687   1.452   2.434  16.220  0.2337  0.4344  0.4514
  377MPD2     C 5688   0.118   1.495  13.278 -0.7318  0.0798  0.3184
  377MPD2    C1 5689   0.004   1.460  13.211 -0.2584 -0.3301 -0.0590
  377MPD2    C2 5690   4.634   1.396  13.283  0.5102  0.1700 -0.4933
  377MPD2    C3 5691   4.638   1.389  13.420  0.4827 -0.4766  0.2594
  377MPD2    C4 5692   0.009   1.444  13.486  0.6645 -0.1644 -0.0561
  377MPD2    C5 5693   0.114   1.489  13.418 -0.0902  0.5307 -0.2151
  377MPD2     H 5694   4.566   1.346  13.215  0.9776  1.2991 -1.8034
  377MPD2    H1 5695   0.009   1.439  13.595  2.9511  1.4220  0.0303
  377MPD2    H2 5696   0.204   1.543  13.231 -1.9704  0.4714 -1.5522
  377MPD2    H3 5697   0.201   1.519  13.475 -0.6218  0.9800  0.3659
  377MPD2     N 5698   4.537   1.328  13.503  0.1511  0.7168 -0.8679
  377MPD2    H5 5699   4.550   1.344  13.602 -3.4545  1.0078 -0.4321
  377MPD2    N1 5700   0.015   1.458  13.068 -0.0766  0.0184 -0.5211
  377MPD2    H7 5701   0.100   1.496  13.028  0.0877  0.2871  0.0805
  378TMC3    C1 5702   4.631   1.494  12.616  0.5542 -0.9617 -0.3996
  378TMC3    C2 5703   4.598   1.457  12.741 -0.4159 -0.3443  0.2807
  378TMC3    C3 5704   4.692   1.446  12.840 -0.0785 -0.3826  0.0806
  378TMC3    C4 5705   0.028   1.497  12.579 -0.7875  0.0387 -0.4923
  378TMC3    C5 5706   0.122   1.465  12.673  0.1028  0.1279  0.4314
  378TMC3    C6 5707   0.088   1.439  12.806  0.3113  0.2642 -0.5515
  378TMC3     C 5708   4.527   1.502  12.516  0.4047  0.1388  0.6527
  378TMC3     O 5709   4.416   1.527  12.562  0.0571 -0.1232 -0.1796
  378TMC3     H 5710   4.495   1.465  12.774 -0.5397 -2.0461  0.2914
  378TMC3    H1 5711   0.041   1.536  12.478  0.5672  2.2145  0.5103
  378TMC3    H2 5712   0.162   1.428  12.885 -0.4702 -0.3454  0.0972
  378TMC3    C7 5713   0.255   1.499  12.650 -0.2821  0.0399  0.0096
  378TMC3    C8 5714   4.644   1.432  12.979 -0.3390 -0.8277 -0.1044
  378TMC3    O1 5715   0.313   1.551  12.743 -0.5522 -0.4887 -0.5942
  378TMC3    O2 5716   4.524   1.405  12.999  0.2733 -0.2103  0.1376
  379MPD2     C 5717   4.465   3.936  16.055 -0.8932  0.2943  1.7815
  379MPD2    C1 5718   4.561   4.024  16.015 -0.4035  0.0345  0.6006
  379MPD2    C2 5719   4.653   4.080  16.112 -0.5322 -0.5712 -0.3505
  379MPD2    C3 5720   4.647   4.039  16.244 -0.3086 -0.4460  0.1039
  379MPD2    C4 5721   4.543   3.963  16.281 -0.1567  0.0836  0.3813
  379MPD2    C5 5722   4.462   3.900  16.186  0.3047  0.1753  0.2784
  379MPD2     H 5723   4.734   4.143  16.076 -1.3739  1.3302  1.1413
  379MPD2    H1 5724   4.538   3.938  16.386 -1.6074 -0.0458  0.2825
  379MPD2    H2 5725   4.397   3.892  15.983  0.6130  0.9676 -0.0542
  379MPD2    H3 5726   4.400   3.818  16.219  0.7124 -0.0255  0.5403
  379MPD2     N 5727   0.011   4.086  16.336 -0.4618 -0.6164 -0.2307
  379MPD2    H5 5728   4.726   4.078  16.436 -2.5639 -0.5272 -0.6174
  379MPD2    N1 5729   4.574   4.058  15.877  0.0100 -0.1231  0.2055
  379MPD2    H7 5730   4.514   4.018  15.806  0.0887 -0.7540  0.4971
  380TMC3    C1 5731   4.651   4.154  15.667  0.3078  0.1014 -0.4957
  380TMC3    C2 5732   0.033   4.208  15.611 -0.4953 -0.6674 -0.2555
  380TMC3    C3 5733   0.015   4.279  15.497 -0.1866  0.8036 -0.0079
  380TMC3    C4 5734   4.530   4.153  15.599  0.3821 -0.6132  0.0453
  380TMC3    C5 5735   4.523   4.217  15.473  0.3417  0.2128 -0.2796
  380TMC3    C6 5736   4.632   4.285  15.426  0.1981  0.0097  0.3582
  380TMC3     C 5737   4.664   4.141  15.814 -0.0701  0.1732 -0.2959
  380TMC3     O 5738   0.025   4.199  15.866  0.0509  0.1713 -0.1806
  380TMC3     H 5739   0.121   4.201  15.673 -0.9289 -2.4669  0.1538
  380TMC3    H1 5740   4.445   4.132  15.663 -1.0359 -2.3469 -2.4456
  380TMC3    H2 5741   4.632   4.357  15.345 -0.3983 -0.1765  0.1900
  380TMC3    C7 5742   4.392   4.245  15.412 -0.1825 -0.2616 -0.7178
  380TMC3    C8 5743   0.123   4.371  15.443 -0.0771 -0.1142 -0.0774
  380TMC3    O1 5744   4.293   4.237  15.483 -0.1363 -0.2842  0.2819
  380TMC3    O2 5745   0.100   4.413  15.329 -0.4206 -0.3257  0.3634
  381TMC3    C1 5746   4.153   0.989  15.947 -0.3292 -0.0056 -0.2408
  381TMC3    C2 5747   4.282   1.038  15.961  0.3325  0.1778 -0.2567
  381TMC3    C3 5748   4.297   1.119  16.073 -0.2282  0.1677  0.2148
  381TMC3    C4 5749   4.054   0.991  16.037 -0.2456 -0.0571 -0.5455
  381TMC3    C5 5750   4.072   1.073  16.145  0.2205  0.7102 -0.1049
  381TMC3    C6 5751   4.199   1.145  16.163  0.1259  0.2281 -0.1941
  381TMC3     C 5752   4.118   0.920  15.828 -0.5183  0.0246 -0.2195
  381TMC3     O 5753   4.001   0.917  15.787  0.0230 -0.3168  0.0979
  381TMC3     H 5754   4.366   1.011  15.898  1.4605 -0.9385  1.7395
  381TMC3    H1 5755   3.958   0.950  16.007  0.2632 -0.5177 -1.5326
  381TMC3    H2 5756   4.214   1.206  16.251 -1.8479  0.4173  0.0082
  381TMC3    C7 5757   4.020   1.001  16.258  0.0390 -0.7209  0.3345
  381TMC3    C8 5758   4.420   1.201  16.080 -0.2005  0.3601  0.4399
  381TMC3    O1 5759   3.977   0.889  16.241  0.3776  0.1774  0.3977
  381TMC3    O2 5760   4.508   1.163  16.007  1.1698 -0.6771 -0.1140
  382MPD2     C 5761   3.980   3.398  17.243 -0.0624  0.0879  0.6765
  382MPD2    C1 5762   3.841   3.381  17.219 -0.1056 -0.0617 -0.3990
  382MPD2    C2 5763   3.785   3.254  17.240  0.4216  0.1291  0.2564
  382MPD2    C3 5764   3.869   3.148  17.277  0.2947 -0.1835  0.7487
  382MPD2    C4 5765   4.003   3.165  17.294  0.0653 -0.1750  0.3533
  382MPD2    C5 5766   4.062   3.294  17.288  0.4185  0.0393 -0.0806
  382MPD2     H 5767   3.681   3.238  17.217  0.8405  0.3960 -1.8609
  382MPD2    H1 5768   4.067   3.084  17.324  0.6540  1.2174  2.8369
  382MPD2    H2 5769   4.013   3.501  17.248  1.7676 -0.5631  2.1688
  382MPD2    H3 5770   4.164   3.308  17.320  0.2734  0.0903  0.3594
  382MPD2     N 5771   3.822   3.017  17.313 -0.4462  0.0093  0.0948
  382MPD2    H5 5772   3.889   2.949  17.347 -0.5064 -0.6411 -1.0856
  382MPD2    N1 5773   3.755   3.489  17.186 -0.2212 -0.0855  0.5538
  382MPD2    H7 5774   3.657   3.465  17.175 -0.7586  0.5177  4.0805
  383TMC3    C1 5775   3.682   2.825  17.312 -1.0416  0.5707 -0.7150
  383TMC3    C2 5776   3.561   2.764  17.275  0.1712 -0.6272  0.2606
  383TMC3    C3 5777   3.536   2.632  17.295  0.4137  0.2680  0.1616
  383TMC3    C4 5778   3.785   2.745  17.345  0.3696 -0.3362  0.4952
  383TMC3    C5 5779   3.751   2.611  17.359  0.6146  0.3308 -0.1367
  383TMC3    C6 5780   3.632   2.553  17.341 -0.2015  0.3197  0.4215
  383TMC3     C 5781   3.697   2.968  17.283  0.2607  0.0568 -0.5093
  383TMC3     O 5782   3.599   3.036  17.253  0.1442 -0.0009 -0.2299
  383TMC3     H 5783   3.489   2.824  17.219  1.8764  1.9746  0.8487
  383TMC3    H1 5784   3.889   2.771  17.358  0.7678 -0.8485 -1.6402
  383TMC3    H2 5785   3.619   2.447  17.359 -0.5852  0.3347  0.2266
  383TMC3    C7 5786   3.839   2.518  17.423  0.5012  0.0247  0.8639
  383TMC3    C8 5787   3.410   2.587  17.244  0.7266  0.1658 -0.4449
  383TMC3    O1 5788   3.822   2.397  17.417  0.2278 -0.4417  0.2172
  383TMC3    O2 5789   3.319   2.668  17.236 -0.0697  0.2468  0.3611
  384MPD2     C 5790   0.563   4.557  12.302 -1.1944 -0.1807  0.6129
  384MPD2    C1 5791   0.601   4.511  12.424 -0.6152 -0.3976 -0.0054
  384MPD2    C2 5792   0.682   4.405  12.441 -0.3619  0.4497  0.0414
  384MPD2    C3 5793   0.744   4.345  12.331  0.0431  0.1107  0.2427
  384MPD2    C4 5794   0.704   4.384  12.199 -0.3926  0.1416  1.0802
  384MPD2    C5 5795   0.619   4.495  12.192  0.1627 -0.6534 -0.3449
  384MPD2     H 5796   0.711   4.372  12.540 -1.1950  1.5236  0.6458
  384MPD2    H1 5797   0.737   4.341  12.105 -1.5262  3.9463 -1.0841
  384MPD2    H2 5798   0.500   4.642  12.280  1.4888  1.7372  0.4166
  384MPD2    H3 5799   0.586   4.527  12.094  2.2827  2.5237 -0.0184
  384MPD2     N 5800   0.825   4.234  12.360 -0.0973  0.0270 -0.4603
  384MPD2    H5 5801   0.844   4.221  12.459 -0.0014 -0.5553 -0.5598
  384MPD2    N1 5802   0.540   4.556  12.545  0.8073 -0.0046 -0.1970
  384MPD2    H7 5803   0.576   4.509  12.627 -0.2432 -1.3364 -0.5059
  385TMC3    C1 5804   0.994   4.077  12.323 -0.1476  0.1537 -0.1296
  385TMC3    C2 5805   0.981   3.943  12.281  0.1261  0.7002 -0.2036
  385TMC3    C3 5806   0.968   3.845  12.378 -0.3318 -0.1292 -0.9664
  385TMC3    C4 5807   1.003   4.111  12.457 -0.7624  0.3240 -0.3515
  385TMC3    C5 5808   0.982   4.009  12.546  0.0275 -0.2452  0.1649
  385TMC3    C6 5809   0.974   3.875  12.509  0.3406  0.0928  0.5779
  385TMC3     C 5810   0.902   4.175  12.262 -0.3449  0.3003 -1.0930
  385TMC3     O 5811   0.914   4.194  12.139  0.9082 -0.4709 -0.3677
  385TMC3     H 5812   0.977   3.921  12.175 -0.5818  0.3023 -0.0932
  385TMC3    H1 5813   1.031   4.211  12.488  0.0106  0.9270 -2.9654
  385TMC3    H2 5814   0.968   3.805  12.592 -0.9022 -0.5284 -0.0316
  385TMC3    C7 5815   0.904   4.048  12.660  0.5643 -0.1026  0.2130
  385TMC3    C8 5816   0.997   3.702  12.354  0.0311  0.2649 -0.1099
  385TMC3    O1 5817   0.907   4.169  12.667  0.0375  0.8932  0.1645
  385TMC3    O2 5818   1.006   3.636  12.459  0.5876 -0.6668 -0.2000
  386TMC3    C1 5819   1.318   1.233  11.593  0.2330  0.0282 -0.0172
  386TMC3    C2 5820   1.319   1.313  11.479  0.0937 -0.1070  0.8598
  386TMC3    C3 5821   1.207   1.372  11.448  0.2325  0.2766  0.6680
  386TMC3    C4 5822   1.212   1.235  11.680 -0.7465  0.0506  0.5397
  386TMC3    C5 5823   1.097   1.303  11.647 -0.0190  0.6473  0.7038
  386TMC3    C6 5824   1.091   1.362  11.524  0.1029 -0.0809 -0.2941
  386TMC3     C 5825   1.442   1.164  11.629  0.7209 -0.1165  0.3155
  386TMC3     O 5826   1.536   1.190  11.556 -0.6335 -0.0136  0.2342
  386TMC3     H 5827   1.409   1.328  11.421 -0.9269  0.3485 -0.5970
  386TMC3    H1 5828   1.222   1.180  11.773  1.3324 -0.6802 -0.1185
  386TMC3    H2 5829   1.000   1.406  11.484  0.0847  0.7308  0.6408
  386TMC3    C7 5830   1.019   1.355  11.748  0.7092  0.5628  0.0568
  386TMC3    C8 5831   1.178   1.410  11.310  0.0157  0.5328  0.4947
  386TMC3    O1 5832   1.067   1.380  11.858  0.1327  0.3322  0.7710
  386TMC3    O2 5833   1.075   1.471  11.291 -0.6574  0.2780  0.2065
  387MPD2     C 5834   3.326   2.148  10.223  0.0636  0.1309  0.5074
  387MPD2    C1 5835   3.432   2.094  10.304 -0.2696  0.5910  0.1367
  387MPD2    C2 5836   3.450   1.956  10.310  0.0554  0.2423  0.6949
  387MPD2    C3 5837   3.374   1.870  10.240  0.0723 -0.6243 -0.7122
  387MPD2    C4 5838   3.267   1.923  10.162 -0.0808 -0.2686 -0.6944
  387MPD2    C5 5839   3.245   2.059  10.157 -0.2448  0.6413 -0.0322
  387MPD2     H 5840   3.529   1.921  10.375  2.3072  2.3926 -0.9047
  387MPD2    H1 5841   3.199   1.864  10.101 -1.4259  0.6146 -0.0631
  387MPD2    H2 5842   3.312   2.248  10.182  0.8672 -0.1588 -0.4884
  387MPD2    H3 5843   3.167   2.094  10.089 -2.0526 -2.2398  0.5199
  387MPD2     N 5844   3.419   1.737  10.225 -1.0690 -0.7329 -0.3382
  387MPD2    H5 5845   3.495   1.714  10.288 -0.6098 -0.6131 -0.8483
  387MPD2    N1 5846   3.528   2.180  10.357  0.8248  0.0539 -0.0008
  387MPD2    H7 5847   3.604   2.144  10.413  1.1486  3.3580  1.6438
  388TMC3    C1 5848   3.674   2.354  10.336 -0.4570  0.5543  0.6875
  388TMC3    C2 5849   3.700   2.488  10.312 -0.2803 -0.1693  0.2112
  388TMC3    C3 5850   3.827   2.515  10.271 -0.6273 -0.5587 -0.7844
  388TMC3    C4 5851   3.771   2.257  10.304  0.5537 -0.3830  0.7919
  388TMC3    C5 5852   3.899   2.295  10.268  0.1588  0.2224 -0.4769
  388TMC3    C6 5853   3.931   2.427  10.267  0.2950 -0.1638 -0.4826
  388TMC3     C 5854   3.538   2.311  10.321  0.9632 -0.4444  0.8105
  388TMC3     O 5855   3.460   2.387  10.263  0.1676 -0.2576 -0.0377
  388TMC3     H 5856   3.623   2.563  10.296  1.7435  1.7622 -0.3306
  388TMC3    H1 5857   3.749   2.152  10.321  2.5159 -0.9028  0.0515
  388TMC3    H2 5858   4.021   2.464  10.219  0.1147 -2.0909 -2.3094
  388TMC3    C7 5859   3.991   2.198  10.227  0.3700 -0.0685  0.3153
  388TMC3    C8 5860   3.849   2.651  10.221  0.7187 -0.3410  0.0832
  388TMC3    O1 5861   4.082   2.234  10.156  0.2154 -0.1903  0.0570
  388TMC3    O2 5862   3.959   2.702  10.243  0.0362  0.2386  0.0105
  389MPD2     C 5863   2.922   4.571  11.282  0.2367  0.4297 -0.8557
  389MPD2    C1 5864   2.843   4.550  11.170  0.4534  0.6791  0.3437
  389MPD2    C2 5865   2.713   4.500  11.190 -0.9020  0.0406 -0.4388
  389MPD2    C3 5866   2.664   4.471  11.318  0.5264 -0.1572 -0.0609
  389MPD2    C4 5867   2.748   4.490  11.428  0.2857 -0.0864  0.4963
  389MPD2    C5 5868   2.871   4.538  11.410 -0.2535 -1.6521  0.1248
  389MPD2     H 5869   2.647   4.485  11.105 -0.4495  0.2362 -0.8224
  389MPD2    H1 5870   2.712   4.464  11.527  0.3947  0.9922  0.8214
  389MPD2    H2 5871   3.024   4.604  11.272  0.7560 -1.0603 -0.5656
  389MPD2    H3 5872   2.934   4.536  11.499 -1.6979 -0.3515  1.1674
  389MPD2     N 5873   2.532   4.430  11.342  0.2754 -0.2735  0.0139
  389MPD2    H5 5874   2.493   4.427  11.436  2.1339  2.3244  0.8576
  389MPD2    N1 5875   2.904   4.582  11.047  0.0495 -0.4271  0.2260
  389MPD2    H7 5876   2.993   4.633  11.043  0.0179 -0.3425  0.5640
  390TMC3    C1 5877   2.306   4.391  11.291  0.6946 -0.6885 -0.2133
  390TMC3    C2 5878   2.270   4.477  11.391 -0.0501  0.0376  1.1917
  390TMC3    C3 5879   2.139   4.515  11.412  0.4803  0.0461  0.6932
  390TMC3    C4 5880   2.214   4.346  11.201 -0.0399  0.2380 -0.1349
  390TMC3    C5 5881   2.082   4.387  11.213  0.4020 -0.9770  0.4163
  390TMC3    C6 5882   2.048   4.476  11.311 -0.1876 -0.3394  1.3323
  390TMC3     C 5883   2.443   4.386  11.248 -0.0846 -0.0660 -0.0257
  390TMC3     O 5884   2.460   4.347  11.136  0.0417 -0.2029  0.2307
  390TMC3     H 5885   2.343   4.516  11.462  2.8311  0.1272 -1.7885
  390TMC3    H1 5886   2.249   4.281  11.121  2.1827  1.0628  0.1517
  390TMC3    H2 5887   1.947   4.515  11.318 -0.1079 -0.0264  0.7705
  390TMC3    C7 5888   1.982   4.300  11.166 -0.3569 -0.3116  0.1467
  390TMC3    C8 5889   2.094   4.461  11.539 -0.0435  0.5532  0.2235
  390TMC3    O1 5890   2.013   4.247  11.061  0.3980 -0.3318 -0.2041
  390TMC3    O2 5891   2.018   4.531  11.605 -0.6247 -0.3799  0.0038
  391MPD2     C 5892   1.664   1.554  11.423 -0.6085 -0.0576  0.4141
  391MPD2    C1 5893   1.797   1.577  11.427 -0.3586  0.5959 -0.2834
  391MPD2    C2 5894   1.863   1.587  11.305 -0.5064 -0.4509  0.0292
  391MPD2    C3 5895   1.801   1.579  11.180 -0.3659  0.2512  0.5044
  391MPD2    C4 5896   1.660   1.548  11.190  0.4821 -0.0917 -0.2657
  391MPD2    C5 5897   1.594   1.543  11.310  0.2133 -0.1692  0.5016
  391MPD2     H 5898   1.967   1.616  11.298 -1.0361  1.2313 -1.1492
  391MPD2    H1 5899   1.593   1.537  11.106 -2.9199 -0.3495  2.5035
  391MPD2    H2 5900   1.604   1.553  11.513 -0.0367 -3.1524  0.7327
  391MPD2    H3 5901   1.486   1.536  11.302  0.4124 -1.7955 -0.6848
  391MPD2     N 5902   1.871   1.595  11.054  0.5156  0.4446 -0.0833
  391MPD2    H5 5903   1.969   1.617  11.065  1.1705 -1.1845 -2.4580
  391MPD2    N1 5904   1.856   1.599  11.551 -0.2943  0.4306 -0.1452
  391MPD2    H7 5905   1.790   1.589  11.628 -0.5531  0.0393 -0.4133
  392TMC3    C1 5906   1.922   1.619  10.827 -0.4726  0.0307 -0.2262
  392TMC3    C2 5907   1.884   1.589  10.700  0.2087  0.0131 -0.0610
  392TMC3    C3 5908   1.972   1.613  10.602  0.6889  0.0835  0.3865
  392TMC3    C4 5909   2.038   1.690  10.856  0.0373 -0.3112  0.0486
  392TMC3    C5 5910   2.118   1.730  10.751  0.3522 -0.2625  0.5952
  392TMC3    C6 5911   2.085   1.685  10.623  0.0934  0.1804 -0.6109
  392TMC3     C 5912   1.816   1.588  10.929 -0.0363 -0.7272 -0.7272
  392TMC3     O 5913   1.699   1.582  10.895  0.0641 -0.4648  0.3602
  392TMC3     H 5914   1.803   1.520  10.678  1.7806 -1.0583 -2.4538
  392TMC3    H1 5915   2.050   1.728  10.957 -0.9939 -1.1782  0.4892
  392TMC3    H2 5916   2.149   1.712  10.540  0.9390 -1.4957 -0.5080
  392TMC3    C7 5917   2.235   1.814  10.784 -0.2684  0.4482  0.7081
  392TMC3    C8 5918   1.912   1.616  10.470  0.2377  0.1787 -0.3280
  392TMC3    O1 5919   2.234   1.872  10.892  0.5043 -0.0594  0.1881
  392TMC3    O2 5920   1.790   1.624  10.464 -0.1947 -0.2089 -0.4486
  393TMC3    C1 5921   1.548   4.372  10.416  0.2899  0.5770 -0.2538
  393TMC3    C2 5922   1.458   4.392  10.514 -0.3339  0.4785 -0.2088
  393TMC3    C3 5923   1.395   4.284  10.575  0.2051 -1.1106  0.0128
  393TMC3    C4 5924   1.582   4.251  10.368  0.4142  0.1753 -0.1969
  393TMC3    C5 5925   1.510   4.147  10.416  0.0584 -0.6028  0.2369
  393TMC3    C6 5926   1.425   4.160  10.519  0.2097  0.0192 -0.7958
  393TMC3     C 5927   1.583   4.483  10.332 -0.0746 -0.1263 -0.6306
  393TMC3     O 5928   1.690   4.476  10.272  0.5255  0.2149 -0.2360
  393TMC3     H 5929   1.454   4.492  10.554  2.4301  0.2902  0.5741
  393TMC3    H1 5930   1.654   4.250  10.287 -0.2468  0.1491 -0.7908
  393TMC3    H2 5931   1.386   4.075  10.574  2.3694 -0.9146 -0.6987
  393TMC3    C7 5932   1.537   4.028  10.361  0.7453 -0.8742  0.8688
  393TMC3    C8 5933   1.303   4.302  10.687  0.2140 -0.0466 -0.0354
  393TMC3    O1 5934   1.435   3.965  10.336  0.3014  0.4114 -0.3263
  393TMC3    O2 5935   1.212   4.219  10.701  0.0165 -0.3281 -0.5536
  394TMC3    C1 5936   2.921   4.646  10.826  0.4375  0.9330 -0.3824
  394TMC3    C2 5937   2.860   4.638  10.710  0.2589  0.0070 -0.5517
  394TMC3    C3 5938   2.887   4.730  10.610  0.9172  0.1163 -0.5625
  394TMC3    C4 5939   3.019   0.006  10.847  0.8298 -0.0229  0.6771
  394TMC3    C5 5940   3.058   0.084  10.744 -0.6614 -0.0059 -0.0465
  394TMC3    C6 5941   2.991   0.088  10.627  0.5009  0.0795  0.1741
  394TMC3     C 5942   2.837   4.589  10.929 -0.3217  0.0918 -0.0882
  394TMC3     O 5943   2.740   4.522  10.901  0.4122 -0.5209 -0.5181
  394TMC3     H 5944   2.770   4.580  10.694 -0.1202  0.2257  0.8500
  394TMC3    H1 5945   3.074   0.019  10.940 -0.6020  2.8760  1.1115
  394TMC3    H2 5946   3.013   0.157  10.546  1.7953  1.6870  1.8841
  394TMC3    C7 5947   3.161   0.181  10.782 -0.7573  0.6614  0.6851
  394TMC3    C8 5948   2.844   4.707  10.471 -0.0803  0.2759 -0.1560
  394TMC3    O1 5949   3.230   0.154  10.878 -0.7867 -0.5909 -0.2590
  394TMC3    O2 5950   2.845   0.057  10.382 -0.2665  0.3192 -0.7850
  395TMC3    C1 5951   2.682   1.934  15.110  0.3697 -0.0352  0.1980
  395TMC3    C2 5952   2.611   1.963  14.992  0.6378 -0.5223 -0.2826
  395TMC3    C3 5953   2.675   2.012  14.883  0.4906 -0.3368 -0.0906
  395TMC3    C4 5954   2.809   1.980  15.115 -0.1392  0.3359  0.2846
  395TMC3    C5 5955   2.871   2.042  15.008  0.9933  0.0167  0.1568
  395TMC3    C6 5956   2.807   2.048  14.884 -0.4739 -0.0517  0.1997
  395TMC3     C 5957   2.606   1.917  15.235  0.1751  0.2755  0.0547
  395TMC3     O 5958   2.484   1.905  15.224  0.2202  0.2959  0.2000
  395TMC3     H 5959   2.504   1.968  15.007  0.6498 -1.6248  0.1189
  395TMC3    H1 5960   2.867   1.979  15.207  1.5657  0.8282 -0.8010
  395TMC3    H2 5961   2.849   2.106  14.803  1.3826  2.2088  2.7485
  395TMC3    C7 5962   2.992   2.116  15.026  0.0391 -0.2933  0.1912
  395TMC3    C8 5963   2.604   2.031  14.761  0.8702  0.1328 -0.0151
  395TMC3    O1 5964   3.021   2.168  15.130  0.4460 -0.6149 -0.0907
  395TMC3    O2 5965   2.632   2.120  14.684  0.0024  0.1566  0.0249
  396MPD2     C 5966   1.522   3.166  16.969 -0.1740  0.3245 -0.8756
  396MPD2    C1 5967   1.654   3.177  17.018 -0.3602  0.3932  0.0264
  396MPD2    C2 5968   1.734   3.262  16.945 -0.0774  0.9647 -0.0661
  396MPD2    C3 5969   1.689   3.345  16.837  0.0807  0.0794  0.2324
  396MPD2    C4 5970   1.558   3.322  16.788 -0.5342  1.1868  0.7058
  396MPD2    C5 5971   1.481   3.227  16.852  0.0093  0.3130  0.7420
  396MPD2     H 5972   1.840   3.252  16.970 -0.0609 -1.4273 -1.0564
  396MPD2    H1 5973   1.504   3.371  16.708  1.4206  0.2896 -1.1806
  396MPD2    H2 5974   1.450   3.115  17.032  0.1068  2.3876  1.1335
  396MPD2    H3 5975   1.381   3.222  16.812  0.5306 -2.0478 -0.2826
  396MPD2     N 5976   1.772   3.432  16.769 -0.0234 -0.1192 -0.1070
  396MPD2    H5 5977   1.867   3.441  16.803  0.1770 -1.9581 -0.1627
  396MPD2    N1 5978   1.694   3.108  17.137  0.0704 -0.0381 -0.0087
  396MPD2    H7 5979   1.618   3.049  17.168  1.3488 -0.6265  2.0340
  397TMC3    C1 5980   1.821   3.031  17.316  0.1963 -0.3891 -0.2238
  397TMC3    C2 5981   1.917   2.936  17.316 -0.6346  0.0258 -0.1828
  397TMC3    C3 5982   1.898   2.806  17.368  0.5824  0.1680  0.1569
  397TMC3    C4 5983   1.701   2.994  17.369  0.0571  0.3636 -0.1849
  397TMC3    C5 5984   1.691   2.877  17.434  1.0127 -0.2978  0.5319
  397TMC3    C6 5985   1.784   2.779  17.437  0.2489  0.4231  0.0996
  397TMC3     C 5986   1.816   3.112  17.195 -0.0654 -0.0653 -0.7218
  397TMC3     O 5987   1.924   3.154  17.160 -0.0803 -0.4580 -0.3858
  397TMC3     H 5988   2.004   2.945  17.251 -2.3015  0.9732 -2.2665
  397TMC3    H1 5989   1.619   3.065  17.372  1.4431  1.9940 -0.2602
  397TMC3    H2 5990   1.756   2.679  17.467  0.1862  1.7100  4.2526
  397TMC3    C7 5991   1.563   2.841  17.507  0.0676 -0.3043 -0.1754
  397TMC3    C8 5992   2.003   2.711  17.384  0.0931  0.1559  0.0386
  397TMC3    O1 5993   1.454   2.891  17.468 -0.4913  0.8025  0.1497
  397TMC3    O2 5994   2.107   2.746  17.437  0.1637  0.6399 -0.1089
  398MPD2     C 5995   4.628   4.428   0.065 -0.0874 -0.4608  0.4746
  398MPD2    C1 5996   4.705   4.362   0.165 -0.0100  0.2937  0.2414
  398MPD2    C2 5997   0.075   4.424   0.230 -0.5469 -0.7390 -0.2581
  398MPD2    C3 5998   0.116   4.547   0.186 -0.7313  0.1518  0.3328
  398MPD2    C4 5999   0.044   4.612   0.085  0.1254 -0.0252 -0.4090
  398MPD2    C5 6000   4.663   4.557   0.033  0.0121 -0.4305  0.6770
  398MPD2     H 6001   0.137   4.367   0.298  0.6413  0.6766 -0.1556
  398MPD2    H1 6002   0.075   4.711   0.054  2.9359 -0.9741 -0.6278
  398MPD2    H2 6003   4.542   4.380   0.021 -0.4309  0.5165  0.0850
  398MPD2    H3 6004   4.608   4.607  17.688 -0.3531 -0.0002  1.2003
  398MPD2     N 6005   0.236   4.594   0.239 -0.6288 -0.5643  0.1307
  398MPD2    H5 6006   0.287   4.536   0.305 -0.0799 -0.5226 -0.2642
  398MPD2    N1 6007   4.685   4.222   0.190 -0.0541 -0.3927  0.2229
  398MPD2    H7 6008   0.023   4.185   0.250  0.8136  0.0151 -0.5655
  399TMC3    C1 6009   4.591   4.005   0.191 -0.2282  0.6425 -0.1062
  399TMC3    C2 6010   4.706   3.957   0.256 -0.4404  0.4114  1.3720
  399TMC3    C3 6011   0.030   3.840   0.229 -0.3983 -0.9474  0.1394
  399TMC3    C4 6012   4.535   3.921   0.098  0.3420 -0.0365 -0.2979
  399TMC3    C5 6013   4.599   3.801   0.078  0.3281 -0.1083  0.0216
  399TMC3    C6 6014   4.701   3.757   0.147 -0.1661  0.1574  0.5166
  399TMC3     C 6015   4.571   4.146   0.162 -0.6462 -0.5077  0.6926
  399TMC3     O 6016   4.462   4.168   0.112 -0.0350  0.1351 -0.2207
  399TMC3     H 6017   0.021   4.021   0.329 -1.2250  1.0553  1.3387
  399TMC3    H1 6018   4.459   3.964   0.034  0.8364  0.8477 -0.2767
  399TMC3    H2 6019   0.004   3.658   0.122 -0.9743 -0.2013  0.7556
  399TMC3    C7 6020   4.544   3.714  17.713  0.0870  0.2940 -0.9483
  399TMC3    C8 6021   0.155   3.816   0.293 -0.1270 -0.6057  0.0215
  399TMC3    O1 6022   4.626   3.641  17.659 -0.0817 -0.6453  0.1834
  399TMC3    O2 6023   0.205   3.904   0.357 -0.3193  0.0739  0.3365
  400TMC3    C1 6024   3.133   2.339  16.732  0.0166 -0.1365  0.7441
  400TMC3    C2 6025   3.034   2.250  16.730 -0.3803 -0.3003  0.4041
  400TMC3    C3 6026   2.908   2.281  16.677 -0.2570  0.1521 -0.0354
  400TMC3    C4 6027   3.119   2.458  16.668  1.1090  0.6869  0.3106
  400TMC3    C5 6028   2.993   2.479  16.614  0.1596  0.1730 -0.0440
  400TMC3    C6 6029   2.881   2.407  16.631 -0.0349 -0.4951 -0.3869
  400TMC3     C 6030   3.250   2.326  16.829 -0.0219  0.5179  0.1787
  400TMC3     O 6031   3.267   2.216  16.874 -0.0566  0.0086  0.1112
  400TMC3     H 6032   3.051   2.152  16.772  1.3066  0.0951  0.6735
  400TMC3    H1 6033   3.195   2.531  16.644  1.7241 -0.0654 -0.0020
  400TMC3    H2 6034   2.792   2.450  16.587  1.1670  0.9746 -1.3980
  400TMC3    C7 6035   2.971   2.615  16.585  0.0753 -0.1391 -0.0577
  400TMC3    C8 6036   2.811   2.214  16.762 -0.5089  0.8264  0.9500
  400TMC3    O1 6037   2.928   2.656  16.478  0.1590  0.1056 -0.4963
  400TMC3    O2 6038   2.842   2.172  16.877 -0.3252  0.3249  0.3298
  401MPD2     C 6039   1.353   1.147   0.928  0.5659 -0.3332 -0.0087
  401MPD2    C1 6040   1.454   1.085   1.008  0.1769 -0.2243 -0.3435
  401MPD2    C2 6041   1.466   0.943   1.007 -0.3834 -0.8837  0.4858
  401MPD2    C3 6042   1.380   0.872   0.923  0.2836  0.7728  0.3478
  401MPD2    C4 6043   1.287   0.937   0.844 -0.4435  0.8688  0.1770
  401MPD2    C5 6044   1.270   1.072   0.846 -0.3997 -0.9786  1.0282
  401MPD2     H 6045   1.552   0.893   1.049 -1.4811 -2.8683  0.3965
  401MPD2    H1 6046   1.221   0.884   0.776  0.9284  0.3364 -0.7304
  401MPD2    H2 6047   1.349   1.255   0.921  1.5380 -0.4239 -2.0167
  401MPD2    H3 6048   1.186   1.115   0.792 -0.4627 -0.8615  1.2185
  401MPD2     N 6049   1.398   0.731   0.924 -0.1849  0.1176 -0.4722
  401MPD2    H5 6050   1.449   0.685   0.999 -0.3502  0.3952 -0.1913
  401MPD2    N1 6051   1.543   1.162   1.084 -0.0442 -0.3133 -0.3174
  401MPD2    H7 6052   1.615   1.105   1.125 -1.1694 -1.7948 -0.3955
  402TMC3    C1 6053   1.422   0.518   0.829 -0.3204  0.2540  0.1651
  402TMC3    C2 6054   1.411   0.449   0.949  0.1673  0.3263  0.4808
  402TMC3    C3 6055   1.469   0.318   0.954  0.2481 -0.7090 -0.2253
  402TMC3    C4 6056   1.481   0.458   0.717 -0.5492 -0.3090  0.2824
  402TMC3    C5 6057   1.528   0.334   0.728 -0.0076  0.1049  0.4829
  402TMC3    C6 6058   1.524   0.256   0.847  0.9150 -0.1119 -0.5610
  402TMC3     C 6059   1.364   0.657   0.813  0.2198 -0.5587 -0.4951
  402TMC3     O 6060   1.328   0.693   0.703 -0.3482  0.0206  0.3165
  402TMC3     H 6061   1.367   0.491   1.039  2.0469  0.8897  1.1384
  402TMC3    H1 6062   1.481   0.513   0.624 -0.3739  0.8391  0.9657
  402TMC3    H2 6063   1.547   0.150   0.854  0.7482 -0.2366 -1.9376
  402TMC3    C7 6064   1.595   0.270   0.622  0.6993 -0.5938 -0.3046
  402TMC3    C8 6065   1.513   0.255   1.078  0.3016 -0.1269 -0.7556
  402TMC3    O1 6066   1.559   0.276   0.508  0.3591 -0.3590  0.0089
  402TMC3    O2 6067   1.533   0.134   1.083 -0.1559  0.0515 -0.0237
  403MPD2     C 6068   0.320   3.725  13.075 -0.0419  0.0392  0.0761
  403MPD2    C1 6069   0.269   3.793  13.179  0.0357  0.7886  0.3780
  403MPD2    C2 6070   0.342   3.793  13.298 -0.1608 -0.2510  0.3981
  403MPD2    C3 6071   0.453   3.710  13.308 -0.6711 -0.4058  0.0421
  403MPD2    C4 6072   0.476   3.612  13.208  1.4488 -0.4317 -0.1088
  403MPD2    C5 6073   0.423   3.631  13.089 -0.1797 -0.1471 -0.2718
  403MPD2     H 6074   0.312   3.851  13.385 -2.0588 -2.5947  1.2912
  403MPD2    H1 6075   0.550   3.534  13.219  0.6124 -1.5721 -2.5969
  403MPD2    H2 6076   0.290   3.724  12.971  1.6721  2.1942 -0.4352
  403MPD2    H3 6077   0.461   3.584  12.999 -1.7939 -1.3145 -0.3380
  403MPD2     N 6078   0.533   3.717  13.426 -0.2251  0.4050 -0.1916
  403MPD2    H5 6079   0.500   3.778  13.501 -1.5487 -0.6409  0.0666
  403MPD2    N1 6080   0.153   3.864  13.165 -0.1026  0.1810  0.0502
  403MPD2    H7 6081   0.100   3.845  13.080  0.4751  2.3085 -0.7830
  404TMC3    C1 6082   4.684   3.946  13.222 -0.4465  0.1311  0.7051
  404TMC3    C2 6083   4.598   3.869  13.297  0.6555  0.3285  0.3016
  404TMC3    C3 6084   4.502   3.799  13.224 -0.6426  0.6997 -0.5115
  404TMC3    C4 6085   4.677   3.962  13.082 -0.4914  0.1669  0.4697
  404TMC3    C5 6086   4.581   3.882  13.019 -0.7313  0.3452  0.1143
  404TMC3    C6 6087   4.491   3.809  13.091 -0.8378 -0.0020  0.4983
  404TMC3     C 6088   0.087   3.928  13.269  0.0416  0.6216 -0.1829
  404TMC3     O 6089   0.095   3.924  13.390  0.2024 -0.4068 -0.3212
  404TMC3     H 6090   4.614   3.851  13.402  1.3467  0.2060  0.1782
  404TMC3    H1 6091   4.729   4.040  13.029  0.3296 -0.3435  0.5295
  404TMC3    H2 6092   4.426   3.736  13.045 -1.0478 -0.1084  0.9646
  404TMC3    C7 6093   4.556   3.908  12.878 -0.1669  0.1460 -0.2472
  404TMC3    C8 6094   4.508   3.663  13.273 -0.1331 -1.2726 -0.9351
  404TMC3    O1 6095   4.632   3.991  12.829 -0.4671 -0.2548 -0.1626
  404TMC3    O2 6096   4.550   3.581  13.192 -0.1255  0.2534  0.0455
  405MPD2     C 6097   0.565   0.148  14.386 -0.0592  0.2629  0.2263
  405MPD2    C1 6098   0.542   0.024  14.338 -0.6298  0.3610 -0.5144
  405MPD2    C2 6099   0.433   0.014  14.253 -0.4028  0.2931 -0.4078
  405MPD2    C3 6100   0.357   0.118  14.203 -0.0471  0.2202 -0.6101
  405MPD2    C4 6101   0.394   0.241  14.248  0.1384 -0.2953 -0.1116
  405MPD2    C5 6102   0.497   0.259  14.340  0.2289  0.4210  0.0892
  405MPD2     H 6103   0.397   4.651  14.223  1.7062 -0.9534  1.1070
  405MPD2    H1 6104   0.336   0.328  14.219  2.4118  1.2516 -0.0767
  405MPD2    H2 6105   0.639   0.153  14.464 -1.1142  0.7760  1.1960
  405MPD2    H3 6106   0.520   0.360  14.370 -0.9579  0.6513  0.2390
  405MPD2     N 6107   0.247   0.084  14.116 -0.2919  0.5413  0.3883
  405MPD2    H5 6108   0.237   4.718  14.101 -0.6377  0.5442  0.5961
  405MPD2    N1 6109   0.614   4.644  14.386  0.2436 -0.4364  0.1104
  405MPD2    H7 6110   0.676   4.666  14.463  0.3717  0.9347 -0.3838
  406TMC3    C1 6111   4.560   0.139  14.014 -0.5052  0.4759  0.6748
  406TMC3    C2 6112   4.539   0.012  14.062 -0.4422  0.1457  0.0089
  406TMC3    C3 6113   4.648   4.667  14.062 -0.1798 -0.1296  0.3611
  406TMC3    C4 6114   4.678   0.194  13.961 -0.0772 -0.0075  0.0411
  406TMC3    C5 6115   0.052   0.112  13.973  0.1388  0.0455  0.5669
  406TMC3    C6 6116   0.033   4.716  14.015 -0.0004  0.5245 -0.5066
  406TMC3     C 6117   4.440   0.218  14.015 -0.0593 -0.0731 -0.3876
  406TMC3     O 6118   4.445   0.324  13.952  0.4314  0.4586 -0.3109
  406TMC3     H 6119   4.438   4.716  14.089  0.1795 -1.1545  0.8817
  406TMC3    H1 6120   4.678   0.299  13.934  0.1870  0.2752  1.1353
  406TMC3    H2 6121   0.118   4.649  14.010 -0.1287  0.3496 -0.3396
  406TMC3    C7 6122   0.166   0.175  14.043 -0.5547  0.1515 -0.1674
  406TMC3    C8 6123   4.653   4.544  14.145 -0.3554 -0.2883 -0.2398
  406TMC3    O1 6124   0.152   0.298  14.053 -0.2503  0.2513 -0.3372
  406TMC3    O2 6125   4.552   4.537  14.216 -0.1367 -0.3012 -0.0030
  407MPD2     C 6126   2.920   1.538   9.745  0.5644  0.1632  0.1385
  407MPD2    C1 6127   3.025   1.570   9.829  0.6977 -0.2640  0.1874
  407MPD2    C2 6128   2.992   1.638   9.946  0.0695 -0.1419  0.7799
  407MPD2    C3 6129   2.871   1.667   9.987  0.1653  0.2980  0.3888
  407MPD2    C4 6130   2.761   1.630   9.906 -0.7098  0.3093 -0.3117
  407MPD2    C5 6131   2.790   1.569   9.785 -0.5917 -0.0801 -0.1984
  407MPD2     H 6132   3.078   1.679   9.998  0.0451  0.0993  0.6291
  407MPD2    H1 6133   2.662   1.666   9.932 -0.3600 -0.1119  1.6123
  407MPD2    H2 6134   2.942   1.489   9.651 -0.8402 -0.3130  0.0693
  407MPD2    H3 6135   2.708   1.544   9.719  0.7169  1.2752 -2.3291
  407MPD2     N 6136   2.849   1.744  10.106 -0.3685 -0.0599  0.4369
  407MPD2    H5 6137   2.762   1.798  10.105  0.4770  1.2960 -0.7452
  407MPD2    N1 6138   3.160   1.553   9.812  0.3245  0.0533 -0.3962
  407MPD2    H7 6139   3.209   1.576   9.898 -0.7453  1.1786 -0.0849
  408TMC3    C1 6140   3.374   1.508   9.707 -0.5057 -0.3988 -0.3213
  408TMC3    C2 6141   3.435   1.390   9.667  0.2314 -0.0697  0.2003
  408TMC3    C3 6142   3.573   1.385   9.681 -0.0748 -0.3860 -0.0534
  408TMC3    C4 6143   3.440   1.613   9.763  0.3817  0.6996  0.3149
  408TMC3    C5 6144   3.575   1.607   9.767 -0.8627 -0.4862  0.8518
  408TMC3    C6 6145   3.642   1.500   9.718  0.7855  0.5303 -0.1696
  408TMC3     C 6146   3.225   1.510   9.698  1.0507 -0.5095 -0.1831
  408TMC3     O 6147   3.177   1.483   9.588 -0.1354 -0.4659 -0.0129
  408TMC3     H 6148   3.372   1.314   9.622  1.3886 -0.7662 -0.2563
  408TMC3    H1 6149   3.378   1.697   9.792 -0.9072 -1.1108  2.8142
  408TMC3    H2 6150   3.750   1.511   9.707  1.0301  0.0340  1.7422
  408TMC3    C7 6151   3.658   1.718   9.821 -0.2960  0.3189 -0.4353
  408TMC3    C8 6152   3.636   1.256   9.677 -0.6752 -0.2339 -0.2558
  408TMC3    O1 6153   3.782   1.709   9.806 -0.1211  0.4306 -0.4223
  408TMC3    O2 6154   3.567   1.158   9.645 -0.2536  0.0648  0.0852
  409MPD2     C 6155   1.969   2.071  17.113  0.6501 -1.1273 -0.1720
  409MPD2    C1 6156   2.093   2.010  17.129  0.0215  0.4667  0.0637
  409MPD2    C2 6157   2.213   2.082  17.114  0.5996 -0.9196  0.0443
  409MPD2    C3 6158   2.205   2.218  17.078  0.3205 -0.0968  0.4049
  409MPD2    C4 6159   2.080   2.280  17.061  0.8519 -0.4342  0.2572
  409MPD2    C5 6160   1.965   2.204  17.074 -0.0457 -0.2708  0.3983
  409MPD2     H 6161   2.306   2.028  17.130  0.3515 -1.7088 -1.1941
  409MPD2    H1 6162   2.077   2.387  17.042  0.5570 -0.6371 -0.8394
  409MPD2    H2 6163   1.873   2.021  17.119  1.2026 -1.8396  2.8018
  409MPD2    H3 6164   1.865   2.245  17.065 -0.4198 -0.9166  1.6159
  409MPD2     N 6165   2.324   2.299  17.072 -0.3282 -0.7605  0.0256
  409MPD2    H5 6166   2.302   2.395  17.048  1.5154 -0.4682 -0.4979
  409MPD2    N1 6167   2.101   1.880  17.186 -0.1344  0.3769 -0.2582
  409MPD2    H7 6168   2.185   1.855  17.237 -0.2611  1.9999  0.7488
  410TMC3    C1 6169   2.540   2.371  17.032 -0.4245 -0.0703  0.2036
  410TMC3    C2 6170   2.674   2.374  17.075 -0.0147 -0.3445  0.6368
  410TMC3    C3 6171   2.749   2.471  17.013  0.1013 -0.7947  0.3562
  410TMC3    C4 6172   2.492   2.441  16.929 -0.3603 -0.3013 -0.1870
  410TMC3    C5 6173   2.571   2.532  16.866 -0.4617  0.8515  0.6623
  410TMC3    C6 6174   2.700   2.559  16.918  0.4295 -0.4135  0.3074
  410TMC3     C 6175   2.452   2.271  17.093 -0.5315 -0.0666 -0.1494
  410TMC3     O 6176   2.507   2.177  17.147 -0.1405  0.2277 -0.0566
  410TMC3     H 6177   2.707   2.309  17.155 -0.7587 -0.4323  0.8805
  410TMC3    H1 6178   2.397   2.412  16.885 -0.7108 -1.5186  1.3716
  410TMC3    H2 6179   2.774   2.628  16.882  0.2324 -0.5714 -0.3964
  410TMC3    C7 6180   2.534   2.588  16.729 -1.2892  0.5083  0.5966
  410TMC3    C8 6181   2.895   2.461  17.027  0.2839  0.1904  0.1708
  410TMC3    O1 6182   2.437   2.535  16.682 -0.2274 -0.2168  0.0032
  410TMC3    O2 6183   2.969   2.539  16.972 -0.3860 -0.9457  0.1293
  411MPD2     C 6184   2.918   2.612  14.781  0.0836 -0.5823 -0.6907
  411MPD2    C1 6185   2.817   2.681  14.726  0.2703 -0.5096  0.6202
  411MPD2    C2 6186   2.699   2.617  14.693  0.4218  0.1201  0.2899
  411MPD2    C3 6187   2.693   2.476  14.707 -0.3869  0.1735  0.2064
  411MPD2    C4 6188   2.789   2.408  14.777 -0.4814 -0.2783 -0.4802
  411MPD2    C5 6189   2.905   2.477  14.805 -0.2335  0.3770 -0.4886
  411MPD2     H 6190   2.612   2.675  14.664  0.8717  0.3044 -0.6929
  411MPD2    H1 6191   2.783   2.301  14.795  0.7152 -0.1940  0.3927
  411MPD2    H2 6192   3.014   2.650  14.812 -0.8959  1.4151 -0.0978
  411MPD2    H3 6193   2.985   2.421  14.851  0.8878  1.3962 -1.1805
  411MPD2     N 6194   2.578   2.407  14.676  0.0444 -0.5771  0.4194
  411MPD2    H5 6195   2.592   2.307  14.672 -1.2817 -0.7637  0.7149
  411MPD2    N1 6196   2.827   2.822  14.701  0.2459 -0.2222 -0.5973
  411MPD2    H7 6197   2.914   2.866  14.732  0.3094 -1.2914  0.7298
  412TMC3    C1 6198   2.392   2.364  14.556 -0.0301 -0.4389  0.2391
  412TMC3    C2 6199   2.255   2.351  14.564 -0.4065  0.3367  0.7394
  412TMC3    C3 6200   2.186   2.344  14.445 -0.3731  0.4638 -0.1043
  412TMC3    C4 6201   2.461   2.355  14.439  0.1880  0.1637  0.2432
  412TMC3    C5 6202   2.394   2.350  14.329  0.1144 -0.5650 -0.3069
  412TMC3    C6 6203   2.255   2.336  14.327 -0.1864  0.5623  0.0012
  412TMC3     C 6204   2.453   2.458  14.648  0.0108  0.4806 -0.6386
  412TMC3     O 6205   2.400   2.564  14.671  0.1041  0.4224  0.4227
  412TMC3     H 6206   2.199   2.372  14.654  0.0453  0.6936  0.9364
  412TMC3    H1 6207   2.566   2.380  14.436  0.2885 -0.5042 -2.0333
  412TMC3    H2 6208   2.200   2.311  14.237  0.4370 -1.2316  0.1136
  412TMC3    C7 6209   2.444   2.397  14.207  0.4370  0.5202  0.1120
  412TMC3    C8 6210   2.049   2.389  14.453  0.3172  0.0562  0.2423
  412TMC3    O1 6211   2.386   2.350  14.110  0.2432  0.0610  0.0839
  412TMC3    O2 6212   1.982   2.354  14.553  0.4615  0.1437 -0.1131
  413MPD2     C 6213   4.076   1.249  15.676 -0.2430  0.2699  0.0789
  413MPD2    C1 6214   4.029   1.180  15.564  0.8780  0.0785 -0.4648
  413MPD2    C2 6215   4.115   1.097  15.494 -0.7834 -0.0178  0.2041
  413MPD2    C3 6216   4.250   1.086  15.527  0.2006 -0.3113  0.4132
  413MPD2    C4 6217   4.294   1.166  15.632 -0.3024 -0.4157  0.3503
  413MPD2    C5 6218   4.207   1.240  15.705  0.0453  0.1549  0.1081
  413MPD2     H 6219   4.071   1.026  15.425 -2.4110  1.0935  0.1110
  413MPD2    H1 6220   4.395   1.162  15.670 -0.8135  0.4019  1.7762
  413MPD2    H2 6221   4.012   1.300  15.747 -0.8077 -1.7667  1.0469
  413MPD2    H3 6222   4.238   1.286  15.798 -1.2468  0.0127  0.6164
  413MPD2     N 6223   4.327   0.985  15.468 -0.5624  0.1925  0.9643
  413MPD2    H5 6224   4.285   0.922  15.400  1.2782 -1.0758  1.0131
  413MPD2    N1 6225   3.891   1.203  15.534 -0.2565 -0.0788 -0.4710
  413MPD2    H7 6226   3.853   1.276  15.594 -1.1547 -0.6725 -0.3251
  414TMC3    C1 6227   4.504   0.836  15.431 -0.0413  0.5811  0.5078
  414TMC3    C2 6228   4.580   0.746  15.500  0.1392  0.3441 -0.4441
  414TMC3    C3 6229   4.614   0.629  15.434 -0.8730  0.1162 -0.8836
  414TMC3    C4 6230   4.471   0.819  15.301 -0.0039 -0.5888 -0.1294
  414TMC3    C5 6231   4.514   0.705  15.238 -0.2958  0.3064  0.2276
  414TMC3    C6 6232   4.579   0.604  15.306 -1.0200 -0.1784  0.2427
  414TMC3     C 6233   4.452   0.941  15.514  0.2834 -0.2061 -0.8142
  414TMC3     O 6234   4.521   0.980  15.602 -0.7742 -0.2367  0.3500
  414TMC3     H 6235   4.606   0.763  15.603 -0.7726  0.7561 -0.2767
  414TMC3    H1 6236   4.422   0.905  15.257  0.4684 -0.3985 -0.2835
  414TMC3    H2 6237   4.615   0.510  15.264  0.0357 -0.5123  1.8822
  414TMC3    C7 6238   4.578   0.734  15.115  0.4609 -0.2524  0.0516
  414TMC3    C8 6239   0.021   0.590  15.450 -0.0341 -0.3947  0.0785
  414TMC3    O1 6240   4.616   0.848  15.105  0.1569  0.5960 -0.4035
  414TMC3    O2 6241   0.042   0.466  15.439 -0.2828  0.7128 -0.1769
  415TMC3    C1 6242   0.684   3.834  10.242 -0.0789  0.2891 -0.5153
  415TMC3    C2 6243   0.767   3.891  10.142  0.4125 -0.2513 -0.6911
  415TMC3    C3 6244   0.714   3.886  10.017 -0.0954  0.4846  1.2143
  415TMC3    C4 6245   0.556   3.788  10.224 -0.3243 -0.7912  0.8858
  415TMC3    C5 6246   0.524   3.774  10.089  0.1449 -0.9475 -0.3370
  415TMC3    C6 6247   0.599   3.825   9.989 -0.2623  0.6629  0.7244
  415TMC3     C 6248   0.723   3.845  10.381 -0.2218 -0.6109 -0.9104
  415TMC3     O 6249   0.624   3.829  10.454 -0.0622  0.2036 -0.0847
  415TMC3     H 6250   0.862   3.935  10.171 -1.0308  1.2110  1.8096
  415TMC3    H1 6251   0.493   3.741  10.299  0.1239 -2.5664  0.1496
  415TMC3    H2 6252   0.569   3.809   9.886  0.9589  1.1102  0.3091
  415TMC3    C7 6253   0.462   3.646  10.052  0.5118  0.0783  0.2131
  415TMC3    C8 6254   0.802   3.897   9.909 -0.2349  0.5763  0.2898
  415TMC3    O1 6255   0.421   3.642   9.935  0.8499 -0.1504  0.6208
  415TMC3    O2 6256   0.784   3.815   9.816  0.1830 -0.4007  0.2817
  416MPD2     C 6257   2.121   2.745  11.167 -0.3828 -0.0528  0.4172
  416MPD2    C1 6258   2.014   2.707  11.239  0.4308 -0.3367  0.2375
  416MPD2    C2 6259   1.966   2.576  11.217  0.4672  0.2787 -0.3127
  416MPD2    C3 6260   2.034   2.495  11.133  0.4058  1.3176 -0.5169
  416MPD2    C4 6261   2.143   2.531  11.059 -0.2707  0.5383  0.2710
  416MPD2    C5 6262   2.179   2.661  11.074 -0.2771  1.1040 -0.4101
  416MPD2     H 6263   1.875   2.545  11.266  1.0460  0.6374  0.9987
  416MPD2    H1 6264   2.187   2.485  10.971 -0.6931  0.5046  0.0816
  416MPD2    H2 6265   2.170   2.840  11.186 -1.5645  0.9333 -1.4387
  416MPD2    H3 6266   2.270   2.689  11.023  1.4910 -0.3854  1.8775
  416MPD2     N 6267   1.966   2.363  11.121  0.7025  0.1111  0.0281
  416MPD2    H5 6268   1.907   2.339  11.200 -0.1152 -0.8050 -0.8584
  416MPD2    N1 6269   1.939   2.802  11.321  0.4243 -0.1822 -0.4620
  416MPD2    H7 6270   1.955   2.901  11.305  0.3087 -0.0304  0.3867
  417TMC3    C1 6271   1.767   2.894  11.471 -0.4649  0.4114 -0.5508
  417TMC3    C2 6272   1.691   2.870  11.579  0.7065  0.4794 -0.1125
  417TMC3    C3 6273   1.571   2.933  11.592 -0.1695 -0.5239 -0.2352
  417TMC3    C4 6274   1.734   2.995  11.387 -0.1174 -0.0218 -0.1348
  417TMC3    C5 6275   1.625   3.072  11.405 -0.6467  0.5352  0.3176
  417TMC3    C6 6276   1.542   3.041  11.510  0.0304  0.5403  0.2556
  417TMC3     C 6277   1.841   2.773  11.418  0.6018 -0.6330 -0.2030
  417TMC3     O 6278   1.808   2.667  11.468 -0.6684 -0.2252 -0.1137
  417TMC3     H 6279   1.710   2.776  11.629  1.2240  1.2113  1.0598
  417TMC3    H1 6280   1.781   3.011  11.291 -1.3227  1.7226 -0.4232
  417TMC3    H2 6281   1.447   3.091  11.526 -0.6970 -0.4258 -1.1371
  417TMC3    C7 6282   1.583   3.152  11.292 -0.0468  0.7639 -0.1601
  417TMC3    C8 6283   1.517   2.938  11.724 -0.6378 -0.3412 -0.5586
  417TMC3    O1 6284   1.674   3.203  11.223  0.2219  0.1062  0.1911
  417TMC3    O2 6285   1.436   3.030  11.748  0.5382  0.5310 -0.8613
  418TMC3    C1 6286   0.628   0.069   0.318 -0.9743 -0.5078  0.4013
  418TMC3    C2 6287   0.524   0.062   0.230 -0.3578  0.1259 -0.7001
  418TMC3    C3 6288   0.403   0.021   0.286 -0.6034  0.4718  0.1248
  418TMC3    C4 6289   0.614   0.051   0.456  0.1388 -0.3070 -0.5848
  418TMC3    C5 6290   0.497   0.003   0.504  0.2879  0.5612 -0.4093
  418TMC3    C6 6291   0.391   4.718   0.416 -0.4018  0.7663 -0.1181
  418TMC3     C 6292   0.759   0.072   0.269 -0.3852  0.1321 -0.2485
  418TMC3     O 6293   0.784   0.166   0.198  1.3542 -1.0561  0.6614
  418TMC3     H 6294   0.550   0.066   0.125  0.0230  0.9694 -0.5733
  418TMC3    H1 6295   0.699   0.075   0.518 -0.2797  0.1214 -0.1728
  418TMC3    H2 6296   0.290   4.694   0.449 -0.6124  0.3119 -1.0699
  418TMC3    C7 6297   0.502   4.683   0.643 -0.7004  0.2665  0.2995
  418TMC3    C8 6298   0.299   4.708   0.195 -0.2553  0.1398 -0.3559
  418TMC3    O1 6299   0.590   4.725   0.712  0.0011  0.6105  0.6384
  418TMC3    O2 6300   0.300   0.033   0.089 -0.4646 -0.1816  0.5271
  419MPD2     C 6301   4.209   2.261  12.683  0.1168  0.2316  0.7307
  419MPD2    C1 6302   4.115   2.345  12.621  0.0786  0.0322  0.8830
  419MPD2    C2 6303   4.044   2.431  12.702  0.8291 -0.1975  0.5522
  419MPD2    C3 6304   4.058   2.428  12.840  0.0850 -1.0045  0.1565
  419MPD2    C4 6305   4.150   2.341  12.895 -0.2444  0.1771 -0.4290
  419MPD2    C5 6306   4.238   2.271  12.818 -0.1246 -0.3990 -0.2593
  419MPD2     H 6307   3.976   2.506  12.664  3.0473  1.3698 -0.3541
  419MPD2    H1 6308   4.154   2.334  13.003 -0.4753 -1.0380 -0.4982
  419MPD2    H2 6309   4.275   2.200  12.622 -1.2628 -1.4871  0.9368
  419MPD2    H3 6310   4.317   2.207  12.856 -1.8084 -1.5556  1.2738
  419MPD2     N 6311   3.969   2.515  12.916  0.0237  0.2457  0.5793
  419MPD2    H5 6312   3.921   2.592  12.869 -0.8049 -0.4060  0.3705
  419MPD2    N1 6313   4.099   2.366  12.487  0.0424 -0.1918 -0.1216
  419MPD2    H7 6314   4.033   2.437  12.457 -0.0053  0.5736  1.7875
  420TMC3    C1 6315   3.903   2.634  13.101  0.3621  0.0585  0.3587
  420TMC3    C2 6316   3.810   2.702  13.023  0.1598 -0.2683 -0.2045
  420TMC3    C3 6317   3.729   2.799  13.084 -0.1475  0.1706  0.7730
  420TMC3    C4 6318   3.916   2.659  13.235  0.0795  0.5715 -0.0819
  420TMC3    C5 6319   3.840   2.759  13.291  0.7675 -0.3985 -0.2453
  420TMC3    C6 6320   3.760   2.840  13.212 -0.1823 -0.6298 -0.2054
  420TMC3     C 6321   3.978   2.523  13.050 -0.3775 -0.6775 -0.0103
  420TMC3     O 6322   4.033   2.458  13.137 -0.3582 -0.3001 -0.0679
  420TMC3     H 6323   3.797   2.680  12.917 -1.0575 -0.6084  0.0077
  420TMC3    H1 6324   3.978   2.605  13.305 -1.6706 -0.7127  0.4944
  420TMC3    H2 6325   3.696   2.908  13.267 -2.9087 -1.9179 -1.7948
  420TMC3    C7 6326   3.864   2.793  13.431 -0.5909 -0.1837 -0.8402
  420TMC3    C8 6327   3.652   2.893  13.008  0.5226 -0.3882 -0.1892
  420TMC3    O1 6328   3.887   2.699  13.502  0.4154  0.0963  0.5287
  420TMC3    O2 6329   3.633   3.007  13.053 -0.0903 -0.4829  0.3660
  421TMC3    C1 6330   0.716   3.675  13.572  0.1350 -0.1338  0.1815
  421TMC3    C2 6331   0.648   3.748  13.668 -0.1912  0.3403  0.1626
  421TMC3    C3 6332   0.722   3.767  13.783  0.3581 -0.3248  0.2541
  421TMC3    C4 6333   0.830   3.613  13.588  0.2605 -0.0844 -0.5296
  421TMC3    C5 6334   0.898   3.629  13.702 -0.1889  0.1839 -0.3439
  421TMC3    C6 6335   0.851   3.718  13.797  0.0138  0.3871 -0.3146
  421TMC3     C 6336   0.654   3.648  13.437 -0.1620  0.4193 -0.1002
  421TMC3     O 6337   0.722   3.585  13.355  0.8889 -0.8354  0.0238
  421TMC3     H 6338   0.550   3.792  13.661 -0.0811 -0.2004 -4.4843
  421TMC3    H1 6339   0.874   3.546  13.516 -1.6803 -1.6529 -0.2390
  421TMC3    H2 6340   0.916   3.743  13.880 -1.0558 -0.6462  0.8277
  421TMC3    C7 6341   1.035   3.593  13.690  0.3096  0.4035 -0.2275
  421TMC3    C8 6342   0.687   3.882  13.859  0.0117 -0.4567  0.1946
  421TMC3    O1 6343   1.099   3.645  13.601  0.0270 -0.2179 -0.1492
  421TMC3    O2 6344   0.775   3.949  13.911 -0.5431  0.4273  0.1405
  422TMC3    C1 6345   3.085   0.564  12.838  0.5145  0.3334  0.2536
  422TMC3    C2 6346   3.042   0.683  12.888 -0.4954 -0.8395  0.2178
  422TMC3    C3 6347   2.911   0.719  12.878  0.3282  0.3241 -0.0624
  422TMC3    C4 6348   2.994   0.473  12.793 -0.2848  0.2642  0.3687
  422TMC3    C5 6349   2.867   0.520  12.761  0.3169 -0.0387  0.4125
  422TMC3    C6 6350   2.828   0.641  12.809  0.2171  0.7147 -0.1768
  422TMC3     C 6351   3.210   0.560  12.767  0.3657 -0.4906  0.1081
  422TMC3     O 6352   3.268   0.668  12.751 -0.2861 -0.3057  0.0868
  422TMC3     H 6353   3.113   0.756  12.925 -1.8240  0.9063 -0.6600
  422TMC3    H1 6354   3.024   0.381  12.743 -1.9251  0.1735 -0.4475
  422TMC3    H2 6355   2.728   0.671  12.778 -0.7631 -0.7557  1.5627
  422TMC3    C7 6356   2.775   0.430  12.707  0.1860 -0.6215  0.6144
  422TMC3    C8 6357   2.863   0.849  12.934  0.0465  0.1841 -0.6277
  422TMC3    O1 6358   2.816   0.373  12.609 -0.1188  0.0584  0.5517
  422TMC3    O2 6359   2.955   0.926  12.959 -0.5266 -0.4313  0.0765
  423MPD2     C 6360   3.762   1.304   0.901 -0.5867 -0.1852 -0.0491
  423MPD2    C1 6361   3.891   1.325   0.871 -1.5108  0.3189 -1.1460
  423MPD2    C2 6362   3.920   1.308   0.738  0.2581 -0.3024 -0.5982
  423MPD2    C3 6363   3.842   1.243   0.643  0.5434  0.2189  0.0440
  423MPD2    C4 6364   3.715   1.216   0.687 -0.0967  0.1295  0.2948
  423MPD2    C5 6365   3.679   1.255   0.808  0.2787 -0.4044 -0.5993
  423MPD2     H 6366   4.024   1.320   0.712  0.5903 -1.0602  0.3753
  423MPD2    H1 6367   3.640   1.172   0.622 -1.2950 -1.3479  2.6989
  423MPD2    H2 6368   3.733   1.316   1.005  1.6542  0.2907  0.5261
  423MPD2    H3 6369   3.578   1.226   0.837  0.2879 -1.9200 -2.0579
  423MPD2     N 6370   3.874   1.215   0.511 -0.1117  0.4729  0.6441
  423MPD2    H5 6371   3.809   1.160   0.455  1.1519 -0.4547  0.0531
  423MPD2    N1 6372   3.986   1.373   0.958 -0.7281 -0.2544  0.0964
  423MPD2    H7 6373   4.066   1.409   0.906 -0.7605  2.3691  1.8661
  424TMC3    C1 6374   4.086   1.477   1.139  0.0720 -0.0754  0.0334
  424TMC3    C2 6375   4.199   1.403   1.118  0.1486  0.2936  0.5137
  424TMC3    C3 6376   4.312   1.437   1.183  0.7883 -0.5955  0.7591
  424TMC3    C4 6377   4.095   1.588   1.217  0.8339  0.5507 -0.6906
  424TMC3    C5 6378   4.215   1.632   1.265  0.6735 -0.1272  0.6677
  424TMC3    C6 6379   4.329   1.555   1.255  0.0591 -0.2721  0.2988
  424TMC3     C 6380   3.961   1.418   1.088  0.6100 -0.0313 -0.8769
  424TMC3     O 6381   3.861   1.445   1.152  0.2184  0.1803 -0.6222
  424TMC3     H 6382   4.192   1.311   1.060 -3.1735  1.2797 -0.6404
  424TMC3    H1 6383   4.009   1.654   1.213  0.1270 -0.4742 -2.7172
  424TMC3    H2 6384   4.422   1.572   1.309 -0.5155 -1.6464  1.6846
  424TMC3    C7 6385   4.224   1.719   1.383  0.2906  0.4933  0.1119
  424TMC3    C8 6386   4.414   1.334   1.181  0.5326  0.1214  1.1276
  424TMC3    O1 6387   4.329   1.726   1.447 -0.0827  0.3571  0.4569
  424TMC3    O2 6388   4.363   1.224   1.174 -0.1536 -0.4111 -0.0968
  425MPD2     C 6389   2.990   1.083  17.345  0.0859 -0.4474  0.4370
  425MPD2    C1 6390   2.882   0.993  17.363  0.1313  0.4167 -0.4062
  425MPD2    C2 6391   2.781   1.020  17.457  0.5299  0.1059 -0.3134
  425MPD2    C3 6392   2.784   1.133  17.532  0.2164  0.0148  0.6000
  425MPD2    C4 6393   2.897   1.216  17.519  0.5075  0.3526 -0.5984
  425MPD2    C5 6394   2.986   1.196  17.419  0.7705  0.5778  0.3480
  425MPD2     H 6395   2.701   0.949  17.473 -0.0346  1.3724  2.4966
  425MPD2    H1 6396   2.912   1.301  17.584  0.9767 -0.2461  0.0737
  425MPD2    H2 6397   3.071   1.072  17.274 -0.0829 -0.3736  0.2305
  425MPD2    H3 6398   3.061   1.273  17.406 -0.2068  1.6009  0.7900
  425MPD2     N 6399   2.691   1.139  17.641  1.0341  0.4359 -0.2463
  425MPD2    H5 6400   2.622   1.065  17.640  0.9122  0.5706 -1.4122
  425MPD2    N1 6401   2.890   0.877  17.285  0.2369 -0.4473 -0.4540
  425MPD2    H7 6402   2.972   0.877  17.225  0.3902 -2.0356 -0.2352
  426TMC3    C1 6403   2.833   0.664  17.188 -0.6010 -0.4720  0.1171
  426TMC3    C2 6404   2.899   0.694  17.075 -0.4962  0.0887  0.0635
  426TMC3    C3 6405   2.952   0.592  16.996  0.1267  0.5740 -0.3559
  426TMC3    C4 6406   2.797   0.532  17.214 -0.9130 -0.2509  0.0959
  426TMC3    C5 6407   2.848   0.430  17.134 -0.6267 -0.6587 -0.3643
  426TMC3    C6 6408   2.924   0.460  17.029 -0.3256  0.0548 -0.3956
  426TMC3     C 6409   2.805   0.769  17.291  0.7351 -0.1652  0.0880
  426TMC3     O 6410   2.710   0.747  17.364 -0.1201  0.0957 -0.3143
  426TMC3     H 6411   2.922   0.796  17.046 -0.6563  0.1704  0.2189
  426TMC3    H1 6412   2.729   0.514  17.297 -2.2185 -0.9962 -1.1295
  426TMC3    H2 6413   2.959   0.381  16.963  2.7266  1.6059 -0.6109
  426TMC3    C7 6414   2.810   0.293  17.165  0.0713  0.1944  0.8358
  426TMC3    C8 6415   2.993   0.609  16.857 -0.4224 -0.1892 -0.3975
  426TMC3    O1 6416   2.835   0.205  17.086 -0.1188  0.4157 -0.0190
  426TMC3    O2 6417   3.070   0.525  16.802 -0.0763 -0.3555  0.0898
  427MPD2     C 6418   1.927   3.446  15.015 -0.4689 -0.0241 -0.5822
  427MPD2    C1 6419   1.921   3.310  15.024 -0.3080 -0.5767 -0.5724
  427MPD2    C2 6420   1.795   3.257  14.996 -0.1282 -0.6687 -0.1525
  427MPD2    C3 6421   1.686   3.333  14.956 -0.4928  0.1860  0.8062
  427MPD2    C4 6422   1.701   3.466  14.948 -0.1794 -0.1629  0.0521
  427MPD2    C5 6423   1.824   3.525  14.982  0.1682  0.0393 -0.7396
  427MPD2     H 6424   1.785   3.149  15.004  2.1346 -0.6565  2.8590
  427MPD2    H1 6425   1.617   3.528  14.917  0.6154 -0.1297 -2.0266
  427MPD2    H2 6426   2.021   3.499  15.025 -0.6862 -0.0190  1.5318
  427MPD2    H3 6427   1.832   3.633  14.984  2.3400 -0.1334  0.3688
  427MPD2     N 6428   1.556   3.283  14.942  0.3535  0.1236 -0.1504
  427MPD2    H5 6429   1.485   3.351  14.917 -0.4524 -0.1052  1.5075
  427MPD2    N1 6430   2.031   3.226  15.039 -0.0947 -0.1022  0.4185
  427MPD2    H7 6431   2.016   3.127  15.025 -0.9969 -0.0402  0.9746
  428TMC3    C1 6432   2.219   3.151  15.150 -0.6204  0.6832 -0.0341
  428TMC3    C2 6433   2.163   3.025  15.159 -0.4851 -0.0861  0.4304
  428TMC3    C3 6434   2.220   2.928  15.236  0.3668  0.5965  0.7337
  428TMC3    C4 6435   2.344   3.175  15.204 -0.1064 -0.7097 -0.3288
  428TMC3    C5 6436   2.397   3.082  15.289 -0.1704  0.3712  0.0648
  428TMC3    C6 6437   2.345   2.957  15.305  0.4863  0.6875  0.9235
  428TMC3     C 6438   2.156   3.265  15.075  0.3714  0.2244  0.6082
  428TMC3     O 6439   2.209   3.373  15.091  0.7057  0.1914 -0.2560
  428TMC3     H 6440   2.056   3.017  15.142 -0.3348 -0.8474 -0.2043
  428TMC3    H1 6441   2.394   3.270  15.188  0.2568 -0.9411 -0.5647
  428TMC3    H2 6442   2.370   2.890  15.387 -1.5659 -1.3294 -0.0979
  428TMC3    C7 6443   2.520   3.115  15.349  0.4015  0.2907  0.2512
  428TMC3    C8 6444   2.165   2.794  15.254  0.0284 -0.6348  0.4505
  428TMC3    O1 6445   2.562   3.233  15.356  0.5257  0.4943  0.9142
  428TMC3    O2 6446   2.217   2.726  15.344 -0.0343  0.1181 -0.0761
  429MPD2     C 6447   2.450   2.803  17.637  1.2073 -0.1578  0.0294
  429MPD2    C1 6448   2.579   2.757  17.648  1.1326  0.8682 -0.0593
  429MPD2    C2 6449   2.686   2.834  17.606 -0.2097 -0.7494 -0.5100
  429MPD2    C3 6450   2.664   2.961  17.551  0.4990  1.0792 -0.3065
  429MPD2    C4 6451   2.536   3.004  17.540 -0.3828  0.0001  0.2737
  429MPD2    C5 6452   2.432   2.925  17.591 -0.4208 -0.0932 -0.1185
  429MPD2     H 6453   2.791   2.805  17.613  0.9150  3.2292 -0.6324
  429MPD2    H1 6454   2.507   3.100  17.500  0.5915  0.4386  0.6198
  429MPD2    H2 6455   2.363   2.745  17.666  0.0791  1.7758  0.4694
  429MPD2    H3 6456   2.329   2.958  17.585 -0.1941  0.8674  1.3302
  429MPD2     N 6457   2.771   3.032  17.496 -0.4478 -0.0582  0.0818
  429MPD2    H5 6458   2.864   2.992  17.489 -1.2563 -1.5826 -2.0472
  429MPD2    N1 6459   2.608   2.623  17.688  0.0225  0.6501 -0.6207
  429MPD2    H7 6460   2.703   2.588  17.675 -0.9986 -2.0020 -0.9122
  430TMC3    C1 6461   2.888   3.182  17.376  0.8576  0.3031 -1.0060
  430TMC3    C2 6462   2.902   3.308  17.327 -0.7265  0.2663  0.8937
  430TMC3    C3 6463   2.978   3.333  17.218 -0.0369  0.3318  0.6928
  430TMC3    C4 6464   2.956   3.077  17.320 -0.0548 -0.1164  0.4450
  430TMC3    C5 6465   3.042   3.108  17.221  0.4726 -0.0144 -0.0148
  430TMC3    C6 6466   3.055   3.234  17.173 -0.0185 -0.0305  0.4246
  430TMC3     C 6467   2.761   3.151  17.434 -0.3271  0.6314  0.3678
  430TMC3     O 6468   2.674   3.240  17.437  0.1176 -0.2889  0.0786
  430TMC3     H 6469   2.831   3.386  17.348  1.6335  2.0270  2.3049
  430TMC3    H1 6470   2.935   2.972  17.338 -1.1058  0.0910  0.4181
  430TMC3    H2 6471   3.128   3.246  17.093 -0.9902  2.9803 -0.0067
  430TMC3    C7 6472   3.044   3.002  17.122 -0.3523 -0.2188 -0.0605
  430TMC3    C8 6473   2.896   3.391  17.107 -0.2774 -0.1792  0.3986
  430TMC3    O1 6474   3.030   2.886  17.158 -0.6013  0.2873 -0.4151
  430TMC3    O2 6475   2.885   3.317  17.010 -0.0667 -0.0469 -0.0259
  431MPD2     C 6476   3.695   3.012  12.431  0.3482  0.0784  0.1975
  431MPD2    C1 6477   3.780   3.052  12.334  0.8115 -0.3506 -0.2074
  431MPD2    C2 6478   3.844   2.952  12.266 -0.4293 -0.7513 -0.7223
  431MPD2    C3 6479   3.840   2.815  12.312 -0.2322 -0.0891  0.2274
  431MPD2    C4 6480   3.758   2.783  12.419  0.5338 -0.3247 -0.1297
  431MPD2    C5 6481   3.679   2.882  12.474  0.7031  0.7827  0.3448
  431MPD2     H 6482   3.924   2.991  12.205 -1.6849  1.3384 -1.0329
  431MPD2    H1 6483   3.766   2.688  12.471 -1.3789 -1.0988 -1.2363
  431MPD2    H2 6484   3.650   3.090  12.492 -1.3858 -0.5995 -0.2265
  431MPD2    H3 6485   3.626   2.865  12.567  1.9382  1.9265  1.2575
  431MPD2     N 6486   3.922   2.711  12.263 -0.8810  0.0656 -0.0654
  431MPD2    H5 6487   3.904   2.623  12.309  0.5997 -2.2355 -3.8784
  431MPD2    N1 6488   3.812   3.186  12.301 -0.2455  0.5292 -0.1727
  431MPD2    H7 6489   3.866   3.199  12.217 -1.3954 -0.3309 -1.0369
  432TMC3    C1 6490   4.077   2.584  12.156 -0.4733  0.1872 -0.3413
  432TMC3    C2 6491   4.135   2.544  12.041 -0.5351  0.0405  0.2977
  432TMC3    C3 6492   4.200   2.421  12.041 -0.2528  0.1999 -0.1341
  432TMC3    C4 6493   4.095   2.518  12.273 -0.1362 -0.8252  0.1430
  432TMC3    C5 6494   4.145   2.386  12.260 -0.5978  0.6554 -0.2163
  432TMC3    C6 6495   4.205   2.346  12.150  0.9128 -0.0064  0.7295
  432TMC3     C 6496   4.005   2.713  12.154 -0.9407 -0.5958 -0.0403
  432TMC3     O 6497   4.020   2.796  12.066  0.2629 -0.0158 -0.0999
  432TMC3     H 6498   4.127   2.601  11.949  4.1650 -0.7257 -0.5957
  432TMC3    H1 6499   4.055   2.552  12.368  1.8906  0.9085  0.3719
  432TMC3    H2 6500   4.254   2.250  12.139 -0.8316 -0.7374 -0.6465
  432TMC3    C7 6501   4.177   2.316  12.384  0.0729 -0.2994 -0.2238
  432TMC3    C8 6502   4.275   2.383  11.929 -0.6302 -0.2614  0.1719
  432TMC3    O1 6503   4.271   2.236  12.385 -0.4476 -0.5616  0.6522
  432TMC3    O2 6504   4.277   2.267  11.898  0.1044 -0.6079 -0.2680
  433MPD2     C 6505   3.010   2.090  11.252 -0.5439 -0.1724  0.8268
  433MPD2    C1 6506   2.935   1.975  11.273 -0.0484 -0.2501  0.1790
  433MPD2    C2 6507   2.890   1.951  11.405  0.1458 -0.3439  0.1417
  433MPD2    C3 6508   2.942   2.031  11.507  0.2734 -0.7634 -0.5919
  433MPD2    C4 6509   3.017   2.145  11.475  0.8414  0.1814  0.0597
  433MPD2    C5 6510   3.055   2.170  11.346 -0.0470 -0.3369 -0.1309
  433MPD2     H 6511   2.825   1.871  11.439  0.3911 -0.6052 -0.0003
  433MPD2    H1 6512   3.044   2.227  11.542 -1.0055  1.0654 -0.2685
  433MPD2    H2 6513   3.050   2.099  11.151 -1.1285 -2.9511  0.3208
  433MPD2    H3 6514   3.126   2.248  11.325  1.3243 -1.6009 -0.1739
  433MPD2     N 6515   2.914   1.999  11.645 -0.1964  0.0682  0.7279
  433MPD2    H5 6516   2.880   1.905  11.661  1.3225 -0.8074 -1.2665
  433MPD2    N1 6517   2.916   1.882  11.169  0.4755  0.4238  0.0612
  433MPD2    H7 6518   2.966   1.907  11.084  0.6558  0.4251  0.1654
  434TMC3    C1 6519   2.865   1.670  11.062 -0.0627  0.0445 -0.2849
  434TMC3    C2 6520   2.874   1.542  11.091 -0.3277 -0.6591 -0.1319
  434TMC3    C3 6521   2.960   1.461  11.022 -0.6466 -0.1805 -0.5721
  434TMC3    C4 6522   2.899   1.719  10.941 -0.1028  0.7885  0.0102
  434TMC3    C5 6523   2.981   1.637  10.871 -0.0337 -0.2759 -0.5287
  434TMC3    C6 6524   3.030   1.523  10.921 -0.3043  0.0398  0.3845
  434TMC3     C 6525   2.856   1.760  11.177  0.0064  0.5357 -0.5031
  434TMC3     O 6526   2.826   1.692  11.275 -0.2860 -0.0657  0.1000
  434TMC3     H 6527   2.848   1.496  11.186 -1.5328 -0.1781 -0.2227
  434TMC3    H1 6528   2.871   1.816  10.902 -0.8718  0.6568  0.2135
  434TMC3    H2 6529   3.089   1.467  10.850  0.2834  0.7753  0.2929
  434TMC3    C7 6530   2.958   1.639  10.732 -0.4131  0.8907  0.2911
  434TMC3    C8 6531   3.040   1.376  11.112 -0.2428  0.6054 -0.0040
  434TMC3    O1 6532   2.943   1.749  10.681 -0.4132 -0.6097  0.8433
  434TMC3    O2 6533   2.986   1.308  11.201 -0.5087  0.8103  0.4416
  435MPD2     C 6534   4.623   1.818  15.250 -0.0473  0.6977  0.8450
  435MPD2    C1 6535   4.602   1.834  15.386  0.2139 -0.1795 -0.2619
  435MPD2    C2 6536   4.700   1.805  15.475  1.5807 -0.2478 -0.1779
  435MPD2    C3 6537   0.095   1.780  15.436 -0.5012  0.2463 -0.0523
  435MPD2    C4 6538   0.125   1.785  15.299 -0.2785 -0.1719  0.0051
  435MPD2    C5 6539   0.015   1.803  15.210  0.2522  0.6700 -0.0515
  435MPD2     H 6540   4.682   1.810  15.581  0.6016 -0.2285 -0.3386
  435MPD2    H1 6541   0.224   1.774  15.257  0.2912  0.4337  1.2027
  435MPD2    H2 6542   4.551   1.830  15.170 -0.1954 -0.4887  0.8040
  435MPD2    H3 6543   0.033   1.803  15.104 -1.5076  0.8585 -0.3512
  435MPD2     N 6544   0.186   1.752  15.538  0.2381  0.2589  0.6890
  435MPD2    H5 6545   0.148   1.747  15.632  1.5647  0.2963  1.2276
  435MPD2    N1 6546   4.476   1.862  15.436  0.3381  0.0682 -0.2688
  435MPD2    H7 6547   4.463   1.869  15.537 -2.9537 -2.3469 -0.5403
  436TMC3    C1 6548   4.201   2.026  15.659 -0.4490  0.7183  0.4350
  436TMC3    C2 6549   4.299   2.005  15.557  0.2968 -0.4069 -0.0868
  436TMC3    C3 6550   4.262   1.936  15.443  0.5604  0.1003  0.6237
  436TMC3    C4 6551   4.074   1.974  15.634  0.8999 -0.2168  0.3931
  436TMC3    C5 6552   4.049   1.897  15.523 -0.1688 -0.0109 -0.1494
  436TMC3    C6 6553   4.142   1.872  15.430  0.4522 -0.2007  0.2557
  436TMC3     C 6554   4.250   2.099  15.773  0.1870 -0.0310  0.1237
  436TMC3     O 6555   4.361   2.136  15.786  0.4623 -0.2696  0.1122
  436TMC3     H 6556   4.399   2.034  15.586  0.1783  2.0257 -2.1162
  436TMC3    H1 6557   3.990   2.001  15.698  0.2459 -0.4307 -0.3735
  436TMC3    H2 6558   4.127   1.811  15.342 -1.2898  1.7523 -0.7830
  436TMC3    C7 6559   3.925   1.826  15.507  0.2649 -0.4381 -0.4473
  436TMC3    C8 6560   4.367   1.890  15.360 -0.6145 -1.1895  0.2658
  436TMC3    O1 6561   3.899   1.786  15.393  0.4836 -0.5372  0.2105
  436TMC3    O2 6562   4.342   1.864  15.243  0.1649  0.1478  0.6243
  437TMC3    C1 6563   3.286   3.750  11.998  0.5087 -1.0468 -0.4788
  437TMC3    C2 6564   3.230   3.725  12.116  0.1186 -0.1994  0.6149
  437TMC3    C3 6565   3.280   3.780  12.230 -0.3060  0.2783 -0.1251
  437TMC3    C4 6566   3.404   3.827  11.995  0.1144 -0.0991  0.2633
  437TMC3    C5 6567   3.459   3.876  12.108  0.0685 -0.5087  0.7451
  437TMC3    C6 6568   3.388   3.867  12.225 -0.1725 -0.3280  1.0389
  437TMC3     C 6569   3.251   3.652  11.886 -0.4230  0.0056 -0.2470
  437TMC3     O 6570   3.157   3.582  11.902  0.2827  0.2853 -0.2588
  437TMC3     H 6571   3.139   3.666  12.113 -1.6340  2.5774 -0.0541
  437TMC3    H1 6572   3.461   3.839  11.903  0.2437  0.6665  0.4400
  437TMC3    H2 6573   3.431   3.910  12.315 -0.6452 -0.5208  1.3627
  437TMC3    C7 6574   3.565   3.968  12.092 -0.3123 -0.2250 -0.3180
  437TMC3    C8 6575   3.211   3.755  12.361  0.3395  0.2519 -0.2455
  437TMC3    O1 6576   3.585   4.024  11.987 -0.0089 -0.5700  0.3037
  437TMC3    O2 6577   3.181   3.644  12.380  0.0142 -0.0910 -0.0897
  438MPD2     C 6578   0.458   0.051  16.601 -0.0396 -0.0170  0.2919
  438MPD2    C1 6579   0.571   0.020  16.675  0.5947 -0.1508 -0.5963
  438MPD2    C2 6580   0.558   0.017  16.815 -0.6785 -0.2857  0.6164
  438MPD2    C3 6581   0.442   0.068  16.875 -0.7945 -0.1967 -0.5324
  438MPD2    C4 6582   0.335   0.102  16.796  0.3421 -0.6110  0.6742
  438MPD2    C5 6583   0.348   0.103  16.659  0.1332 -0.4090 -0.0275
  438MPD2     H 6584   0.643   4.728  16.878  0.2526 -2.1251 -1.3352
  438MPD2    H1 6585   0.244   0.124  16.851  0.6041  1.5857  0.2540
  438MPD2    H2 6586   0.464   0.054  16.492 -0.4214 -0.2056  0.2670
  438MPD2    H3 6587   0.267   0.131  16.594 -1.0006 -0.5539  1.3212
  438MPD2     N 6588   0.422   0.062  17.015  0.2202 -0.2324 -0.0761
  438MPD2    H5 6589   0.333   0.080  17.061 -0.6131 -0.4472 -1.5979
  438MPD2    N1 6590   0.692   4.702  16.624 -0.3030  0.4853  0.0822
  438MPD2    H7 6591   0.765   4.674  16.689 -0.1720 -1.3941 -0.8706
  439TMC3    C1 6592   0.852   4.626  16.462  0.2362  0.5616 -0.1260
  439TMC3    C2 6593   0.870   4.609  16.327 -0.1804  0.3337  0.5015
  439TMC3    C3 6594   0.900   4.481  16.283 -0.5157  0.3572  0.1685
  439TMC3    C4 6595   0.886   4.528  16.551 -0.2556  0.3235  0.2436
  439TMC3    C5 6596   0.924   4.406  16.508  0.1669  0.2633 -0.2352
  439TMC3    C6 6597   0.928   4.383  16.375  0.1676 -0.1454  0.0165
  439TMC3     C 6598   0.717   4.674  16.492 -0.8389  0.2280 -0.1175
  439TMC3     O 6599   0.640   4.681  16.397  0.9498  0.1416  0.1359
  439TMC3     H 6600   0.820   4.683  16.265  2.0890  0.8738 -0.6749
  439TMC3    H1 6601   0.897   4.554  16.656 -2.7126  2.8267 -0.1209
  439TMC3    H2 6602   0.951   4.288  16.328 -1.1837 -0.6973  0.4737
  439TMC3    C7 6603   1.045   4.356  16.570 -0.3117  0.8574  0.6443
  439TMC3    C8 6604   1.001   4.480  16.182 -0.3530 -0.1881 -0.3492
  439TMC3    O1 6605   1.053   4.381  16.686  0.1510  0.8511 -0.7131
  439TMC3    O2 6606   1.089   4.395  16.191 -0.0815 -0.6822  0.0042
  440MPD2     C 6607   0.056   0.011  14.434 -0.6903 -0.4351  0.1951
  440MPD2    C1 6608   0.100   0.140  14.470 -0.7738 -0.5136  0.2553
  440MPD2    C2 6609   0.200   0.147  14.557  0.7221 -0.4110  0.0777
  440MPD2    C3 6610   0.269   0.040  14.610 -0.1774 -0.3241 -0.8074
  440MPD2    C4 6611   0.238   4.651  14.569  0.2878 -0.4233 -0.2568
  440MPD2    C5 6612   0.130   4.638  14.486 -0.8049  0.0891  0.8181
  440MPD2     H 6613   0.234   0.247  14.585  0.3174 -0.3195  0.2424
  440MPD2    H1 6614   0.282   4.561  14.611  2.2126 -0.0280 -1.4178
  440MPD2    H2 6615   4.706   4.718  14.370  0.8310 -2.0383 -1.1094
  440MPD2    H3 6616   0.097   4.537  14.467  3.8381 -0.8739 -2.1427
  440MPD2     N 6617   0.363   0.044  14.716  0.3558 -0.3890  0.3342
  440MPD2    H5 6618   0.385   4.689  14.760 -1.0176  0.1105  2.0260
  440MPD2    N1 6619   0.043   0.254  14.415  0.5520  0.6106 -0.7389
  440MPD2    H7 6620   0.068   0.345  14.451 -0.4694  1.0800 -1.2140
  441TMC3    C1 6621   0.492   0.143  14.894 -0.2237  0.4421  0.1117
  441TMC3    C2 6622   0.532   0.264  14.934  0.2109 -0.1983 -0.1138
  441TMC3    C3 6623   0.513   0.299  15.062 -0.3521  0.1630  0.3390
  441TMC3    C4 6624   0.463   0.045  14.982 -0.0598 -0.2346  0.3102
  441TMC3    C5 6625   0.460   0.079  15.113 -0.0597 -0.2918  0.3795
  441TMC3    C6 6626   0.473   0.206  15.153  0.5636 -0.5695  0.1981
  441TMC3     C 6627   0.423   0.158  14.764 -0.2159  0.0046 -0.8914
  441TMC3     O 6628   0.413   0.268  14.719  0.2190 -0.2882 -0.6075
  441TMC3     H 6629   0.585   0.325  14.861 -0.8321  1.2488  0.3464
  441TMC3    H1 6630   0.432   4.679  14.954 -0.4592  0.3897 -1.4684
  441TMC3    H2 6631   0.445   0.229  15.255 -3.7920  2.3872 -1.6702
  441TMC3    C7 6632   0.442   4.708  15.207 -0.3264  0.0352 -0.5734
  441TMC3    C8 6633   0.511   0.439  15.098  0.6768  0.3107 -0.1458
  441TMC3    O1 6634   0.399   4.603  15.165  0.4399  0.0757 -0.1493
  441TMC3    O2 6635   0.542   0.513  15.007  0.4009 -0.3577  0.1108
  442MPD2     C 6636   2.409   1.051  16.388  0.0951  0.1437 -0.2795
  442MPD2    C1 6637   2.393   0.926  16.434 -0.3507 -0.0720  0.1997
  442MPD2    C2 6638   2.427   0.818  16.354 -0.0627  0.0510 -0.4321
  442MPD2    C3 6639   2.473   0.838  16.223  0.5839  0.1434 -0.1081
  442MPD2    C4 6640   2.501   0.967  16.179  0.0360  0.0618 -0.3458
  442MPD2    C5 6641   2.470   1.071  16.264  0.1263  0.1823 -0.2536
  442MPD2     H 6642   2.420   0.717  16.393 -0.8988 -0.3747 -1.6971
  442MPD2    H1 6643   2.537   0.994  16.081  2.4066  0.3696  0.6226
  442MPD2    H2 6644   2.377   1.138  16.444 -1.7409 -0.2170 -0.7778
  442MPD2    H3 6645   2.470   1.174  16.231  0.8999  0.0640 -0.6171
  442MPD2     N 6646   2.507   0.733  16.138  0.4434  0.0482 -0.1349
  442MPD2    H5 6647   2.569   0.747  16.058 -0.3931  1.7532 -0.4919
  442MPD2    N1 6648   2.337   0.909  16.561 -0.2380 -0.7014  0.2281
  442MPD2    H7 6649   2.319   0.811  16.583  1.4592 -1.0685 -0.0113
  443TMC3    C1 6650   2.267   0.966  16.785  0.0919 -0.0292  0.2100
  443TMC3    C2 6651   2.222   1.073  16.862  0.8637 -0.0241  0.4784
  443TMC3    C3 6652   2.143   1.036  16.965 -0.1069 -0.4908 -0.1478
  443TMC3    C4 6653   2.246   0.832  16.813  0.5439  0.3735  0.1980
  443TMC3    C5 6654   2.167   0.809  16.927  0.7962  0.0013 -0.6389
  443TMC3    C6 6655   2.108   0.906  16.999 -0.5566  0.0289 -0.6716
  443TMC3     C 6656   2.322   1.011  16.658 -0.4504  0.5958 -0.2544
  443TMC3     O 6657   2.359   1.125  16.659  0.9894  0.2068 -0.4172
  443TMC3     H 6658   2.239   1.179  16.854 -2.4299  0.5079  0.7016
  443TMC3    H1 6659   2.284   0.752  16.751 -2.5666 -0.9913  0.0467
  443TMC3    H2 6660   2.041   0.887  17.082  0.0179  1.5661  0.1533
  443TMC3    C7 6661   2.151   0.669  16.968  0.1859 -0.1108 -0.3017
  443TMC3    C8 6662   2.046   1.129  17.031  0.0344 -0.5395  0.5481
  443TMC3    O1 6663   2.171   0.583  16.883 -0.4070 -0.0070  0.6270
  443TMC3    O2 6664   2.027   1.113  17.150  0.0241  0.2606 -0.1761
  444MPD2     C 6665   2.483   0.616  17.096 -0.0873  0.4105  0.2502
  444MPD2    C1 6666   2.489   0.480  17.087 -0.3058 -0.0725  0.1378
  444MPD2    C2 6667   2.525   0.415  16.974 -0.7269 -0.3016 -0.3171
  444MPD2    C3 6668   2.555   0.491  16.862  1.0785  0.4177  0.1094
  444MPD2    C4 6669   2.530   0.623  16.870  0.3142 -0.0360  0.0120
  444MPD2    C5 6670   2.506   0.686  16.988  0.5350  0.1155  0.0418
  444MPD2     H 6671   2.523   0.307  16.970  1.1248 -0.3138 -0.8783
  444MPD2    H1 6672   2.535   0.676  16.776  2.5027  0.1388  0.2269
  444MPD2    H2 6673   2.461   0.673  17.186  0.8076  0.8614  0.1795
  444MPD2    H3 6674   2.494   0.793  16.991  1.4712  0.2153  0.2598
  444MPD2     N 6675   2.587   0.423  16.743  0.1872 -0.2677  0.3268
  444MPD2    H5 6676   2.612   0.325  16.757  1.0614  0.3104  2.8233
  444MPD2    N1 6677   2.440   0.394  17.186  0.2743 -0.1541 -0.7475
  444MPD2    H7 6678   2.427   0.295  17.168 -0.7597  0.1731 -1.7875
  445TMC3    C1 6679   2.609   0.370  16.524 -0.8060  0.3920 -0.0597
  445TMC3    C2 6680   2.509   0.313  16.459  0.7634 -0.0303 -0.5455
  445TMC3    C3 6681   2.536   0.190  16.399 -0.7291  0.3677 -0.2556
  445TMC3    C4 6682   2.718   0.305  16.556 -0.3773  0.4299 -0.7630
  445TMC3    C5 6683   2.738   0.179  16.509  0.0893 -0.0081 -0.7310
  445TMC3    C6 6684   2.652   0.120  16.418 -0.3149  0.3959  0.3459
  445TMC3     C 6685   2.577   0.476  16.614  0.3407  0.1237  0.3248
  445TMC3     O 6686   2.506   0.565  16.566  0.1721 -0.2791  0.4858
  445TMC3     H 6687   2.429   0.381  16.434  0.2828  0.3346  1.9976
  445TMC3    H1 6688   2.800   0.347  16.614  1.0004  1.0847 -3.1944
  445TMC3    H2 6689   2.667   0.020  16.380 -0.9584  0.2681  0.4167
  445TMC3    C7 6690   2.877   0.134  16.508  0.5709 -0.1612  0.3723
  445TMC3    C8 6691   2.435   0.123  16.326 -0.6040  0.3932 -0.9511
  445TMC3    O1 6692   2.965   0.217  16.504  0.7114  0.1608  0.2364
  445TMC3    O2 6693   2.448   0.003  16.310  0.2271 -0.0444 -0.2072
  446MPD2     C 6694   2.727   1.239  11.653  0.1602  0.0790  0.1205
  446MPD2    C1 6695   2.721   1.272  11.520  0.1401 -0.7525  0.0713
  446MPD2    C2 6696   2.816   1.352  11.463  0.8992  0.1245 -0.3879
  446MPD2    C3 6697   2.929   1.390  11.542 -1.0790  0.9216  0.2355
  446MPD2    C4 6698   2.936   1.340  11.676 -0.0593 -0.5840 -0.0881
  446MPD2    C5 6699   2.834   1.266  11.727 -0.1461  0.2866  0.4207
  446MPD2     H 6700   2.810   1.386  11.361 -0.7961 -0.1207 -0.3815
  446MPD2    H1 6701   3.030   1.345  11.731 -0.1132  1.4582 -0.1709
  446MPD2    H2 6702   2.649   1.181  11.700 -0.6665  1.1319  0.0640
  446MPD2    H3 6703   2.831   1.228  11.829  3.5562 -1.3495 -0.0887
  446MPD2     N 6704   3.032   1.461  11.484 -0.5822  0.0322  0.4256
  446MPD2    H5 6705   3.027   1.497  11.390 -0.0746  1.0034  0.7747
  446MPD2    N1 6706   2.616   1.221  11.435 -0.0921  0.5158 -0.5580
  446MPD2    H7 6707   2.621   1.258  11.340  2.3864  1.2184 -0.1736
  447TMC3    C1 6708   3.248   1.554  11.453 -0.0616 -0.2109  0.0761
  447TMC3    C2 6709   3.204   1.637  11.347 -0.0880  0.3178 -0.3611
  447TMC3    C3 6710   3.306   1.699  11.276  0.0576  0.6760  0.6360
  447TMC3    C4 6711   3.381   1.531  11.481  0.1186 -0.4281 -0.3820
  447TMC3    C5 6712   3.474   1.586  11.399  0.2379 -0.0892  0.5102
  447TMC3    C6 6713   3.435   1.668  11.292  0.7169 -1.0332 -0.0730
  447TMC3     C 6714   3.153   1.475  11.538 -0.6625 -0.1080  0.8591
  447TMC3     O 6715   3.210   1.432  11.640  0.1217 -0.0038 -0.3337
  447TMC3     H 6716   3.101   1.661  11.324 -0.4478  1.3121  2.3978
  447TMC3    H1 6717   3.411   1.446  11.542 -0.2350  0.1761  0.6139
  447TMC3    H2 6718   3.521   1.694  11.231  0.3405 -2.1712 -1.0797
  447TMC3    C7 6719   3.614   1.559  11.419 -0.2290  0.1697 -0.5577
  447TMC3    C8 6720   3.269   1.760  11.153 -0.1493 -0.5369  0.1370
  447TMC3    O1 6721   3.695   1.570  11.326  0.3778 -0.2450  0.6250
  447TMC3    O2 6722   3.172   1.704  11.100  0.6519 -0.3190  0.3406
  448TMC3    C1 6723   0.097   1.079  17.368  0.5796  0.3711  0.2670
  448TMC3    C2 6724   0.130   0.958  17.314 -0.2705  0.3143 -0.1079
  448TMC3    C3 6725   0.255   0.904  17.327  0.1152  0.0895  0.3692
  448TMC3    C4 6726   0.190   1.151  17.438 -0.2680 -0.0924  0.2341
  448TMC3    C5 6727   0.314   1.099  17.451 -0.6113  0.2531 -0.0824
  448TMC3    C6 6728   0.352   0.985  17.389  0.8550 -0.0293  0.0506
  448TMC3     C 6729   4.696   1.089  17.415 -0.4220  0.6108  0.0658
  448TMC3     O 6730   4.682   1.124  17.535 -0.7032  0.0216 -0.1261
  448TMC3     H 6731   0.050   0.893  17.279 -0.6365 -0.1529  1.6013
  448TMC3    H1 6732   0.148   1.233  17.495  0.1470  0.2169  0.0990
  448TMC3    H2 6733   0.450   0.946  17.414  0.8355 -0.0902  0.0311
  448TMC3    C7 6734   0.390   1.165  17.553  0.3077 -0.2348 -0.6510
  448TMC3    C8 6735   0.299   0.786  17.258 -0.1460  0.1644  0.0856
  448TMC3    O1 6736   0.398   1.284  17.549 -0.3985  0.1955  0.1063
  448TMC3    O2 6737   0.411   0.747  17.275 -0.1897  0.0188 -0.0617
  449MPD2     C 6738   2.409   4.167  14.157  0.3220  0.0351 -0.1292
  449MPD2    C1 6739   2.341   4.270  14.100  0.1600  0.0307  0.6321
  449MPD2    C2 6740   2.208   4.281  14.124 -0.0121  0.4067 -0.0530
  449MPD2    C3 6741   2.132   4.188  14.196 -0.6397 -0.5608 -0.0552
  449MPD2    C4 6742   2.199   4.094  14.263  0.3407 -0.3557  0.5783
  449MPD2    C5 6743   2.336   4.087  14.247  0.4030 -0.4515  0.4056
  449MPD2     H 6744   2.150   4.363  14.083  1.8961  1.7126 -0.0976
  449MPD2    H1 6745   2.154   4.027  14.335 -2.9686  0.8735 -0.3579
  449MPD2    H2 6746   2.517   4.154  14.158  0.1128 -1.7535 -1.3618
  449MPD2    H3 6747   2.396   4.013  14.298  0.2169  1.3280  3.1716
  449MPD2     N 6748   1.995   4.208  14.206  0.1549 -0.4220 -0.3548
  449MPD2    H5 6749   1.948   4.253  14.129 -2.3374  0.3871  1.6384
  449MPD2    N1 6750   2.400   4.374  14.021 -0.3461  0.2317  0.9822
  449MPD2    H7 6751   2.337   4.451  14.004  0.6632  1.1022  1.2055
  450TMC3    C1 6752   2.535   4.488  13.872 -0.0813 -0.3035 -0.0157
  450TMC3    C2 6753   2.567   4.460  13.741  0.3636  1.0515 -0.2321
  450TMC3    C3 6754   2.508   4.536  13.648 -0.2140  0.6755  0.0589
  450TMC3    C4 6755   2.467   4.599  13.917 -0.1684  0.2222 -0.5528
  450TMC3    C5 6756   2.396   4.661  13.817 -0.0750 -0.4703 -1.2526
  450TMC3    C6 6757   2.415   4.632  13.685 -0.7974 -0.3949 -0.7328
  450TMC3     C 6758   2.525   4.372  13.963  0.6310  0.3986 -0.5519
  450TMC3     O 6759   2.600   4.279  13.939  0.0886  0.2392 -0.2873
  450TMC3     H 6760   2.621   4.368  13.721  1.8254  2.1341 -1.1340
  450TMC3    H1 6761   2.452   4.607  14.024  0.1954  3.0269 -0.7248
  450TMC3    H2 6762   2.354   4.680  13.610 -1.5503  0.6805  0.5485
  450TMC3    C7 6763   2.256   4.661  13.850 -0.3109  0.0062 -0.6926
  450TMC3    C8 6764   2.555   4.533  13.508  0.6965  0.3435 -0.0570
  450TMC3    O1 6765   2.230   4.568  13.921 -0.0346  0.7486  0.6022
  450TMC3    O2 6766   2.485   4.591  13.425  0.1939 -0.2455 -0.3435
  451MPD2     C 6767   4.103   2.353   1.201  0.5528 -0.0598 -0.4225
  451MPD2    C1 6768   4.101   2.441   1.092 -0.2552  0.0697 -0.6658
  451MPD2    C2 6769   4.205   2.427   1.000  0.6457  0.7299  0.0485
  451MPD2    C3 6770   4.308   2.331   1.024  0.2120  0.1045  0.8681
  451MPD2    C4 6771   4.314   2.254   1.137 -0.3236  0.3610  0.1211
  451MPD2    C5 6772   4.214   2.276   1.228 -0.0266  0.5060  0.6221
  451MPD2     H 6773   4.207   2.489   0.912 -1.4742  1.1584  0.3037
  451MPD2    H1 6774   4.402   2.195   1.155 -2.6571 -2.3746  2.5362
  451MPD2    H2 6775   4.018   2.345   1.268  0.2856 -0.4838 -0.8148
  451MPD2    H3 6776   4.213   2.220   1.320 -0.0882  0.3807  0.5447
  451MPD2     N 6777   4.422   2.305   0.940 -0.1466 -0.4449 -0.8932
  451MPD2    H5 6778   4.477   2.221   0.954  0.2350  0.0333  0.3983
  451MPD2    N1 6779   3.986   2.522   1.072  0.0750 -0.3225  0.0303
  451MPD2    H7 6780   3.913   2.508   1.141 -0.3873 -1.6128 -0.7324
  452TMC3    C1 6781   4.549   2.320   0.746 -0.6213 -0.1077 -0.6366
  452TMC3    C2 6782   4.543   2.192   0.710  0.2037  0.1271  0.6886
  452TMC3    C3 6783   4.577   2.155   0.581  0.4636  0.5265  0.8374
  452TMC3    C4 6784   4.609   2.413   0.672  0.7823  0.1825 -0.3559
  452TMC3    C5 6785   4.661   2.373   0.551  0.2359 -0.2915 -0.1236
  452TMC3    C6 6786   4.647   2.242   0.503  0.2153  0.7328 -0.5493
  452TMC3     C 6787   4.441   2.378   0.825  1.0337  0.5466  0.0173
  452TMC3     O 6788   4.381   2.473   0.777  0.1326  0.4256 -0.0311
  452TMC3     H 6789   4.477   2.131   0.770 -3.8949  0.7167 -3.2351
  452TMC3    H1 6790   4.607   2.514   0.710 -2.2377  0.1224 -0.3528
  452TMC3    H2 6791   4.665   2.226   0.397  2.6367  0.2763 -0.0498
  452TMC3    C7 6792   4.699   2.479   0.447  0.2085  0.0534  0.3020
  452TMC3    C8 6793   4.461   2.106   0.515  0.2237 -0.8980  0.7269
  452TMC3    O1 6794   4.699   2.441   0.328  0.1776 -0.5269  0.4212
  452TMC3    O2 6795   4.433   2.163   0.408 -0.4246 -0.1615  0.1435
  453TMC3    C1 6796   0.311   0.462  11.691 -0.3581  0.2403 -0.1189
  453TMC3    C2 6797   0.222   0.397  11.771  0.7212  0.0893 -0.3834
  453TMC3    C3 6798   0.223   0.262  11.757 -0.6620 -0.3839 -0.1585
  453TMC3    C4 6799   0.376   0.401  11.588 -0.8404  0.3340  0.1980
  453TMC3    C5 6800   0.360   0.266  11.567 -0.0436  0.0281  0.5388
  453TMC3    C6 6801   0.289   0.193  11.658 -0.2287  0.3271  0.4903
  453TMC3     C 6802   0.400   0.556  11.757  0.3583  0.7930 -0.3264
  453TMC3     O 6803   0.518   0.541  11.727  0.4177  0.2845  0.0763
  453TMC3     H 6804   0.180   0.450  11.856 -0.6654 -0.0647 -0.9695
  453TMC3    H1 6805   0.433   0.465  11.522 -1.3893  1.5416  0.9061
  453TMC3    H2 6806   0.277   0.086  11.645  0.0840  0.5135 -1.3019
  453TMC3    C7 6807   0.400   0.200  11.450 -0.3586  0.0583 -0.2080
  453TMC3    C8 6808   0.179   0.187  11.865  0.9831 -0.6519  0.3363
  453TMC3    O1 6809   0.372   0.082  11.433 -0.3514  0.4999  0.4221
  453TMC3    O2 6810   0.123   0.248  11.951  0.0074 -0.3376  0.0058
  454MPD2     C 6811   3.611   4.560  16.014 -0.4923  0.5349  0.7954
  454MPD2    C1 6812   3.549   4.678  15.966  0.3431 -0.1681  0.1418
  454MPD2    C2 6813   3.466   0.019  16.057  0.3103  0.2735 -0.5201
  454MPD2    C3 6814   3.428   4.701  16.183  0.2254 -0.5750 -0.1476
  454MPD2    C4 6815   3.488   4.580  16.225  0.0857  0.0270  0.1821
  454MPD2    C5 6816   3.579   4.514  16.143  0.1066  0.0847  0.1477
  454MPD2     H 6817   3.434   0.117  16.022 -2.4778 -0.4951 -0.0708
  454MPD2    H1 6818   3.463   4.551  16.326 -0.0785  0.8251  0.3686
  454MPD2    H2 6819   3.670   4.500  15.946 -1.3280  2.0292 -1.2797
  454MPD2    H3 6820   3.618   4.416  16.169 -2.1724 -0.7440  0.4372
  454MPD2     N 6821   3.318   0.019  16.245  0.2813  0.5089 -0.3847
  454MPD2    H5 6822   3.252   4.703  16.303 -1.0053  1.5572 -0.9708
  454MPD2    N1 6823   3.542   4.719  15.827  0.1082 -0.6053  0.0110
  454MPD2    H7 6824   3.491   0.069  15.802  1.9177 -0.1691 -2.1648
  455TMC3    C1 6825   3.142   0.174  16.238  0.1280 -0.1340  0.5768
  455TMC3    C2 6826   3.102   0.303  16.253  1.0293  0.0372  0.6054
  455TMC3    C3 6827   2.979   0.333  16.195  0.1242  1.0377 -0.4421
  455TMC3    C4 6828   3.066   0.078  16.176 -0.2503 -0.2333  0.6993
  455TMC3    C5 6829   2.943   0.115  16.119  1.4601 -0.0572 -0.0081
  455TMC3    C6 6830   2.903   0.244  16.128  0.0447 -0.2042  0.7459
  455TMC3     C 6831   3.282   0.155  16.228  0.1987 -0.2102  0.1891
  455TMC3     O 6832   3.364   0.242  16.199  0.9342  0.2716  0.0794
  455TMC3     H 6833   3.152   0.373  16.318  1.0834  1.5972 -1.1088
  455TMC3    H1 6834   3.100   4.711  16.157 -0.6502 -0.3854  0.7931
  455TMC3    H2 6835   2.803   0.281  16.104  0.2637 -1.8458 -2.7156
  455TMC3    C7 6836   2.847   0.013  16.089 -0.3146  0.1208  0.2021
  455TMC3    C8 6837   2.907   0.458  16.235  0.0248 -0.0907  0.6376
  455TMC3    O1 6838   2.730   0.034  16.128  0.1975 -0.2941  0.3953
  455TMC3    O2 6839   2.806   0.489  16.174  0.3713  0.0851 -0.5628
  456MPD2     C 6840   0.883   0.239  16.077 -0.6575  1.0039  0.3083
  456MPD2    C1 6841   1.000   0.234  16.146 -0.4164 -0.2170  0.2555
  456MPD2    C2 6842   0.999   0.232  16.289  0.3839 -0.3378 -0.1893
  456MPD2    C3 6843   0.882   0.237  16.354 -0.5775  0.4722  0.0051
  456MPD2    C4 6844   0.763   0.252  16.283  0.0855 -0.4431  0.2465
  456MPD2    C5 6845   0.763   0.247  16.142 -1.1531 -0.3117 -0.5171
  456MPD2     H 6846   1.091   0.214  16.343 -0.3408  0.1249  1.1862
  456MPD2    H1 6847   0.667   0.260  16.333  0.4999 -1.1647  1.1398
  456MPD2    H2 6848   0.879   0.242  15.968  2.1854 -0.8150  0.1290
  456MPD2    H3 6849   0.669   0.258  16.089 -1.5236 -0.0386  0.1911
  456MPD2     N 6850   0.889   0.253  16.498 -0.0922  0.0450 -0.6057
  456MPD2    H5 6851   0.973   0.219  16.543 -0.8177 -1.2609 -0.2285
  456MPD2    N1 6852   1.118   0.240  16.069  0.0888  0.5026  0.8156
  456MPD2    H7 6853   1.114   0.253  15.969  3.2954  0.2610  0.6529
  457TMC3    C1 6854   0.807   0.296  16.714  0.5098  0.0612  0.1524
  457TMC3    C2 6855   0.693   0.316  16.781 -0.5777  0.0701  0.6133
  457TMC3    C3 6856   0.710   0.362  16.911 -0.3142 -0.6566 -0.0685
  457TMC3    C4 6857   0.929   0.314  16.765 -0.1514 -0.3305  0.3065
  457TMC3    C5 6858   0.942   0.343  16.898  0.3312 -0.3300  0.7766
  457TMC3    C6 6859   0.828   0.368  16.978  0.0073 -0.3216 -0.2353
  457TMC3     C 6860   0.784   0.297  16.573  0.3297 -0.0990 -0.1695
  457TMC3     O 6861   0.682   0.353  16.537 -0.2745 -0.4356  0.1740
  457TMC3     H 6862   0.598   0.320  16.728  0.2189 -2.2154 -0.9587
  457TMC3    H1 6863   1.014   0.309  16.699 -0.3490 -0.3337  0.0558
  457TMC3    H2 6864   0.847   0.397  17.081 -2.0092 -1.9427  0.5740
  457TMC3    C7 6865   1.065   0.312  16.975 -0.6541 -0.0232 -0.3626
  457TMC3    C8 6866   0.602   0.421  16.983  0.4193 -0.0240  0.5773
  457TMC3    O1 6867   1.039   0.292  17.094 -0.0700  0.1121 -0.1740
  457TMC3    O2 6868   0.621   0.485  17.087 -0.0098  0.2369 -0.2798
  458MPD2     C 6869   3.976   4.213  12.290  0.1235 -0.4890  0.0448
  458MPD2    C1 6870   3.926   4.123  12.380  0.2494  0.1558  0.0159
  458MPD2    C2 6871   3.828   4.036  12.343 -0.0550 -0.1325 -1.1275
  458MPD2    C3 6872   3.759   4.047  12.221  0.3130  0.6263 -0.4605
  458MPD2    C4 6873   3.798   4.145  12.131 -0.2984  0.4172 -0.7029
  458MPD2    C5 6874   3.903   4.225  12.171  0.1594  0.0692 -0.5919
  458MPD2     H 6875   3.782   3.969  12.415  1.1348 -0.6987 -0.8966
  458MPD2    H1 6876   3.753   4.168  12.035  0.0428 -1.4432 -1.3142
  458MPD2    H2 6877   4.061   4.271  12.323  0.2249  0.6814 -2.2525
  458MPD2    H3 6878   3.929   4.305  12.104  0.2374  0.4348 -0.1272
  458MPD2     N 6879   3.650   3.961  12.203  0.2541 -0.3259  1.1462
  458MPD2    H5 6880   3.627   3.896  12.278 -0.4589 -1.9066 -0.4424
  458MPD2    N1 6881   3.991   4.113  12.504 -0.2549 -0.3404 -0.0860
  458MPD2    H7 6882   4.074   4.172  12.513 -0.5887  0.1683 -0.3345
  459TMC3    C1 6883   4.059   4.045  12.716 -0.5811 -0.0417  0.6729
  459TMC3    C2 6884   4.139   4.154  12.730  0.0463  0.6814 -0.4713
  459TMC3    C3 6885   4.226   4.163  12.838 -0.6027  0.1792 -0.6770
  459TMC3    C4 6886   4.060   3.942  12.809  0.0625  0.4618 -0.0940
  459TMC3    C5 6887   4.145   3.955  12.907  0.3108  0.0319 -0.5897
  459TMC3    C6 6888   4.238   4.055  12.923 -0.1051  0.3635  0.0207
  459TMC3     C 6889   3.964   4.028  12.610  0.3347  0.3332 -0.1646
  459TMC3     O 6890   3.888   3.933  12.614 -0.8564 -0.5241 -0.8834
  459TMC3     H 6891   4.125   4.244  12.670 -0.1938 -0.7835 -2.5950
  459TMC3    H1 6892   3.976   3.873  12.815  2.0153 -1.9732 -0.8463
  459TMC3    H2 6893   4.317   4.057  12.997  0.6330  3.0373 -0.8588
  459TMC3    C7 6894   4.147   3.851  13.005 -0.6044 -0.5269  0.0992
  459TMC3    C8 6895   4.325   4.265  12.852  0.4597 -0.0332  0.3143
  459TMC3    O1 6896   4.172   3.736  12.968 -0.3975 -0.0401  0.3386
  459TMC3    O2 6897   4.421   4.243  12.930 -0.4490 -0.6333  0.0486
  460MPD2     C 6898   3.462   1.985  10.934 -0.4161  0.3121  0.8534
  460MPD2    C1 6899   3.356   1.912  10.973  0.5709  0.5937  0.0233
  460MPD2    C2 6900   3.248   1.902  10.880 -0.6649  0.4693  0.3110
  460MPD2    C3 6901   3.248   1.972  10.756  0.1656 -0.3495 -0.9554
  460MPD2    C4 6902   3.361   2.048  10.723  0.2883 -0.5770 -0.4791
  460MPD2    C5 6903   3.468   2.051  10.809  0.0876 -0.0572 -0.0113
  460MPD2     H 6904   3.161   1.841  10.903  0.6478 -1.2832  0.6559
  460MPD2    H1 6905   3.364   2.104  10.630 -2.6479 -1.9946 -1.4396
  460MPD2    H2 6906   3.549   1.995  10.999  0.4333  0.6714 -0.3503
  460MPD2    H3 6907   3.560   2.099  10.779  0.5295  0.8966  2.9399
  460MPD2     N 6908   3.142   1.956  10.662  0.0962  0.0357  0.3213
  460MPD2    H5 6909   3.076   1.880  10.676 -0.3963 -0.0961 -2.6520
  460MPD2    N1 6910   3.358   1.851  11.099  0.5056  0.3453  0.2555
  460MPD2    H7 6911   3.437   1.887  11.152  1.3088  1.0398 -1.4416
  461TMC3    C1 6912   3.015   2.006  10.462  0.0382 -0.7394 -0.4369
  461TMC3    C2 6913   3.016   1.883  10.405  0.3403  0.7279 -0.0033
  461TMC3    C3 6914   2.918   1.866  10.305  0.2005 -0.4948  0.3556
  461TMC3    C4 6915   2.951   2.120  10.414 -0.2301  0.5479  0.1310
  461TMC3    C5 6916   2.858   2.101  10.319 -0.2079 -0.0872  0.1581
  461TMC3    C6 6917   2.835   1.974  10.267  0.2513  0.4317 -0.3602
  461TMC3     C 6918   3.126   2.034  10.550  0.0590 -0.5212  0.8622
  461TMC3     O 6919   3.179   2.138  10.519  0.2357  0.6131  0.6447
  461TMC3     H 6920   3.089   1.809  10.437 -1.3153 -0.4621  1.0628
  461TMC3    H1 6921   2.969   2.224  10.440 -0.9604  1.0077 -1.2001
  461TMC3    H2 6922   2.761   1.959  10.189  2.1895 -0.7471 -1.9842
  461TMC3    C7 6923   2.819   2.217  10.233  0.1464 -0.2777 -1.1152
  461TMC3    C8 6924   2.938   1.762  10.207  0.2295 -0.0456  0.5497
  461TMC3    O1 6925   2.789   2.189  10.118  0.0923  0.7375 -0.3426
  461TMC3    O2 6926   3.038   1.695  10.229  0.2945  0.3000 -0.2701
  462TMC3    C1 6927   3.320   2.657   0.195 -0.6307 -0.3052 -0.6928
  462TMC3    C2 6928   3.413   2.562   0.179  0.0494 -0.5090  0.2944
  462TMC3    C3 6929   3.388   2.443   0.254 -0.6554  0.7080  0.7740
  462TMC3    C4 6930   3.205   2.648   0.263  0.1530 -0.3414  0.1965
  462TMC3    C5 6931   3.193   2.542   0.340 -0.0415 -0.4302 -0.1206
  462TMC3    C6 6932   3.284   2.444   0.340 -0.1553  0.5498 -0.6173
  462TMC3     C 6933   3.313   2.767   0.097 -0.5072  0.0943  0.1966
  462TMC3     O 6934   3.203   2.814   0.081 -0.3129 -0.0219  0.5737
  462TMC3     H 6935   3.499   2.564   0.112 -0.1925  0.1893  0.0042
  462TMC3    H1 6936   3.139   2.732   0.278  0.2632 -0.2713  0.2820
  462TMC3    H2 6937   3.247   2.346   0.366 -1.8832  0.9060 -1.7162
  462TMC3    C7 6938   3.059   2.504   0.389 -0.6566 -0.2068  0.3261
  462TMC3    C8 6939   3.482   2.333   0.242 -0.2090 -0.1426 -0.3181
  462TMC3    O1 6940   3.050   2.405   0.467  0.5194 -0.2488  0.3009
  462TMC3    O2 6941   3.488   2.256   0.336  0.4221 -0.1128 -0.2003
  463MPD2     C 6942   4.560   0.440   1.304  0.7823  0.1877 -0.4242
  463MPD2    C1 6943   4.472   0.540   1.275  0.1040  0.7071  0.0243
  463MPD2    C2 6944   4.515   0.670   1.274  0.3737 -0.2667 -0.4586
  463MPD2    C3 6945   4.637   0.704   1.328 -0.0459  0.6642  0.0406
  463MPD2    C4 6946   4.730   0.604   1.345 -0.3196  0.0103 -0.2576
  463MPD2    C5 6947   4.691   0.472   1.334  0.4182  0.0087 -0.7945
  463MPD2     H 6948   4.447   0.750   1.248  0.5915  0.5703  1.5179
  463MPD2    H1 6949   0.101   0.621   1.367 -0.3145 -2.0871  1.2963
  463MPD2    H2 6950   4.532   0.335   1.306 -2.0047  0.9856  3.2387
  463MPD2    H3 6951   0.022   0.390   1.361 -1.6596 -1.6589 -0.8828
  463MPD2     N 6952   4.676   0.836   1.358 -0.1887 -0.1490  0.0420
  463MPD2    H5 6953   0.041   0.857   1.362 -0.2760 -0.3733  3.2063
  463MPD2    N1 6954   4.341   0.509   1.223 -0.3188  0.3482  0.1352
  463MPD2    H7 6955   4.289   0.591   1.194  1.5104  1.0229 -1.2571
  464TMC3    C1 6956   4.145   0.390   1.169  0.3426 -0.1668  0.2836
  464TMC3    C2 6957   4.077   0.503   1.193 -0.4944  0.6247  0.0280
  464TMC3    C3 6958   3.948   0.502   1.154  0.3825  1.1008 -0.2652
  464TMC3    C4 6959   4.089   0.284   1.111 -0.1506  0.3452 -0.3644
  464TMC3    C5 6960   3.956   0.277   1.090 -0.5737 -0.3355  1.1193
  464TMC3    C6 6961   3.881   0.386   1.116 -0.4454  0.4445  0.2626
  464TMC3     C 6962   4.289   0.380   1.205 -0.2840  0.0234 -0.3959
  464TMC3     O 6963   4.345   0.273   1.198 -0.7932 -0.4979  0.3374
  464TMC3     H 6964   4.117   0.592   1.242 -1.9891  1.3244 -0.0260
  464TMC3    H1 6965   4.150   0.197   1.090 -0.6179 -0.2634  0.8362
  464TMC3    H2 6966   3.777   0.390   1.084 -0.0070 -0.9706 -1.3499
  464TMC3    C7 6967   3.898   0.170   1.011 -0.0179 -0.3511 -0.0432
  464TMC3    C8 6968   3.865   0.627   1.158 -0.0310 -0.5796  0.8928
  464TMC3    O1 6969   3.974   0.089   0.953  0.6046  0.0687  0.8066
  464TMC3    O2 6970   3.755   0.623   1.105 -0.1506  0.8029 -0.0362
  465MPD2     C 6971   0.523   4.384  16.279 -0.2492 -0.7171 -0.7781
  465MPD2    C1 6972   0.424   4.410  16.369  0.0298  0.0374 -0.3286
  465MPD2    C2 6973   0.313   4.472  16.318  0.2210 -0.3123 -0.2742
  465MPD2    C3 6974   0.299   4.505  16.185  0.3338 -0.1504  0.2771
  465MPD2    C4 6975   0.404   4.473  16.098  0.6371 -0.0921  0.3117
  465MPD2    C5 6976   0.513   4.411  16.146  0.1010  0.3670  0.4054
  465MPD2     H 6977   0.238   4.504  16.389  0.5672 -0.3192  0.0975
  465MPD2    H1 6978   0.395   4.496  15.993 -1.2378 -0.8644  0.2935
  465MPD2    H2 6979   0.624   4.357  16.309 -0.3270 -1.2227 -0.9662
  465MPD2    H3 6980   0.590   4.395  16.072  0.1965  0.3063  0.5172
  465MPD2     N 6981   0.175   4.574  16.149 -0.3368 -0.6222 -0.0033
  465MPD2    H5 6982   0.113   4.602  16.224 -0.2011 -0.0316 -0.1082
  465MPD2    N1 6983   0.438   4.397  16.510  0.0489 -0.1388  0.2284
  465MPD2    H7 6984   0.371   4.441  16.571 -1.5367  0.7495 -2.1752
  466TMC3    C1 6985   4.522   4.710  16.118  0.4848 -0.7453  0.0043
  466TMC3    C2 6986   4.520   0.106  16.075  0.1794  0.2025  0.2030
  466TMC3    C3 6987   4.623   0.154  15.989 -0.6653  0.2041  0.6500
  466TMC3    C4 6988   4.641   4.635  16.116 -0.2041  0.3734  0.3148
  466TMC3    C5 6989   0.010   4.687  16.040 -0.1278 -0.3053 -0.7267
  466TMC3    C6 6990   4.733   0.075  15.972 -0.1545 -0.1567  0.3735
  466TMC3     C 6991   4.437   4.678  16.226 -0.2935  0.3270  0.2821
  466TMC3     O 6992   4.389   0.039  16.290  0.0010 -0.2835  0.3885
  466TMC3     H 6993   4.428   0.161  16.090 -0.2369 -0.5853  0.5474
  466TMC3    H1 6994   4.649   4.535  16.157 -0.1003  0.6323  0.9130
  466TMC3    H2 6995   0.088   0.107  15.918 -1.2428  0.4009 -1.0984
  466TMC3    C7 6996   0.136   4.617  16.026  0.2724  0.5173 -0.0617
  466TMC3    C8 6997   4.629   0.292  15.957 -0.7758 -0.2550 -0.4008
  466TMC3    O1 6998   0.203   4.634  15.925 -0.0200 -0.1327 -0.2914
  466TMC3    O2 6999   4.704   0.318  15.867 -0.1993  0.2822 -0.3839
  467TMC3    C1 7000   1.529   3.180  13.743 -0.4309  1.1352 -0.4731
  467TMC3    C2 7001   1.579   3.288  13.667  0.4919 -0.5899 -0.2753
  467TMC3    C3 7002   1.497   3.359  13.583 -0.4326 -0.5113  0.6505
  467TMC3    C4 7003   1.397   3.149  13.734  0.5482  0.4138  0.4418
  467TMC3    C5 7004   1.318   3.215  13.640 -0.5510  0.4265  0.0275
  467TMC3    C6 7005   1.365   3.320  13.571  0.1886 -0.2360  0.1474
  467TMC3     C 7006   1.592   3.142  13.870  0.0521 -0.0127  0.6280
  467TMC3     O 7007   1.521   3.095  13.954  0.1335  0.0942 -0.0035
  467TMC3     H 7008   1.683   3.316  13.683  0.2490  0.6426 -0.8456
  467TMC3    H1 7009   1.361   3.057  13.780  2.1296 -0.0525  0.7314
  467TMC3    H2 7010   1.301   3.384  13.512  2.3411  0.8168 -1.0317
  467TMC3    C7 7011   1.184   3.160  13.623 -0.1543 -0.3110 -0.7628
  467TMC3    C8 7012   1.557   3.460  13.496 -0.9410 -0.2306 -0.5521
  467TMC3    O1 7013   1.127   3.099  13.711 -0.3391  0.2065 -0.5734
  467TMC3    O2 7014   1.486   3.554  13.458  0.1301 -0.5517 -0.0159
  468MPD2     C 7015   0.507   1.297  10.365  0.1936 -0.2044 -0.3586
  468MPD2    C1 7016   0.508   1.294  10.502 -0.0862 -0.0001 -0.0863
  468MPD2    C2 7017   0.482   1.171  10.566  0.0523 -0.2480  0.3699
  468MPD2    C3 7018   0.462   1.050  10.504 -0.2846  0.7517 -0.1066
  468MPD2    C4 7019   0.453   1.054  10.366  0.6247  0.5121  0.0272
  468MPD2    C5 7020   0.474   1.176  10.303 -0.8540 -0.5264 -0.8057
  468MPD2     H 7021   0.493   1.166  10.674  0.9906 -0.2125  0.2762
  468MPD2    H1 7022   0.425   0.970  10.303 -0.4176  1.8818 -1.3326
  468MPD2    H2 7023   0.501   1.386  10.303 -0.6578  0.0275  0.0564
  468MPD2    H3 7024   0.465   1.180  10.195 -1.6372 -0.4124 -0.7347
  468MPD2     N 7025   0.456   0.927  10.567 -0.4647 -0.7660 -0.0209
  468MPD2    H5 7026   0.462   0.847  10.505  0.1279  0.4147 -1.4596
  468MPD2    N1 7027   0.543   1.399  10.581  0.0952 -0.3587  0.3918
  468MPD2    H7 7028   0.553   1.369  10.678 -2.6307  3.2454  1.7727
  469TMC3    C1 7029   0.629   1.614  10.644 -0.1020 -0.2958 -0.5048
  469TMC3    C2 7030   0.737   1.568  10.708 -0.4947  0.0356  0.3447
  469TMC3    C3 7031   0.801   1.650  10.793  0.1963  0.7170  0.4178
  469TMC3    C4 7032   0.576   1.732  10.674  0.1917  0.2852  0.6187
  469TMC3    C5 7033   0.633   1.805  10.776 -0.1694 -0.4172 -0.2632
  469TMC3    C6 7034   0.754   1.767  10.836  0.4684 -0.9819  0.2550
  469TMC3     C 7035   0.576   1.530  10.538  0.6957  0.6975  0.3777
  469TMC3     O 7036   0.543   1.591  10.434 -0.5467 -0.4968 -0.6019
  469TMC3     H 7037   0.761   1.465  10.686  2.3643  0.6417  0.7030
  469TMC3    H1 7038   0.478   1.757  10.636  0.3776  0.6312  0.3635
  469TMC3    H2 7039   0.794   1.820  10.921 -0.6346 -2.9895  2.0253
  469TMC3    C7 7040   0.558   1.881  10.860 -0.3946  0.0309 -0.2867
  469TMC3    C8 7041   0.905   1.598  10.879 -0.1388 -0.1573  0.2352
  469TMC3    O1 7042   0.469   1.948  10.809  0.4190  0.2825 -0.5287
  469TMC3    O2 7043   0.934   1.658  10.981  0.1987 -0.5118 -0.4921
  470TMC3    C1 7044   1.943   2.237   1.260  0.3606 -0.5102 -0.2612
  470TMC3    C2 7045   2.045   2.324   1.238 -0.6211 -0.3440 -0.2751
  470TMC3    C3 7046   2.123   2.365   1.345  0.0256  1.3461 -0.0132
  470TMC3    C4 7047   1.918   2.205   1.392  0.0530 -0.3112  0.3649
  470TMC3    C5 7048   1.984   2.259   1.499 -0.0119 -0.5529  0.0075
  470TMC3    C6 7049   2.094   2.342   1.478 -0.0865  0.3988 -0.1004
  470TMC3     C 7050   1.857   2.171   1.161  0.9570  0.0352  0.2071
  470TMC3     O 7051   1.764   2.107   1.207 -0.1643 -0.1519 -0.5243
  470TMC3     H 7052   2.075   2.340   1.136  0.9862 -2.2055 -0.0794
  470TMC3    H1 7053   1.834   2.140   1.415 -1.0544  1.0028 -0.0198
  470TMC3    H2 7054   2.155   2.373   1.562  0.3606 -0.6385 -0.0401
  470TMC3    C7 7055   1.974   2.191   1.625 -0.0125  0.3241  0.6177
  470TMC3    C8 7056   2.257   2.419   1.321 -0.5865 -0.1607 -0.6226
  470TMC3    O1 7057   2.037   2.246   1.713  0.0746  0.0970  0.0994
  470TMC3    O2 7058   2.312   2.470   1.418 -0.2892  0.3262 -0.2193
  471MPD2     C 7059   2.755   3.794  16.822  0.1457 -0.0626  0.0522
  471MPD2    C1 7060   2.736   3.656  16.809 -0.6936 -0.5174 -0.4317
  471MPD2    C2 7061   2.767   3.576  16.913 -0.4217  0.2200 -0.0332
  471MPD2    C3 7062   2.820   3.618  17.033 -0.0567  0.3630  0.5394
  471MPD2    C4 7063   2.845   3.754  17.049 -0.2855  0.5232 -0.1501
  471MPD2    C5 7064   2.812   3.838  16.945  0.0089  0.0116  0.5156
  471MPD2     H 7065   2.736   3.473  16.902  0.3659  0.1390 -1.4534
  471MPD2    H1 7066   2.890   3.797  17.138 -0.2126  0.0113  0.0586
  471MPD2    H2 7067   2.722   3.860  16.743 -0.7483 -0.3954  0.1449
  471MPD2    H3 7068   2.841   3.941  16.963  3.0327 -1.1493  2.1975
  471MPD2     N 7069   2.875   3.531  17.130  0.4376 -0.0899 -0.0451
  471MPD2    H5 7070   2.914   3.567  17.216  0.4994 -0.8098  0.2327
  471MPD2    N1 7071   2.689   3.595  16.697  0.3618  0.2516 -0.2839
  471MPD2    H7 7072   2.674   3.495  16.700 -1.2769  0.4343 -2.0549
  472TMC3    C1 7073   2.608   3.556  16.488  0.2938  0.3950  0.6921
  472TMC3    C2 7074   2.503   3.585  16.404 -0.2453  0.7582 -0.3848
  472TMC3    C3 7075   2.447   3.475  16.340  0.1035  0.4992 -0.5055
  472TMC3    C4 7076   2.651   3.429  16.498 -0.0706  0.0201 -0.5126
  472TMC3    C5 7077   2.611   3.331  16.419 -0.5375  0.1722  0.1894
  472TMC3    C6 7078   2.496   3.347  16.348 -0.5159 -0.2539  0.4479
  472TMC3     C 7079   2.658   3.654  16.579 -0.5545 -0.1733 -0.2000
  472TMC3     O 7080   2.669   3.770  16.539 -0.4282 -0.5274  0.3982
  472TMC3     H 7081   2.463   3.685  16.395  0.3524  0.9934 -0.4256
  472TMC3    H1 7082   2.735   3.403  16.563 -1.3000  2.1001  1.9273
  472TMC3    H2 7083   2.464   3.263  16.288 -0.7845 -0.6368  1.1303
  472TMC3    C7 7084   2.632   3.194  16.479  0.1726 -0.1994 -0.0536
  472TMC3    C8 7085   2.323   3.480  16.272  0.0033 -0.3873  0.3092
  472TMC3    O1 7086   2.645   3.188  16.604  0.5061  0.0086 -0.1838
  472TMC3    O2 7087   2.298   3.589  16.229 -0.7777 -0.2507 -0.7127
  473MPD2     C 7088   3.199   1.395  13.858  0.3729 -0.7537 -0.4728
  473MPD2    C1 7089   3.080   1.446  13.915 -0.1423  0.6297 -0.5446
  473MPD2    C2 7090   3.069   1.461  14.052 -0.2701 -0.4157  0.2972
  473MPD2    C3 7091   3.184   1.444  14.127  0.5661 -0.2692  0.8795
  473MPD2    C4 7092   3.301   1.408  14.062 -0.3952 -0.1052  0.2998
  473MPD2    C5 7093   3.301   1.360  13.934 -0.0639  0.2372  0.4998
  473MPD2     H 7094   2.982   1.505  14.100 -0.7690 -1.4121  0.3136
  473MPD2    H1 7095   3.395   1.377  14.106  0.2847  3.5486  1.4126
  473MPD2    H2 7096   3.213   1.398  13.751 -2.9259  0.0948 -0.8814
  473MPD2    H3 7097   3.395   1.328  13.892 -1.1834 -0.9194 -1.1133
  473MPD2     N 7098   3.196   1.455  14.264 -0.2375  0.3264  0.1746
  473MPD2    H5 7099   3.286   1.431  14.304  0.5999  0.4756 -1.6381
  473MPD2    N1 7100   2.968   1.485  13.838 -0.1149 -0.2075  0.2641
  473MPD2    H7 7101   2.908   1.552  13.885 -0.5844  0.2369 -0.9519
  474TMC3    C1 7102   3.130   1.548  14.480 -0.0768  0.2921 -0.4807
  474TMC3    C2 7103   3.036   1.632  14.530 -0.3409 -0.0238  0.8011
  474TMC3    C3 7104   3.081   1.711  14.632  0.2055  0.5023  0.4166
  474TMC3    C4 7105   3.263   1.546  14.514 -0.1304  0.4873 -0.4430
  474TMC3    C5 7106   3.303   1.619  14.621  0.1811  0.0555 -0.4941
  474TMC3    C6 7107   3.214   1.710  14.673 -0.1981 -0.6277  0.2840
  474TMC3     C 7108   3.094   1.499  14.348 -0.9379  0.0971  0.4793
  474TMC3     O 7109   2.971   1.500  14.328  0.0348 -0.2081  0.3491
  474TMC3     H 7110   2.934   1.632  14.492  0.7605 -0.2590 -2.1007
  474TMC3    H1 7111   3.345   1.497  14.463  0.9206  0.6249  1.1092
  474TMC3    H2 7112   3.249   1.790  14.737  1.1440 -0.7003 -0.3582
  474TMC3    C7 7113   3.435   1.595  14.680  0.4274  0.2770  0.5695
  474TMC3    C8 7114   3.020   1.844  14.644  0.1156 -0.3921 -0.4165
  474TMC3    O1 7115   3.513   1.529  14.615  0.1949 -0.3227 -0.0502
  474TMC3    O2 7116   3.056   1.930  14.722 -0.0015  0.2386  0.0502
  475MPD2     C 7117   1.847   3.771  10.037 -0.6995  0.1631  0.1174
  475MPD2    C1 7118   1.920   3.858  10.108  0.6853  0.3569  0.7200
  475MPD2    C2 7119   1.858   3.926  10.217  0.2580  0.3983  0.0904
  475MPD2    C3 7120   1.724   3.916  10.236  0.3382  0.1358 -0.5467
  475MPD2    C4 7121   1.652   3.837  10.148  0.1278 -0.2054 -0.7292
  475MPD2    C5 7122   1.716   3.759  10.059  1.3401 -0.6837 -0.1326
  475MPD2     H 7123   1.920   3.984  10.283  0.5197  0.1036  0.1045
  475MPD2    H1 7124   1.544   3.831  10.153  0.1608 -0.0474  0.1872
  475MPD2    H2 7125   1.903   3.700   9.977 -0.7923 -0.0370  0.2669
  475MPD2    H3 7126   1.660   3.680  10.010  0.0049  0.2718 -0.1717
  475MPD2     N 7127   1.666   4.008  10.327  0.0650 -0.0283 -0.1944
  475MPD2    H5 7128   1.728   4.075  10.371  1.2305 -0.7829 -0.6790
  475MPD2    N1 7129   2.060   3.880  10.083  0.4353  0.2457 -0.0490
  475MPD2    H7 7130   2.100   3.957  10.135 -0.0881  0.7410 -0.3684
  476TMC3    C1 7131   2.247   3.906   9.959 -0.0103 -0.4438 -0.7686
  476TMC3    C2 7132   2.199   4.008   9.879 -0.2980 -0.0293  0.2250
  476TMC3    C3 7133   2.237   4.138   9.907 -0.1951  0.7245 -0.8343
  476TMC3    C4 7134   2.336   3.936  10.058  0.2925  0.4161  0.4587
  476TMC3    C5 7135   2.372   4.064  10.079  0.9095  0.3242 -0.7388
  476TMC3    C6 7136   2.327   4.167  10.003  0.3829  1.0902  0.4349
  476TMC3     C 7137   2.144   3.815   9.997 -0.2023 -0.0935 -0.5943
  476TMC3     O 7138   2.118   3.730   9.917 -0.2692 -0.0184  0.5961
  476TMC3     H 7139   2.144   3.989   9.788  1.4288  0.1708 -0.8616
  476TMC3    H1 7140   2.371   3.855  10.121  1.0518  0.5948  0.2631
  476TMC3    H2 7141   2.365   4.268  10.009  0.6685  0.9584  0.9191
  476TMC3    C7 7142   2.451   4.096  10.195 -0.4776 -0.2491  0.0012
  476TMC3    C8 7143   2.119   4.235   9.909 -0.2194  0.3239 -0.3990
  476TMC3    O1 7144   2.511   4.003  10.251 -0.0526 -0.2852 -0.8560
  476TMC3    O2 7145   2.142   4.354   9.928 -0.0307 -0.1016 -0.3787
  477MPD2     C 7146   3.820   0.662  11.681  0.3612 -0.6753 -0.4212
  477MPD2    C1 7147   3.727   0.665  11.786 -0.5696 -0.1099 -0.5724
  477MPD2    C2 7148   3.767   0.629  11.913  0.4580 -0.4251  0.1685
  477MPD2    C3 7149   3.893   0.566  11.927 -0.8569  0.1978 -0.0187
  477MPD2    C4 7150   3.980   0.562  11.819  0.9755  0.5566 -0.0302
  477MPD2    C5 7151   3.945   0.613  11.699 -0.0441 -0.4661  0.1320
  477MPD2     H 7152   3.704   0.645  12.000  0.0635 -0.6481 -0.0815
  477MPD2    H1 7153   4.075   0.513  11.831  1.3264  0.7468 -1.9141
  477MPD2    H2 7154   3.804   0.690  11.577  0.5137  1.7977  0.2165
  477MPD2    H3 7155   4.012   0.619  11.613 -1.6692 -0.4289 -1.1384
  477MPD2     N 7156   3.921   0.509  12.056 -0.6082 -0.0187  0.5581
  477MPD2    H5 7157   3.840   0.504  12.117  0.4753 -1.2717  1.8867
  477MPD2    N1 7158   3.596   0.713  11.745 -0.6203 -0.1709  0.2124
  477MPD2    H7 7159   3.590   0.742  11.648 -1.3985  2.8869  1.1727
  478TMC3    C1 7160   3.373   0.781  11.787 -0.3251  0.5121  0.3952
  478TMC3    C2 7161   3.296   0.840  11.879 -0.3613  0.3328  0.5336
  478TMC3    C3 7162   3.244   0.969  11.855  0.5492  0.4875  0.0118
  478TMC3    C4 7163   3.398   0.848  11.666  0.4679  0.1883  0.0011
  478TMC3    C5 7164   3.344   0.969  11.646  0.0321 -0.8199  0.2735
  478TMC3    C6 7165   3.270   1.039  11.738 -0.0940  0.1873 -0.0943
  478TMC3     C 7166   3.489   0.703  11.832  0.2097 -0.4809 -0.4746
  478TMC3     O 7167   3.478   0.659  11.944 -0.1727  0.1909 -0.2326
  478TMC3     H 7168   3.279   0.804  11.979  0.3972  0.1607  0.6018
  478TMC3    H1 7169   3.458   0.808  11.585 -0.0880 -1.1204  0.2211
  478TMC3    H2 7170   3.236   1.138  11.713 -1.8190 -0.2024  0.6710
  478TMC3    C7 7171   3.413   1.050  11.552  0.7961 -0.0683 -0.1966
  478TMC3    C8 7172   3.180   1.031  11.972 -0.1664  0.7528 -0.1474
  478TMC3    O1 7173   3.530   1.024  11.540 -0.3260  0.0157 -0.0149
  478TMC3    O2 7174   3.149   0.963  12.067 -0.0383 -0.1141  0.3505
  479MPD2     C 7175   2.716   2.864  15.539  0.3021 -0.2460  0.4708
  479MPD2    C1 7176   2.682   2.992  15.495 -0.0625 -0.0224  0.6733
  479MPD2    C2 7177   2.739   3.104  15.553 -0.3205 -0.1288 -0.0167
  479MPD2    C3 7178   2.838   3.090  15.645 -0.6472 -0.2528 -0.6857
  479MPD2    C4 7179   2.871   2.964  15.696  0.3856  0.4552 -0.7822
  479MPD2    C5 7180   2.810   2.850  15.643  0.3101 -0.1017 -0.8503
  479MPD2     H 7181   2.715   3.199  15.506 -1.5155  0.6707  2.2003
  479MPD2    H1 7182   2.939   2.947  15.779 -0.3606  1.5890  0.0569
  479MPD2    H2 7183   2.660   2.779  15.502  0.4318 -0.1975  0.1679
  479MPD2    H3 7184   2.822   2.758  15.699 -3.2186  0.1554  0.3009
  479MPD2     N 7185   2.904   3.198  15.708 -0.2287 -0.0930  0.1764
  479MPD2    H5 7186   2.985   3.175  15.764  0.4393  2.2573  0.1815
  479MPD2    N1 7187   2.579   2.998  15.404  0.2556 -0.2150  0.3057
  479MPD2    H7 7188   2.554   2.906  15.370  1.2916 -0.7676  1.0275
  480TMC3    C1 7189   2.537   3.426  15.723  0.3694  0.0239  0.0820
  480TMC3    C2 7190   2.536   3.532  15.637  0.1112 -0.0810 -0.2957
  480TMC3    C3 7191   2.644   3.558  15.564 -0.0173 -0.4168 -1.1671
  480TMC3    C4 7192   2.650   3.351  15.734  0.1556 -0.4726  0.6053
  480TMC3    C5 7193   2.761   3.384  15.659 -0.4094  0.0495  0.3116
  480TMC3    C6 7194   2.762   3.492  15.578  0.4789  0.9177  0.3600
  480TMC3     C 7195   2.425   3.339  15.700 -0.1375  0.2734 -0.2572
  480TMC3     O 7196   2.384   3.272  15.796 -1.0242 -0.3133  0.2304
  480TMC3     H 7197   2.446   3.591  15.623  1.4354  1.9808 -0.1091
  480TMC3    H1 7198   2.647   3.267  15.803  1.0111 -0.9369  0.0800
  480TMC3    H2 7199   2.857   3.518  15.532 -0.6331 -0.4152 -2.7256
  480TMC3    C7 7200   2.888   3.333  15.702  0.4602 -0.1313  0.0845
  480TMC3    C8 7201   2.615   3.598  15.426  0.4587 -0.0021  0.5222
  480TMC3    O1 7202   2.971   3.416  15.749  0.6545 -0.0002  0.0143
  480TMC3    O2 7203   2.504   3.647  15.411 -0.2058 -0.6253 -0.2406
  481MPD2     C 7204   4.121   2.378  14.138  0.0811 -0.5760  0.4786
  481MPD2    C1 7205   4.048   2.432  14.237 -0.2475 -0.3192 -0.1955
  481MPD2    C2 7206   4.097   2.420  14.369 -0.3776  0.0915 -0.0438
  481MPD2    C3 7207   4.225   2.378  14.393 -0.1403 -0.1518  0.2277
  481MPD2    C4 7208   4.303   2.340  14.285 -1.3605  0.0612  0.0721
  481MPD2    C5 7209   4.249   2.335  14.158  0.2232 -0.4714 -0.3638
  481MPD2     H 7210   4.036   2.462  14.448  0.5049  0.1542  0.5977
  481MPD2    H1 7211   4.407   2.312  14.300 -1.1336  1.4959  1.1521
  481MPD2    H2 7212   4.078   2.364  14.040 -1.3085  0.4049  0.9313
  481MPD2    H3 7213   4.311   2.315  14.071  1.5983  0.3920  0.4220
  481MPD2     N 7214   4.277   2.386  14.528  0.2680 -0.2300 -0.2591
  481MPD2    H5 7215   4.377   2.399  14.536  0.7068 -4.2754  1.0866
  481MPD2    N1 7216   3.925   2.485  14.203  0.2639  1.0639  0.2133
  481MPD2    H7 7217   3.895   2.476  14.106 -2.1849  0.2926  1.0373
  482TMC3    C1 7218   3.742   2.617  14.209 -0.3462  0.2801  0.6665
  482TMC3    C2 7219   3.678   2.521  14.131 -0.5691 -0.5005 -0.2822
  482TMC3    C3 7220   3.594   2.575  14.038 -0.5259  0.1506  0.0914
  482TMC3    C4 7221   3.726   2.760  14.202 -0.2615  0.4772  0.3893
  482TMC3    C5 7222   3.650   2.806  14.098  0.6067  0.1552 -1.3349
  482TMC3    C6 7223   3.590   2.713  14.010  0.1928 -0.3121  0.1417
  482TMC3     C 7224   3.852   2.566  14.285 -0.1920 -0.2720 -0.2834
  482TMC3     O 7225   3.871   2.621  14.391  0.0001 -0.5154 -0.2568
  482TMC3     H 7226   3.683   2.414  14.148  2.4053  0.0461  2.2825
  482TMC3    H1 7227   3.784   2.828  14.264  0.5620 -0.5272  0.7358
  482TMC3    H2 7228   3.526   2.763  13.938  0.0952 -1.3140 -0.4855
  482TMC3    C7 7229   3.705   2.926  14.037  0.6625  0.3663 -0.2178
  482TMC3    C8 7230   3.511   2.478  13.973 -0.1009  0.6989 -0.4192
  482TMC3    O1 7231   3.746   3.017  14.108  0.1791 -0.1695  0.1155
  482TMC3    O2 7232   3.521   2.356  13.983 -0.2375 -0.1959  0.0674
  483TMC3    C1 7233   1.659   1.328   1.189  0.7206  0.4792  0.2016
  483TMC3    C2 7234   1.701   1.461   1.189 -0.4607  0.7606 -0.2122
  483TMC3    C3 7235   1.819   1.482   1.249  0.7071 -0.0506  0.0172
  483TMC3    C4 7236   1.724   1.227   1.259  0.3261 -0.4502 -0.0487
  483TMC3    C5 7237   1.834   1.261   1.329 -0.6297 -0.1760  0.1521
  483TMC3    C6 7238   1.885   1.392   1.325 -0.6156 -0.5214 -0.1601
  483TMC3     C 7239   1.545   1.296   1.108 -0.1438 -0.2418  0.0160
  483TMC3     O 7240   1.487   1.388   1.058  0.0025 -0.3791 -0.2643
  483TMC3     H 7241   1.626   1.532   1.154 -0.1050  0.8552 -0.7743
  483TMC3    H1 7242   1.688   1.126   1.277 -0.5886 -0.1092  0.0218
  483TMC3    H2 7243   1.982   1.416   1.366 -1.1692 -0.3898  1.0897
  483TMC3    C7 7244   1.901   1.151   1.390 -0.4037 -0.1401 -0.1471
  483TMC3    C8 7245   1.868   1.617   1.210 -0.4240  0.0443  0.6516
  483TMC3    O1 7246   1.865   1.033   1.376 -0.1679  0.3767 -0.2198
  483TMC3    O2 7247   1.819   1.677   1.115 -0.1334 -0.3393 -0.3875
  484MPD2     C 7248   4.364   4.558  12.632 -0.4271 -0.0238  0.7451
  484MPD2    C1 7249   4.405   4.472  12.733  0.6638 -0.5808 -0.0931
  484MPD2    C2 7250   4.529   4.489  12.789 -0.5011  0.2399  0.5065
  484MPD2    C3 7251   4.614   4.592  12.737  0.3658 -0.3489 -0.4330
  484MPD2    C4 7252   4.562   4.678  12.641 -0.3774 -0.4026  0.3856
  484MPD2    C5 7253   4.443   4.652  12.580  0.1914 -0.6001  0.1827
  484MPD2     H 7254   4.559   4.422  12.869 -4.5821  0.4890  2.2374
  484MPD2    H1 7255   4.630   0.017  12.599 -0.2468  0.5329  2.2434
  484MPD2    H2 7256   4.264   4.553  12.592  0.0758 -2.3039 -0.2030
  484MPD2    H3 7257   4.419   4.703  12.487  0.6837  0.7736  0.8154
  484MPD2     N 7258   0.016   4.608  12.779 -0.0201  0.0997 -0.5817
  484MPD2    H5 7259   0.059   4.695  12.747 -1.0774  0.1877 -1.7840
  484MPD2    N1 7260   4.311   4.372  12.763 -0.1657 -0.1648  0.1483
  484MPD2    H7 7261   4.238   4.368  12.693 -0.5894  0.5053  0.5477
  485TMC3    C1 7262   0.231   4.551  12.829 -0.1255 -0.7437  0.0747
  485TMC3    C2 7263   0.318   4.480  12.907  0.0932  0.5269  0.8370
  485TMC3    C3 7264   0.453   4.507  12.884  0.1756  0.3994  0.0351
  485TMC3    C4 7265   0.276   4.637  12.728 -0.4377 -0.4341 -0.0434
  485TMC3    C5 7266   0.406   4.654  12.706 -0.4002  0.3065  0.1523
  485TMC3    C6 7267   0.494   4.600  12.793 -0.2552 -0.9148 -0.3758
  485TMC3     C 7268   0.089   4.519  12.843  0.1396  0.1237  0.5129
  485TMC3     O 7269   0.057   4.403  12.878 -0.2689 -0.4757 -0.0034
  485TMC3     H 7270   0.282   4.412  12.983  0.1146 -0.5426 -0.1051
  485TMC3    H1 7271   0.211   4.679  12.652  0.8575 -0.4221 -1.1418
  485TMC3    H2 7272   0.598   4.629  12.779 -0.4723  0.5652  1.1457
  485TMC3    C7 7273   0.435   4.645  12.566 -0.0455  0.7507  0.0707
  485TMC3    C8 7274   0.543   4.398  12.866 -0.6019  0.2212  0.1858
  485TMC3    O1 7275   0.381   4.727  12.488 -0.7525  0.0709  0.1183
  485TMC3    O2 7276   0.643   4.413  12.803  0.1055 -0.0598 -0.0606
  486MPD2     C 7277   2.329   3.116  12.979  0.2628 -0.1352  0.0905
  486MPD2    C1 7278   2.221   3.077  12.904 -0.2264  0.4043  0.0795
  486MPD2    C2 7279   2.119   3.171  12.885  0.1129  0.0981  0.0238
  486MPD2    C3 7280   2.140   3.302  12.917  0.5846  0.1429  0.2981
  486MPD2    C4 7281   2.261   3.341  12.982 -0.0911 -0.1323  1.0497
  486MPD2    C5 7282   2.347   3.243  13.024 -0.6696 -0.1090  0.0223
  486MPD2     H 7283   2.031   3.133  12.834  0.6928 -0.4579 -0.5833
  486MPD2    H1 7284   2.283   3.441  13.016  0.8224 -0.2895  0.9262
  486MPD2    H2 7285   2.409   3.044  12.992  0.9056  0.8605  1.6703
  486MPD2    H3 7286   2.436   3.268  13.080 -0.7857  1.1203 -0.3436
  486MPD2     N 7287   2.042   3.391  12.885 -0.2362  0.3704 -0.9936
  486MPD2    H5 7288   1.954   3.354  12.849 -1.0389  1.8237 -0.5087
  486MPD2    N1 7289   2.214   2.942  12.870  0.0610  0.0821 -0.0661
  486MPD2    H7 7290   2.298   2.890  12.896  0.5915  1.2069  0.4922
  487TMC3    C1 7291   2.161   2.745  12.749  0.3606  0.2268  0.2912
  487TMC3    C2 7292   2.094   2.685  12.642 -0.2928 -0.4500 -0.5287
  487TMC3    C3 7293   2.079   2.551  12.653  0.2446  0.3862  0.5552
  487TMC3    C4 7294   2.210   2.666  12.850  0.1710  0.6408 -0.1563
  487TMC3    C5 7295   2.201   2.531  12.844 -0.0892 -0.6097 -0.0839
  487TMC3    C6 7296   2.142   2.469  12.738  0.7983  0.4010  0.9786
  487TMC3     C 7297   2.128   2.882  12.778 -0.5885 -0.2533  0.0477
  487TMC3     O 7298   2.029   2.924  12.716  0.7711 -0.4001 -0.3417
  487TMC3     H 7299   2.021   2.739  12.583 -1.5161 -3.2231 -1.5191
  487TMC3    H1 7300   2.254   2.711  12.938  0.9936  0.4678 -0.4780
  487TMC3    H2 7301   2.122   2.362  12.740 -0.3822  0.6214  1.1629
  487TMC3    C7 7302   2.150   2.481  12.975 -0.1903 -0.9274  0.1918
  487TMC3    C8 7303   1.948   2.494  12.613 -0.6137 -0.1695  1.2605
  487TMC3    O1 7304   2.230   2.487  13.071  0.6136 -0.4388 -0.1339
  487TMC3    O2 7305   1.940   2.406  12.525 -0.0931  0.0805 -0.2127
  488MPD2     C 7306   1.679   0.282  16.313 -0.4892 -0.2871  0.3698
  488MPD2    C1 7307   1.782   0.334  16.386  0.0910  0.5402  1.0717
  488MPD2    C2 7308   1.811   0.274  16.506  0.3909 -0.2442 -1.2226
  488MPD2    C3 7309   1.762   0.146  16.539 -0.0428 -0.2261  0.5624
  488MPD2    C4 7310   1.668   0.095  16.455 -0.5288  0.3280  0.4861
  488MPD2    C5 7311   1.631   0.155  16.339  0.5302  0.5556  0.7055
  488MPD2     H 7312   1.878   0.321  16.577 -0.5101 -0.5965 -0.1490
  488MPD2    H1 7313   1.623   4.732  16.471  0.1006 -0.1904 -0.8985
  488MPD2    H2 7314   1.646   0.324  16.218 -0.4595 -1.2606 -0.0739
  488MPD2    H3 7315   1.571   0.107  16.262  0.0645  0.8274  0.9014
  488MPD2     N 7316   1.791   0.090  16.663  0.4495  0.1805  0.8554
  488MPD2    H5 7317   1.847   0.153  16.719  0.5688  0.4150  0.4738
  488MPD2    N1 7318   1.847   0.456  16.366 -0.0135 -0.0479 -0.2675
  488MPD2    H7 7319   1.914   0.473  16.439  1.2075 -0.5244 -1.2769
  489TMC3    C1 7320   1.812   4.682  16.847  0.6964  0.4394 -0.3073
  489TMC3    C2 7321   1.926   0.013  16.888  0.0492  0.0944  0.1497
  489TMC3    C3 7322   1.974   0.005  17.015 -0.3150 -0.2425  0.4635
  489TMC3    C4 7323   1.744   4.607  16.938  0.3192 -0.5659  0.3909
  489TMC3    C5 7324   1.782   4.612  17.071  0.4738 -0.0963 -0.3789
  489TMC3    C6 7325   1.900   4.670  17.106 -0.1029  0.4379  0.7705
  489TMC3     C 7326   1.739   4.715  16.721  0.6392  0.1630 -0.7415
  489TMC3     O 7327   1.672   4.626  16.675 -0.1283 -0.2816  0.9084
  489TMC3     H 7328   1.983   0.079  16.823 -0.1852 -0.4816 -0.6504
  489TMC3    H1 7329   1.648   4.564  16.914 -0.1530  1.0666 -0.6532
  489TMC3    H2 7330   1.924   4.667  17.212 -0.3282 -0.0638  0.8064
  489TMC3    C7 7331   1.725   4.521  17.163 -0.7382  0.4329  0.9851
  489TMC3    C8 7332   2.050   0.127  17.053 -0.5314 -0.8914 -0.8633
  489TMC3    O1 7333   1.790   4.473  17.254  0.1942 -0.1461  0.1740
  489TMC3    O2 7334   2.123   0.181  16.967 -0.2139  0.2902  0.0191
  490MPD2     C 7335   3.059   3.905  17.460 -0.3428  0.4749 -0.0113
  490MPD2    C1 7336   2.931   3.942  17.411  0.1679 -0.1267 -0.7104
  490MPD2    C2 7337   2.928   4.064  17.345  0.5299  0.8781  0.2532
  490MPD2    C3 7338   3.039   4.153  17.333 -0.3306  0.0339 -0.4383
  490MPD2    C4 7339   3.160   4.109  17.382 -0.2462 -0.3887  0.0526
  490MPD2    C5 7340   3.166   3.992  17.448 -0.6928  0.2889 -0.3933
  490MPD2     H 7341   2.837   4.104  17.301  0.2991 -1.8720 -1.7254
  490MPD2    H1 7342   3.244   4.177  17.390 -1.0552  0.6650 -0.3814
  490MPD2    H2 7343   3.083   3.819  17.523 -2.3375 -0.8154 -1.0111
  490MPD2    H3 7344   3.262   3.966  17.489 -1.6862 -0.4404  1.4785
  490MPD2     N 7345   3.024   4.274  17.271  0.7979  0.0533  0.4008
  490MPD2    H5 7346   3.116   4.314  17.256  0.0809  1.5771  0.1417
  490MPD2    N1 7347   2.804   3.871  17.421 -0.2273 -0.5914 -0.0624
  490MPD2    H7 7348   2.720   3.921  17.393 -0.9938 -2.3889 -1.0310
  491TMC3    C1 7349   2.660   3.690  17.452 -0.0051 -0.5587  0.1900
  491TMC3    C2 7350   2.600   3.610  17.550 -0.2569 -0.0520  0.2990
  491TMC3    C3 7351   2.473   3.570  17.536  0.0171  0.0755  0.4520
  491TMC3    C4 7352   2.590   3.739  17.346  0.4624 -0.1203 -0.0979
  491TMC3    C5 7353   2.462   3.697  17.336  0.1415 -0.3444  0.1916
  491TMC3    C6 7354   2.404   3.618  17.427  0.6889 -1.0541  0.5500
  491TMC3     C 7355   2.788   3.753  17.486 -0.1635 -0.0652  0.2966
  491TMC3     O 7356   2.862   3.690  17.562  0.2070  0.0524 -0.1687
  491TMC3     H 7357   2.660   3.608  17.641  2.8990 -3.8981 -1.8490
  491TMC3    H1 7358   2.640   3.794  17.267 -2.4876  0.7210 -1.3660
  491TMC3    H2 7359   2.301   3.585  17.422  0.3789 -0.1251  0.7329
  491TMC3    C7 7360   2.386   3.726  17.215 -0.2481  0.1385 -0.8621
  491TMC3    C8 7361   2.392   3.550  17.650 -0.2368 -0.1055  0.0490
  491TMC3    O1 7362   2.293   3.653  17.184  0.5982 -0.1574  0.3475
  491TMC3    O2 7363   2.277   3.592  17.650 -0.2304  0.0108 -0.1623
  492MPD2     C 7364   3.466   4.162  11.654  0.3056 -0.0944 -0.7897
  492MPD2    C1 7365   3.401   4.111  11.545 -0.2324 -0.2471 -1.2150
  492MPD2    C2 7366   3.287   4.041  11.569 -0.3058  0.7740  0.7768
  492MPD2    C3 7367   3.239   4.028  11.696 -0.0474  0.2448  0.6840
  492MPD2    C4 7368   3.295   4.097  11.800  0.0645  0.0089  0.2072
  492MPD2    C5 7369   3.408   4.167  11.775 -0.1854 -0.0389  0.6410
  492MPD2     H 7370   3.241   3.991  11.485 -1.1589  0.6555  1.3114
  492MPD2    H1 7371   3.263   4.074  11.901 -1.3577  0.3990 -0.1589
  492MPD2    H2 7372   3.557   4.218  11.640  1.4674 -1.8195 -0.1164
  492MPD2    H3 7373   3.460   4.209  11.861  3.5738  1.4225 -2.3429
  492MPD2     N 7374   3.128   3.942  11.729  0.7103  0.1094  0.0683
  492MPD2    H5 7375   3.101   3.928  11.826  1.0365  0.2800  0.1844
  492MPD2    N1 7376   3.455   4.142  11.418 -0.3851 -0.5592 -0.0974
  492MPD2    H7 7377   3.539   4.196  11.400 -0.9646  0.4348  0.2211
  493TMC3    C1 7378   3.465   4.156  11.179  0.0988  0.1734  0.5139
  493TMC3    C2 7379   3.542   4.269  11.179  0.0684 -0.0214  0.1686
  493TMC3    C3 7380   3.582   4.318  11.056  0.3205  0.4821  0.6900
  493TMC3    C4 7381   3.423   4.097  11.061  0.0866  0.8279 -0.0169
  493TMC3    C5 7382   3.462   4.160  10.946  0.7140 -0.1990  1.0963
  493TMC3    C6 7383   3.531   4.274  10.940 -0.1708 -0.0010 -0.2415
  493TMC3     C 7384   3.404   4.098  11.302  0.0849  0.7921 -0.5468
  493TMC3     O 7385   3.310   4.022  11.281  0.0849  0.2361 -0.0799
  493TMC3     H 7386   3.558   4.321  11.273  0.2719  1.0052 -0.4267
  493TMC3    H1 7387   3.352   4.015  11.061  0.3289  0.6175  0.8946
  493TMC3    H2 7388   3.561   4.318  10.846 -0.5804  1.5244  0.3447
  493TMC3    C7 7389   3.430   4.083  10.831  0.1256  1.3581  0.1481
  493TMC3    C8 7390   3.641   4.445  11.077 -0.4773 -0.3534 -0.1429
  493TMC3    O1 7391   3.418   4.141  10.721 -0.0865  0.4856 -0.0832
  493TMC3    O2 7392   3.710   4.455  11.176 -0.2406 -0.3851 -0.4239
  494TMC3    C1 7393   3.199   1.016   0.257 -0.3948  0.1731  0.0217
  494TMC3    C2 7394   3.185   0.878   0.244 -0.0643 -0.6114 -0.3197
  494TMC3    C3 7395   3.271   0.809   0.162  0.1163  0.5203 -0.1341
  494TMC3    C4 7396   3.321   1.073   0.222  0.1497 -0.1246  0.4805
  494TMC3    C5 7397   3.408   0.991   0.160  0.2723  0.3821 -0.6794
  494TMC3    C6 7398   3.390   0.856   0.124  0.3708  0.6891  0.6704
  494TMC3     C 7399   3.151   1.062   0.384 -0.0416 -0.0192 -0.1272
  494TMC3     O 7400   3.180   0.992   0.477 -0.1648  0.2983 -0.3168
  494TMC3     H 7401   3.105   0.826   0.294 -0.4423 -0.3961 -0.7029
  494TMC3    H1 7402   3.324   1.177   0.253  3.2805  0.1814 -0.8471
  494TMC3    H2 7403   3.457   0.802   0.058 -0.3535  0.0173  0.4908
  494TMC3    C7 7404   3.524   1.048   0.097  0.5124 -0.5256 -0.4462
  494TMC3    C8 7405   3.246   0.666   0.145  0.3304  0.4309 -0.3424
  494TMC3    O1 7406   3.600   0.972   0.041 -0.5018  0.0347  0.4256
  494TMC3    O2 7407   3.129   0.635   0.152  0.5742  0.4207 -0.1728
  495TMC3    C1 7408   2.776   3.041  14.624 -0.0509  0.3047  0.8069
  495TMC3    C2 7409   2.729   3.105  14.515 -0.3829 -0.0439  0.3219
  495TMC3    C3 7410   2.696   3.234  14.510  0.2858 -0.2156  0.3017
  495TMC3    C4 7411   2.799   3.102  14.740  0.2347 -0.4650  0.0356
  495TMC3    C5 7412   2.780   3.240  14.731  0.1436 -0.3312  0.8509
  495TMC3    C6 7413   2.720   3.306  14.625  0.3294 -0.0214 -0.0496
  495TMC3     C 7414   2.744   2.901  14.623 -0.2369 -0.2404  0.3080
  495TMC3     O 7415   2.666   2.864  14.533  0.5487 -0.3748 -0.1397
  495TMC3     H 7416   2.710   3.048  14.424  0.4909  2.2371 -1.3002
  495TMC3    H1 7417   2.823   3.049  14.832 -1.5698 -2.2292 -0.5213
  495TMC3    H2 7418   2.690   3.410  14.624 -0.7423 -0.3539 -1.6447
  495TMC3    C7 7419   2.771   3.309  14.861 -0.4836  0.2567  0.5122
  495TMC3    C8 7420   2.574   3.274  14.438 -0.0094  0.5422  0.6597
  495TMC3    O1 7421   2.787   3.242  14.958  0.4206 -0.0086 -0.0793
  495TMC3    O2 7422   2.503   3.356  14.493  0.0677 -0.0476  0.0092
  496MPD2     C 7423   4.511   3.103  14.816 -0.0309 -0.1450  0.1787
  496MPD2    C1 7424   4.598   3.138  14.914 -0.1639 -0.0787 -0.2415
  496MPD2    C2 7425   4.566   3.234  15.000 -0.0520  0.3311 -0.4517
  496MPD2    C3 7426   4.435   3.277  15.020  0.0674 -0.1811  0.0372
  496MPD2    C4 7427   4.338   3.227  14.932  0.3469  0.0637  0.2201
  496MPD2    C5 7428   4.380   3.146  14.830  0.4699  0.8535 -0.2489
  496MPD2     H 7429   4.638   3.271  15.071 -0.0327 -0.5069 -0.0322
  496MPD2    H1 7430   4.238   3.268  14.928  0.7316  1.2655  3.3557
  496MPD2    H2 7431   4.542   3.053  14.725  0.2782  0.2438  0.0714
  496MPD2    H3 7432   4.296   3.126  14.764 -0.3819  0.3689  0.9761
  496MPD2     N 7433   4.399   3.373  15.121 -0.2581 -0.3409 -0.7726
  496MPD2    H5 7434   4.300   3.396  15.129  0.6567  3.0952  0.4284
  496MPD2    N1 7435   4.727   3.089  14.902  0.5636 -0.8027 -0.3465
  496MPD2    H7 7436   0.010   3.027  14.823 -0.3082  0.3542 -1.4321
  497TMC3    C1 7437   4.426   3.520  15.317  0.7865 -0.5297 -0.6694
  497TMC3    C2 7438   4.308   3.496  15.370 -0.3367  0.4107  0.1185
  497TMC3    C3 7439   4.283   3.536  15.495  0.1860 -0.6576  0.3178
  497TMC3    C4 7440   4.521   3.580  15.397  0.1906 -0.4463  0.1632
  497TMC3    C5 7441   4.499   3.607  15.530 -1.0645 -0.4632 -0.4040
  497TMC3    C6 7442   4.376   3.586  15.586 -0.7904 -0.6549 -0.0836
  497TMC3     C 7443   4.487   3.434  15.211 -0.4129 -0.2336 -0.4719
  497TMC3     O 7444   4.609   3.426  15.217  0.4094  0.3126 -0.2164
  497TMC3     H 7445   4.227   3.454  15.313  1.1655  0.3947 -2.0298
  497TMC3    H1 7446   4.616   3.607  15.351 -0.2324 -0.1304 -0.5100
  497TMC3    H2 7447   4.359   3.622  15.686  2.5879  2.4350 -0.6138
  497TMC3    C7 7448   4.602   3.694  15.587  0.0547  0.4050  0.3152
  497TMC3    C8 7449   4.145   3.563  15.520  0.3527 -0.1833 -0.9854
  497TMC3    O1 7450   4.675   3.751  15.508 -0.0102  0.1465  0.4166
  497TMC3    O2 7451   4.112   3.581  15.635  0.1412  0.2115  0.1328
  498MPD2     C 7452   1.229   4.055   9.658  0.0327 -0.1375  0.3229
  498MPD2    C1 7453   1.203   4.151   9.759 -0.2652  0.0112  0.7582
  498MPD2    C2 7454   1.093   4.124   9.839 -0.4067 -0.6694  0.2789
  498MPD2    C3 7455   1.015   4.011   9.830  0.0754  0.1565 -0.2488
  498MPD2    C4 7456   1.053   3.919   9.734  0.0069 -0.7354  0.1914
  498MPD2    C5 7457   1.155   3.940   9.648 -0.3171 -0.2894 -0.1748
  498MPD2     H 7458   1.063   4.202   9.909 -0.7924 -0.1150 -0.5028
  498MPD2    H1 7459   1.003   3.824   9.724  0.6799 -1.1774  0.9488
  498MPD2    H2 7460   1.313   4.061   9.590 -2.1489  0.4518 -2.3377
  498MPD2    H3 7461   1.175   3.868   9.570  0.4941 -0.2610  0.0064
  498MPD2     N 7462   0.903   3.990   9.922  0.2532  0.2435 -0.4893
  498MPD2    H5 7463   0.912   4.050  10.003 -1.6592 -1.4134  0.9297
  498MPD2    N1 7464   1.267   4.272   9.768 -0.0363  0.0450 -0.2814
  498MPD2    H7 7465   1.243   4.344   9.836  1.3171 -0.8493  1.1346
  499TMC3    C1 7466   1.439   4.434   9.723  0.2674 -0.2309  1.2594
  499TMC3    C2 7467   1.575   4.448   9.706 -1.0870  0.0415 -0.5409
  499TMC3    C3 7468   1.639   4.569   9.733 -0.5278  0.2824 -0.4195
  499TMC3    C4 7469   1.358   4.539   9.755  1.1096  0.3597 -0.4291
  499TMC3    C5 7470   1.423   4.659   9.777  0.6926  0.0780 -1.3897
  499TMC3    C6 7471   1.559   4.676   9.765  0.1807 -0.4225 -0.1744
  499TMC3     C 7472   1.392   4.301   9.703 -0.0582  0.6773  0.4445
  499TMC3     O 7473   1.468   4.223   9.649  0.0283  0.0564 -0.5003
  499TMC3     H 7474   1.626   4.360   9.669 -1.1455 -0.6810  1.1009
  499TMC3    H1 7475   1.250   4.528   9.765  1.0652  0.8468 -0.3700
  499TMC3    H2 7476   1.598   0.043   9.756  1.1078 -0.9308 -1.9117
  499TMC3    C7 7477   1.340   0.043   9.763 -0.3707 -0.1455 -1.4182
  499TMC3    C8 7478   1.777   4.587   9.684  0.2087 -0.1447  0.3356
  499TMC3    O1 7479   1.387   0.154   9.731  0.3388  0.3663  0.3379
  499TMC3    O2 7480   1.816   4.704   9.685 -0.5019  0.2528  0.4820
  500MPD2     C 7481   2.241   0.783  10.740  0.6341 -0.0344 -0.2319
  500MPD2    C1 7482   2.262   0.819  10.609 -0.6015  0.3518  0.1547
  500MPD2    C2 7483   2.150   0.846  10.534  0.4004 -0.4936 -0.0598
  500MPD2    C3 7484   2.021   0.834  10.582 -0.0893 -0.5169 -0.2147
  500MPD2    C4 7485   2.005   0.801  10.710  0.1145 -0.0150 -0.0454
  500MPD2    C5 7486   2.116   0.785  10.788  0.1836 -0.1995  0.1205
  500MPD2     H 7487   2.162   0.862  10.427  0.1566  0.8109  0.1108
  500MPD2    H1 7488   1.914   0.819  10.767 -1.1600  1.1646 -2.4639
  500MPD2    H2 7489   2.326   0.760  10.802 -0.1442  0.3522  0.9669
  500MPD2    H3 7490   2.098   0.783  10.894  0.0037  1.6231  0.1219
  500MPD2     N 7491   1.904   0.852  10.505  0.1481 -0.3779 -0.6872
  500MPD2    H5 7492   1.815   0.816  10.539 -1.0072  1.4425 -1.7869
  500MPD2    N1 7493   2.398   0.816  10.561  0.1726 -0.0929 -0.1501
  500MPD2    H7 7494   2.468   0.772  10.619 -0.5801 -0.5188  0.4384
  501TMC3    C1 7495   2.578   0.842  10.414 -0.3488 -0.2832  0.5762
  501TMC3    C2 7496   2.648   0.944  10.376 -0.5064  0.1645 -0.8449
  501TMC3    C3 7497   2.785   0.944  10.412  0.4284 -0.5174 -0.5374
  501TMC3    C4 7498   2.639   0.734  10.478 -0.7634 -0.3589 -0.2365
  501TMC3    C5 7499   2.778   0.729  10.498 -0.3070 -0.8040 -0.5135
  501TMC3    C6 7500   2.855   0.833  10.459 -0.0920 -0.2540 -0.3864
  501TMC3     C 7501   2.438   0.872  10.442  0.4551 -0.4047  0.3178
  501TMC3     O 7502   2.373   0.945  10.368  0.1614  0.2672 -0.1206
  501TMC3     H 7503   2.599   1.036  10.345  1.5851  1.4698 -0.2162
  501TMC3    H1 7504   2.583   0.654  10.526  0.0318 -2.2747 -2.4793
  501TMC3    H2 7505   2.960   0.839  10.487  0.0654 -0.9792 -0.8295
  501TMC3    C7 7506   2.827   0.646  10.609  0.1705 -0.2895 -0.5707
  501TMC3    C8 7507   2.857   1.068  10.434 -0.4671 -0.0537 -0.2614
  501TMC3    O1 7508   2.897   0.701  10.696  0.1009 -0.2383  0.1246
  501TMC3    O2 7509   2.938   1.057  10.527 -0.0683  0.0087  0.1353
  502TMC3    C1 7510   1.895   4.417  14.846  0.6958 -0.2262 -0.7138
  502TMC3    C2 7511   1.844   4.532  14.798 -0.2562 -0.4465  0.0782
  502TMC3    C3 7512   1.707   4.544  14.800  0.2375  0.2267  0.3914
  502TMC3    C4 7513   1.817   4.306  14.874  0.4543 -0.2315  0.0146
  502TMC3    C5 7514   1.682   4.326  14.865 -0.4137  0.8131  0.0560
  502TMC3    C6 7515   1.625   4.443  14.836  0.2511  0.2388  0.3717
  502TMC3     C 7516   1.995   4.430  14.939  0.6377 -0.3106 -0.3844
  502TMC3     O 7517   2.098   4.493  14.914  0.7490  0.2517 -0.1936
  502TMC3     H 7518   1.906   4.619  14.779 -1.5805 -0.0621 -2.5342
  502TMC3    H1 7519   1.860   4.211  14.902  2.4777  0.3382 -1.1763
  502TMC3    H2 7520   1.517   4.446  14.822 -0.0138 -3.6021  1.8409
  502TMC3    C7 7521   1.610   4.216  14.937 -0.2835  0.0822  0.9175
  502TMC3    C8 7522   1.646   4.677  14.779 -0.0706 -0.4276 -0.3627
  502TMC3    O1 7523   1.675   4.113  14.956 -0.0406  0.1098  0.1902
  502TMC3    O2 7524   1.717   0.041  14.791  0.4698  0.5965  0.1224
  503MPD2     C 7525   3.990   0.185  16.601  0.6673  0.0747  0.5027
  503MPD2    C1 7526   3.929   0.163  16.718 -0.3166 -0.3110 -0.4429
  503MPD2    C2 7527   3.925   0.039  16.786  0.2041  0.2686  0.2178
  503MPD2    C3 7528   3.991   4.666  16.725  0.0865 -0.2922  0.6751
  503MPD2    C4 7529   4.059   4.692  16.604  0.1569  0.6397  0.0237
  503MPD2    C5 7530   4.051   0.079  16.541  0.3023  0.4592  0.1403
  503MPD2     H 7531   3.872   0.029  16.880  2.0750 -2.3157  0.9730
  503MPD2    H1 7532   4.120   4.623  16.547  0.9682  2.5556 -1.4313
  503MPD2    H2 7533   3.992   0.284  16.557  2.6770 -0.3687 -0.3855
  503MPD2    H3 7534   4.104   0.086  16.447  0.3944  0.1430  0.1680
  503MPD2     N 7535   3.987   4.540  16.790  0.4293 -0.1096  0.0524
  503MPD2    H5 7536   3.937   4.537  16.879  3.2802  1.6618  1.6941
  503MPD2    N1 7537   3.870   0.263  16.797 -0.2184 -0.0734  0.1192
  503MPD2    H7 7538   3.816   0.228  16.875  0.9877 -2.3724 -0.0733
  504TMC3    C1 7539   4.060   4.337  16.872 -0.5788 -0.5457 -0.5761
  504TMC3    C2 7540   4.018   4.393  16.992  0.2606 -0.0752 -0.0603
  504TMC3    C3 7541   4.101   4.369  17.100 -0.2712  0.4813 -0.6561
  504TMC3    C4 7542   4.161   4.250  16.869 -0.1223 -0.3629 -0.1577
  504TMC3    C5 7543   4.244   4.242  16.980 -0.5006 -0.4540  0.3825
  504TMC3    C6 7544   4.212   4.300  17.099  0.1125  0.1128 -0.5805
  504TMC3     C 7545   4.064   4.427  16.760 -0.3759 -0.7260 -0.2533
  504TMC3     O 7546   4.126   4.397  16.660 -0.2246  0.9877 -0.2949
  504TMC3     H 7547   3.921   4.435  17.017  0.9984  1.1436  0.7597
  504TMC3    H1 7548   4.184   4.205  16.773  1.3903  0.0471  0.0170
  504TMC3    H2 7549   4.286   4.308  17.179  1.0133 -1.3318 -1.2611
  504TMC3    C7 7550   4.373   4.172  16.970  1.0366 -0.1380 -0.3811
  504TMC3    C8 7551   4.062   4.452  17.212 -0.3624  0.5941 -0.3953
  504TMC3    O1 7552   4.382   4.097  16.873  0.4468  0.4185  0.3944
  504TMC3    O2 7553   4.012   4.560  17.197 -0.2562  0.4076 -0.0192
  505MPD2     C 7554   0.156   3.053  11.123  0.1142 -0.1448  0.6040
  505MPD2    C1 7555   0.220   3.110  11.013  0.2432  0.3344  0.0140
  505MPD2    C2 7556   0.300   3.225  11.032 -0.2892 -0.3039  0.0968
  505MPD2    C3 7557   0.320   3.275  11.160 -0.6346 -0.4481 -0.3996
  505MPD2    C4 7558   0.248   3.222  11.271  0.3927 -1.0456 -0.3298
  505MPD2    C5 7559   0.167   3.111  11.250 -0.6697 -0.1994  0.2727
  505MPD2     H 7560   0.347   3.265  10.943 -0.4079 -1.0090 -0.2869
  505MPD2    H1 7561   0.262   3.260  11.371 -0.0284 -0.1412 -0.6137
  505MPD2    H2 7562   0.103   2.959  11.108  0.8808 -0.2461 -1.4478
  505MPD2    H3 7563   0.117   3.067  11.336 -1.9213 -1.4598 -1.1022
  505MPD2     N 7564   0.420   3.375  11.190 -0.1691 -0.3585 -0.5913
  505MPD2    H5 7565   0.427   3.401  11.288 -2.6223  3.1445 -1.3627
  505MPD2    N1 7566   0.205   3.039  10.894  0.0548 -0.0285 -0.1123
  505MPD2    H7 7567   0.146   2.956  10.893 -0.1185  0.0936  0.1281
  506TMC3    C1 7568   0.288   2.980  10.684 -0.0643  0.8312 -0.0890
  506TMC3    C2 7569   0.308   3.011  10.555 -0.4635  0.0037 -0.3728
  506TMC3    C3 7570   0.404   2.945  10.485  0.3515 -0.0498 -0.0937
  506TMC3    C4 7571   0.359   2.874  10.742  0.0219  0.0009 -0.0719
  506TMC3    C5 7572   0.453   2.812  10.669 -0.3623  0.4759  0.0892
  506TMC3    C6 7573   0.474   2.843  10.539 -0.2191  0.0797  0.4857
  506TMC3     C 7574   0.256   3.084  10.771 -0.0724 -0.9460 -1.1825
  506TMC3     O 7575   0.299   3.198  10.741 -0.1937  0.0211  0.7785
  506TMC3     H 7576   0.262   3.098  10.511  0.4411 -0.3736 -2.0654
  506TMC3    H1 7577   0.360   2.857  10.849  1.6149  0.3300 -0.0432
  506TMC3    H2 7578   0.549   2.789  10.483 -2.2172 -2.1284 -0.0534
  506TMC3    C7 7579   0.563   2.781  10.759  0.4185 -0.0327  0.4179
  506TMC3    C8 7580   0.424   2.977  10.345 -0.2120  0.5217 -0.5118
  506TMC3    O1 7581   0.553   2.674  10.821  0.1846 -0.2238  0.1419
  506TMC3    O2 7582   0.446   2.886  10.267 -0.0289  1.0046  0.3187
  507TMC3    C1 7583   0.561   4.350  14.683 -0.4535  0.6833 -0.0218
  507TMC3    C2 7584   0.534   4.222  14.632  0.3148 -0.7849  0.2976
  507TMC3    C3 7585   0.544   4.189  14.499  0.6425 -0.0628 -0.1455
  507TMC3    C4 7586   0.604   4.446  14.591 -0.2957 -0.9973 -0.0867
  507TMC3    C5 7587   0.624   4.409  14.458 -0.2881  0.0218  0.0375
  507TMC3    C6 7588   0.590   4.283  14.417  0.9982 -0.2181 -0.0636
  507TMC3     C 7589   0.468   4.400  14.779  0.2915 -0.4812 -0.6865
  507TMC3     O 7590   0.498   4.506  14.828  0.4180 -0.0072 -0.3318
  507TMC3     H 7591   0.500   4.143  14.697  1.9803 -2.9454 -1.4860
  507TMC3    H1 7592   0.601   4.551  14.617  1.5813 -0.0700 -3.6712
  507TMC3    H2 7593   0.607   4.256  14.313 -1.1969 -1.1757 -0.1629
  507TMC3    C7 7594   0.584   4.508  14.360  0.1176  0.4502 -0.3474
  507TMC3    C8 7595   0.411   4.142  14.462 -0.0536 -0.4116 -0.2236
  507TMC3    O1 7596   0.500   4.459  14.283  0.1911 -0.2670 -0.0621
  507TMC3    O2 7597   0.342   4.075  14.538  0.4835  0.0197 -0.1071
  508MPD2     C 7598   0.923   2.018  16.168 -0.2603 -0.1517  0.1098
  508MPD2    C1 7599   1.011   2.116  16.131  0.5771 -0.2900  0.5251
  508MPD2    C2 7600   1.038   2.138  15.995  0.3435 -0.0108  0.1535
  508MPD2    C3 7601   0.969   2.061  15.902  0.3862 -0.4418 -0.2187
  508MPD2    C4 7602   0.882   1.964  15.941  0.2130  0.0672  0.1000
  508MPD2    C5 7603   0.853   1.945  16.072  0.3676  0.2612  0.4512
  508MPD2     H 7604   1.117   2.205  15.961 -0.7938  1.0190 -0.4363
  508MPD2    H1 7605   0.829   1.907  15.865  1.4120  0.9627 -1.3940
  508MPD2    H2 7606   0.916   2.004  16.275  0.2646 -1.2468  0.0076
  508MPD2    H3 7607   0.780   1.870  16.101 -0.5438  0.8515 -0.2862
  508MPD2     N 7608   0.982   2.097  15.769  0.0039 -0.1986  0.3788
  508MPD2    H5 7609   1.061   2.160  15.758  0.6702 -1.0845  0.1212
  508MPD2    N1 7610   1.076   2.197  16.226 -0.4649 -0.3134 -0.3057
  508MPD2    H7 7611   1.159   2.248  16.197 -0.1074  0.4091  2.0000
  509TMC3    C1 7612   0.917   2.344  15.462 -0.2756 -0.7917  0.0480
  509TMC3    C2 7613   1.050   2.384  15.466 -0.2694  0.0991  0.8377
  509TMC3    C3 7614   1.138   2.296  15.519 -0.3110 -0.0842 -0.3915
  509TMC3    C4 7615   0.872   2.218  15.502  1.1172  0.6333 -0.1875
  509TMC3    C5 7616   0.962   2.129  15.537 -0.3660 -0.3483  0.2733
  509TMC3    C6 7617   1.095   2.168  15.552  0.1723  0.4795  0.4995
  509TMC3     C 7618   0.829   2.406  15.365 -0.2443  0.0205  0.0193
  509TMC3     O 7619   0.710   2.403  15.389  0.4725 -0.1834 -0.3964
  509TMC3     H 7620   1.074   2.490  15.463 -0.3150  0.0670 -0.7734
  509TMC3    H1 7621   0.770   2.181  15.497  1.1479  0.9611 -3.0169
  509TMC3    H2 7622   1.168   2.102  15.598 -1.9042 -0.7028  2.1305
  509TMC3    C7 7623   0.914   2.052  15.650 -0.6452  0.3371 -0.7338
  509TMC3    C8 7624   1.212   2.351  15.632 -0.6150  0.4669 -0.7438
  509TMC3    O1 7625   0.820   1.977  15.635 -0.2385 -0.0683  0.1449
  509TMC3    O2 7626   1.230   2.286  15.734  0.6504  0.4201 -0.1890
  510MPD2     C 7627   3.817   3.625  14.558 -0.3028 -0.6055 -0.3763
  510MPD2    C1 7628   3.909   3.558  14.634  0.0546  0.0065  0.0528
  510MPD2    C2 7629   4.025   3.524  14.581 -0.1433 -0.8708 -0.0107
  510MPD2    C3 7630   4.052   3.549  14.447  0.4228 -1.0288  0.6845
  510MPD2    C4 7631   3.960   3.617  14.370 -0.1453  0.6306  0.2194
  510MPD2    C5 7632   3.839   3.658  14.431 -0.2921  0.6040 -0.3129
  510MPD2     H 7633   4.099   3.483  14.649 -0.2579 -0.4252  0.3817
  510MPD2    H1 7634   3.970   3.651  14.267 -1.7012  1.1355  0.2220
  510MPD2    H2 7635   3.718   3.645  14.596  0.1356  0.1976  0.3565
  510MPD2    H3 7636   3.772   3.716  14.369  0.5912  0.1470 -1.7177
  510MPD2     N 7637   4.184   3.523  14.404  0.0045 -0.4191  0.2959
  510MPD2    H5 7638   4.242   3.473  14.471 -1.8796 -1.3465  1.2295
  510MPD2    N1 7639   3.873   3.526  14.765  0.4076  0.2339  0.2257
  510MPD2    H7 7640   3.778   3.554  14.787 -0.3761 -0.2432 -2.5890
  511TMC3    C1 7641   3.886   3.427  14.982  0.3971 -0.7210  0.6387
  511TMC3    C2 7642   3.772   3.502  15.017  0.9219  0.4264  0.1525
  511TMC3    C3 7643   3.695   3.441  15.114  0.0184 -0.7854 -0.5349
  511TMC3    C4 7644   3.925   3.310  15.042  0.6855  0.6760 -0.1586
  511TMC3    C5 7645   3.836   3.252  15.126 -0.1998 -0.2091 -0.6631
  511TMC3    C6 7646   3.724   3.316  15.172 -0.3909 -0.1897  0.2794
  511TMC3     C 7647   3.954   3.449  14.856  0.2320 -0.0043  0.2118
  511TMC3     O 7648   4.065   3.394  14.846  0.1900 -0.0350  0.3719
  511TMC3     H 7649   3.759   3.602  14.978 -0.0513  0.3979  0.4218
  511TMC3    H1 7650   4.005   3.250  15.001  0.2318 -1.7190  2.4130
  511TMC3    H2 7651   3.650   3.259  15.225 -1.8435 -0.7121 -2.3133
  511TMC3    C7 7652   3.849   3.109  15.132 -0.2583 -0.0384 -0.6241
  511TMC3    C8 7653   3.588   3.520  15.164 -0.4694 -0.5148 -0.7775
  511TMC3    O1 7654   3.889   3.066  15.024  0.2223 -0.5576 -0.2547
  511TMC3    O2 7655   3.537   3.605  15.089  0.2731 -0.4272  0.5538
  512TMC3    C1 7656   3.075   2.803  12.810  0.2724  0.6326  0.5302
  512TMC3    C2 7657   3.148   2.776  12.922  0.0989 -0.7918  0.5860
  512TMC3    C3 7658   3.194   2.652  12.948  0.6202 -0.4959  0.5455
  512TMC3    C4 7659   3.023   2.707  12.728 -0.1674  0.3357 -0.0892
  512TMC3    C5 7660   3.062   2.580  12.766  0.3709  0.4087  0.0992
  512TMC3    C6 7661   3.149   2.556  12.869  0.0370 -0.2830  0.2824
  512TMC3     C 7662   3.007   2.930  12.828  0.9567  0.4838  0.5527
  512TMC3     O 7663   3.079   3.018  12.878 -0.1275  0.3568  0.4438
  512TMC3     H 7664   3.187   2.857  12.983 -0.4794 -1.1198  1.3914
  512TMC3    H1 7665   2.943   2.715  12.655  2.2784  0.5157 -2.7357
  512TMC3    H2 7666   3.174   2.455  12.900  0.8516  0.4205  1.9406
  512TMC3    C7 7667   2.983   2.483  12.701 -0.0442 -0.1601 -0.5355
  512TMC3    C8 7668   3.240   2.619  13.078 -0.0353  0.4412 -0.0812
  512TMC3    O1 7669   2.926   2.508  12.596 -0.4156  0.0416 -0.0358
  512TMC3    O2 7670   3.223   2.506  13.117 -0.5592  0.2730 -0.5288
  513MPD2     C 7671   4.275   3.405  12.931  0.2801 -0.0461 -0.3488
  513MPD2    C1 7672   4.284   3.287  12.862  0.5896 -0.4368 -0.0554
  513MPD2    C2 7673   4.335   3.176  12.931  0.3886  0.1768 -0.0634
  513MPD2    C3 7674   4.387   3.186  13.058  0.1689  0.7342 -0.0775
  513MPD2    C4 7675   4.378   3.305  13.122 -0.1930  0.1614 -0.6122
  513MPD2    C5 7676   4.321   3.412  13.057 -0.9980  1.0140 -0.5431
  513MPD2     H 7677   4.334   3.076  12.890  1.6148 -0.3590  1.1947
  513MPD2    H1 7678   4.428   3.327  13.215 -1.3204 -0.3540  0.1169
  513MPD2    H2 7679   4.234   3.493  12.883 -0.2695 -1.3170 -2.1916
  513MPD2    H3 7680   4.323   3.511  13.101  2.2627  0.0713  1.4282
  513MPD2     N 7681   4.440   3.068  13.113  0.5306 -0.7789  0.3199
  513MPD2    H5 7682   4.435   2.988  13.050 -1.7552 -2.0738  2.1669
  513MPD2    N1 7683   4.234   3.278  12.727 -0.1420  0.2270  0.1184
  513MPD2    H7 7684   4.186   3.352  12.676  0.4298 -0.4556 -1.4322
  514TMC3    C1 7685   4.196   3.164  12.523 -0.7473 -0.4181 -0.0944
  514TMC3    C2 7686   4.256   3.254  12.427  0.3391  0.4187 -0.5123
  514TMC3    C3 7687   4.253   3.206  12.298  0.7455 -0.8064 -0.4501
  514TMC3    C4 7688   4.157   3.037  12.488 -0.8159  0.3527  0.1406
  514TMC3    C5 7689   4.179   2.991  12.364 -0.4863  0.4030 -0.3744
  514TMC3    C6 7690   4.219   3.074  12.266  0.2706  1.0535 -0.1144
  514TMC3     C 7691   4.250   3.161  12.653 -0.5526 -0.3244  0.2478
  514TMC3     O 7692   4.312   3.059  12.672 -0.2151  0.2428 -0.7624
  514TMC3     H 7693   4.292   3.352  12.455  1.9182 -1.0096  2.4658
  514TMC3    H1 7694   4.114   2.978  12.568  0.1730  0.1336  0.5067
  514TMC3    H2 7695   4.241   3.029  12.170 -0.9070  0.0055  0.0996
  514TMC3    C7 7696   4.244   2.863  12.357  0.4772  0.2816 -0.2195
  514TMC3    C8 7697   4.363   3.259  12.212 -0.5697 -0.0435  0.3864
  514TMC3    O1 7698   4.285   2.813  12.258 -1.0402  0.1224 -0.1020
  514TMC3    O2 7699   4.386   3.173  12.125 -0.6735 -0.0935 -0.3508
  515MPD2     C 7700   2.726   0.039  14.378 -0.2570 -1.0632  0.8634
  515MPD2    C1 7701   2.642   0.000  14.480 -0.3351  0.7048 -0.1383
  515MPD2    C2 7702   2.669   0.054  14.608 -0.4529 -0.1375 -0.5169
  515MPD2    C3 7703   2.777   0.141  14.630  0.9721 -0.2035  0.0972
  515MPD2    C4 7704   2.866   0.166  14.524 -0.3361 -0.2368  0.1487
  515MPD2    C5 7705   2.837   0.113  14.405  1.1199 -0.4339 -0.1592
  515MPD2     H 7706   2.607   0.020  14.690  0.2099  1.3176  0.5739
  515MPD2    H1 7707   2.952   0.233  14.531 -0.4381 -0.2639  1.6294
  515MPD2    H2 7708   2.724   4.729  14.279  2.0083 -1.8937  1.1765
  515MPD2    H3 7709   2.904   0.129  14.321 -1.5612  3.0361 -1.6817
  515MPD2     N 7710   2.804   0.203  14.752  0.1734  0.3762 -0.3403
  515MPD2    H5 7711   2.890   0.256  14.750  0.6909 -0.4603 -0.1430
  515MPD2    N1 7712   2.549   4.630  14.466  0.3428 -0.9309  0.4690
  515MPD2    H7 7713   2.500   4.594  14.548  0.7136  0.2526  1.2118
  516TMC3    C1 7714   2.382   4.504  14.366  0.5106  0.1417 -0.3615
  516TMC3    C2 7715   2.281   4.550  14.293 -0.0927  0.4385  0.3070
  516TMC3    C3 7716   2.149   4.515  14.333 -0.0454 -0.6613 -0.5967
  516TMC3    C4 7717   2.364   4.427  14.475 -0.1348  0.3138  0.0664
  516TMC3    C5 7718   2.236   4.392  14.502  0.5040 -0.3459 -0.2878
  516TMC3    C6 7719   2.124   4.431  14.436  0.6497  0.0431  0.4225
  516TMC3     C 7720   2.507   4.580  14.352 -0.1870 -0.0934 -0.4232
  516TMC3     O 7721   2.517   4.627  14.238 -0.1101 -0.2639 -0.2928
  516TMC3     H 7722   2.300   4.590  14.194 -0.7245 -0.7434 -0.2990
  516TMC3    H1 7723   2.442   4.403  14.546 -0.6887  3.1228  1.6191
  516TMC3    H2 7724   2.024   4.402  14.464  1.4019 -2.0936  0.9120
  516TMC3    C7 7725   2.224   4.307  14.623  0.6481  0.3257  1.0620
  516TMC3    C8 7726   2.042   4.580  14.263 -0.4142  0.6541 -1.0129
  516TMC3    O1 7727   2.306   4.337  14.709  0.0737  0.0692 -0.1289
  516TMC3    O2 7728   1.932   4.533  14.258 -0.0999 -0.3316  0.5245
  517MPD2     C 7729   2.643   1.428   0.669  0.1434 -1.1491  0.1934
  517MPD2    C1 7730   2.573   1.475   0.562  0.6899  0.2196  0.6364
  517MPD2    C2 7731   2.535   1.607   0.563  0.2254 -0.0295  0.0397
  517MPD2    C3 7732   2.550   1.682   0.682  0.1864  0.2746  0.4518
  517MPD2    C4 7733   2.616   1.629   0.793  0.7839  0.0001  0.4258
  517MPD2    C5 7734   2.669   1.500   0.783  0.4000 -0.3989 -0.1536
  517MPD2     H 7735   2.469   1.645   0.486  1.6721  0.0029 -1.1755
  517MPD2    H1 7736   2.628   1.687   0.884  0.3949  0.9165 -0.1103
  517MPD2    H2 7737   2.681   1.326   0.667  0.5999 -1.0498  4.5882
  517MPD2    H3 7738   2.715   1.444   0.863 -2.3580 -1.8919  0.3966
  517MPD2     N 7739   2.507   1.816   0.699 -0.1233 -0.4664  0.0032
  517MPD2    H5 7740   2.519   1.844   0.796 -0.9699 -0.1357  0.0135
  517MPD2    N1 7741   2.529   1.393   0.463  0.1833  0.0379 -0.6002
  517MPD2    H7 7742   2.478   1.431   0.383  0.9472 -0.3757 -1.2806
  518TMC3    C1 7743   2.491   1.204   0.329  0.3798  0.1815  0.4429
  518TMC3    C2 7744   2.454   1.079   0.315  0.4416  0.4020 -0.4214
  518TMC3    C3 7745   2.477   1.006   0.208  0.4246  0.0904 -0.0391
  518TMC3    C4 7746   2.550   1.262   0.217  0.3912 -0.1035  0.5652
  518TMC3    C5 7747   2.582   1.181   0.110 -0.5356  0.4729 -0.5021
  518TMC3    C6 7748   2.543   1.053   0.098 -0.0392  0.0285 -0.8173
  518TMC3     C 7749   2.537   1.256   0.454 -0.5692  0.3906 -0.5959
  518TMC3     O 7750   2.582   1.178   0.530 -0.2140  0.0374  0.0927
  518TMC3     H 7751   2.417   1.028   0.404 -3.3837  2.4014 -0.8520
  518TMC3    H1 7752   2.609   1.352   0.227  1.4266 -0.7356  0.1234
  518TMC3    H2 7753   2.558   0.980   0.018  1.5430  1.1505 -1.5458
  518TMC3    C7 7754   2.691   1.219   0.017 -0.0743 -0.0383  0.0031
  518TMC3    C8 7755   2.444   0.862   0.201 -0.2004  0.1093 -1.3531
  518TMC3    O1 7756   2.774   1.302   0.049  0.5232  0.3168 -0.5908
  518TMC3    O2 7757   2.512   0.793   0.128  0.1272  0.5586 -0.5502
  519MPD2     C 7758   4.034   4.528  14.047  0.0121 -0.1982  0.7419
  519MPD2    C1 7759   3.937   4.465  14.130 -0.1925  0.4892 -0.1397
  519MPD2    C2 7760   3.977   4.373  14.221  0.5737  0.5694  0.2613
  519MPD2    C3 7761   4.109   4.329  14.235  0.3775  0.4288  0.1372
  519MPD2    C4 7762   4.206   4.387  14.155 -0.4291 -0.0122 -0.0347
  519MPD2    C5 7763   4.169   4.486  14.060 -0.4077  0.3862  0.1055
  519MPD2     H 7764   3.899   4.320  14.276  1.0379 -0.9764 -0.5710
  519MPD2    H1 7765   4.311   4.361  14.155 -0.6342 -0.8859  1.4683
  519MPD2    H2 7766   4.000   4.598  13.972  0.1176 -0.7607  0.1644
  519MPD2    H3 7767   4.247   4.526  13.997 -0.9684  0.4838 -0.5221
  519MPD2     N 7768   4.142   4.215  14.305  0.1477  0.7462  0.6158
  519MPD2    H5 7769   4.237   4.187  14.283  0.5670  2.1981  0.5306
  519MPD2    N1 7770   3.794   4.487  14.112  0.2998  0.2207 -0.3893
  519MPD2    H7 7771   3.735   4.439  14.179 -0.8994  1.9365 -0.2180
  520TMC3    C1 7772   4.080   4.001  14.345 -0.6886  0.5800  0.6727
  520TMC3    C2 7773   3.982   3.971  14.255  0.5046 -0.5436 -0.5927
  520TMC3    C3 7774   4.011   3.918  14.135  0.1183 -0.1615 -0.0716
  520TMC3    C4 7775   4.214   3.979  14.327 -0.0736  0.5537 -0.7885
  520TMC3    C5 7776   4.240   3.918  14.209 -0.5868 -0.2884  0.6344
  520TMC3    C6 7777   4.142   3.887  14.116  0.6997 -0.2878  0.2218
  520TMC3     C 7778   4.060   4.140  14.380  0.4920 -0.3683  0.3251
  520TMC3     O 7779   3.956   4.173  14.434 -0.0218  0.4476  0.9790
  520TMC3     H 7780   3.882   4.008  14.274  1.2574  2.1906 -1.9034
  520TMC3    H1 7781   4.287   4.018  14.397 -2.3701  0.6717  1.5011
  520TMC3    H2 7782   4.167   3.819  14.036  0.2554  0.0077 -0.1715
  520TMC3    C7 7783   4.380   3.881  14.208 -0.8823  0.0359  0.1113
  520TMC3    C8 7784   3.969   4.002  14.026  0.0603  0.2074 -0.0011
  520TMC3    O1 7785   4.434   3.854  14.313 -0.6049  0.2964 -0.5477
  520TMC3    O2 7786   4.053   4.047  13.951  0.1149 -0.1914 -0.0615
  521MPD2     C 7787   0.175   2.580   0.107 -0.2462 -0.3335  0.5169
  521MPD2    C1 7788   0.146   2.542  17.716 -0.1709 -0.4094 -0.4625
  521MPD2    C2 7789   0.200   2.616  17.607  0.4081  0.0737  0.2028
  521MPD2    C3 7790   0.293   2.712  17.625  0.2931 -0.5141  0.7670
  521MPD2    C4 7791   0.322   2.750   0.020  0.2166  0.6756  0.1117
  521MPD2    C5 7792   0.261   2.684   0.129  0.8395 -0.1631  0.6158
  521MPD2     H 7793   0.178   2.581  17.507 -0.9394  1.7696 -0.1042
  521MPD2    H1 7794   0.381   2.838   0.042 -2.8811  2.8068 -0.1664
  521MPD2    H2 7795   0.130   2.536   0.195  1.6888  2.6161  2.9652
  521MPD2    H3 7796   0.268   2.723   0.229 -2.0854 -1.9068  1.5210
  521MPD2     N 7797   0.358   2.750  17.507 -0.1881  0.4762  0.4342
  521MPD2    H5 7798   0.337   2.704  17.419  0.9734 -0.3604  0.6019
  521MPD2    N1 7799   0.061   2.427  17.705 -0.3625 -0.1758 -0.6892
  521MPD2    H7 7800   0.038   2.378   0.056  1.4601  2.8481  1.5165
  522TMC3    C1 7801   0.507   2.859  17.371  0.3021  0.7292  0.2442
  522TMC3    C2 7802   0.647   2.864  17.361  0.6140  0.8336 -0.1269
  522TMC3    C3 7803   0.698   2.880  17.232 -0.3360  0.0867 -0.6071
  522TMC3    C4 7804   0.423   2.869  17.270 -0.0860  0.5848  0.6436
  522TMC3    C5 7805   0.481   2.887  17.143 -0.8729 -0.1989  0.1025
  522TMC3    C6 7806   0.614   2.897  17.122 -0.0850  0.6588  0.3666
  522TMC3     C 7807   0.462   2.829  17.501 -0.0797  0.7839  0.0042
  522TMC3     O 7808   0.521   2.880  17.589 -0.3340 -0.4195 -0.1392
  522TMC3     H 7809   0.714   2.860  17.446 -1.3297  1.7116  1.4477
  522TMC3    H1 7810   0.316   2.855  17.281 -0.2342  1.4910  0.3907
  522TMC3    H2 7811   0.653   2.938  17.029  1.3778 -1.7445 -0.0747
  522TMC3    C7 7812   0.398   2.902  17.027 -0.1659 -0.8324  0.5269
  522TMC3    C8 7813   0.837   2.861  17.214 -0.3864 -0.4795 -0.3448
  522TMC3    O1 7814   0.466   2.887  16.926 -0.2262 -0.4489 -0.1825
  522TMC3    O2 7815   0.906   2.877  17.314 -0.4344 -0.7622  0.5789
  523MPD2     C 7816   2.903   2.563  10.274 -1.1593 -0.1337  0.2153
  523MPD2    C1 7817   2.856   2.457  10.204  0.3207 -0.1108 -0.0111
  523MPD2    C2 7818   2.809   2.477  10.074 -0.4971  0.7753  0.2776
  523MPD2    C3 7819   2.835   2.598  10.010 -0.6483  0.3988 -0.1986
  523MPD2    C4 7820   2.888   2.701  10.080  0.6495 -0.2769  0.2811
  523MPD2    C5 7821   2.919   2.688  10.210 -0.6014 -1.0666 -0.1855
  523MPD2     H 7822   2.764   2.393  10.023 -0.3179  1.1633 -0.5284
  523MPD2    H1 7823   2.902   2.799  10.037  1.5499 -0.7736 -0.5443
  523MPD2    H2 7824   2.932   2.552  10.378  1.8310 -0.0111 -0.6009
  523MPD2    H3 7825   2.956   2.773  10.267 -1.0450 -1.0209  0.0318
  523MPD2     N 7826   2.779   2.635   9.885 -0.5100 -0.1703 -0.6882
  523MPD2    H5 7827   2.805   2.726   9.847  1.5236  0.0576  1.2662
  523MPD2    N1 7828   2.843   2.341  10.284  0.7521  0.4606  0.4427
  523MPD2    H7 7829   2.872   2.346  10.381  2.3016 -1.4357  0.0858
  524TMC3    C1 7830   2.671   2.610   9.685 -0.5595 -0.2282 -0.0385
  524TMC3    C2 7831   2.664   2.532   9.565  0.1815  0.5344  0.5345
  524TMC3    C3 7832   2.613   2.582   9.451  0.0256 -1.0014  0.2419
  524TMC3    C4 7833   2.638   2.747   9.674 -0.0584  0.2258  0.5524
  524TMC3    C5 7834   2.605   2.796   9.543  0.7789 -0.5533 -0.0391
  524TMC3    C6 7835   2.586   2.716   9.431  0.1437  0.2977 -0.7272
  524TMC3     C 7836   2.718   2.549   9.801  0.5094 -0.3484 -1.0263
  524TMC3     O 7837   2.706   2.426   9.806  0.1369 -0.7098 -0.1183
  524TMC3     H 7838   2.676   2.425   9.577 -1.2408  0.3949  0.6987
  524TMC3    H1 7839   2.616   2.804   9.763  1.1146  1.5598  0.0010
  524TMC3    H2 7840   2.562   2.758   9.334  0.5700 -0.0593 -0.9880
  524TMC3    C7 7841   2.588   2.940   9.546 -0.3819 -0.1854 -0.7070
  524TMC3    C8 7842   2.585   2.492   9.340  0.6635 -0.2046  0.0798
  524TMC3    O1 7843   2.639   3.006   9.637  0.3436 -0.0555  0.2370
  524TMC3    O2 7844   2.643   2.384   9.349 -0.6100  1.0386  0.0287
  525MPD2     C 7845   0.828   4.084  14.345 -0.5664  0.4243  0.4163
  525MPD2    C1 7846   0.925   4.126  14.436 -0.3138 -0.4041  0.3310
  525MPD2    C2 7847   0.996   4.240  14.409 -0.5445 -0.1432  0.1896
  525MPD2    C3 7848   0.979   4.309  14.291  0.7201 -0.1661 -0.2136
  525MPD2    C4 7849   0.883   4.267  14.201  0.0801  0.4945  0.4002
  525MPD2    C5 7850   0.813   4.151  14.228  0.2998  0.4957 -0.2920
  525MPD2     H 7851   1.065   4.279  14.483  0.3512  0.0170 -0.7153
  525MPD2    H1 7852   0.870   4.318  14.107  1.2754 -1.4163 -0.8008
  525MPD2    H2 7853   0.791   3.982  14.347 -0.2646  0.3278  1.3364
  525MPD2    H3 7854   0.743   4.113  14.154  2.6670 -1.2041 -1.6682
  525MPD2     N 7855   1.022   4.434  14.266  0.9080  0.2374 -0.3010
  525MPD2    H5 7856   0.983   4.487  14.189  1.4627  0.3983 -0.4715
  525MPD2    N1 7857   0.945   4.051  14.555  0.3082 -0.7583 -0.4155
  525MPD2    H7 7858   1.034   4.064  14.602  0.2887 -0.4172 -0.4719
  526TMC3    C1 7859   0.926   3.878  14.714 -0.2420  0.7644  0.0114
  526TMC3    C2 7860   0.834   3.823  14.797  0.0012  0.1436 -0.3895
  526TMC3    C3 7861   0.881   3.729  14.881  0.6316 -0.4415  0.2162
  526TMC3    C4 7862   1.057   3.846  14.716 -0.3747  0.2808 -0.0636
  526TMC3    C5 7863   1.105   3.772  14.817 -0.1076  0.0294 -0.5223
  526TMC3    C6 7864   1.015   3.708  14.892  0.4828  0.1819  0.0724
  526TMC3     C 7865   0.865   3.953  14.606 -0.2418 -0.0164  0.7412
  526TMC3     O 7866   0.745   3.946  14.600  0.5289 -0.4987 -0.0387
  526TMC3     H 7867   0.727   3.840  14.797  0.2907  1.8651 -2.8687
  526TMC3    H1 7868   1.110   3.865  14.623 -0.4825  1.0436  0.0266
  526TMC3    H2 7869   1.046   3.643  14.974 -0.3873  0.0836  0.3279
  526TMC3    C7 7870   1.241   3.733  14.801  0.2385 -0.3952 -0.0031
  526TMC3    C8 7871   0.798   3.692  14.993 -0.0926 -0.2661  0.2484
  526TMC3    O1 7872   1.275   3.629  14.857  0.2986 -0.2517 -0.3109
  526TMC3    O2 7873   0.766   3.573  14.997 -0.4104 -0.0522 -0.5956
  527MPD2     C 7874   4.042   2.130   1.643  0.2170  0.0818  0.4656
  527MPD2    C1 7875   3.964   2.117   1.529 -0.2705 -1.2314 -0.3204
  527MPD2    C2 7876   3.994   2.007   1.447  0.2025  0.4499 -0.5635
  527MPD2    C3 7877   4.107   1.929   1.467  1.5948  0.0371  1.0283
  527MPD2    C4 7878   4.193   1.961   1.571  0.1971 -0.5094 -0.5933
  527MPD2    C5 7879   4.155   2.057   1.659 -0.4819 -0.4817  0.5692
  527MPD2     H 7880   3.928   1.983   1.365 -1.9946 -0.9963  1.6199
  527MPD2    H1 7881   4.270   1.892   1.605  0.1179 -0.4760 -0.3476
  527MPD2    H2 7882   4.030   2.215   1.709 -0.5924  0.8322 -0.6547
  527MPD2    H3 7883   4.214   2.082   1.747  0.4397  0.1474 -0.2402
  527MPD2     N 7884   4.124   1.813   1.382  0.4379  0.7777 -0.6480
  527MPD2    H5 7885   4.056   1.795   1.309  2.5574 -0.2612 -2.3616
  527MPD2    N1 7886   3.854   2.200   1.495  0.1761  0.0743 -0.2370
  527MPD2    H7 7887   3.804   2.176   1.410  0.9028 -1.3255 -0.2626
  528TMC3    C1 7888   3.684   2.348   1.512 -0.0862 -0.3383  0.2253
  528TMC3    C2 7889   3.689   2.366   1.379  0.4504  0.5137 -0.0256
  528TMC3    C3 7890   3.580   2.424   1.323 -0.5100  0.3844 -0.1745
  528TMC3    C4 7891   3.580   2.383   1.591 -0.1628 -0.4082 -0.3880
  528TMC3    C5 7892   3.465   2.437   1.530  0.5123  0.3357  0.2673
  528TMC3    C6 7893   3.468   2.460   1.396 -0.1355 -0.8358  0.3178
  528TMC3     C 7894   3.793   2.290   1.582 -0.1778 -0.5328 -0.2231
  528TMC3     O 7895   3.819   2.332   1.697  0.2581 -0.3997  0.1600
  528TMC3     H 7896   3.777   2.346   1.320  0.0014  2.2003 -1.2855
  528TMC3    H1 7897   3.589   2.372   1.698 -4.2663 -2.9200 -0.3120
  528TMC3    H2 7898   3.380   2.509   1.355  0.9729 -0.5116 -1.6826
  528TMC3    C7 7899   3.358   2.484   1.606 -0.2938  0.6738 -0.0182
  528TMC3    C8 7900   3.589   2.422   1.177 -0.4552 -0.0604 -0.0047
  528TMC3    O1 7901   3.250   2.506   1.545  0.0124  0.0002  0.0197
  528TMC3    O2 7902   3.691   2.390   1.119 -0.0632 -0.0456  0.0801
  529MPD2     C 7903   1.135   0.679   1.189 -0.1988 -0.0792  0.0569
  529MPD2    C1 7904   1.078   0.570   1.121 -0.2882  0.3696  0.7496
  529MPD2    C2 7905   0.975   0.587   1.033  0.9639 -0.0373  0.1130
  529MPD2    C3 7906   0.926   0.718   1.009 -0.2226 -0.8025 -0.0666
  529MPD2    C4 7907   0.991   0.825   1.070  0.0444  0.0068 -0.1738
  529MPD2    C5 7908   1.092   0.806   1.162  0.1551 -0.3306  0.3742
  529MPD2     H 7909   0.934   0.500   0.983  2.2448 -0.7980  0.3720
  529MPD2    H1 7910   0.954   0.926   1.053 -0.1675 -0.1087 -0.4044
  529MPD2    H2 7911   1.211   0.659   1.263 -0.4950  0.4947  0.5159
  529MPD2    H3 7912   1.118   0.887   1.229 -0.7312 -0.1811  0.5415
  529MPD2     N 7913   0.814   0.737   0.916 -1.0181  0.4906  0.3872
  529MPD2    H5 7914   0.796   0.833   0.887 -1.6699  0.1341 -0.3922
  529MPD2    N1 7915   1.124   0.438   1.141  0.3451 -0.2280 -0.5766
  529MPD2    H7 7916   1.072   0.371   1.086  0.9354 -0.5055 -0.8045
  530TMC3    C1 7917   1.199   0.252   1.256  0.7154  0.4736  0.4922
  530TMC3    C2 7918   1.260   0.194   1.366 -0.0561 -0.3793 -0.3690
  530TMC3    C3 7919   1.296   0.060   1.368  0.9343  0.0837 -0.4648
  530TMC3    C4 7920   1.162   0.165   1.149 -0.3550  0.4490  0.3813
  530TMC3    C5 7921   1.193   0.031   1.150 -0.2298  0.3413  0.0226
  530TMC3    C6 7922   1.270   4.714   1.263 -0.0254 -0.4268  0.0772
  530TMC3     C 7923   1.197   0.394   1.242 -0.4868  0.0113  0.7942
  530TMC3     O 7924   1.278   0.448   1.320 -0.0182  0.1431  0.4911
  530TMC3     H 7925   1.299   0.247   1.452 -0.9344 -0.4030  0.0368
  530TMC3    H1 7926   1.098   0.197   1.067  2.6375 -1.2289 -2.5945
  530TMC3    H2 7927   1.296   4.609   1.262 -0.0520 -0.4349  0.2990
  530TMC3    C7 7928   1.127   4.670   1.061 -0.1907  0.2676 -0.0223
  530TMC3    C8 7929   1.378   0.015   1.480  1.6948  0.2835 -0.2194
  530TMC3    O1 7930   1.077   4.711   0.960  0.4263 -0.0708 -0.6104
  530TMC3    O2 7931   1.380   0.077   1.585  0.2641  0.6409  0.0681
  531MPD2     C 7932   4.515   2.531  12.641  0.0388 -0.0528  0.4759
  531MPD2    C1 7933   4.499   2.650  12.716 -0.5214  0.7813  0.5193
  531MPD2    C2 7934   4.414   2.748  12.656 -0.2407  0.1995 -0.4018
  531MPD2    C3 7935   4.371   2.735  12.527  0.6995  0.0151 -0.2408
  531MPD2    C4 7936   4.387   2.613  12.458 -0.1079  0.4987  0.3004
  531MPD2    C5 7937   4.453   2.513  12.516 -0.3518 -0.5053  0.5104
  531MPD2     H 7938   4.386   2.837  12.712 -0.0929  0.1486 -0.2499
  531MPD2    H1 7939   4.339   2.601  12.362 -1.5178  0.1372  1.0655
  531MPD2    H2 7940   4.557   2.446  12.693  0.5534 -0.2403 -0.2484
  531MPD2    H3 7941   4.460   2.419  12.463  0.1596 -0.9114  1.2971
  531MPD2     N 7942   4.301   2.843  12.479  0.0957 -0.1118  0.2664
  531MPD2    H5 7943   4.281   2.915  12.549 -0.0957 -0.3558  0.4609
  531MPD2    N1 7944   4.563   2.667  12.842  0.2987  0.2863  0.5432
  531MPD2    H7 7945   4.610   2.582  12.870 -0.8282 -0.7910 -0.7833
  532TMC3    C1 7946   4.578   2.745  13.065  0.4053 -0.3224 -0.8311
  532TMC3    C2 7947   4.496   2.832  13.134  0.2741 -0.6015  0.8428
  532TMC3    C3 7948   4.547   2.907  13.240 -0.1980 -0.2469 -0.4335
  532TMC3    C4 7949   4.707   2.736  13.100 -0.3086 -0.4049 -1.0882
  532TMC3    C5 7950   0.020   2.792  13.216  0.1054  0.1526  0.3564
  532TMC3    C6 7951   4.672   2.879  13.283  0.6729  0.6059 -0.1871
  532TMC3     C 7952   4.544   2.764  12.928 -0.0777 -0.4250 -0.2936
  532TMC3     O 7953   4.505   2.879  12.910 -0.6752  0.4828 -0.9874
  532TMC3     H 7954   4.393   2.841  13.103 -0.2352 -2.4988  2.0127
  532TMC3    H1 7955   0.038   2.669  13.045  0.8205 -1.8832  2.0191
  532TMC3    H2 7956   4.717   2.948  13.353  0.1983  1.5845 -0.8455
  532TMC3    C7 7957   0.161   2.798  13.223 -0.0735 -0.3545 -0.1742
  532TMC3    C8 7958   4.510   3.051  13.233  0.2545  0.4807  0.3689
  532TMC3    O1 7959   0.234   2.764  13.132  0.4640 -0.6739  0.1187
  532TMC3    O2 7960   4.544   3.124  13.324  0.0810  0.5178  0.0760
  533TMC3    C1 7961   1.121   4.638  14.317 -0.2509 -1.4512 -0.2767
  533TMC3    C2 7962   1.237   4.707  14.356  0.0450 -0.6379  0.0862
  533TMC3    C3 7963   1.222   0.102  14.410  0.5901  0.0118  0.3670
  533TMC3    C4 7964   0.995   4.685  14.350  0.3619  0.7351 -0.0482
  533TMC3    C5 7965   0.988   0.077  14.416  0.1507  0.3631 -0.3658
  533TMC3    C6 7966   1.099   0.154  14.441  0.2804  0.5563  0.4146
  533TMC3     C 7967   1.129   4.491  14.329 -0.2537 -0.5006 -0.3497
  533TMC3     O 7968   1.220   4.439  14.388 -0.7500 -0.5129 -0.4858
  533TMC3     H 7969   1.330   4.659  14.331 -0.5840 -1.6673 -0.2782
  533TMC3    H1 7970   0.902   4.638  14.320 -0.1894  0.6022  1.8534
  533TMC3    H2 7971   1.088   0.246  14.499 -0.2596  0.9904 -0.3862
  533TMC3    C7 7972   0.892   0.066  14.526 -0.2486  0.6468  0.7861
  533TMC3    C8 7973   1.327   0.202  14.428  0.0693  0.6395  0.0998
  533TMC3    O1 7974   0.845   4.680  14.536 -0.2259  0.2100  0.5499
  533TMC3    O2 7975   1.290   0.315  14.421 -0.1634  0.1442  0.0800
  534MPD2     C 7976   3.701   4.717   0.861 -0.6547 -0.1742  0.2870
  534MPD2    C1 7977   3.663   0.084   0.950 -0.1022  0.4450 -0.3944
  534MPD2    C2 7978   3.531   0.110   0.964  0.9256  0.2289  0.0024
  534MPD2    C3 7979   3.432   0.035   0.896  0.1148 -0.5193  0.2316
  534MPD2    C4 7980   3.475   4.685   0.801 -0.2707  0.0885 -0.2352
  534MPD2    C5 7981   3.606   4.650   0.792  0.0044 -0.6153 -0.6769
  534MPD2     H 7982   3.511   0.193   1.032 -0.7431  0.1073 -0.3343
  534MPD2    H1 7983   3.404   4.640   0.733 -0.6088  2.3790 -1.3929
  534MPD2    H2 7984   3.806   4.695   0.844 -0.9981 -1.3320 -0.3326
  534MPD2    H3 7985   3.626   4.574   0.717  0.1794  0.4142 -1.6569
  534MPD2     N 7986   3.291   0.063   0.909 -0.0912  0.7659 -0.5152
  534MPD2    H5 7987   3.226   0.029   0.839  0.6402 -2.3134  0.2724
  534MPD2    N1 7988   3.760   0.160   1.021 -0.2250 -0.0408 -0.0799
  534MPD2    H7 7989   3.712   0.219   1.089 -0.2070 -0.2915  0.1513
  535TMC3    C1 7990   3.111   0.183   1.002 -0.6513 -0.4137  0.3892
  535TMC3    C2 7991   3.040   0.168   1.114 -0.4617 -0.3218 -0.3900
  535TMC3    C3 7992   2.918   0.218   1.101 -0.2422  0.0662 -0.4045
  535TMC3    C4 7993   3.072   0.209   0.871  0.1146  0.5458  0.3993
  535TMC3    C5 7994   2.943   0.257   0.869 -0.7806  0.0768  0.0357
  535TMC3    C6 7995   2.860   0.252   0.979 -0.0870  0.2324 -0.3213
  535TMC3     C 7996   3.250   0.138   1.021 -0.4484  0.0204 -0.9764
  535TMC3     O 7997   3.302   0.136   1.130 -0.1897  0.0807 -0.2975
  535TMC3     H 7998   3.089   0.143   1.208 -0.7602  0.8443  0.0756
  535TMC3    H1 7999   3.142   0.233   0.792 -0.0470 -0.5582 -0.0812
  535TMC3    H2 8000   2.755   0.279   0.974  0.0263 -0.1713 -4.8682
  535TMC3    C7 8001   2.927   0.362   0.777 -0.2689 -0.0644  0.0026
  535TMC3    C8 8002   2.812   0.173   1.199 -0.4999 -0.3461  0.8548
  535TMC3    O1 8003   3.000   0.369   0.681 -0.4371 -0.6383  0.2711
  535TMC3    O2 8004   2.710   0.123   1.146  0.0706 -0.0414 -0.0301
  536MPD2     C 8005   2.247   3.872  16.096  0.8073 -0.3306 -0.5144
  536MPD2    C1 8006   2.124   3.883  16.157 -0.4666 -0.4694  0.4192
  536MPD2    C2 8007   2.033   3.982  16.115  0.1197 -0.4064  0.3116
  536MPD2    C3 8008   2.063   4.059  16.005  0.7402  0.0778 -0.4647
  536MPD2    C4 8009   2.185   4.046  15.950  0.1769  0.3592 -0.1325
  536MPD2    C5 8010   2.281   3.958  15.996 -0.4668 -0.2724 -0.8314
  536MPD2     H 8011   1.937   3.996  16.164 -0.9938 -2.6963 -1.2357
  536MPD2    H1 8012   2.229   4.106  15.871  0.2356  0.3332 -0.1203
  536MPD2    H2 8013   2.318   3.796  16.128  1.0448 -0.1065 -0.5085
  536MPD2    H3 8014   2.378   3.951  15.948  0.7382 -1.0128  1.7047
  536MPD2     N 8015   1.973   4.151  15.944  0.6709 -0.1277  0.4500
  536MPD2    H5 8016   2.014   4.212  15.874  0.1775  1.4085  1.4993
  536MPD2    N1 8017   2.090   3.795  16.263  0.0870 -0.1204 -0.8219
  536MPD2    H7 8018   2.159   3.727  16.294 -2.7400 -3.1947 -1.2765
  537TMC3    C1 8019   1.963   3.685  16.437 -0.0669 -0.4898 -0.4197
  537TMC3    C2 8020   2.083   3.693  16.509 -0.4927 -0.2952  0.0264
  537TMC3    C3 8021   2.095   3.632  16.629 -0.4514  0.5114  0.3264
  537TMC3    C4 8022   1.851   3.622  16.480 -0.2831 -0.0944  0.2989
  537TMC3    C5 8023   1.867   3.568  16.607  0.3016  0.0043 -0.4928
  537TMC3    C6 8024   1.985   3.555  16.672 -0.6222  0.0735 -0.0813
  537TMC3     C 8025   1.963   3.763  16.315  0.4783  0.8691 -0.2323
  537TMC3     O 8026   1.852   3.795  16.272  0.0039  0.3011  0.4491
  537TMC3     H 8027   2.171   3.740  16.466 -1.5455  0.3029 -1.4892
  537TMC3    H1 8028   1.757   3.626  16.426 -0.0789  0.8189  0.0188
  537TMC3    H2 8029   1.995   3.510  16.770 -1.6975  0.6323  0.2877
  537TMC3    C7 8030   1.754   3.486  16.642  0.7701 -0.1586 -0.1316
  537TMC3    C8 8031   2.186   3.671  16.734  0.5454 -0.8366 -0.0523
  537TMC3    O1 8032   1.647   3.494  16.573  0.3099  0.6137  0.0899
  537TMC3    O2 8033   2.172   3.611  16.839 -0.0005  0.1152 -0.4956
  538TMC3    C1 8034   3.729   2.115  11.217  0.2412  0.5462 -0.4904
  538TMC3    C2 8035   3.801   2.070  11.108  0.0283  0.4187 -0.1296
  538TMC3    C3 8036   3.785   2.133  10.984  0.0542 -0.4308  0.0654
  538TMC3    C4 8037   3.648   2.229  11.204 -0.4182 -0.2836  0.1400
  538TMC3    C5 8038   3.630   2.290  11.083 -0.5788  0.0620  0.4429
  538TMC3    C6 8039   3.697   2.236  10.973  0.5468  0.4884  0.6520
  538TMC3     C 8040   3.659   2.011  11.290  0.2490  0.2897  0.1878
  538TMC3     O 8041   3.562   1.976  11.228  0.2032 -0.2523  0.5646
  538TMC3     H 8042   3.874   1.991  11.113  2.4467  2.5991 -1.0781
  538TMC3    H1 8043   3.594   2.258  11.293  0.1781  2.0412 -0.2464
  538TMC3    H2 8044   3.668   2.284  10.880 -0.3801 -0.5612  0.4068
  538TMC3    C7 8045   3.501   2.354  11.064  0.7611 -0.1328  0.3048
  538TMC3    C8 8046   3.850   2.088  10.864 -1.0815  0.0232  0.1318
  538TMC3    O1 8047   3.437   2.341  10.959 -0.3026  0.6628 -0.3667
  538TMC3    O2 8048   3.834   2.165  10.770 -0.1010 -0.1196 -0.0813
  539MPD2     C 8049   3.140   1.207  12.199  0.1253 -0.5582 -0.3992
  539MPD2    C1 8050   3.155   1.252  12.067  0.7130 -0.6653 -0.0606
  539MPD2    C2 8051   3.142   1.385  12.040 -0.3902 -0.4436  0.0797
  539MPD2    C3 8052   3.088   1.469  12.136 -0.3353  0.0540 -0.6811
  539MPD2    C4 8053   3.092   1.424  12.269 -0.2349 -0.0821  0.1722
  539MPD2    C5 8054   3.119   1.295  12.303 -0.3481 -0.0303 -0.3831
  539MPD2     H 8055   3.149   1.417  11.937 -0.8332 -0.2049  0.1253
  539MPD2    H1 8056   3.068   1.491  12.351 -3.0780 -1.8602  0.7912
  539MPD2    H2 8057   3.142   1.104  12.231 -1.4217 -0.2047  0.8472
  539MPD2    H3 8058   3.124   1.268  12.408  0.8393  0.2071 -0.3734
  539MPD2     N 8059   3.052   1.607  12.112 -0.6008 -0.3319 -0.2287
  539MPD2    H5 8060   3.039   1.659  12.198 -1.0199  0.1773 -0.5957
  539MPD2    N1 8061   3.186   1.168  11.957  0.2064 -0.0514 -0.3212
  539MPD2    H7 8062   3.220   1.211  11.872  0.0283 -0.1727 -0.4514
  540TMC3    C1 8063   2.995   1.809  12.006 -0.6572  0.4714  0.7387
  540TMC3    C2 8064   3.000   1.878  11.893 -0.0539 -0.5204  0.4756
  540TMC3    C3 8065   2.933   1.998  11.878  0.5719  0.2980  0.2300
  540TMC3    C4 8066   2.912   1.857  12.108 -0.2247  0.5907  0.4270
  540TMC3    C5 8067   2.845   1.978  12.093 -0.2354  0.9795 -0.4419
  540TMC3    C6 8068   2.865   2.059  11.983  0.6291 -0.2711 -0.1485
  540TMC3     C 8069   3.025   1.670  11.995 -0.2857 -0.0074 -0.1996
  540TMC3     O 8070   3.028   1.629  11.880  0.1368  0.0972 -1.1149
  540TMC3     H 8071   3.072   1.841  11.820 -1.0168  0.9670 -1.2188
  540TMC3    H1 8072   2.888   1.789  12.190 -2.5363 -1.7153 -2.1577
  540TMC3    H2 8073   2.799   2.141  11.961  0.4400 -0.6205 -0.8544
  540TMC3    C7 8074   2.730   1.988  12.178 -0.4997 -0.1005 -0.2311
  540TMC3    C8 8075   2.953   2.070  11.753 -0.7945 -0.6149  0.8709
  540TMC3    O1 8076   2.683   1.881  12.214 -0.3774  0.3469 -0.1941
  540TMC3    O2 8077   2.998   2.186  11.765  0.1466 -0.0695 -0.2822
  541MPD2     C 8078   1.455   3.275  13.166 -0.1821  0.1538 -0.8816
  541MPD2    C1 8079   1.426   3.174  13.076 -0.0593  0.6102  0.0050
  541MPD2    C2 8080   1.418   3.212  12.944 -0.1827 -0.1270 -0.1922
  541MPD2    C3 8081   1.451   3.342  12.899 -0.6164  0.7410  0.3552
  541MPD2    C4 8082   1.493   3.435  12.991 -1.0055 -0.2745 -0.4974
  541MPD2    C5 8083   1.491   3.405  13.127 -0.2488  0.0947  0.1615
  541MPD2     H 8084   1.381   3.135  12.877 -0.3764 -0.5295  0.3759
  541MPD2    H1 8085   1.527   3.536  12.969  0.2139 -0.2818  1.3908
  541MPD2    H2 8086   1.446   3.265  13.273  2.5151 -2.3228 -0.8953
  541MPD2    H3 8087   1.518   3.485  13.196  1.1664  0.0407 -0.3231
  541MPD2     N 8088   1.469   3.383  12.764  0.7346  0.2594 -0.2565
  541MPD2    H5 8089   1.491   3.479  12.738  2.1189  0.1319  0.4453
  541MPD2    N1 8090   1.405   3.038  13.112  0.2081 -0.5735 -0.0675
  541MPD2    H7 8091   1.354   2.988  13.039  1.1704  1.3932 -2.0900
  542TMC3    C1 8092   1.443   3.354  12.524  0.4300 -0.2690  0.6372
  542TMC3    C2 8093   1.437   3.263  12.420 -0.1939 -0.5790 -0.3013
  542TMC3    C3 8094   1.425   3.305  12.289 -0.0680  0.5592 -0.1628
  542TMC3    C4 8095   1.432   3.487  12.491  0.0404 -0.3235  0.1752
  542TMC3    C5 8096   1.415   3.522  12.363  0.2884  0.3791 -0.3266
  542TMC3    C6 8097   1.406   3.432  12.268  0.6830  0.2746  0.3305
  542TMC3     C 8098   1.453   3.295  12.658  0.2996  0.2407  0.2283
  542TMC3     O 8099   1.419   3.175  12.665  0.1985  0.5401  0.0878
  542TMC3     H 8100   1.450   3.157  12.437 -0.6048 -0.7267 -0.9217
  542TMC3    H1 8101   1.440   3.568  12.563  0.9254  1.2848 -1.7276
  542TMC3    H2 8102   1.426   3.458  12.164 -0.1255 -1.0404 -0.1462
  542TMC3    C7 8103   1.411   3.657  12.328 -0.6942  0.2610 -0.5048
  542TMC3    C8 8104   1.463   3.213  12.181  0.1229 -0.5489 -0.0195
  542TMC3    O1 8105   1.453   3.739  12.406 -0.0418 -0.1857  0.2002
  542TMC3    O2 8106   1.445   3.250  12.064 -0.0410 -0.0812 -0.3579
  543TMC3    C1 8107   0.475   0.034  17.243 -0.1302  0.8090 -0.1388
  543TMC3    C2 8108   0.544   4.695  17.336 -0.5677  0.3224 -0.8217
  543TMC3    C3 8109   0.482   4.669  17.457  0.5335 -0.5355  0.2889
  543TMC3    C4 8110   0.343   0.084  17.270 -0.1880  0.1904 -0.2340
  543TMC3    C5 8111   0.296   0.059  17.390  0.0115  1.1337 -0.2173
  543TMC3    C6 8112   0.356   4.722  17.489 -0.2258  0.5197  0.1283
  543TMC3     C 8113   0.526   0.034  17.102  0.5365  0.1022  0.2252
  543TMC3     O 8114   0.646   0.013  17.089 -0.1291 -0.2239 -0.0499
  543TMC3     H 8115   0.637   4.655  17.298  1.6642  1.1795  3.7194
  543TMC3    H1 8116   0.298   0.162  17.209  1.3825 -0.7017 -2.5024
  543TMC3    H2 8117   0.303   4.693  17.579  0.4833  0.0149  0.3828
  543TMC3    C7 8118   0.185   0.147  17.423  0.1228 -0.1439  0.3955
  543TMC3    C8 8119   0.541   4.550  17.516 -0.7243 -0.1383 -0.5450
  543TMC3    O1 8120   0.111   0.195  17.335  0.6635 -0.6534 -0.4410
  543TMC3    O2 8121   0.656   4.522  17.491  0.3351 -0.0827 -0.6933
  544MPD2     C 8122   0.528   4.129   0.062 -0.0880  0.7387 -0.4147
  544MPD2    C1 8123   0.622   4.167  17.702 -0.4475  0.5842  1.0825
  544MPD2    C2 8124   0.603   4.285  17.635  0.6967  0.2743  0.3675
  544MPD2    C3 8125   0.489   4.359  17.669  0.4885 -0.3526  0.2037
  544MPD2    C4 8126   0.395   4.315   0.029 -0.2020 -0.8419  0.1538
  544MPD2    C5 8127   0.419   4.202   0.095 -0.1152 -0.7165  0.4353
  544MPD2     H 8128   0.681   4.321  17.569  1.1758  1.5290  1.6075
  544MPD2    H1 8129   0.308   4.378   0.048 -1.0025 -1.5117 -1.2724
  544MPD2    H2 8130   0.549   4.035   0.112  1.4913  0.8101 -0.9661
  544MPD2    H3 8131   0.357   4.167   0.176 -1.2468  1.6217  0.5773
  544MPD2     N 8132   0.451   4.481  17.602  0.7938  0.6269 -0.0848
  544MPD2    H5 8133   0.363   4.519  17.635  0.5428 -0.2257  0.2260
  544MPD2    N1 8134   0.725   4.075  17.678 -0.6672  0.0128 -0.4347
  544MPD2    H7 8135   0.726   4.006   0.017 -2.6558 -0.3153 -0.7320
  545TMC3    C1 8136   0.897   3.958  17.572  0.1724 -0.4479  0.1512
  545TMC3    C2 8137   1.014   3.960  17.506 -0.3772 -0.0511 -0.5555
  545TMC3    C3 8138   1.077   3.855  17.460  0.0717 -0.2319 -0.4828
  545TMC3    C4 8139   0.830   3.843  17.586  0.2971 -0.7792 -0.4591
  545TMC3    C5 8140   0.884   3.736  17.523 -0.4421 -0.6355  0.1113
  545TMC3    C6 8141   1.011   3.736  17.464 -0.4124  1.0000 -0.0030
  545TMC3     C 8142   0.821   4.083  17.589  0.1716  0.3073 -0.4230
  545TMC3     O 8143   0.832   4.166  17.496 -0.1225  0.4885 -0.2986
  545TMC3     H 8144   1.067   4.053  17.486 -2.0546  1.1778  0.6974
  545TMC3    H1 8145   0.733   3.828  17.633  0.6207 -0.8383  0.1993
  545TMC3    H2 8146   1.066   3.656  17.416  0.3964  1.7182 -0.2815
  545TMC3    C7 8147   0.800   3.619  17.502  0.1151  0.0266 -0.5344
  545TMC3    C8 8148   1.184   3.871  17.367  0.7813 -0.2074 -0.0465
  545TMC3    O1 8149   0.678   3.634  17.490 -0.2837 -0.1142 -0.2965
  545TMC3    O2 8150   1.271   3.944  17.398  0.0026 -0.1544 -0.0990
  546MPD2     C 8151   2.189   4.194  17.422 -0.0069  0.2689  0.1158
  546MPD2    C1 8152   2.149   4.276  17.319 -0.3242 -1.2006  0.2330
  546MPD2    C2 8153   2.163   4.413  17.327  0.0167  0.3633 -0.2282
  546MPD2    C3 8154   2.202   4.469  17.437 -0.2328  0.1481  0.2387
  546MPD2    C4 8155   2.236   4.387  17.548 -0.4680 -0.0123 -0.5556
  546MPD2    C5 8156   2.224   4.252  17.539  0.1549 -0.4564 -0.4288
  546MPD2     H 8157   2.112   4.479  17.258 -1.2735 -0.5807 -0.1844
  546MPD2    H1 8158   2.268   4.439  17.637 -0.6048 -2.1271  0.7210
  546MPD2    H2 8159   2.185   4.086  17.412  2.3756  0.0576  1.4357
  546MPD2    H3 8160   2.238   4.186  17.624 -3.3018 -0.5651  0.0787
  546MPD2     N 8161   2.198   4.606  17.457  0.5019  0.2936 -0.1290
  546MPD2    H5 8162   2.222   4.630  17.552 -1.6266 -0.3063  0.5563
  546MPD2    N1 8163   2.078   4.207  17.219 -0.5223  0.1183 -0.2730
  546MPD2    H7 8164   2.054   4.109  17.231 -0.8689  0.4062  1.2996
  547TMC3    C1 8165   1.895   4.202  17.061 -0.0501 -0.4050  0.2243
  547TMC3    C2 8166   1.844   4.255  16.946 -0.3198  0.3278  0.4581
  547TMC3    C3 8167   1.717   4.211  16.902  0.7350 -0.4503 -0.2813
  547TMC3    C4 8168   1.834   4.103  17.133  0.0605  0.7728  0.5215
  547TMC3    C5 8169   1.721   4.055  17.079 -0.9967 -1.1140  0.3602
  547TMC3    C6 8170   1.658   4.100  16.964 -0.8344  0.3652 -0.6223
  547TMC3     C 8171   2.018   4.268  17.112  0.0199  0.5060  0.6669
  547TMC3     O 8172   2.068   4.361  17.050  1.2187 -0.1813 -0.4904
  547TMC3     H 8173   1.895   4.336  16.896  0.4141 -0.3672  0.0876
  547TMC3    H1 8174   1.880   4.056  17.219  0.0384 -1.3046 -0.5944
  547TMC3    H2 8175   1.563   4.056  16.935 -1.3742  1.1279 -0.0224
  547TMC3    C7 8176   1.650   3.948  17.153 -0.6453 -0.0933 -1.1265
  547TMC3    C8 8177   1.674   4.254  16.769 -0.7039  0.5802  0.6264
  547TMC3    O1 8178   1.657   3.964  17.275 -0.7584 -0.2295 -0.6142
  547TMC3    O2 8179   1.754   4.309  16.694 -0.3173  0.8063 -0.0465
  548MPD2     C 8180   2.042   4.667  11.938  0.3062 -0.3616  0.9050
  548MPD2    C1 8181   2.026   4.584  12.057 -0.0258 -0.4048  0.2556
  548MPD2    C2 8182   2.126   4.503  12.098 -0.2240  0.0873  0.5486
  548MPD2    C3 8183   2.245   4.496  12.021 -0.4595 -0.9289  0.2052
  548MPD2    C4 8184   2.257   4.570  11.906 -0.0383  0.2890  0.5630
  548MPD2    C5 8185   2.157   4.653  11.871  0.0773 -0.1715 -0.4228
  548MPD2     H 8186   2.119   4.448  12.191 -0.6237  0.7847  0.9234
  548MPD2    H1 8187   2.345   4.582  11.843 -1.1395 -0.5737 -1.1586
  548MPD2    H2 8188   1.978   0.017  11.913  0.2909 -0.3552  0.9656
  548MPD2    H3 8189   2.167   4.703  11.775 -0.3865 -0.6196 -0.6987
  548MPD2     N 8190   2.348   4.418  12.078 -0.1438 -0.1271  0.0074
  548MPD2    H5 8191   2.326   4.367  12.163 -1.8781  0.3848 -0.1469
  548MPD2    N1 8192   1.912   4.608  12.129  0.2345  0.4171 -0.1674
  548MPD2    H7 8193   1.869   4.699  12.112 -0.1060  0.2896  0.0097
  549TMC3    C1 8194   1.750   4.584  12.302  0.0489  0.4648 -0.1172
  549TMC3    C2 8195   1.671   4.666  12.224 -0.0515  0.1548  0.6949
  549TMC3    C3 8196   1.559   4.713  12.287  0.6597  0.5066  0.0490
  549TMC3    C4 8197   1.725   4.536  12.425 -0.6642 -1.3249  0.2117
  549TMC3    C5 8198   1.615   4.596  12.493  0.5087 -0.3803 -0.8941
  549TMC3    C6 8199   1.527   4.678  12.419 -0.0018 -0.1774 -0.4940
  549TMC3     C 8200   1.876   4.534  12.239 -0.4442  0.6621  0.1318
  549TMC3     O 8201   1.912   4.426  12.281  0.5827 -0.1137 -0.1357
  549TMC3     H 8202   1.690   4.699  12.122  0.6200  0.8305  1.0420
  549TMC3    H1 8203   1.799   4.479  12.481  1.4881  0.6307 -0.6439
  549TMC3    H2 8204   1.437   4.718  12.465  0.0469  0.6523 -1.1262
  549TMC3    C7 8205   1.545   4.510  12.587 -0.5206 -0.0684 -0.7085
  549TMC3    C8 8206   1.478   0.075  12.223  0.7524 -0.5633 -0.2597
  549TMC3    O1 8207   1.427   4.530  12.598  0.3441 -0.4700 -0.2742
  549TMC3    O2 8208   1.359   0.060  12.252  0.2986  0.0434 -0.1147
  550TMC3    C1 8209   1.114   2.257  12.190  0.0024  0.8942 -0.4357
  550TMC3    C2 8210   1.198   2.312  12.284  0.0885 -0.0312 -0.1874
  550TMC3    C3 8211   1.130   2.348  12.399  0.5671  0.0464  0.2528
  550TMC3    C4 8212   0.976   2.246  12.194 -0.2824 -0.1974 -0.4982
  550TMC3    C5 8213   0.919   2.283  12.314 -0.0446  0.1337  0.3438
  550TMC3    C6 8214   0.999   2.313  12.420 -0.7277 -0.1160  0.0400
  550TMC3     C 8215   1.188   2.224  12.068 -0.7542 -0.0481  0.1138
  550TMC3     O 8216   1.308   2.234  12.059  0.1187  0.3864 -0.3413
  550TMC3     H 8217   1.305   2.328  12.281 -0.3003  1.3321 -5.5936
  550TMC3    H1 8218   0.905   2.237  12.112  0.5965  2.0246 -1.4887
  550TMC3    H2 8219   0.964   2.326  12.522 -2.5095 -0.3837 -0.5361
  550TMC3    C7 8220   0.806   2.374  12.298 -0.4351 -0.2463  0.1476
  550TMC3    C8 8221   1.165   2.473  12.467  0.4669 -0.1017  0.7114
  550TMC3    O1 8222   0.716   2.349  12.219  0.1280 -0.4676  0.1574
  550TMC3    O2 8223   1.078   2.532  12.528  0.1067  0.0407 -0.4026
  551TMC3    C1 8224   3.277   0.408  13.356 -0.0796 -0.0336  0.9639
  551TMC3    C2 8225   3.410   0.413  13.329 -0.2422 -0.2330 -0.4133
  551TMC3    C3 8226   3.495   0.495  13.400  0.2928 -0.2582  0.5317
  551TMC3    C4 8227   3.229   0.475  13.465  0.1932  0.9094 -0.3583
  551TMC3    C5 8228   3.318   0.550  13.538  0.1764 -0.5048 -0.0218
  551TMC3    C6 8229   3.449   0.557  13.508  0.2537  0.6401  0.1019
  551TMC3     C 8230   3.197   0.379  13.244 -0.3225 -0.2797 -0.6074
  551TMC3     O 8231   3.251   0.402  13.137  0.3590 -0.5736  0.2560
  551TMC3     H 8232   3.447   0.355  13.245 -0.8794  2.2374 -2.3728
  551TMC3    H1 8233   3.125   0.470  13.496 -0.1962 -1.2715 -2.0095
  551TMC3    H2 8234   3.510   0.619  13.572  1.4255  0.6023 -0.9700
  551TMC3    C7 8235   3.290   0.625  13.663 -0.2312 -0.6822  0.6967
  551TMC3    C8 8236   3.632   0.519  13.350  1.0173 -0.1992  0.0928
  551TMC3    O1 8237   3.383   0.646  13.740 -0.2022 -0.7814  0.0524
  551TMC3    O2 8238   3.658   0.455  13.250 -0.2769  0.3109 -0.2009
  552MPD2     C 8239   0.526   2.604  13.914  0.0784 -0.4077  0.5455
  552MPD2    C1 8240   0.440   2.594  14.025 -0.5686  0.2507 -0.4743
  552MPD2    C2 8241   0.493   2.557  14.146  0.6210  0.4252  0.5832
  552MPD2    C3 8242   0.633   2.552  14.159 -0.2682 -0.1593 -0.3976
  552MPD2    C4 8243   0.721   2.579  14.047  0.2604  0.1698 -0.8043
  552MPD2    C5 8244   0.663   2.599  13.929  0.2842  0.1298 -0.5398
  552MPD2     H 8245   0.429   2.549  14.233 -1.7820  0.5633 -1.1765
  552MPD2    H1 8246   0.829   2.580  14.052  0.2513  2.8331 -1.0116
  552MPD2    H2 8247   0.483   2.627  13.818 -0.5269  0.8688  1.1197
  552MPD2    H3 8248   0.727   2.608  13.842 -0.9092  0.7528 -1.3543
  552MPD2     N 8249   0.703   2.529  14.282  0.6153 -0.1738 -0.1624
  552MPD2    H5 8250   0.804   2.529  14.278  0.6148  0.8770 -0.0530
  552MPD2    N1 8251   0.303   2.607  14.006  0.5226  0.3030 -0.2311
  552MPD2    H7 8252   0.249   2.621  14.091  2.9477  2.3828  0.9745
  553TMC3    C1 8253   0.090   2.599  13.917  0.5203 -0.4583  0.4782
  553TMC3    C2 8254   0.019   2.580  13.800 -0.2632 -0.2885 -0.2206
  553TMC3    C3 8255   4.647   2.497  13.799 -0.1088 -0.3248 -0.1650
  553TMC3    C4 8256   0.060   2.545  14.042 -1.1581 -0.2445  0.0529
  553TMC3    C5 8257   4.692   2.453  14.031 -0.9015  0.4326  0.2529
  553TMC3    C6 8258   4.619   2.421  13.913  0.0237 -0.3306  0.4332
  553TMC3     C 8259   0.229   2.618  13.887  0.0449 -0.3083 -0.1081
  553TMC3     O 8260   0.257   2.615  13.770 -0.3348 -0.7446 -0.8762
  553TMC3     H 8261   0.034   2.638  13.710 -1.6497 -0.0017 -0.2673
  553TMC3    H1 8262   0.102   2.574  14.137  0.9864 -2.0514 -0.3227
  553TMC3    H2 8263   4.551   2.336  13.924 -1.5457  0.9703  0.8155
  553TMC3    C7 8264   4.730   2.338  14.108  0.6771 -0.3783 -0.7622
  553TMC3    C8 8265   4.629   2.441  13.672  0.2441  0.6184 -0.0195
  553TMC3    O1 8266   4.645   2.264  14.151  0.3101  0.5911 -0.3269
  553TMC3    O2 8267   4.518   2.398  13.632 -0.1003  0.3340 -0.4055
  554TMC3    C1 8268   2.085   1.523  11.898  0.7157  0.4170 -0.5817
  554TMC3    C2 8269   1.994   1.543  11.793 -0.1457  0.5081 -0.1276
  554TMC3    C3 8270   2.012   1.652  11.714  0.3704 -0.4207 -0.3673
  554TMC3    C4 8271   2.159   1.627  11.943  0.1043 -0.3996  0.1016
  554TMC3    C5 8272   2.175   1.725  11.849 -0.1067 -0.0382  0.7150
  554TMC3    C6 8273   2.107   1.742  11.731 -0.1135  0.4342  0.3754
  554TMC3     C 8274   2.087   1.388  11.967  0.4726 -0.1172 -0.4091
  554TMC3     O 8275   2.009   1.306  11.933  0.8041  0.8748 -0.1816
  554TMC3     H 8276   1.927   1.462  11.766  0.8327 -0.5855  0.6901
  554TMC3    H1 8277   2.232   1.621  12.023 -0.3441 -0.3902  0.5094
  554TMC3    H2 8278   2.114   1.833  11.673  2.1437  0.9369  1.4341
  554TMC3    C7 8279   2.280   1.826  11.872 -0.4413 -0.7856 -0.0100
  554TMC3    C8 8280   1.986   1.635  11.570 -0.1469 -0.6353 -0.1265
  554TMC3    O1 8281   2.304   1.843  11.990  0.1348 -0.0290  0.5916
  554TMC3    O2 8282   2.073   1.660  11.490 -0.1118  0.5043 -0.7592
  555TMC3    C1 8283   1.026   1.545  15.246 -0.0608  0.0378  0.2762
  555TMC3    C2 8284   0.978   1.602  15.358 -0.3406 -0.6116 -0.9461
  555TMC3    C3 8285   0.924   1.520  15.452 -0.3649 -0.0159 -0.4001
  555TMC3    C4 8286   1.031   1.417  15.225  0.6096 -0.5482 -0.3804
  555TMC3    C5 8287   0.990   1.335  15.329  0.2354 -0.7655 -0.7846
  555TMC3    C6 8288   0.934   1.382  15.439 -1.1268  0.4136 -0.6044
  555TMC3     C 8289   1.028   1.621  15.121 -0.3712  0.1417 -0.2389
  555TMC3     O 8290   1.098   1.721  15.115  0.3618 -0.4424  0.1871
  555TMC3     H 8291   0.968   1.710  15.358 -0.2514 -0.6105  2.3664
  555TMC3    H1 8292   1.064   1.388  15.126  2.0156  0.9933 -0.3733
  555TMC3    H2 8293   0.897   1.320  15.520  1.9175  0.0639  0.5057
  555TMC3    C7 8294   1.038   1.199  15.335 -0.3417  0.3821  0.9357
  555TMC3    C8 8295   0.824   1.574  15.536  0.4511  0.4972  0.7875
  555TMC3    O1 8296   1.004   1.144  15.438  0.2101 -0.6525 -0.0842
  555TMC3    O2 8297   0.797   1.685  15.503  0.4394  0.2900 -0.4140
  556MPD2     C 8298   0.134   2.576  10.847 -0.4257  0.1441 -0.2161
  556MPD2    C1 8299   0.012   2.530  10.900 -0.5230 -0.0901  0.5071
  556MPD2    C2 8300   4.666   2.462  10.814 -0.4044 -0.2612  0.1884
  556MPD2    C3 8301   4.696   2.456  10.678  0.3466  0.0867  0.0016
  556MPD2    C4 8302   0.077   2.514  10.632 -0.1694 -0.4152  0.2295
  556MPD2    C5 8303   0.165   2.567  10.721  0.0043  0.1491  0.8026
  556MPD2     H 8304   4.570   2.424  10.849 -1.3670  1.0017 -1.0493
  556MPD2    H1 8305   0.102   2.510  10.527 -0.6686  0.6157  0.0652
  556MPD2    H2 8306   0.210   2.626  10.905 -0.5774  0.7407 -0.5372
  556MPD2    H3 8307   0.260   2.599  10.680  0.0359 -0.8879  0.0416
  556MPD2     N 8308   4.603   2.380  10.603  0.0565  0.0999 -0.2445
  556MPD2    H5 8309   4.533   2.324  10.650  0.5829 -0.6230 -0.3170
  556MPD2    N1 8310   4.715   2.543  11.038 -0.0612  0.3414 -0.6675
  556MPD2    H7 8311   4.645   2.480  11.077 -0.4723  0.4640 -1.2089
  557TMC3    C1 8312   4.511   2.288  10.406  0.0584  0.1940 -0.6395
  557TMC3    C2 8313   4.552   2.229  10.291 -0.2649  0.0704  0.3828
  557TMC3    C3 8314   4.476   2.125  10.243 -0.4257 -0.8067 -0.3143
  557TMC3    C4 8315   4.399   2.241  10.473  0.0331 -0.0150  0.4066
  557TMC3    C5 8316   4.328   2.137  10.419  0.1078  0.3364 -0.9676
  557TMC3    C6 8317   4.370   2.066  10.311  0.8461 -0.3103 -0.1032
  557TMC3     C 8318   4.608   2.374  10.468 -0.0287 -0.5073 -0.0826
  557TMC3     O 8319   4.694   2.424  10.395  0.0275 -0.1253 -0.1598
  557TMC3     H 8320   4.627   2.278  10.229 -0.7295 -0.7572 -0.8329
  557TMC3    H1 8321   4.363   2.299  10.557 -2.7685 -1.3689  0.1554
  557TMC3    H2 8322   4.309   1.989  10.264  0.4427 -0.3092  0.4185
  557TMC3    C7 8323   4.200   2.109  10.483  0.6203 -0.1532  0.6745
  557TMC3    C8 8324   4.513   2.083  10.107 -0.1440  0.3882 -0.0119
  557TMC3    O1 8325   4.136   2.199  10.538  0.4290  1.0688 -0.0888
  557TMC3    O2 8326   4.554   2.172  10.032  0.1054 -0.0435  0.4677
  558TMC3    C1 8327   1.797   0.851  10.292  0.8727  0.5291  0.1436
  558TMC3    C2 8328   1.719   0.745  10.335  0.1128 -0.7635  1.1658
  558TMC3    C3 8329   1.648   0.676  10.237  0.9147 -0.2535  0.6052
  558TMC3    C4 8330   1.813   0.894  10.160  0.4165 -0.2984 -0.5090
  558TMC3    C5 8331   1.735   0.818  10.064 -0.2965 -0.2730 -0.0814
  558TMC3    C6 8332   1.653   0.715  10.104 -0.1384 -0.0955 -0.2634
  558TMC3     C 8333   1.911   0.892  10.377  0.4744 -0.5870  0.1383
  558TMC3     O 8334   1.984   0.970  10.324 -0.0797 -1.2468 -0.1672
  558TMC3     H 8335   1.683   0.740  10.437  0.6278 -3.2007  1.2210
  558TMC3    H1 8336   1.876   0.975  10.125 -0.4343  1.1371  1.3076
  558TMC3    H2 8337   1.608   0.644  10.036 -0.5942 -0.4367  0.3842
  558TMC3    C7 8338   1.744   0.861   9.928  0.4222  0.0915 -0.2787
  558TMC3    C8 8339   1.586   0.551  10.279 -0.4310 -0.0854  0.5304
  558TMC3    O1 8340   1.842   0.923   9.893  0.0982 -0.0595  0.4568
  558TMC3    O2 8341   1.496   0.503  10.207  0.0298  0.5114  0.3328
  559MPD2     C 8342   1.965   1.283  10.655  0.0600  0.4495 -0.3731
  559MPD2    C1 8343   1.898   1.185  10.731 -0.3302 -0.0300 -0.0040
  559MPD2    C2 8344   1.961   1.150  10.852  0.3444  0.5130 -0.2185
  559MPD2    C3 8345   2.073   1.216  10.898  0.4423 -0.2024  0.0591
  559MPD2    C4 8346   2.133   1.315  10.820  0.2119  0.0855 -1.2471
  559MPD2    C5 8347   2.076   1.342  10.702 -0.3737 -0.1683  0.3230
  559MPD2     H 8348   1.912   1.079  10.918  0.4763  1.3123  0.7314
  559MPD2    H1 8349   2.218   1.373  10.855 -0.5317  0.5089 -0.1518
  559MPD2    H2 8350   1.917   1.325  10.568 -1.0164  1.4290  0.6860
  559MPD2    H3 8351   2.128   1.413  10.637  0.3812 -0.9605  0.0654
  559MPD2     N 8352   2.125   1.167  11.022  0.1749 -0.1654 -0.3200
  559MPD2    H5 8353   2.071   1.095  11.068 -1.9375 -0.1574 -2.7949
  559MPD2    N1 8354   1.773   1.135  10.688 -0.5503 -0.3997  0.1009
  559MPD2    H7 8355   1.737   1.179  10.604 -2.2460 -1.0634  0.4738
  560TMC3    C1 8356   2.300   1.097  11.165  0.5093  0.0536 -0.6571
  560TMC3    C2 8357   2.243   0.983  11.195  0.8307  0.9050 -0.0148
  560TMC3    C3 8358   2.293   0.902  11.294 -0.2443  0.4881 -0.2097
  560TMC3    C4 8359   2.408   1.136  11.242  0.2520  0.6720  0.1265
  560TMC3    C5 8360   2.449   1.063  11.349  0.0207  0.0617 -0.0781
  560TMC3    C6 8361   2.407   0.938  11.365  0.2923  0.6577 -0.0689
  560TMC3     C 8362   2.257   1.184  11.059  0.3190 -0.4786  0.0545
  560TMC3     O 8363   2.347   1.235  10.996  0.2150  0.4188 -0.7004
  560TMC3     H 8364   2.167   0.941  11.130  1.0076 -0.8780  0.9508
  560TMC3    H1 8365   2.434   1.239  11.221 -1.2216  1.3047  1.4177
  560TMC3    H2 8366   2.451   0.878  11.444 -0.3812  0.4617  0.1551
  560TMC3    C7 8367   2.530   1.119  11.460  0.6493  0.3741  0.0509
  560TMC3    C8 8368   2.286   0.760  11.263  0.0838  0.2501 -0.9315
  560TMC3    O1 8369   2.532   1.054  11.562 -0.1474 -0.9188  0.3411
  560TMC3    O2 8370   2.204   0.729  11.178 -0.1612  0.8381  0.4237
  561TMC3    C1 8371   0.126   4.586  11.497  0.1705 -0.5554  0.5837
  561TMC3    C2 8372   0.078   4.538  11.616  0.3348  0.9862 -0.0521
  561TMC3    C3 8373   0.001   4.630  11.685 -0.3030  0.5693 -0.0824
  561TMC3    C4 8374   0.090   4.699  11.434  0.4680  0.2493 -0.1522
  561TMC3    C5 8375   0.011   0.049  11.506 -0.1016  0.6263  0.5320
  561TMC3    C6 8376   4.696   0.015  11.633  0.2970 -0.3539  0.2321
  561TMC3     C 8377   0.176   4.474  11.406  0.8291 -0.7456 -0.0802
  561TMC3     O 8378   0.129   4.362  11.430  0.3453  0.5470 -0.4442
  561TMC3     H 8379   0.094   4.438  11.655 -2.8233  0.3299 -0.3751
  561TMC3    H1 8380   0.109   4.714  11.328 -0.3919  0.9802 -0.2095
  561TMC3    H2 8381   4.633   0.089  11.682  0.7863  1.7153 -2.2709
  561TMC3    C7 8382   0.004   0.189  11.475  0.0934  0.2049  0.0967
  561TMC3    C8 8383   4.683   4.582  11.804 -0.1708  0.0351  0.5735
  561TMC3    O1 8384   4.659   0.252  11.544  0.1470  0.0226 -0.6241
  561TMC3    O2 8385   4.713   4.470  11.832  0.2249  0.3169  0.0227
  562TMC3    C1 8386   0.258   1.644  16.564  0.7581  0.2508  0.9230
  562TMC3    C2 8387   0.320   1.748  16.504  1.1811  0.0007 -0.3326
  562TMC3    C3 8388   0.318   1.755  16.367 -0.9477  0.2712  0.8774
  562TMC3    C4 8389   0.237   1.526  16.494  0.0760 -0.2266 -0.2784
  562TMC3    C5 8390   0.250   1.531  16.354  0.6265  0.1438  0.0728
  562TMC3    C6 8391   0.281   1.648  16.290  0.1618  0.2116  0.4128
  562TMC3     C 8392   0.243   1.645  16.713 -0.1227 -0.1635  0.2775
  562TMC3     O 8393   0.282   1.749  16.762 -0.4990 -0.2790 -0.3269
  562TMC3     H 8394   0.360   1.829  16.565  2.5154  0.4461 -1.7968
  562TMC3    H1 8395   0.184   1.443  16.539 -1.0519  0.8619  0.3783
  562TMC3    H2 8396   0.307   1.640  16.186  0.5556 -1.4760  0.6467
  562TMC3    C7 8397   0.294   1.420  16.283 -0.2752  0.2653 -0.2078
  562TMC3    C8 8398   0.383   1.877  16.312 -0.6491 -0.6091  0.2129
  562TMC3    O1 8399   0.333   1.432  16.168 -0.1523 -0.3793  0.3866
  562TMC3    O2 8400   0.454   1.938  16.390  0.0178 -0.0462 -0.1349
  563MPD2     C 8401   2.843   3.180  16.128  0.0123  0.6105 -0.0868
  563MPD2    C1 8402   2.899   3.086  16.209 -0.0604 -0.3120  0.2829
  563MPD2    C2 8403   2.972   3.124  16.322  0.2427  0.4438 -0.2448
  563MPD2    C3 8404   2.975   3.258  16.363 -0.2123 -0.1239 -0.0433
  563MPD2    C4 8405   2.913   3.353  16.284 -0.4842 -0.7550  0.0536
  563MPD2    C5 8406   2.852   3.308  16.172  0.6525  0.1924 -0.0287
  563MPD2     H 8407   3.009   3.044  16.386  1.1101  1.2568  0.2664
  563MPD2    H1 8408   2.887   3.452  16.318  2.9854  0.0652  0.2685
  563MPD2    H2 8409   2.814   3.162  16.025  1.7948 -1.2854 -0.2784
  563MPD2    H3 8410   2.812   3.385  16.107  0.4029 -1.4985 -1.8898
  563MPD2     N 8411   3.040   3.289  16.488 -0.2688  0.6323 -0.1455
  563MPD2    H5 8412   3.112   3.225  16.519  1.5221  2.0754 -1.2837
  563MPD2    N1 8413   2.893   2.948  16.184 -0.0531  0.1260 -0.1156
  563MPD2    H7 8414   2.935   2.891  16.256 -0.3416 -1.1089 -0.9282
  564TMC3    C1 8415   2.838   2.745  16.095  0.2252  0.2150  0.6811
  564TMC3    C2 8416   2.716   2.685  16.069 -0.1782 -0.2377 -0.0549
  564TMC3    C3 8417   2.706   2.547  16.089  0.3308 -0.0113  0.1032
  564TMC3    C4 8418   2.939   2.680  16.159  0.5607  0.2925  0.2897
  564TMC3    C5 8419   2.925   2.548  16.181  0.3492  0.6544  0.1742
  564TMC3    C6 8420   2.813   2.478  16.147  0.1795  0.6475  0.3727
  564TMC3     C 8421   2.834   2.887  16.068 -0.3167 -0.3613 -0.1331
  564TMC3     O 8422   2.754   2.932  15.989 -0.2517  0.2347  0.2448
  564TMC3     H 8423   2.639   2.743  16.019 -1.2793 -2.2555 -0.7231
  564TMC3    H1 8424   3.034   2.727  16.180 -0.2943  1.9492  0.4305
  564TMC3    H2 8425   2.796   2.377  16.181 -1.1683  1.2392  1.4393
  564TMC3    C7 8426   3.029   2.486  16.261 -0.3973  0.3439 -0.0132
  564TMC3    C8 8427   2.574   2.483  16.102  0.8623  0.1285  0.8278
  564TMC3    O1 8428   3.139   2.539  16.265 -0.3609  0.3278 -0.3861
  564TMC3    O2 8429   2.560   2.397  16.186  0.2174  0.4956  0.4441
  565TMC3    C1 8430   4.120   4.033  10.435  0.4578 -0.1493 -0.0153
  565TMC3    C2 8431   4.172   3.942  10.520  0.1509  0.5358 -0.1726
  565TMC3    C3 8432   4.101   3.821  10.545  0.2581 -0.1321  0.3935
  565TMC3    C4 8433   4.010   4.001  10.364  0.1590  0.2664  0.3417
  565TMC3    C5 8434   3.952   3.877  10.376 -0.3559 -0.1907 -0.1816
  565TMC3    C6 8435   3.995   3.781  10.465 -0.2581  0.6789  0.9421
  565TMC3     C 8436   4.131   4.181  10.449 -0.4113  0.2272 -0.3062
  565TMC3     O 8437   4.094   4.258  10.361  0.7525 -0.1121 -0.0684
  565TMC3     H 8438   4.268   3.945  10.570 -0.0955 -1.7178  0.4765
  565TMC3    H1 8439   3.965   4.074  10.297  0.2269 -0.0507 -0.0495
  565TMC3    H2 8440   3.930   3.706  10.507  1.4242 -1.3199  0.0004
  565TMC3    C7 8441   3.854   3.849  10.278  0.2807 -0.2759 -0.0993
  565TMC3    C8 8442   4.163   3.724  10.629  0.0993 -0.1557  0.0333
  565TMC3    O1 8443   3.809   3.942  10.213  0.2144  0.5327  0.5098
  565TMC3    O2 8444   4.221   3.767  10.729  0.4146 -0.1952  0.2409
  566MPD2     C 8445   1.030   0.392  14.105 -0.2695 -0.3323 -0.2336
  566MPD2    C1 8446   1.011   0.522  14.060 -0.5664  0.5427  0.3722
  566MPD2    C2 8447   0.891   0.561  14.004  0.8259 -0.0038  1.4814
  566MPD2    C3 8448   0.787   0.472  14.011 -0.7612  0.3388  0.6629
  566MPD2    C4 8449   0.808   0.342  14.049  0.2221 -0.2789  0.3423
  566MPD2    C5 8450   0.931   0.299  14.091  0.3725  0.2367  0.4703
  566MPD2     H 8451   0.872   0.665  13.983  0.3232 -0.3781  0.1185
  566MPD2    H1 8452   0.722   0.279  14.070 -3.0327  3.4081 -1.7570
  566MPD2    H2 8453   1.126   0.366  14.149  0.5781  2.3734 -0.4814
  566MPD2    H3 8454   0.956   0.204  14.137 -2.5475 -0.2682  1.0504
  566MPD2     N 8455   0.665   0.503  13.947  0.2104  0.0140 -0.1596
  566MPD2    H5 8456   0.613   0.425  13.907  0.9005 -1.0435  0.9887
  566MPD2    N1 8457   1.116   0.609  14.087  0.8074 -0.5062 -0.3109
  566MPD2    H7 8458   1.201   0.582  14.137  0.7676  0.8434  0.5045
  567TMC3    C1 8459   1.239   0.807  14.078  0.2640  0.2761  0.6048
  567TMC3    C2 8460   1.265   0.909  13.991  0.3096  0.4601  0.0412
  567TMC3    C3 8461   1.326   1.019  14.046  0.9814 -0.6340 -0.1812
  567TMC3    C4 8462   1.244   0.820  14.214  0.0315 -0.3580 -0.0139
  567TMC3    C5 8463   1.305   0.932  14.260 -0.2384  0.0770 -0.5612
  567TMC3    C6 8464   1.346   1.031  14.177 -0.1307 -0.1932  0.2134
  567TMC3     C 8465   1.128   0.734  14.029  0.0772 -0.2390 -0.3228
  567TMC3     O 8466   1.054   0.790  13.951 -0.1239  0.2090  0.0173
  567TMC3     H 8467   1.245   0.901  13.884  2.0355 -0.0121 -0.2476
  567TMC3    H1 8468   1.235   0.738  14.284  0.5960  0.4867  1.0316
  567TMC3    H2 8469   1.383   1.123  14.222 -0.0086 -0.7299  1.2030
  567TMC3    C7 8470   1.318   0.952  14.402  0.4478  0.2829 -0.6726
  567TMC3    C8 8471   1.304   1.148  13.978 -0.0528 -0.2122 -0.0885
  567TMC3    O1 8472   1.415   1.018  14.439  0.1337 -0.2888  0.6145
  567TMC3    O2 8473   1.200   1.159  13.913 -0.4580  0.3194  1.0078
  568MPD2     C 8474   2.667   1.420  16.163 -0.1681  0.5965 -0.4778
  568MPD2    C1 8475   2.608   1.409  16.287  0.2188  0.1888  0.2455
  568MPD2    C2 8476   2.489   1.476  16.312 -0.3402  0.1818 -0.0789
  568MPD2    C3 8477   2.435   1.562  16.213 -1.2316 -0.5753  0.7861
  568MPD2    C4 8478   2.493   1.556  16.086  0.3302  0.1003 -0.2538
  568MPD2    C5 8479   2.600   1.485  16.064  0.0180 -0.5134 -0.2279
  568MPD2     H 8480   2.437   1.472  16.407 -0.2943  0.4831 -0.0419
  568MPD2    H1 8481   2.445   1.603  16.002 -0.8571  1.8235  1.3927
  568MPD2    H2 8482   2.759   1.364  16.148 -0.6469 -0.4962  0.6466
  568MPD2    H3 8483   2.639   1.480  15.962 -0.1230 -0.6512 -0.2753
  568MPD2     N 8484   2.318   1.633  16.250 -0.2471  0.8777 -0.0809
  568MPD2    H5 8485   2.285   1.621  16.345  0.5764 -1.2058 -0.0574
  568MPD2    N1 8486   2.677   1.329  16.379  0.1154 -0.1585  0.3458
  568MPD2    H7 8487   2.759   1.281  16.342 -1.1002 -2.3270  0.4827
  569TMC3    C1 8488   2.158   1.813  16.227 -0.1618  0.3584 -0.4117
  569TMC3    C2 8489   2.177   1.847  16.358 -0.4263 -0.4528 -0.2376
  569TMC3    C3 8490   2.148   1.972  16.392 -0.7819 -0.6664  0.4042
  569TMC3    C4 8491   2.090   1.897  16.135  0.3858  0.4304  0.4609
  569TMC3    C5 8492   2.041   2.009  16.186 -0.4018 -0.7378 -0.0840
  569TMC3    C6 8493   2.071   2.051  16.311  0.3705  0.3534  0.3183
  569TMC3     C 8494   2.249   1.715  16.163  0.6208 -0.0106 -0.4146
  569TMC3     O 8495   2.271   1.729  16.043  0.1434 -0.6714  0.2468
  569TMC3     H 8496   2.239   1.785  16.422  0.4586  0.4216 -0.2455
  569TMC3    H1 8497   2.088   1.868  16.030  1.4302 -0.6203  0.7309
  569TMC3    H2 8498   2.044   2.152  16.336  0.4468  0.7630 -1.2169
  569TMC3    C7 8499   2.049   2.119  16.088  0.3586  0.1521  0.5041
  569TMC3    C8 8500   2.250   2.042  16.467 -0.0805  0.3489 -0.6984
  569TMC3    O1 8501   1.990   2.096  15.983 -0.3341 -0.2704  0.2892
  569TMC3    O2 8502   2.309   2.131  16.411  0.2660  0.4298 -0.4079
  570TMC3    C1 8503   1.946   0.632  16.264  0.3282 -0.5437  0.1472
  570TMC3    C2 8504   1.996   0.681  16.141  0.5419 -0.3076 -0.3939
  570TMC3    C3 8505   2.055   0.805  16.144  0.9504 -0.2595 -0.6204
  570TMC3    C4 8506   1.940   0.712  16.377  0.9481  0.3986  0.1881
  570TMC3    C5 8507   2.003   0.833  16.374 -0.3472 -0.9817 -0.2219
  570TMC3    C6 8508   2.061   0.880  16.259 -0.3908 -0.0855 -0.8388
  570TMC3     C 8509   1.855   0.526  16.254 -0.1109 -0.0744  0.4696
  570TMC3     O 8510   1.804   0.501  16.149  0.4382  0.9613 -0.6492
  570TMC3     H 8511   1.981   0.623  16.050 -1.9385  0.3140 -0.3678
  570TMC3    H1 8512   1.884   0.683  16.465 -0.0762  0.4353 -0.4486
  570TMC3    H2 8513   2.114   0.975  16.256 -1.7209  0.6239 -2.1908
  570TMC3    C7 8514   2.003   0.912  16.497 -0.0190  0.0833  0.5688
  570TMC3    C8 8515   2.129   0.856  16.033 -0.5052 -0.0375  0.3024
  570TMC3    O1 8516   2.008   0.841  16.599 -0.0200  0.1449 -0.7589
  570TMC3    O2 8517   2.196   0.958  16.051 -0.2699  0.1423 -0.1577
  571MPD2     C 8518   0.689   2.490  17.387 -0.4387  0.2593  0.1727
  571MPD2    C1 8519   0.601   2.437  17.481  0.4696  0.0423 -0.3596
  571MPD2    C2 8520   0.615   2.476  17.615  0.0965 -0.0924  0.2460
  571MPD2    C3 8521   0.708   2.568  17.649  0.9198  0.4890  0.7462
  571MPD2    C4 8522   0.791   2.626  17.558  0.1028  0.3075  0.2943
  571MPD2    C5 8523   0.781   2.579  17.428  0.0315 -0.1212  0.3271
  571MPD2     H 8524   0.536   2.457  17.687  0.6075 -1.5636  0.4087
  571MPD2    H1 8525   0.863   2.697  17.597  2.5229 -0.8386 -2.1416
  571MPD2    H2 8526   0.684   2.469  17.280  0.0905  0.9212  0.0181
  571MPD2    H3 8527   0.842   2.627  17.352 -0.8197 -0.8330 -0.7830
  571MPD2     N 8528   0.708   2.633   0.036 -0.0471 -0.0541 -0.0202
  571MPD2    H5 8529   0.748   2.727   0.037  2.4304 -1.0960 -1.0644
  571MPD2    N1 8530   0.504   2.348  17.431 -0.1692 -0.2488  0.6189
  571MPD2    H7 8531   0.510   2.329  17.331 -3.2646  0.2914  0.3427
  572TMC3    C1 8532   0.646   2.701   0.246  0.3084 -0.1356  0.5553
  572TMC3    C2 8533   0.716   2.676   0.361  0.4200  0.3080  0.7614
  572TMC3    C3 8534   0.748   2.781   0.439 -0.0689  0.2434  0.1298
  572TMC3    C4 8535   0.628   2.827   0.201  0.6359 -0.1944  0.0475
  572TMC3    C5 8536   0.673   2.933   0.276 -0.3198  0.6954  0.0874
  572TMC3    C6 8537   0.730   2.913   0.401  0.3145  0.3972 -0.0759
  572TMC3     C 8538   0.651   2.595   0.150  0.6871 -0.1038  0.6032
  572TMC3     O 8539   0.621   2.481   0.184 -0.0757 -0.2931  0.5471
  572TMC3     H 8540   0.736   2.573   0.390  1.5160  0.3413  0.1443
  572TMC3    H1 8541   0.587   2.852   0.104  1.3720  0.3640 -0.1220
  572TMC3    H2 8542   0.738   2.997   0.468  0.6598  0.5885 -0.3542
  572TMC3    C7 8543   0.630   3.072   0.239  0.3163  1.0482  0.1136
  572TMC3    C8 8544   0.788   2.766   0.574 -0.4795 -0.2560 -0.3524
  572TMC3    O1 8545   0.522   3.086   0.182 -0.0235 -0.8991  0.8228
  572TMC3    O2 8546   0.858   2.853   0.626  0.3214  0.0247  0.0666
  573MPD2     C 8547   1.027   2.339   0.689 -0.8903  0.6385 -0.1278
  573MPD2    C1 8548   1.084   2.456   0.731  0.3710 -0.2111  0.5970
  573MPD2    C2 8549   1.101   2.554   0.637 -0.3760 -0.6909 -0.0075
  573MPD2    C3 8550   1.071   2.531   0.503 -0.5015  0.3326 -0.3659
  573MPD2    C4 8551   1.010   2.421   0.464  0.4325 -0.1792  0.2883
  573MPD2    C5 8552   0.988   2.321   0.557 -0.0626 -0.1543 -0.2790
  573MPD2     H 8553   1.154   2.646   0.660  1.1619 -1.1350 -1.8452
  573MPD2    H1 8554   0.973   2.408   0.363  0.1142  0.9141  0.2588
  573MPD2    H2 8555   1.005   2.252   0.750  0.3577  0.5407  0.1786
  573MPD2    H3 8556   0.943   2.227   0.528  0.9735 -1.5264  2.6211
  573MPD2     N 8557   1.095   2.629   0.402  0.4160  0.8243 -0.1685
  573MPD2    H5 8558   1.052   2.606   0.312 -1.7926  2.2119  0.5278
  573MPD2    N1 8559   1.105   2.456   0.874  0.4463  0.3227 -0.1502
  573MPD2    H7 8560   1.067   2.382   0.932  0.5371 -0.4482 -1.0733
  574TMC3    C1 8561   1.165   2.832   0.298  1.5817  0.5048  0.6778
  574TMC3    C2 8562   1.060   2.832   0.209  0.6158 -0.3123  0.8221
  574TMC3    C3 8563   1.073   2.916   0.103  0.6362  0.2974 -0.5580
  574TMC3    C4 8564   1.278   2.911   0.285  0.2237  0.4469  0.4347
  574TMC3    C5 8565   1.293   2.986   0.171  0.6015 -0.0015 -0.2856
  574TMC3    C6 8566   1.193   2.986   0.078  0.1334 -0.2324 -1.1783
  574TMC3     C 8567   1.161   2.755   0.422 -0.0150  0.2494  0.7905
  574TMC3     O 8568   1.230   2.803   0.515 -0.2751  0.1033 -0.1192
  574TMC3     H 8569   0.967   2.781   0.231 -0.1806 -0.3269 -2.6105
  574TMC3    H1 8570   1.351   2.913   0.365 -1.6547 -0.7470  2.1551
  574TMC3    H2 8571   1.207   3.037  17.718 -0.2251  2.6866  0.3403
  574TMC3    C7 8572   1.431   3.026   0.139  0.1728 -0.5119  0.5057
  574TMC3    C8 8573   0.950   2.959   0.031 -1.3441  0.2588  0.6567
  574TMC3    O1 8574   1.519   2.982   0.208 -0.3612  0.1352  0.0871
  574TMC3    O2 8575   0.858   2.878   0.027  0.5543 -0.4375 -0.1249
  575TMC3    C1 8576   4.599   3.372  11.324 -0.2113  0.1697 -0.3919
  575TMC3    C2 8577   4.589   3.236  11.351  0.5872 -0.0447  0.2652
  575TMC3    C3 8578   4.504   3.165  11.267  0.5274 -0.2336 -0.2662
  575TMC3    C4 8579   4.524   3.433  11.222 -0.6599  0.4262  0.1291
  575TMC3    C5 8580   4.445   3.360  11.142  0.4695 -0.5325  0.1967
  575TMC3    C6 8581   4.436   3.228  11.168 -0.4621 -0.4192 -0.4689
  575TMC3     C 8582   4.701   3.439  11.395  0.0090 -0.3926 -0.2229
  575TMC3     O 8583   0.046   3.375  11.467 -0.1012  0.0261  0.2954
  575TMC3     H 8584   4.635   3.193  11.439 -0.4307 -2.2189 -0.2834
  575TMC3    H1 8585   4.537   3.538  11.198  1.5500  0.2471  0.5762
  575TMC3    H2 8586   4.352   3.170  11.132 -2.3994  1.7139  0.6053
  575TMC3    C7 8587   4.388   3.417  11.019  0.4900 -0.3466  0.0240
  575TMC3    C8 8588   4.471   3.027  11.293 -0.7414 -0.3278  0.8576
  575TMC3    O1 8589   4.386   3.541  11.005  0.6033 -0.4591  0.3498
  575TMC3    O2 8590   4.471   2.995  11.410  0.0713 -0.3379  0.9052
  576MPD2     C 8591   3.680   0.396  12.739 -0.0710  0.2014  0.7460
  576MPD2    C1 8592   3.784   0.478  12.694 -0.3619 -0.6578 -0.0114
  576MPD2    C2 8593   3.797   0.597  12.763  0.5389 -0.8385  0.3621
  576MPD2    C3 8594   3.726   0.627  12.876 -0.2337 -0.7956  0.1383
  576MPD2    C4 8595   3.636   0.539  12.924  0.1391 -0.1677 -0.6007
  576MPD2    C5 8596   3.613   0.427  12.848 -0.1993 -0.5932  0.2478
  576MPD2     H 8597   3.880   0.658  12.728 -0.1161  0.0289  0.3199
  576MPD2    H1 8598   3.581   0.563  13.015  2.2391  2.2120  0.0505
  576MPD2    H2 8599   3.648   0.307  12.687 -1.3861  0.5685  0.9352
  576MPD2    H3 8600   3.535   0.357  12.876  0.8729 -0.7910  2.7411
  576MPD2     N 8601   3.735   0.759  12.929  0.1140 -0.1227  0.0013
  576MPD2    H5 8602   3.813   0.814  12.895 -0.9685  0.3348 -1.7668
  576MPD2    N1 8603   3.876   0.440  12.588  0.0098 -0.3988  0.4103
  576MPD2    H7 8604   3.940   0.506  12.546  0.3898 -0.2455  1.2319
  577TMC3    C1 8605   3.949   0.293  12.418  0.0476 -0.6269 -0.1402
  577TMC3    C2 8606   4.003   0.174  12.397  0.2019 -0.3844  0.0105
  577TMC3    C3 8607   4.068   0.147  12.279 -0.6680  0.2139 -0.3831
  577TMC3    C4 8608   3.945   0.388  12.314  0.3768 -0.1506  0.5022
  577TMC3    C5 8609   4.016   0.357  12.200 -0.2354  0.2958  0.0574
  577TMC3    C6 8610   4.069   0.235  12.177 -0.0170  0.5328  0.2496
  577TMC3     C 8611   3.873   0.311  12.544  0.4955  0.3152  0.0973
  577TMC3     O 8612   3.836   0.207  12.599 -0.2375  0.3268  0.1136
  577TMC3     H 8613   4.006   0.106  12.480 -0.4225  0.1722  0.4905
  577TMC3    H1 8614   3.904   0.486  12.336  0.9683  0.2288 -0.1029
  577TMC3    H2 8615   4.117   0.223  12.081  1.5902 -1.6746  1.3239
  577TMC3    C7 8616   4.037   0.450  12.090  0.1210 -0.0537 -0.2387
  577TMC3    C8 8617   4.164   0.033  12.275  0.4399  0.3620 -0.4026
  577TMC3    O1 8618   4.147   0.467  12.043  0.1087 -0.1721  0.8720
  577TMC3    O2 8619   4.173   4.698  12.375 -0.4497  0.1557  0.0876
  578MPD2     C 8620   1.591   0.419   1.403 -0.1942  0.2388 -0.2592
  578MPD2    C1 8621   1.588   0.324   1.307  0.4938  0.0109 -0.6971
  578MPD2    C2 8622   1.667   0.212   1.338 -0.2876 -0.4849 -0.6015
  578MPD2    C3 8623   1.739   0.205   1.453 -0.5808  0.3007 -0.4260
  578MPD2    C4 8624   1.723   0.295   1.553  0.1551 -0.2504 -0.4074
  578MPD2    C5 8625   1.646   0.408   1.531 -0.0713 -0.5367 -0.4934
  578MPD2     H 8626   1.686   0.137   1.262 -1.2268 -1.2247 -0.1100
  578MPD2    H1 8627   1.770   0.288   1.650  0.8825 -1.0584 -0.8085
  578MPD2    H2 8628   1.530   0.507   1.389  0.2658  0.7354  0.8469
  578MPD2    H3 8629   1.638   0.488   1.604  2.7821  0.6591 -1.4811
  578MPD2     N 8630   1.829   0.097   1.469 -0.1298 -0.8735 -0.1271
  578MPD2    H5 8631   1.848   0.044   1.384 -1.0347 -2.5682  0.7169
  578MPD2    N1 8632   1.520   0.348   1.184  0.1378  0.3213 -0.4952
  578MPD2    H7 8633   1.480   0.441   1.178 -0.9960 -0.0507  1.1878
  579TMC3    C1 8634   2.004   4.712   1.543  0.4009  0.0748 -0.7896
  579TMC3    C2 8635   2.126   4.728   1.603  0.5205  0.5028  0.3729
  579TMC3    C3 8636   2.233   4.659   1.550  0.3675 -0.1914  0.1615
  579TMC3    C4 8637   1.981   4.634   1.432  0.1377  0.6345 -0.0828
  579TMC3    C5 8638   2.098   4.578   1.379  0.0775 -0.0569 -0.5164
  579TMC3    C6 8639   2.225   4.595   1.428  0.0245 -0.6772  0.0312
  579TMC3     C 8640   1.911   0.078   1.572 -0.8732 -0.6919  0.6087
  579TMC3     O 8641   1.909   0.129   1.683  0.2567  0.4221  0.1647
  579TMC3     H 8642   2.137   0.076   1.673  1.7103  2.3368 -1.9604
  579TMC3    H1 8643   1.880   4.613   1.398 -0.0253  1.7331 -0.2782
  579TMC3    H2 8644   2.308   4.540   1.384  1.4928  1.6418 -0.0678
  579TMC3    C7 8645   2.081   4.479   1.269 -0.6570  1.1725 -0.9449
  579TMC3    C8 8646   2.360   4.691   1.598 -0.1747 -0.0778 -0.4909
  579TMC3    O1 8647   2.166   4.393   1.263  0.1941  0.0768 -0.5730
  579TMC3    O2 8648   2.358   4.725   1.716 -0.1475 -0.0423  0.5039
  580TMC3    C1 8649   1.430   4.133  11.761 -0.4369  0.2367  0.2029
  580TMC3    C2 8650   1.391   4.063  11.652  0.1132  0.2853  0.5742
  580TMC3    C3 8651   1.412   3.927  11.640 -0.3273  0.0868  0.5852
  580TMC3    C4 8652   1.476   4.066  11.869 -0.1581 -0.1159 -0.0484
  580TMC3    C5 8653   1.504   3.924  11.856  0.2718  0.2547  0.2415
  580TMC3    C6 8654   1.475   3.856  11.742  0.0793 -0.8419  0.3209
  580TMC3     C 8655   1.486   4.262  11.725  0.4999 -0.8396 -0.0733
  580TMC3     O 8656   1.540   4.280  11.616 -0.1585 -0.8112  0.2406
  580TMC3     H 8657   1.346   4.120  11.572  1.5958 -0.5534 -0.8602
  580TMC3    H1 8658   1.504   4.120  11.959  0.2296 -0.9042  0.3019
  580TMC3    H2 8659   1.501   3.752  11.727 -1.2365 -1.0623 -0.3620
  580TMC3    C7 8660   1.575   3.853  11.966 -0.1508 -0.3481 -0.0710
  580TMC3    C8 8661   1.481   3.900  11.511  0.1126 -0.3389  0.0263
  580TMC3    O1 8662   1.626   3.922  12.054 -0.6642 -0.4421 -0.0997
  580TMC3    O2 8663   1.447   3.797  11.457  0.3592  0.3810 -0.4976
  581MPD2     C 8664   4.358   3.915  15.480  0.0713  0.3960 -0.5116
  581MPD2    C1 8665   4.221   3.939  15.493 -0.3582 -0.8427  0.0301
  581MPD2    C2 8666   4.140   3.956  15.380 -0.5472  0.2325 -0.2379
  581MPD2    C3 8667   4.198   3.947  15.252  0.5314 -0.1214 -0.3902
  581MPD2    C4 8668   4.327   3.909  15.241 -0.1701  0.5550 -0.1573
  581MPD2    C5 8669   4.409   3.899  15.353  0.6845  0.6308  0.3750
  581MPD2     H 8670   4.036   3.981  15.397 -0.5481  0.2247 -0.2321
  581MPD2    H1 8671   4.373   3.885  15.146  1.3921 -0.7671  0.9457
  581MPD2    H2 8672   4.433   3.900  15.557 -1.6138  0.3976  1.1346
  581MPD2    H3 8673   4.507   3.852  15.343 -0.5514 -1.6043 -1.4626
  581MPD2     N 8674   4.116   3.991  15.148  0.2663  0.0842 -0.1376
  581MPD2    H5 8675   4.022   4.021  15.170 -0.1414  0.1414 -1.9577
  581MPD2    N1 8676   4.160   3.935  15.621  0.0566  0.8089 -0.3772
  581MPD2    H7 8677   4.060   3.949  15.623 -0.1387 -0.6778  0.4027
  582TMC3    C1 8678   4.140   3.948  15.853  0.0510  0.5920 -0.0829
  582TMC3    C2 8679   4.149   4.057  15.931 -0.7349 -0.3623  0.7370
  582TMC3    C3 8680   4.052   4.073  16.030  0.8911  0.5708 -1.0067
  582TMC3    C4 8681   4.035   3.861  15.866 -0.2726  0.1857 -0.2111
  582TMC3    C5 8682   3.951   3.872  15.974  0.3399  0.1221 -0.1797
  582TMC3    C6 8683   3.952   3.985  16.051  0.4377 -0.0534 -0.2958
  582TMC3     C 8684   4.228   3.946  15.735  0.4942 -0.3870 -0.3176
  582TMC3     O 8685   4.348   3.957  15.758  0.1581  0.2657  0.0614
  582TMC3     H 8686   4.234   4.124  15.928  0.6194 -2.2560 -2.7689
  582TMC3    H1 8687   4.017   3.777  15.799  0.6639 -0.4227  0.2941
  582TMC3    H2 8688   3.865   3.995  16.115 -0.8399 -1.4828 -1.7839
  582TMC3    C7 8689   3.822   3.818  15.935  0.0286 -0.2422  0.1603
  582TMC3    C8 8690   4.027   4.206  16.088 -0.3852  0.5199  0.6252
  582TMC3    O1 8691   3.803   3.698  15.923  0.4023  0.2158  0.0202
  582TMC3    O2 8692   3.928   4.219  16.156 -0.0925 -0.1958  0.3259
  583MPD2     C 8693   3.992   0.876  16.521  0.1543 -0.0071 -0.9422
  583MPD2    C1 8694   3.988   1.015  16.497 -0.4787 -0.0744 -0.3998
  583MPD2    C2 8695   3.978   1.104  16.606  0.6875  0.2023  0.0702
  583MPD2    C3 8696   3.960   1.060  16.735  0.8213 -0.6348 -0.3731
  583MPD2    C4 8697   3.942   0.924  16.754  0.2431 -0.2742 -0.8650
  583MPD2    C5 8698   3.965   0.838  16.654  0.6707 -0.1108  0.9206
  583MPD2     H 8699   3.989   1.210  16.584  0.5301 -0.4223 -3.0071
  583MPD2    H1 8700   3.915   0.878  16.849 -1.5113 -1.6013 -1.9950
  583MPD2    H2 8701   4.022   0.799  16.452 -0.7966 -1.7753  0.6212
  583MPD2    H3 8702   3.986   0.738  16.688  1.0493 -0.0271  0.9386
  583MPD2     N 8703   3.958   1.145  16.846 -0.7926  0.3259  0.1723
  583MPD2    H5 8704   3.972   1.244  16.828 -2.1537  0.4755 -0.0789
  583MPD2    N1 8705   4.027   1.069  16.375 -0.5111  0.5524  0.5472
  583MPD2    H7 8706   4.048   1.168  16.377 -1.7581  0.8296 -0.0302
  584TMC3    C1 8707   3.974   1.200  17.081 -0.3767 -0.0473 -0.1293
  584TMC3    C2 8708   4.028   1.323  17.049 -0.5379 -0.1510 -0.6611
  584TMC3    C3 8709   4.035   1.414  17.152  0.1437  0.6629  0.1680
  584TMC3    C4 8710   3.936   1.166  17.207  0.6619  0.1297  0.6655
  584TMC3    C5 8711   3.950   1.254  17.308 -0.4076 -0.4054  0.3784
  584TMC3    C6 8712   4.001   1.381  17.277 -0.6189  0.5915  0.6021
  584TMC3     C 8713   3.947   1.102  16.979  0.1581 -0.2823  0.2418
  584TMC3     O 8714   3.909   0.993  17.020  0.1349  0.2058 -0.4892
  584TMC3     H 8715   4.069   1.342  16.950  0.4048 -1.4689 -0.5232
  584TMC3    H1 8716   3.870   1.082  17.224  0.4781 -0.1614 -1.4299
  584TMC3    H2 8717   4.023   1.456  17.352 -1.4538 -2.1730  3.6253
  584TMC3    C7 8718   3.876   1.234  17.425 -0.5221  0.4517 -0.7478
  584TMC3    C8 8719   4.070   1.546  17.102  0.0801 -0.8656 -0.2875
  584TMC3    O1 8720   3.839   1.120  17.448  0.2072 -0.0151  0.0088
  584TMC3    O2 8721   4.060   1.561  16.981 -0.0739 -0.4809 -0.0949
  585MPD2     C 8722   2.891   0.174   0.171  0.2309  0.2797  0.3667
  585MPD2    C1 8723   2.902   0.242   0.058 -0.1721 -0.3469  0.4932
  585MPD2    C2 8724   2.934   0.183  17.670  0.1776 -0.8132  0.4357
  585MPD2    C3 8725   2.947   0.044  17.676  0.6633  0.3942 -0.8050
  585MPD2    C4 8726   2.928   4.708   0.059 -0.8824 -0.1964  0.0141
  585MPD2    C5 8727   2.903   0.043   0.173 -0.3824  0.1586  0.1164
  585MPD2     H 8728   2.949   0.239  17.579 -2.2102  0.8305  1.0416
  585MPD2    H1 8729   2.939   4.601   0.071 -2.4944 -0.1723  1.6116
  585MPD2    H2 8730   2.869   0.226   0.264  1.5734  0.3817  0.6348
  585MPD2    H3 8731   2.899   4.729   0.270  1.4016 -3.1166 -1.4390
  585MPD2     N 8732   2.996   4.703  17.565 -0.2744  0.2386  0.0303
  585MPD2    H5 8733   2.981   4.603  17.576 -0.6454  0.2427 -0.4326
  585MPD2    N1 8734   2.872   0.382   0.069 -0.1419  0.4489  0.1655
  585MPD2    H7 8735   2.869   0.426   0.161 -0.0959  1.4561 -0.3114
  586TMC3    C1 8736   3.057   4.648  17.343 -0.2361  0.2408  0.3975
  586TMC3    C2 8737   3.158   4.649  17.250  0.5356 -0.7687  1.0200
  586TMC3    C3 8738   3.149   4.567  17.141  0.5600  1.0174  0.5028
  586TMC3    C4 8739   2.946   4.563  17.334  0.0965  1.0484  1.0745
  586TMC3    C5 8740   2.935   4.478  17.229  0.4491  0.1970  0.4111
  586TMC3    C6 8741   3.042   4.480  17.138  0.4583 -0.1938 -0.6685
  586TMC3     C 8742   3.043   0.019  17.448 -0.2512  0.6020 -0.1227
  586TMC3     O 8743   3.071   0.133  17.419  0.0221  0.6023 -0.1846
  586TMC3     H 8744   3.246   4.710  17.269 -0.0838  0.9767 -1.7238
  586TMC3    H1 8745   2.878   4.568  17.418 -0.9104  1.7414  0.2195
  586TMC3    H2 8746   3.025   4.412  17.055 -0.0115 -0.8672 -0.0185
  586TMC3    C7 8747   2.907   4.346  17.270  0.6788  0.6527  0.1068
  586TMC3    C8 8748   3.265   4.495  17.133  0.4518  0.5588 -1.0308
  586TMC3    O1 8749   2.805   4.330  17.329 -0.1827 -0.5273 -0.0365
  586TMC3    O2 8750   3.247   4.377  17.161 -0.3096 -0.0321  0.5056
  587TMC3    C1 8751   1.253   3.689  16.580  0.7025 -0.2854  0.0052
  587TMC3    C2 8752   1.207   3.760  16.475 -0.0708 -0.0353 -0.5420
  587TMC3    C3 8753   1.287   3.859  16.436  0.8132 -0.2802  0.1772
  587TMC3    C4 8754   1.366   3.714  16.649  0.9605  0.2317  0.1112
  587TMC3    C5 8755   1.444   3.816  16.600  0.0964 -0.1058  0.2250
  587TMC3    C6 8756   1.408   3.891  16.488 -0.1290  0.0413  0.1299
  587TMC3     C 8757   1.145   3.617  16.646  0.2344  0.1768  0.1877
  587TMC3     O 8758   1.181   3.547  16.740 -0.0730 -0.2294 -0.0210
  587TMC3     H 8759   1.128   3.726  16.408 -0.9120  0.6740  0.0801
  587TMC3    H1 8760   1.395   3.655  16.736  0.9170  1.3854  0.9043
  587TMC3    H2 8761   1.460   3.969  16.433 -0.3537  0.3760  0.3858
  587TMC3    C7 8762   1.572   3.840  16.669  0.5804  0.6880 -0.0582
  587TMC3    C8 8763   1.221   3.947  16.334 -0.0190 -0.4909  0.3280
  587TMC3    O1 8764   1.590   3.796  16.780 -0.2251  0.4014 -0.0591
  587TMC3    O2 8765   1.277   3.956  16.226 -0.3123  0.4112  0.6354
  588TMC3    C1 8766   3.479   1.546  10.123  0.0450  0.3313  0.0245
  588TMC3    C2 8767   3.416   1.426  10.087  1.6265  0.2898 -0.1700
  588TMC3    C3 8768   3.505   1.335  10.050 -0.3010 -0.6166 -0.1913
  588TMC3    C4 8769   3.610   1.574  10.136  0.2248 -0.3002  0.4322
  588TMC3    C5 8770   3.689   1.473  10.094  0.5206  1.1881 -0.4905
  588TMC3    C6 8771   3.639   1.346  10.062  0.2503  0.3076  0.7598
  588TMC3     C 8772   3.391   1.649  10.127 -0.2066 -0.2170 -0.0513
  588TMC3     O 8773   3.313   1.654  10.035  1.0090 -0.3912  0.1326
  588TMC3     H 8774   3.314   1.416  10.051  1.0888  0.5650  1.2730
  588TMC3    H1 8775   3.643   1.674  10.163 -0.3214  0.3971 -1.4848
  588TMC3    H2 8776   3.706   1.282  10.006 -0.3868  1.2683 -1.0908
  588TMC3    C7 8777   3.832   1.512  10.067 -0.3857 -0.0344  0.0457
  588TMC3    C8 8778   3.443   1.211  10.020 -0.4040 -0.8665  0.1093
  588TMC3    O1 8779   3.896   1.432  10.003 -0.7064 -0.5969 -0.4244
  588TMC3    O2 8780   3.343   1.219   9.951 -0.5659  0.1098  0.7789
  589TMC3    C1 8781   2.606   3.152   1.461 -0.4470 -0.1495 -0.3440
  589TMC3    C2 8782   2.738   3.143   1.486 -0.1893 -0.2743 -1.0446
  589TMC3    C3 8783   2.807   3.048   1.413  0.2258 -0.5485  0.2505
  589TMC3    C4 8784   2.536   3.069   1.381 -0.4714 -0.0499  0.1035
  589TMC3    C5 8785   2.613   2.984   1.303 -0.7024 -0.1852  0.1397
  589TMC3    C6 8786   2.746   2.965   1.318 -0.4969  0.2793  0.0303
  589TMC3     C 8787   2.528   3.262   1.511  0.3848 -0.4218 -0.6383
  589TMC3     O 8788   2.409   3.245   1.526  0.1463  0.1333  0.1768
  589TMC3     H 8789   2.798   3.203   1.554 -0.6031 -0.7974 -0.2220
  589TMC3    H1 8790   2.437   3.085   1.339  0.0493  2.6505 -0.0923
  589TMC3    H2 8791   2.799   2.894   1.255  0.0859  1.0444 -0.3336
  589TMC3    C7 8792   2.540   2.877   1.237 -0.3806  0.0022 -0.2279
  589TMC3    C8 8793   2.937   3.016   1.461 -0.3398 -0.1279  0.1453
  589TMC3    O1 8794   2.421   2.874   1.262 -0.1203  0.0095  0.1612
  589TMC3    O2 8795   2.948   3.040   1.580  0.4855  0.3167  0.1332
  590MPD2     C 8796   1.723   2.710  16.432 -0.1123  0.1008 -0.3422
  590MPD2    C1 8797   1.641   2.636  16.344 -0.2010 -0.1017  0.1928
  590MPD2    C2 8798   1.673   2.634  16.213 -0.2052 -0.2074 -0.2347
  590MPD2    C3 8799   1.778   2.704  16.162 -0.1615 -0.2480 -0.1294
  590MPD2    C4 8800   1.852   2.788  16.252 -0.1523 -0.2276 -0.2709
  590MPD2    C5 8801   1.822   2.790  16.383  0.9188 -0.1549  0.4594
  590MPD2     H 8802   1.614   2.574  16.144  0.4988 -0.6746 -0.4334
  590MPD2    H1 8803   1.939   2.845  16.222  0.1422  0.1710  1.3380
  590MPD2    H2 8804   1.693   2.714  16.536 -0.4791  1.2941 -0.4968
  590MPD2    H3 8805   1.883   2.842  16.457 -0.1306 -0.0496  1.2604
  590MPD2     N 8806   1.817   2.667  16.028 -0.1122 -0.0864 -0.1985
  590MPD2    H5 8807   1.753   2.611  15.973 -1.0005 -2.1497  2.9677
  590MPD2    N1 8808   1.527   2.575  16.396 -0.7867 -0.2422  0.2381
  590MPD2    H7 8809   1.513   2.590  16.495  0.8956  1.7838  0.1636
  591TMC3    C1 8810   1.915   2.689  15.816  0.1256  0.1283  0.3977
  591TMC3    C2 8811   1.817   2.601  15.774  0.9258  0.3370 -0.0219
  591TMC3    C3 8812   1.776   2.607  15.643 -0.2842 -1.0878 -0.3391
  591TMC3    C4 8813   1.970   2.778  15.729 -0.5747  0.0446  0.0288
  591TMC3    C5 8814   1.929   2.784  15.601 -0.0608  0.1226  0.0785
  591TMC3    C6 8815   1.822   2.707  15.559 -0.1440  0.6803  0.9428
  591TMC3     C 8816   1.922   2.719  15.958  0.2951  0.2307 -0.0795
  591TMC3     O 8817   2.013   2.787  15.997  0.2704 -0.2911  0.1034
  591TMC3     H 8818   1.788   2.516  15.834  1.3609  0.1501 -0.0791
  591TMC3    H1 8819   2.041   2.852  15.764  2.5039 -2.2574 -1.2744
  591TMC3    H2 8820   1.797   2.711  15.453  0.4250  0.9362  0.8188
  591TMC3    C7 8821   1.935   2.917  15.534  0.2185  0.1579  0.0306
  591TMC3    C8 8822   1.686   2.501  15.596 -0.4939  0.4081  0.1933
  591TMC3    O1 8823   1.836   2.943  15.467  0.7907  0.3014 -0.1891
  591TMC3    O2 8824   1.665   2.411  15.676 -0.2248 -0.2352  0.4474
  592MPD2     C 8825   2.759   3.878  11.086 -0.2383  0.0726 -0.3965
  592MPD2    C1 8826   2.735   3.899  11.221  0.6470 -0.5908  0.5433
  592MPD2    C2 8827   2.646   3.813  11.277 -0.5836  0.2227  0.0572
  592MPD2    C3 8828   2.570   3.720  11.211  0.6429  0.3922  0.0180
  592MPD2    C4 8829   2.589   3.708  11.076 -0.3505  0.1174 -0.6980
  592MPD2    C5 8830   2.687   3.784  11.021  0.0838 -0.0707 -0.5563
  592MPD2     H 8831   2.633   3.821  11.384 -1.8115  0.8509 -0.1420
  592MPD2    H1 8832   2.538   3.631  11.020 -1.1408 -1.2242  1.8486
  592MPD2    H2 8833   2.819   3.947  11.028  1.7110 -1.9128 -0.7357
  592MPD2    H3 8834   2.695   3.766  10.915  0.6922 -1.1071 -0.3411
  592MPD2     N 8835   2.495   3.638  11.297 -0.5648  0.0514 -0.2015
  592MPD2    H5 8836   2.503   3.649  11.398  0.4540  0.0834 -0.2862
  592MPD2    N1 8837   2.796   4.004  11.297 -0.5858  0.2572 -0.1816
  592MPD2    H7 8838   2.854   4.066  11.242  2.8516 -1.6009  1.3211
  593TMC3    C1 8839   2.839   4.160  11.465 -0.2726  0.4162 -0.2985
  593TMC3    C2 8840   2.815   4.192  11.599  0.3870 -0.2213 -0.6022
  593TMC3    C3 8841   2.913   4.264  11.666  0.7927 -0.4170  0.7453
  593TMC3    C4 8842   2.954   4.186  11.400 -0.3698  0.0631  0.0092
  593TMC3    C5 8843   3.058   4.249  11.473 -0.5980 -0.7070 -0.0783
  593TMC3    C6 8844   3.035   4.286  11.605 -0.1978 -0.5576  0.1250
  593TMC3     C 8845   2.777   4.033  11.433  0.1212  0.5498  1.0061
  593TMC3     O 8846   2.699   3.995  11.516 -0.6078  0.1372  0.1334
  593TMC3     H 8847   2.723   4.179  11.654 -0.1321  1.8473 -0.9661
  593TMC3    H1 8848   2.979   4.148  11.302  0.5281  1.8352 -0.4418
  593TMC3    H2 8849   3.113   4.340  11.657  0.0144 -1.0363  0.3099
  593TMC3    C7 8850   3.134   4.343  11.400  0.1671  0.3531 -0.7752
  593TMC3    C8 8851   2.906   4.249  11.810  0.2570 -0.0722 -0.2843
  593TMC3    O1 8852   3.161   4.450  11.449  0.5163  0.1903  0.1467
  593TMC3    O2 8853   2.804   4.205  11.857 -0.3943 -0.3699 -0.2708
  594MPD2     C 8854   1.334   2.591  14.847  0.2128 -0.2567  0.2249
  594MPD2    C1 8855   1.270   2.673  14.756 -0.1824 -0.1638 -0.1247
  594MPD2    C2 8856   1.332   2.782  14.693  0.4704 -0.2235 -0.6785
  594MPD2    C3 8857   1.467   2.794  14.716  0.0186 -0.5035 -0.0662
  594MPD2    C4 8858   1.536   2.712  14.811  0.3040 -0.0958  0.1066
  594MPD2    C5 8859   1.465   2.610  14.874 -0.2893  0.5796 -0.4157
  594MPD2     H 8860   1.274   2.854  14.636 -3.1568 -0.8812  2.1990
  594MPD2    H1 8861   1.644   2.713  14.813  0.2496 -0.1324  2.2732
  594MPD2    H2 8862   1.285   2.508  14.897 -1.1502 -1.3949 -2.9592
  594MPD2    H3 8863   1.517   2.539  14.938 -2.4937 -0.3495  0.3290
  594MPD2     N 8864   1.543   2.900  14.653 -0.0565  0.1674 -0.0675
  594MPD2    H5 8865   1.487   2.964  14.599  1.0300  0.6729 -0.5897
  594MPD2    N1 8866   1.137   2.637  14.735 -0.5694 -0.2849  0.5524
  594MPD2    H7 8867   1.133   2.540  14.765  0.5053 -1.0848 -1.9079
  595TMC3    C1 8868   1.906   3.181  14.587 -0.0927 -0.1186 -0.0254
  595TMC3    C2 8869   1.860   3.055  14.598 -0.1403 -1.1327  0.0128
  595TMC3    C3 8870   1.720   3.052  14.607 -0.4894  0.7216 -0.2610
  595TMC3    C4 8871   1.836   3.298  14.592  0.2669  0.1880  0.1769
  595TMC3    C5 8872   1.699   3.285  14.604 -0.7426  0.1582  0.4400
  595TMC3    C6 8873   1.639   3.164  14.616  0.1221  0.1691  0.2636
  595TMC3     C 8874   2.030   3.203  14.525 -0.2743 -0.2291 -0.3461
  595TMC3     O 8875   2.097   3.297  14.564 -0.1558  0.3304 -0.5587
  595TMC3     H 8876   1.915   2.962  14.590  0.6753 -0.6789  0.4105
  595TMC3    H1 8877   1.882   3.394  14.573  2.6403 -0.7495  1.2373
  595TMC3    H2 8878   1.531   3.168  14.629  0.4525  2.4164  2.4809
  595TMC3    C7 8879   1.615   3.409  14.624  0.6077 -0.4444 -0.2940
  595TMC3    C8 8880   1.675   2.926  14.668  0.2793  0.2355  0.8869
  595TMC3    O1 8881   1.499   3.389  14.665 -0.4112 -0.1487 -0.8098
  595TMC3    O2 8882   1.756   2.862  14.732  0.1021 -0.5724  0.0852
  596MPD2     C 8883   4.668   0.862  16.691  0.3813 -0.7212  0.7107
  596MPD2    C1 8884   4.712   0.987  16.638  0.0373  0.3974  0.0551
  596MPD2    C2 8885   0.021   0.982  16.503  0.4011  0.6555  0.0909
  596MPD2    C3 8886   0.014   0.862  16.429 -0.1618  0.4444  0.1110
  596MPD2    C4 8887   4.722   0.746  16.489 -0.5209  0.5929  0.4565
  596MPD2    C5 8888   4.674   0.748  16.616 -0.0575  0.0445 -0.5881
  596MPD2     H 8889   0.055   1.074  16.456 -0.1063  2.0868  2.5566
  596MPD2    H1 8890   0.003   0.650  16.440  0.1348 -0.5143  2.8251
  596MPD2    H2 8891   4.629   0.851  16.791 -1.6249  2.1112  0.2438
  596MPD2    H3 8892   4.643   0.657  16.664  0.0990  0.9543  1.2489
  596MPD2     N 8893   0.052   0.858  16.295  0.6734 -0.1210 -0.0327
  596MPD2    H5 8894   0.065   0.762  16.266 -2.1458 -0.8826  1.2147
  596MPD2    N1 8895   4.705   1.113  16.706  0.5675 -0.4937 -0.0882
  596MPD2    H7 8896   4.729   1.189  16.643 -2.8355  0.0215 -0.7343
  597TMC3    C1 8897   4.660   1.261  16.886 -0.3853 -0.8376 -0.4094
  597TMC3    C2 8898   4.663   1.377  16.815 -0.0582  0.3506  0.2207
  597TMC3    C3 8899   4.616   1.493  16.872 -0.4740 -0.2470 -0.5614
  597TMC3    C4 8900   4.609   1.264  17.022  0.2806  0.1822  0.0950
  597TMC3    C5 8901   4.559   1.383  17.060  0.1134 -0.6910 -0.1057
  597TMC3    C6 8902   4.571   1.502  17.000  0.0484 -0.0042 -0.2668
  597TMC3     C 8903   4.662   1.134  16.833  0.1036 -0.7556  0.2991
  597TMC3     O 8904   4.623   1.047  16.903  1.0669 -0.3865  0.5584
  597TMC3     H 8905   4.690   1.378  16.710  0.3596  1.3858  0.3419
  597TMC3    H1 8906   4.607   1.174  17.081  0.5445  0.6470  0.8118
  597TMC3    H2 8907   4.533   1.597  17.037  1.5365  1.3492 -2.1874
  597TMC3    C7 8908   4.478   1.377  17.178  0.3457 -0.4198 -0.3118
  597TMC3    C8 8909   4.627   1.605  16.787 -0.4083 -0.1758  0.8983
  597TMC3    O1 8910   4.390   1.293  17.177 -0.3561 -0.0322  0.4413
  597TMC3    O2 8911   4.623   1.589  16.669  0.0406 -0.1628 -0.4221
  598TMC3    C1 8912   3.632   2.482  15.844 -0.6222  0.4846 -0.0012
  598TMC3    C2 8913   3.535   2.395  15.876 -0.2677  0.4140 -0.5640
  598TMC3    C3 8914   3.427   2.391  15.797 -0.3428 -0.1950 -0.0758
  598TMC3    C4 8915   3.641   2.537  15.718  0.7791 -0.3989 -0.0174
  598TMC3    C5 8916   3.531   2.520  15.642  0.2346  0.4366  0.5981
  598TMC3    C6 8917   3.418   2.455  15.678 -0.8194 -0.5859  0.1974
  598TMC3     C 8918   3.720   2.529  15.947  0.3692 -0.0636  0.1538
  598TMC3     O 8919   3.835   2.558  15.923  0.0302  0.8660 -0.1089
  598TMC3     H 8920   3.533   2.337  15.967  0.0443  0.4915 -0.5088
  598TMC3    H1 8921   3.728   2.598  15.695  0.1627 -0.3644 -2.2315
  598TMC3    H2 8922   3.334   2.443  15.610 -0.5356 -2.7568  0.2388
  598TMC3    C7 8923   3.536   2.566  15.498 -0.6956 -0.7280  0.1445
  598TMC3    C8 8924   3.304   2.330  15.848 -0.0600  0.2802 -0.5961
  598TMC3    O1 8925   3.463   2.505  15.423  0.2303 -0.0175  0.4615
  598TMC3    O2 8926   3.300   2.318  15.968 -0.2260 -0.0190  0.3596
  599MPD2     C 8927   3.235   0.434  15.811 -0.2451 -0.3942 -0.4614
  599MPD2    C1 8928   3.151   0.344  15.748  0.1449  0.5970  0.0391
  599MPD2    C2 8929   3.016   0.339  15.777 -0.4521 -0.1418  0.6365
  599MPD2    C3 8930   2.957   0.431  15.861  0.6367 -0.5094 -0.0706
  599MPD2    C4 8931   3.045   0.525  15.910 -0.1833 -0.1266 -0.2744
  599MPD2    C5 8932   3.174   0.529  15.890  0.0980  0.6307 -0.0214
  599MPD2     H 8933   2.949   0.265  15.736  0.0708 -0.2528 -0.0138
  599MPD2    H1 8934   3.005   0.605  15.971 -0.2419 -0.7993  0.5758
  599MPD2    H2 8935   3.340   0.443  15.782 -0.8015 -0.9051 -2.6013
  599MPD2    H3 8936   3.236   0.611  15.926 -0.4871  1.3195 -0.5846
  599MPD2     N 8937   2.817   0.437  15.881 -0.2989  0.4143  0.1957
  599MPD2    H5 8938   2.783   0.519  15.930 -2.8177  0.2653 -1.2694
  599MPD2    N1 8939   3.214   0.242  15.680 -0.0008  0.3245 -0.3926
  599MPD2    H7 8940   3.313   0.258  15.669 -0.0726  2.0704  1.4197
  600TMC3    C1 8941   2.589   0.414  15.866  0.2670  0.3859 -0.1888
  600TMC3    C2 8942   2.472   0.357  15.818 -0.6689 -1.0838  1.3784
  600TMC3    C3 8943   2.362   0.371  15.893  0.0826  0.9238  0.4712
  600TMC3    C4 8944   2.578   0.508  15.964  0.0788 -0.1376 -0.0489
  600TMC3    C5 8945   2.456   0.526  16.025  0.4982  0.0384 -0.1232
  600TMC3    C6 8946   2.348   0.453  15.996 -0.6625  0.6699  0.2963
  600TMC3     C 8947   2.717   0.367  15.816 -0.6341  0.1269 -0.5654
  600TMC3     O 8948   2.721   0.263  15.747  0.3737 -0.0301 -0.5459
  600TMC3     H 8949   2.472   0.287  15.735  2.2720  0.0177  0.4514
  600TMC3    H1 8950   2.661   0.572  15.992 -0.3228 -0.0031  0.8039
  600TMC3    H2 8951   2.250   0.461  16.043 -0.6951  1.5902  0.0629
  600TMC3    C7 8952   2.435   0.614  16.143  1.0986 -0.2539  0.1033
  600TMC3    C8 8953   2.240   0.327  15.837 -0.2655 -0.4419 -0.8014
  600TMC3    O1 8954   2.349   0.583  16.220  0.7824 -0.2513  0.1860
  600TMC3    O2 8955   2.148   0.399  15.815 -1.1045 -0.9298 -0.1420
  601MPD2     C 8956   0.724   3.587   0.213 -0.0910 -0.0996 -0.3048
  601MPD2    C1 8957   0.641   3.508   0.141 -0.4337 -0.4053  0.2188
  601MPD2    C2 8958   0.630   3.370   0.172  0.0515  0.4973 -0.3765
  601MPD2    C3 8959   0.698   3.312   0.278  0.5632 -0.4318  0.5552
  601MPD2    C4 8960   0.777   3.396   0.351 -0.6212  0.0862  0.0435
  601MPD2    C5 8961   0.793   3.529   0.312  0.1897  0.5912  0.4255
  601MPD2     H 8962   0.561   3.312   0.112  0.9319 -0.1487 -0.7694
  601MPD2    H1 8963   0.829   3.358   0.439 -0.1425  0.8487  0.0926
  601MPD2    H2 8964   0.728   3.693   0.191 -2.8997 -0.3101 -1.8664
  601MPD2    H3 8965   0.870   3.578   0.370  0.8710  0.9623 -0.7955
  601MPD2     N 8966   0.697   3.174   0.307 -0.5987 -0.1175 -0.2866
  601MPD2    H5 8967   0.761   3.156   0.384  0.4674  1.1306 -0.8703
  601MPD2    N1 8968   0.555   3.559   0.040  0.4582  0.6558 -0.1088
  601MPD2    H7 8969   0.514   3.495  17.707  1.0208 -0.2410  0.3912
  602TMC3    C1 8970   0.403   3.714  17.673  0.2391 -0.8517  0.0250
  602TMC3    C2 8971   0.333   3.831  17.679  0.1018 -0.1929  0.0184
  602TMC3    C3 8972   0.226   3.845  17.601  0.0229  0.0691 -0.0181
  602TMC3    C4 8973   0.385   3.618  17.581 -0.2103 -0.0601 -0.5795
  602TMC3    C5 8974   0.278   3.638  17.505  0.2665  0.1003 -0.6282
  602TMC3    C6 8975   0.193   3.744  17.516 -0.2047 -0.0005  0.4452
  602TMC3     C 8976   0.516   3.691   0.032  0.2268 -0.7503 -0.2419
  602TMC3     O 8977   0.547   3.793   0.099  0.3412  0.8966 -0.0272
  602TMC3     H 8978   0.357   3.905   0.020 -3.2351  1.4605 -0.5622
  602TMC3    H1 8979   0.454   3.536  17.563 -0.4468 -0.2794 -0.4793
  602TMC3    H2 8980   0.113   3.749  17.444  1.2211 -2.5593 -1.3023
  602TMC3    C7 8981   0.230   3.531  17.417 -0.0320  0.2708 -0.3339
  602TMC3    C8 8982   0.136   3.973  17.607  0.0212 -0.2533 -0.2317
  602TMC3    O1 8983   0.310   3.450  17.365  0.2596  0.5176  0.3498
  602TMC3    O2 8984   0.174   4.067  17.675 -0.0122  0.2409 -0.6384
  603TMC3    C1 8985   3.945   3.313  10.898  0.3582 -0.8223  0.1447
  603TMC3    C2 8986   3.925   3.269  11.028 -0.1460  0.3330 -0.1492
  603TMC3    C3 8987   3.925   3.364  11.130  0.0031 -0.2633  0.3987
  603TMC3    C4 8988   3.955   3.451  10.874  0.6521  0.0501  0.2013
  603TMC3    C5 8989   3.940   3.539  10.974 -0.5577  0.1023  0.4468
  603TMC3    C6 8990   3.945   3.495  11.100 -0.1471  0.3484  0.0881
  603TMC3     C 8991   3.935   3.219  10.802 -0.2323  0.3557 -0.0652
  603TMC3     O 8992   3.877   3.257  10.702 -0.3589 -0.2595  0.0260
  603TMC3     H 8993   3.894   3.168  11.051  0.7650  0.0442 -0.1683
  603TMC3    H1 8994   3.975   3.476  10.771  1.5673  3.5544  1.2533
  603TMC3    H2 8995   3.928   3.574  11.173 -0.6410 -0.9471  1.3641
  603TMC3    C7 8996   3.939   3.681  10.942 -0.2507 -0.6430  0.1269
  603TMC3    C8 8997   3.885   3.321  11.260  0.2469  0.5046 -0.6030
  603TMC3    O1 8998   3.984   3.752  11.030 -0.1538 -0.8101  0.1106
  603TMC3    O2 8999   3.836   3.208  11.268 -0.5858 -0.2521 -0.2360
  604MPD2     C 9000   4.181   2.330  16.218 -0.4912  0.2715 -0.2218
  604MPD2    C1 9001   4.085   2.237  16.207 -0.1183  0.5510  0.2565
  604MPD2    C2 9002   4.065   2.166  16.093 -0.2895 -0.6465  0.2123
  604MPD2    C3 9003   4.159   2.184  15.985 -0.2892  0.4453  0.2343
  604MPD2    C4 9004   4.241   2.295  15.986 -1.0528  0.1497 -0.2604
  604MPD2    C5 9005   4.252   2.361  16.109  0.0753  0.1646  0.3705
  604MPD2     H 9006   3.984   2.096  16.076 -1.9721  1.5462 -0.9701
  604MPD2    H1 9007   4.306   2.323  15.904 -0.8682 -0.1206 -0.2080
  604MPD2    H2 9008   4.194   2.391  16.307  2.8021 -0.7333 -0.0008
  604MPD2    H3 9009   4.322   2.444  16.115 -2.9934  2.8304 -0.8344
  604MPD2     N 9010   4.148   2.111  15.864  1.0727 -0.1567 -0.1148
  604MPD2    H5 9011   4.070   2.049  15.843  0.0266 -0.0840  3.5606
  604MPD2    N1 9012   4.001   2.230  16.317 -0.4155  0.2049 -0.4375
  604MPD2    H7 9013   4.023   2.290  16.395  0.4418 -2.4831  1.3797
  605TMC3    C1 9014   3.823   2.170  16.458  0.7340 -0.1547  0.1145
  605TMC3    C2 9015   3.887   2.231  16.561 -0.3895 -0.4110 -0.0639
  605TMC3    C3 9016   3.817   2.305  16.649 -0.3783 -0.5152  0.3738
  605TMC3    C4 9017   3.690   2.167  16.450 -0.6095 -0.1398  0.0685
  605TMC3    C5 9018   3.624   2.245  16.541  0.0389 -0.0668 -0.4998
  605TMC3    C6 9019   3.685   2.320  16.633  0.3251  0.5660 -0.0196
  605TMC3     C 9020   3.896   2.139  16.336 -0.2727 -0.3539 -0.1199
  605TMC3     O 9021   3.838   2.078  16.246 -0.0955 -0.1935 -0.9800
  605TMC3     H 9022   3.992   2.221  16.587 -0.8829 -0.2843  2.0225
  605TMC3    H1 9023   3.641   2.138  16.358 -3.1975 -2.6035  2.2245
  605TMC3    H2 9024   3.632   2.379  16.707  1.4811 -0.1318  1.3506
  605TMC3    C7 9025   3.487   2.281  16.505  0.3357  0.2718 -1.1512
  605TMC3    C8 9026   3.882   2.391  16.748  0.5229 -0.0170  0.1538
  605TMC3    O1 9027   3.464   2.399  16.510 -0.0780  0.1390 -0.6753
  605TMC3    O2 9028   3.853   2.512  16.751 -0.0532 -0.4489  0.1732
  606TMC3    C1 9029   4.308   0.630   0.254 -0.0577  0.0728  0.1526
  606TMC3    C2 9030   4.396   0.617   0.355 -0.2541 -0.3213  0.8123
  606TMC3    C3 9031   4.446   0.495   0.382  0.4418 -0.1969 -0.5575
  606TMC3    C4 9032   4.284   0.521   0.173  0.3619 -0.1081 -0.3502
  606TMC3    C5 9033   4.332   0.399   0.205  0.5418 -0.2459  0.6289
  606TMC3    C6 9034   4.424   0.381   0.306 -0.4869  0.6230  0.1125
  606TMC3     C 9035   4.277   0.757   0.200 -0.3336  0.7512 -0.0681
  606TMC3     O 9036   4.246   0.768   0.082 -0.4161 -0.7355  0.0955
  606TMC3     H 9037   4.417   0.698   0.425 -1.2503 -0.5970  1.4361
  606TMC3    H1 9038   4.209   0.533   0.095  1.1212 -0.1686 -1.0986
  606TMC3    H2 9039   4.483   0.291   0.318 -0.8093  0.3430 -0.3925
  606TMC3    C7 9040   4.317   0.301   0.100  0.0960 -0.6448 -0.2935
  606TMC3    C8 9041   4.564   0.495   0.465 -0.2111  0.2906 -0.1278
  606TMC3    O1 9042   4.271   0.342  17.732  0.6327  0.1887 -0.5233
  606TMC3    O2 9043   4.621   0.601   0.486  0.1935  0.0365 -0.4967
  607MPD2     C 9044   2.730   3.185  11.631  0.1231  0.3277 -1.0245
  607MPD2    C1 9045   2.774   3.244  11.744  0.3799 -0.8975 -0.0497
  607MPD2    C2 9046   2.768   3.174  11.858  0.4026 -0.1041  0.5800
  607MPD2    C3 9047   2.714   3.050  11.869  0.0625  0.1519  0.4235
  607MPD2    C4 9048   2.670   2.982  11.757 -0.5640  0.5138  0.9578
  607MPD2    C5 9049   2.678   3.053  11.637 -0.1195  0.2614 -0.1426
  607MPD2     H 9050   2.810   3.224  11.945 -0.3597  0.5719  0.5557
  607MPD2    H1 9051   2.627   2.883  11.750  0.3541  0.2562 -1.2480
  607MPD2    H2 9052   2.739   3.236  11.536 -0.1963  0.3812 -1.0268
  607MPD2    H3 9053   2.636   3.010  11.547  1.0981 -1.9431  0.3497
  607MPD2     N 9054   2.716   2.996  12.004  0.2299 -0.4254 -0.1408
  607MPD2    H5 9055   2.744   3.065  12.073 -1.2206  1.0292 -1.0043
  607MPD2    N1 9056   2.818   3.371  11.750 -0.0082  0.7527 -0.2588
  607MPD2    H7 9057   2.833   3.410  11.843 -0.9482 -0.0783  0.2368
  608TMC3    C1 9058   2.856   3.589  11.722  0.5524  0.4775 -0.3157
  608TMC3    C2 9059   2.834   3.607  11.859  0.3873  0.3462 -0.4113
  608TMC3    C3 9060   2.883   3.724  11.914  0.8413  1.1571 -1.0361
  608TMC3    C4 9061   2.903   3.683  11.639  0.0096 -1.5090 -0.5002
  608TMC3    C5 9062   2.937   3.809  11.700  0.1086  0.4309  0.4046
  608TMC3    C6 9063   2.928   3.824  11.838  0.5501  0.0464 -0.3831
  608TMC3     C 9064   2.815   3.463  11.659  0.2833 -0.3121  0.3767
  608TMC3     O 9065   2.786   3.461  11.542  0.3393 -0.2593 -0.4020
  608TMC3     H 9066   2.765   3.538  11.906 -1.2453  1.8751 -0.5845
  608TMC3    H1 9067   2.936   3.665  11.538  0.7783 -1.1390 -0.3142
  608TMC3    H2 9068   2.952   3.912  11.895 -1.0055  0.6739 -0.7088
  608TMC3    C7 9069   3.046   3.881  11.634  0.6165  0.2912  0.4963
  608TMC3    C8 9070   2.889   3.729  12.060  0.4880  0.2583 -0.0637
  608TMC3    O1 9071   3.049   3.881  11.512 -0.2444 -0.3773  0.1335
  608TMC3    O2 9072   2.913   3.837  12.107 -0.3122  0.4197 -1.1590
  609TMC3    C1 9073   1.493   2.718   8.870  0.3361 -0.3092 -1.1859
  609TMC3    C2 9074   1.434   2.661   8.754 -0.2009 -0.1915  0.4005
  609TMC3    C3 9075   1.490   2.551   8.698  0.0905  0.0027  0.4502
  609TMC3    C4 9076   1.608   2.671   8.915  0.1318  0.1414  0.2158
  609TMC3    C5 9077   1.662   2.568   8.849 -0.3196  0.1513  0.4868
  609TMC3    C6 9078   1.604   2.501   8.741  0.2843  0.3471  0.3036
  609TMC3     C 9079   1.400   2.791   8.956  0.3675  0.4509 -0.0531
  609TMC3     O 9080   1.434   2.809   9.072  0.3826 -0.0814 -0.4156
  609TMC3     H 9081   1.332   2.682   8.725 -0.1223 -0.6759 -0.2382
  609TMC3    H1 9082   1.653   2.713   9.004  1.7948 -1.3846  0.1041
  609TMC3    H2 9083   1.663   2.435   8.679  0.7375  1.5002 -0.4888
  609TMC3    C7 9084   1.768   2.503   8.923  0.4446 -0.2755 -0.1103
  609TMC3    C8 9085   1.425   2.483   8.577 -0.0802 -0.3043 -0.0419
  609TMC3    O1 9086   1.824   2.562   9.015 -0.6080 -0.0053 -0.0633
  609TMC3    O2 9087   1.471   2.374   8.544 -0.0763  0.1019  0.5857
  610TMC3    C1 9088   3.405   3.639  12.733  1.1258  0.5284 -0.3149
  610TMC3    C2 9089   3.481   3.672  12.622 -0.6983  0.0725 -0.3675
  610TMC3    C3 9090   3.496   3.578  12.528 -0.2723 -0.5426  0.0230
  610TMC3    C4 9091   3.361   3.504  12.755 -0.1252 -0.0362  0.1935
  610TMC3    C5 9092   3.393   3.412  12.658 -0.2164 -0.6627 -0.3699
  610TMC3    C6 9093   3.463   3.445  12.546  0.1689 -0.0158 -0.7032
  610TMC3     C 9094   3.405   3.741  12.833  0.1844 -0.1052 -1.1579
  610TMC3     O 9095   3.484   3.831  12.822 -0.0342  0.3548  0.4720
  610TMC3     H 9096   3.508   3.774  12.596  0.0534  0.3625  1.5379
  610TMC3    H1 9097   3.325   3.478  12.854 -0.7240  0.5564  0.1205
  610TMC3    H2 9098   3.487   3.365  12.477 -1.4584 -1.8949  0.9064
  610TMC3    C7 9099   3.410   3.287  12.726 -0.1754  0.2169 -0.1902
  610TMC3    C8 9100   3.551   3.620  12.402  0.2869 -0.0080  0.2666
  610TMC3    O1 9101   3.426   3.283  12.848  0.2412  0.5363  0.5683
  610TMC3    O2 9102   3.585   3.736  12.391  0.2747 -0.0883  0.6735
  611MPD2     C 9103   3.207   3.270  10.418  0.7345  0.7073 -0.0178
  611MPD2    C1 9104   3.136   3.351  10.333 -0.1357  0.1169  0.0466
  611MPD2    C2 9105   3.192   3.470  10.284  0.7345  0.1283  0.5251
  611MPD2    C3 9106   3.324   3.500  10.315 -0.6789 -0.1650  0.6114
  611MPD2    C4 9107   3.398   3.413  10.391  0.6084  0.9406  0.3290
  611MPD2    C5 9108   3.337   3.299  10.444  0.1220  0.1625 -0.4515
  611MPD2     H 9109   3.135   3.539  10.223  0.7216  0.4429  0.8895
  611MPD2    H1 9110   3.499   3.434  10.424  0.4515  1.5565  0.4295
  611MPD2    H2 9111   3.170   3.177  10.461 -2.3472  1.1247 -1.8157
  611MPD2    H3 9112   3.401   3.241  10.509 -0.2747 -0.8848 -0.9995
  611MPD2     N 9113   3.393   3.619  10.282  0.5710  0.5437  0.0969
  611MPD2    H5 9114   3.486   3.641  10.316  0.6090  0.8316 -0.1927
  611MPD2    N1 9115   3.006   3.312  10.288  0.3572  0.5210  0.2164
  611MPD2    H7 9116   2.973   3.226  10.331 -0.8309  0.4941 -0.7409
  612TMC3    C1 9117   3.412   3.839  10.218  0.2216 -0.2185 -0.0952
  612TMC3    C2 9118   3.467   3.886  10.331  0.1386 -0.0957 -0.2741
  612TMC3    C3 9119   3.483   4.025  10.347  0.2353  0.4844 -0.2116
  612TMC3    C4 9120   3.368   3.925  10.116 -0.3719  0.3113  0.6106
  612TMC3    C5 9121   3.383   4.055  10.132  0.3350 -0.4280  0.4760
  612TMC3    C6 9122   3.445   4.102  10.248 -0.0730 -0.4355 -0.1018
  612TMC3     C 9123   3.329   3.722  10.218  0.1664 -0.2842  0.2733
  612TMC3     O 9124   3.228   3.717  10.146 -0.0279  0.3761 -0.6624
  612TMC3     H 9125   3.482   3.815  10.412  0.3683 -1.3387 -1.4149
  612TMC3    H1 9126   3.340   3.884  10.020 -0.5193  1.2629  0.2444
  612TMC3    H2 9127   3.469   4.208  10.248 -0.6473 -0.3057 -0.4787
  612TMC3    C7 9128   3.316   4.146  10.041 -0.4120  0.7425  0.6862
  612TMC3    C8 9129   3.576   4.080  10.444 -0.1439  0.3345  0.1763
  612TMC3    O1 9130   3.301   4.108   9.925  0.3574 -0.5281 -0.7603
  612TMC3    O2 9131   3.625   4.189  10.411 -0.7619  0.5344  0.3643
  613MPD2     C 9132   0.664   1.339  17.035 -0.4667 -0.2187  0.3615
  613MPD2    C1 9133   0.608   1.317  16.907  0.7373  0.3387  0.3039
  613MPD2    C2 9134   0.539   1.205  16.883  0.2905  0.4855 -0.1985
  613MPD2    C3 9135   0.531   1.104  16.982  0.4902  1.0939 -0.1735
  613MPD2    C4 9136   0.591   1.122  17.108  0.7320  0.0778 -0.1522
  613MPD2    C5 9137   0.652   1.239  17.133  0.6598  0.3642  0.2409
  613MPD2     H 9138   0.499   1.189  16.784  1.0649  2.1080 -0.7708
  613MPD2    H1 9139   0.580   1.056  17.194  0.1260  0.7159  0.2599
  613MPD2    H2 9140   0.733   1.420  17.055 -0.7768  0.2275 -0.4222
  613MPD2    H3 9141   0.693   1.263  17.231 -0.1544 -0.4304  0.7749
  613MPD2     N 9142   0.481   0.975  16.960  0.3675 -0.0398 -0.3697
  613MPD2    H5 9143   0.504   0.903  17.028 -0.4239  0.0883  0.0302
  613MPD2    N1 9144   0.626   1.410  16.807 -0.5758  0.1701  0.0514
  613MPD2    H7 9145   0.696   1.482  16.819  0.6390 -1.1813  0.9998
  614TMC3    C1 9146   0.683   1.451  16.581 -0.0908  0.0242 -0.5045
  614TMC3    C2 9147   0.787   1.364  16.573 -0.6183  0.3741  0.3767
  614TMC3    C3 9148   0.819   1.305  16.449 -0.2716 -0.0024 -0.5246
  614TMC3    C4 9149   0.628   1.492  16.464  0.2005  0.4347  0.1947
  614TMC3    C5 9150   0.667   1.445  16.342 -0.1124  0.2561  0.3918
  614TMC3    C6 9151   0.755   1.340  16.332 -0.6776  0.3853  0.2060
  614TMC3     C 9152   0.584   1.402  16.677 -0.2312 -0.1513  0.1987
  614TMC3     O 9153   0.484   1.346  16.633 -0.2958 -0.1435 -0.3947
  614TMC3     H 9154   0.820   1.333  16.671 -2.0083 -0.7909  0.4758
  614TMC3    H1 9155   0.565   1.580  16.463 -0.5684 -0.1272 -1.9683
  614TMC3    H2 9156   0.808   1.319  16.240 -1.1186  2.9648 -0.6306
  614TMC3    C7 9157   0.636   1.532  16.235  0.5575 -0.1055  0.5961
  614TMC3    C8 9158   0.855   1.163  16.462  0.0275  0.1580  0.1520
  614TMC3    O1 9159   0.598   1.642  16.260 -0.1085 -0.0400 -0.4654
  614TMC3    O2 9160   0.871   1.119  16.577  0.1001 -0.3120  0.7765
  615MPD2     C 9161   0.871   2.482  16.048 -0.7361  0.9202 -0.3812
  615MPD2    C1 9162   0.899   2.595  16.114 -0.1415 -0.3568  0.1532
  615MPD2    C2 9163   0.974   2.694  16.055 -0.1576 -0.5713  0.6095
  615MPD2    C3 9164   1.005   2.689  15.921 -0.3216 -0.3598  0.1523
  615MPD2    C4 9165   0.979   2.574  15.855 -0.4652  0.0891 -0.0968
  615MPD2    C5 9166   0.920   2.469  15.920  0.0688  0.0428  0.2364
  615MPD2     H 9167   0.989   2.785  16.112  2.3718 -0.3728 -0.3658
  615MPD2    H1 9168   1.011   2.561  15.752 -0.0731  1.1537 -0.1136
  615MPD2    H2 9169   0.826   2.391  16.088 -0.7601  1.9732  1.9703
  615MPD2    H3 9170   0.895   2.377  15.869  0.2684 -0.7351  1.5425
  615MPD2     N 9171   1.060   2.802  15.854  0.1341  0.6234 -0.2586
  615MPD2    H5 9172   1.072   2.789  15.754 -0.6190  2.1425 -0.5413
  615MPD2    N1 9173   0.855   2.614  16.247  0.0588 -0.5039  0.0840
  615MPD2    H7 9174   0.863   2.707  16.286 -0.3234 -0.2121 -0.5441
  616TMC3    C1 9175   0.707   2.609  16.426  0.5020  0.0432 -0.8248
  616TMC3    C2 9176   0.783   2.714  16.477 -0.0819 -0.2185 -0.2431
  616TMC3    C3 9177   0.721   2.794  16.567 -0.3644 -0.3713 -0.4788
  616TMC3    C4 9178   0.572   2.601  16.442  0.0149  0.6576  0.0527
  616TMC3    C5 9179   0.513   2.695  16.516 -0.2582  0.8798 -0.8021
  616TMC3    C6 9180   0.583   2.786  16.587 -0.2674 -0.8049 -0.0016
  616TMC3     C 9181   0.757   2.541  16.303  0.5815 -0.4874  0.4301
  616TMC3     O 9182   0.696   2.445  16.262 -0.4782 -0.7747 -0.0854
  616TMC3     H 9183   0.891   2.706  16.487  0.0566  0.6134 -1.1392
  616TMC3    H1 9184   0.526   2.520  16.386 -2.2154  1.7052  0.3647
  616TMC3    H2 9185   0.530   2.855  16.652  0.9781  0.7750 -0.6488
  616TMC3    C7 9186   0.364   2.698  16.525 -0.3503  0.1988  0.0136
  616TMC3    C8 9187   0.781   2.926  16.603 -0.2947 -0.3705 -0.5504
  616TMC3    O1 9188   0.322   2.747  16.627  0.2001  0.3993 -0.3330
  616TMC3    O2 9189   0.705   3.011  16.642  1.0513 -0.4043  0.0098
  617MPD2     C 9190   3.684   0.261  13.612 -0.3696 -0.2560 -0.2424
  617MPD2    C1 9191   3.765   0.310  13.712  0.1314 -0.0879  0.1428
  617MPD2    C2 9192   3.711   0.352  13.831  0.1681  0.3246  0.0801
  617MPD2    C3 9193   3.576   0.326  13.853 -0.3389 -0.6076 -0.2083
  617MPD2    C4 9194   3.502   0.271  13.751  0.4695 -0.4914  0.1840
  617MPD2    C5 9195   3.554   0.242  13.627 -0.4235 -0.2208  0.0529
  617MPD2     H 9196   3.776   0.387  13.911 -1.5307  3.5235  0.0547
  617MPD2    H1 9197   3.397   0.253  13.772  0.6093 -1.8097 -0.2534
  617MPD2    H2 9198   3.720   0.249  13.510  2.1507 -3.9815  1.0914
  617MPD2    H3 9199   3.494   0.206  13.544  0.5910 -0.5401 -0.5523
  617MPD2     N 9200   3.514   0.336  13.976  0.6000  0.4264 -0.2971
  617MPD2    H5 9201   3.425   0.292  13.995 -0.4992  3.1230  0.9246
  617MPD2    N1 9202   3.902   0.308  13.690  0.1118 -0.0950 -0.1367
  617MPD2    H7 9203   3.925   0.295  13.592  1.8803  1.0844  0.1119
  618TMC3    C1 9204   4.134   0.275  13.723 -0.7096 -0.1570 -0.1989
  618TMC3    C2 9205   4.204   0.170  13.786  0.0091  0.0981 -0.1420
  618TMC3    C3 9206   4.290   0.098  13.710  0.7968 -0.1392  0.0603
  618TMC3    C4 9207   4.172   0.316  13.602 -0.2629 -0.3335 -0.1703
  618TMC3    C5 9208   4.253   0.233  13.526 -0.4106 -0.1741 -0.3892
  618TMC3    C6 9209   4.317   0.127  13.582  0.0033  0.3214  0.1572
  618TMC3     C 9210   4.003   0.306  13.781  0.3113 -0.2383  0.3269
  618TMC3     O 9211   3.978   0.284  13.900  0.5663 -0.2268  0.2907
  618TMC3     H 9212   4.173   0.130  13.882  1.6684  0.6973  0.6547
  618TMC3    H1 9213   4.099   0.375  13.547  0.7922  0.1452 -1.0592
  618TMC3    H2 9214   4.375   0.046  13.540 -0.0067  1.4896 -2.0911
  618TMC3    C7 9215   4.211   0.214  13.395  0.3465  0.6236 -0.1779
  618TMC3    C8 9216   4.305   4.701  13.748 -0.0752 -0.1432 -0.1010
  618TMC3    O1 9217   4.154   0.107  13.376  0.5697 -0.5501  0.4408
  618TMC3    O2 9218   4.201   4.638  13.776  0.2301 -0.2314  0.6090
  619MPD2     C 9219   0.724   2.175  13.716 -0.7283  0.6162 -0.2532
  619MPD2    C1 9220   0.620   2.248  13.668 -0.1386 -0.8131 -0.4374
  619MPD2    C2 9221   0.496   2.210  13.704 -0.1571  0.5208 -0.2922
  619MPD2    C3 9222   0.468   2.121  13.804 -0.1937  0.4084  0.2204
  619MPD2    C4 9223   0.570   2.039  13.844 -0.7072 -0.3727 -0.7800
  619MPD2    C5 9224   0.700   2.065  13.801  0.0603 -0.7093 -0.1875
  619MPD2     H 9225   0.407   2.252  13.659 -1.2246  0.4140  1.7239
  619MPD2    H1 9226   0.559   1.955  13.911  0.4253 -0.3424 -0.5574
  619MPD2    H2 9227   0.828   2.184  13.689 -0.6470  1.4329  0.3413
  619MPD2    H3 9228   0.781   1.997  13.825  0.9521  0.1489 -0.7690
  619MPD2     N 9229   0.337   2.081  13.843 -0.2801  0.3236 -0.3078
  619MPD2    H5 9230   0.335   1.991  13.891  1.1901  0.9941  1.0309
  619MPD2    N1 9231   0.645   2.349  13.567  0.9032  0.1048 -0.3158
  619MPD2    H7 9232   0.565   2.411  13.560 -0.5100 -2.0493 -2.9645
  620TMC3    C1 9233   0.692   2.401  13.357 -0.1718  1.2309  0.3232
  620TMC3    C2 9234   0.591   2.341  13.293  0.2513 -0.1510 -0.3552
  620TMC3    C3 9235   0.541   2.396  13.185 -0.1346 -0.2871 -0.1232
  620TMC3    C4 9236   0.744   2.512  13.306 -0.4140 -0.0389  0.0572
  620TMC3    C5 9237   0.686   2.581  13.201 -0.1388  1.0137  0.1723
  620TMC3    C6 9238   0.582   2.516  13.135 -0.6991 -0.5281 -0.0686
  620TMC3     C 9239   0.748   2.353  13.476  0.4479 -0.7149 -0.2947
  620TMC3     O 9240   0.839   2.278  13.474  0.2038  0.0412  0.1948
  620TMC3     H 9241   0.553   2.244  13.326  2.2966 -1.1630 -0.9801
  620TMC3    H1 9242   0.822   2.556  13.367  0.1226 -1.8387  0.6645
  620TMC3    H2 9243   0.530   2.571  13.058  2.2253  0.6804 -1.1618
  620TMC3    C7 9244   0.683   2.725  13.209 -0.1502  0.4625 -0.0594
  620TMC3    C8 9245   0.401   2.374  13.162 -0.1736 -0.3986 -0.0149
  620TMC3    O1 9246   0.636   2.778  13.109 -0.5761 -0.1620 -0.2723
  620TMC3    O2 9247   0.355   2.401  13.050 -0.1451 -0.5079 -0.1901
  621MPD2     C 9248   0.976   2.325   9.320 -0.2504 -0.3725 -0.4271
  621MPD2    C1 9249   1.050   2.270   9.419 -0.2510  0.8409  0.6080
  621MPD2    C2 9250   1.134   2.351   9.494  0.1456  0.1778 -0.0670
  621MPD2    C3 9251   1.145   2.486   9.459 -0.0607 -0.3616  0.3812
  621MPD2    C4 9252   1.063   2.541   9.362  0.0831 -0.1597  0.6079
  621MPD2    C5 9253   0.973   2.458   9.304  0.3470 -0.2318 -0.3018
  621MPD2     H 9254   1.184   2.307   9.579  2.4069 -0.5051 -1.7697
  621MPD2    H1 9255   1.074   2.640   9.318  2.6372 -0.4601  0.5560
  621MPD2    H2 9256   0.908   2.268   9.257  0.3847 -1.5965 -0.0129
  621MPD2    H3 9257   0.905   2.496   9.229 -0.9306 -1.3285  0.2947
  621MPD2     N 9258   1.238   2.566   9.525  0.7025 -0.0709 -0.0267
  621MPD2    H5 9259   1.301   2.518   9.590 -1.2996  0.3124  2.1863
  621MPD2    N1 9260   1.021   2.133   9.451 -0.0074 -0.0555 -0.4563
  621MPD2    H7 9261   0.954   2.091   9.387 -2.9129 -0.9467  3.1526
  622TMC3    C1 9262   1.055   1.921   9.554 -0.4707  0.5697  0.4791
  622TMC3    C2 9263   1.054   1.852   9.673 -0.4107  0.3050  0.3597
  622TMC3    C3 9264   0.996   1.727   9.669 -0.4371  0.4274  0.4905
  622TMC3    C4 9265   1.004   1.862   9.442 -0.4818 -0.5892 -0.7093
  622TMC3    C5 9266   0.947   1.740   9.440 -0.5371  0.1144 -0.6379
  622TMC3    C6 9267   0.928   1.674   9.558 -0.0979  0.3473 -0.3296
  622TMC3     C 9268   1.081   2.060   9.556 -0.4814 -0.4289  0.0168
  622TMC3     O 9269   1.172   2.092   9.631  0.1418  0.0290  0.0707
  622TMC3     H 9270   1.094   1.895   9.765 -1.5402  3.2274 -0.4927
  622TMC3    H1 9271   1.018   1.908   9.344  0.6174  0.2813 -0.1558
  622TMC3    H2 9272   0.878   1.579   9.575 -1.2915  1.2500  1.2117
  622TMC3    C7 9273   0.880   1.707   9.318  0.6463  0.4854 -0.0302
  622TMC3    C8 9274   0.971   1.657   9.795  0.4582  0.0330 -0.1048
  622TMC3    O1 9275   0.857   1.796   9.237  0.1454  0.0546 -0.2590
  622TMC3    O2 9276   0.975   1.534   9.793 -0.1302 -0.2158 -0.1619
  623MPD2     C 9277   3.753   3.599  16.786  0.2448  0.5942 -0.6050
  623MPD2    C1 9278   3.684   3.482  16.796  0.2296  0.2910  0.0297
  623MPD2    C2 9279   3.752   3.367  16.841 -0.1683  0.5446 -0.2050
  623MPD2    C3 9280   3.891   3.370  16.862 -0.2986 -0.3121 -0.1437
  623MPD2    C4 9281   3.956   3.494  16.845  0.3540  0.0442  0.1578
  623MPD2    C5 9282   3.882   3.602  16.800 -0.0842 -0.5809 -0.0259
  623MPD2     H 9283   3.694   3.278  16.865  1.3346 -0.9405 -2.0961
  623MPD2    H1 9284   4.064   3.507  16.850  0.4286 -1.4168  2.7054
  623MPD2    H2 9285   3.703   3.688  16.749 -1.6295  0.4827  1.6016
  623MPD2    H3 9286   3.937   3.689  16.768  0.1061 -0.5674  0.3370
  623MPD2     N 9287   3.961   3.252  16.907  0.5278  0.2693  0.0659
  623MPD2    H5 9288   3.903   3.169  16.918  1.9942 -0.5739  1.4149
  623MPD2    N1 9289   3.544   3.487  16.778 -0.3770  0.4275  0.3291
  623MPD2    H7 9290   3.501   3.578  16.763 -3.9935 -1.1570  1.0392
  624TMC3    C1 9291   4.335   2.991  17.026  0.4171  0.2454  0.3846
  624TMC3    C2 9292   4.257   2.889  17.078 -0.1024 -0.0067  0.4240
  624TMC3    C3 9293   4.116   2.903  17.070 -0.3613 -0.1129  0.5620
  624TMC3    C4 9294   4.283   3.111  16.977  0.1548  0.5083  0.1123
  624TMC3    C5 9295   4.148   3.111  16.952  0.6492 -0.6023 -0.1921
  624TMC3    C6 9296   4.062   3.011  17.002 -0.8871 -0.3378 -0.1774
  624TMC3     C 9297   4.478   2.959  17.039  0.3749 -0.4920  0.5672
  624TMC3     O 9298   4.517   2.876  17.121 -0.2774 -0.1727  0.9098
  624TMC3     H 9299   4.298   2.791  17.102 -0.2406  0.1928  1.4942
  624TMC3    H1 9300   4.350   3.184  16.933  0.1284  1.2819  1.3756
  624TMC3    H2 9301   3.957   3.031  16.991 -0.7815 -0.6345 -1.6766
  624TMC3    C7 9302   4.092   3.244  16.939 -0.7124 -1.2226  0.1514
  624TMC3    C8 9303   4.031   2.788  17.081 -0.3829  0.3639 -0.2002
  624TMC3    O1 9304   4.175   3.336  16.950 -0.2154 -0.2216  0.2921
  624TMC3    O2 9305   3.918   2.793  17.037  0.2628 -0.3836 -0.1241
  625MPD2     C 9306   4.495   3.596   0.387  0.2713  0.3964 -0.0031
  625MPD2    C1 9307   4.487   3.719   0.451  0.2832 -0.0468  0.1673
  625MPD2    C2 9308   4.592   3.753   0.537  0.3187 -0.4098  0.2725
  625MPD2    C3 9309   4.692   3.658   0.566 -0.7977 -0.0335 -0.1203
  625MPD2    C4 9310   4.690   3.540   0.498  0.4447 -0.1202  0.5652
  625MPD2    C5 9311   4.588   3.509   0.409 -0.3506  0.3502 -0.3871
  625MPD2     H 9312   4.604   3.854   0.575 -1.7900 -0.1231  0.1600
  625MPD2    H1 9313   0.033   3.467   0.520 -0.0755 -1.1191 -0.8947
  625MPD2    H2 9314   4.425   3.569   0.309  0.3541 -0.2040  0.1290
  625MPD2    H3 9315   4.590   3.415   0.354 -0.5941  0.1841 -0.1100
  625MPD2     N 9316   0.058   3.710   0.653 -0.0456 -0.6633  0.1627
  625MPD2    H5 9317   0.051   3.809   0.671 -1.6008 -0.7874  0.1964
  625MPD2    N1 9318   4.378   3.814   0.429 -0.0784 -0.2789  0.7652
  625MPD2    H7 9319   4.366   3.898   0.484  2.4750  1.3346 -1.1554
  626TMC3    C1 9320   4.215   3.930   0.324 -0.1334  0.7422  0.0862
  626TMC3    C2 9321   4.179   3.980   0.202  0.1277  0.1947 -1.2922
  626TMC3    C3 9322   4.100   4.091   0.193  0.8204 -0.1241  0.3936
  626TMC3    C4 9323   4.178   3.993   0.444  0.4271 -0.4747  0.7925
  626TMC3    C5 9324   4.087   4.093   0.425  1.0080  0.0502 -0.3567
  626TMC3    C6 9325   4.039   4.146   0.303  0.0761  0.3901  0.0465
  626TMC3     C 9326   4.290   3.814   0.329 -0.2967 -0.3033 -0.8135
  626TMC3     O 9327   4.295   3.748   0.225  0.4864  0.4472  0.1699
  626TMC3     H 9328   4.216   3.936   0.110 -1.0793  1.7735 -2.5304
  626TMC3    H1 9329   4.212   3.963   0.543  1.9687  0.5783  0.5849
  626TMC3    H2 9330   3.962   4.222   0.300  0.1592  0.5322  1.3850
  626TMC3    C7 9331   4.026   4.149   0.553 -0.0657  0.1066 -0.2008
  626TMC3    C8 9332   4.071   4.151   0.062  0.2853 -0.8400  0.3418
  626TMC3    O1 9333   4.092   4.147   0.655  0.1017  0.1604 -0.0844
  626TMC3    O2 9334   4.088   4.077  17.699 -0.5399 -0.3196  0.1307
  627MPD2     C 9335   3.403   4.135  14.962  0.0274 -0.1017 -0.4564
  627MPD2    C1 9336   3.492   4.033  14.958  0.6976 -0.4960  0.0371
  627MPD2    C2 9337   3.435   3.910  14.967  0.1970 -1.1232  0.3318
  627MPD2    C3 9338   3.305   3.887  15.001 -0.8811  0.4297  0.5549
  627MPD2    C4 9339   3.213   3.994  15.012 -0.0081 -0.5254 -0.0607
  627MPD2    C5 9340   3.268   4.115  14.981  0.7716 -0.3092  0.2746
  627MPD2     H 9341   3.498   3.823  14.955 -0.0118 -1.1201 -0.7184
  627MPD2    H1 9342   3.106   3.985  15.030  0.4249  0.3398  2.8675
  627MPD2    H2 9343   3.431   4.239  14.959 -1.6063  0.4483  3.1489
  627MPD2    H3 9344   3.208   4.204  14.994  2.2314  0.9724 -1.7229
  627MPD2     N 9345   3.269   3.752  15.014  0.1523  0.5887 -0.3329
  627MPD2    H5 9346   3.342   3.682  15.001  1.0028  1.7403 -1.7587
  627MPD2    N1 9347   3.630   4.053  14.941  0.6662  0.4856 -0.0947
  627MPD2    H7 9348   3.686   3.970  14.925 -1.4027 -1.0021  0.4056
  628TMC3    C1 9349   3.833   4.145  14.881 -0.6370  0.3213  0.4508
  628TMC3    C2 9350   3.917   4.077  14.973  0.0207  0.3329 -0.1154
  628TMC3    C3 9351   4.054   4.084  14.947  0.1182 -0.7156 -0.4066
  628TMC3    C4 9352   3.877   4.225  14.780  0.5499 -0.0040  0.4508
  628TMC3    C5 9353   4.012   4.227  14.764  0.5872  0.2030  0.4000
  628TMC3    C6 9354   4.104   4.152  14.838  0.7363  0.0413 -0.4296
  628TMC3     C 9355   3.694   4.169  14.916 -0.3611 -0.0984  0.3275
  628TMC3     O 9356   3.652   4.286  14.906  1.0228  0.3547  0.0501
  628TMC3     H 9357   3.871   4.022  15.055 -0.4087 -3.6609 -3.0515
  628TMC3    H1 9358   3.807   4.290  14.729  2.1965  2.2919  1.1195
  628TMC3    H2 9359   4.210   4.159  14.817  0.6337  0.3808 -0.8302
  628TMC3    C7 9360   4.065   4.330  14.679  0.5318 -0.4011 -0.1903
  628TMC3    C8 9361   4.150   4.003  15.020 -0.7418  0.4097  0.3482
  628TMC3    O1 9362   4.183   4.330  14.652  0.5620 -0.3078 -0.1126
  628TMC3    O2 9363   4.259   3.988  14.967  0.1842  0.2390 -0.4624
  629MPD2     C 9364   1.200   3.238  16.570  0.0280  0.6201 -0.1998
  629MPD2    C1 9365   1.233   3.104  16.588  0.2867 -0.0234  0.3042
  629MPD2    C2 9366   1.140   3.007  16.589 -0.0597  0.0708  0.0983
  629MPD2    C3 9367   1.008   3.036  16.582 -0.3030 -0.1342  0.4820
  629MPD2    C4 9368   0.972   3.167  16.557 -0.7952  0.1407 -0.3399
  629MPD2    C5 9369   1.065   3.268  16.549 -0.6383 -0.4425 -0.2390
  629MPD2     H 9370   1.166   2.904  16.610 -0.0662  0.1787  0.6421
  629MPD2    H1 9371   0.869   3.191  16.530 -1.0128 -0.8840 -0.4346
  629MPD2    H2 9372   1.271   3.320  16.567 -1.9354  2.3222 -0.4493
  629MPD2    H3 9373   1.035   3.368  16.520 -1.5686 -0.4550  0.7017
  629MPD2     N 9374   0.921   2.924  16.588  0.2550 -0.0971  0.6799
  629MPD2    H5 9375   0.970   2.838  16.567  0.4808 -0.0656  1.0610
  629MPD2    N1 9376   1.372   3.063  16.596 -1.0745 -0.3341 -0.2023
  629MPD2    H7 9377   1.439   3.138  16.587  1.2194 -2.4292 -0.4105
  630TMC3    C1 9378   1.563   2.948  16.644 -0.0256 -0.1219  0.3061
  630TMC3    C2 9379   1.638   3.057  16.592  0.7261  0.0675 -0.2895
  630TMC3    C3 9380   1.767   3.059  16.633 -0.2494  0.2496 -0.5904
  630TMC3    C4 9381   1.618   2.856  16.733  0.3624 -0.1737  0.2415
  630TMC3    C5 9382   1.740   2.882  16.783  0.6180  0.6504 -0.1708
  630TMC3    C6 9383   1.825   2.973  16.721  0.4826 -0.0834 -0.5182
  630TMC3     C 9384   1.422   2.936  16.621  0.2422  0.4877 -0.7728
  630TMC3     O 9385   1.373   2.824  16.618 -0.8175 -0.1237 -0.0571
  630TMC3     H 9386   1.590   3.117  16.515  1.4825  0.2602 -0.6109
  630TMC3    H1 9387   1.553   2.793  16.791  1.5534  0.5204  2.3206
  630TMC3    H2 9388   1.930   2.983  16.746  1.0777  0.3854 -3.1999
  630TMC3    C7 9389   1.792   2.813  16.895 -1.3945  0.6487 -0.4033
  630TMC3    C8 9390   1.854   3.152  16.579  0.3954 -0.0483  0.3174
  630TMC3    O1 9391   1.888   2.859  16.950  0.0059  0.1430  0.0127
  630TMC3    O2 9392   1.959   3.179  16.636 -0.8499 -0.1295  0.4058
  631MPD2     C 9393   0.598   2.753  15.355  0.6034  0.4712 -0.0277
  631MPD2    C1 9394   0.629   2.859  15.266 -0.3724  0.1998 -0.5057
  631MPD2    C2 9395   0.757   2.915  15.285 -0.7311 -0.3940 -0.0647
  631MPD2    C3 9396   0.845   2.875  15.384  0.4526  0.2416  0.2893
  631MPD2    C4 9397   0.817   2.771  15.465 -0.2024 -0.8852 -0.2035
  631MPD2    C5 9398   0.693   2.711  15.452  0.5656 -0.1791  0.1053
  631MPD2     H 9399   0.790   2.983  15.207 -1.6487  0.1712  0.0371
  631MPD2    H1 9400   0.880   2.735  15.546 -0.2146 -1.3787 -0.4087
  631MPD2    H2 9401   0.503   2.701  15.349  0.5118  0.9591 -2.7924
  631MPD2    H3 9402   0.673   2.633  15.525 -0.5162 -0.0165 -0.0103
  631MPD2     N 9403   0.965   2.948  15.401 -0.0913  0.3636  0.4394
  631MPD2    H5 9404   0.967   3.036  15.351 -0.3253  0.5981  0.8361
  631MPD2    N1 9405   0.540   2.893  15.163 -0.2239 -0.7764  0.3079
  631MPD2    H7 9406   0.453   2.840  15.159  0.4304 -1.8618  0.4111
  632TMC3    C1 9407   0.452   2.990  14.973  0.1578  0.1722  0.1801
  632TMC3    C2 9408   0.327   3.010  15.022  0.8756  0.6410 -0.3000
  632TMC3    C3 9409   0.226   3.054  14.934  0.0217 -0.1970 -0.1812
  632TMC3    C4 9410   0.479   3.027  14.839 -0.0689  0.3700 -0.6195
  632TMC3    C5 9411   0.381   3.074  14.761 -0.1999  0.6249 -0.9460
  632TMC3    C6 9412   0.254   3.090  14.810  0.3644 -0.0985 -0.0319
  632TMC3     C 9413   0.571   2.975  15.056 -0.3717 -0.6183 -0.5229
  632TMC3     O 9414   0.681   3.001  15.010 -0.5916 -0.2886  0.6138
  632TMC3     H 9415   0.306   2.995  15.127 -0.8475 -0.5168 -0.8118
  632TMC3    H1 9416   0.579   3.018  14.799  0.4102  1.5616  0.2846
  632TMC3    H2 9417   0.180   3.150  14.758 -0.2094  0.2306  1.1575
  632TMC3    C7 9418   0.402   3.109  14.623 -0.0108 -0.1252 -0.3310
  632TMC3    C8 9419   0.097   3.096  14.990  0.8838 -0.4400  0.4090
  632TMC3    O1 9420   0.301   3.126  14.553 -0.9656  0.0342 -0.5203
  632TMC3    O2 9421   0.092   3.141  15.106  0.0279  0.0824  0.5357
  633MPD2     C 9422   4.139   0.695  17.085 -0.2648 -0.2957 -0.3703
  633MPD2    C1 9423   4.178   0.631  16.971 -0.2910  1.2249 -0.2372
  633MPD2    C2 9424   4.182   0.491  16.976  0.1876 -0.2322  0.6136
  633MPD2    C3 9425   4.147   0.418  17.086  0.8058 -0.4128  0.4280
  633MPD2    C4 9426   4.108   0.483  17.196  0.7022 -0.4124  0.3990
  633MPD2    C5 9427   4.110   0.616  17.194 -0.4552 -0.4661  0.0367
  633MPD2     H 9428   4.215   0.447  16.882 -0.4718  1.5788 -0.4683
  633MPD2    H1 9429   4.084   0.436  17.291  1.1634  2.3408  1.8656
  633MPD2    H2 9430   4.122   0.802  17.082 -0.3669 -0.3277 -0.8684
  633MPD2    H3 9431   4.079   0.655  17.290 -0.0394 -0.8463  0.3236
  633MPD2     N 9432   4.158   0.277  17.095 -0.0014  0.1794  0.5714
  633MPD2    H5 9433   4.123   0.232  17.179  0.0483 -0.2813  0.3437
  633MPD2    N1 9434   4.219   0.693  16.851  0.4657  0.2876  0.1541
  633MPD2    H7 9435   4.236   0.629  16.774 -0.0971 -0.0744  0.3277
  634TMC3    C1 9436   4.306   0.859  16.711  1.1920  0.6648 -0.7846
  634TMC3    C2 9437   4.316   0.765  16.614 -0.4423  0.0356  0.2624
  634TMC3    C3 9438   4.355   0.808  16.494 -0.2188 -0.0035 -0.2392
  634TMC3    C4 9439   4.320   0.992  16.694 -0.2668  0.0313  0.1696
  634TMC3    C5 9440   4.351   1.034  16.567  0.5664  0.3026  0.1167
  634TMC3    C6 9441   4.362   0.945  16.463 -0.1910 -0.4132  0.2084
  634TMC3     C 9442   4.260   0.819  16.840 -0.4792 -0.3556  0.0750
  634TMC3     O 9443   4.251   0.904  16.924 -0.4005 -0.7680 -0.1845
  634TMC3     H 9444   4.308   0.660  16.639  1.3821 -0.1357  0.0628
  634TMC3    H1 9445   4.341   1.055  16.780  1.6618  0.6882 -0.7763
  634TMC3    H2 9446   4.400   0.984  16.369 -1.3519  3.2806  1.3084
  634TMC3    C7 9447   4.343   1.176  16.534 -0.4958  1.0278 -0.2450
  634TMC3    C8 9448   4.392   0.709  16.402  0.0893  0.0500  0.5467
  634TMC3    O1 9449   4.373   1.195  16.417 -0.4940 -0.1216 -0.3243
  634TMC3    O2 9450   4.382   0.592  16.438  0.3317  0.1555  0.5599
  635TMC3    C1 9451   0.323   2.214  17.429  0.5542 -0.4116 -0.3794
  635TMC3    C2 9452   0.266   2.277  17.326  0.6728 -0.0435 -0.7675
  635TMC3    C3 9453   0.144   2.233  17.271 -0.6547  0.0084  0.1507
  635TMC3    C4 9454   0.278   2.099  17.474 -0.5447  0.2467 -0.3642
  635TMC3    C5 9455   0.150   2.065  17.427  0.6577 -0.1221  0.3877
  635TMC3    C6 9456   0.081   2.125  17.325  0.2903 -0.0701  0.4420
  635TMC3     C 9457   0.410   2.289  17.511  0.2821 -0.4595 -0.3354
  635TMC3     O 9458   0.399   2.293  17.633 -0.4848  0.0649  0.4310
  635TMC3     H 9459   0.305   2.373  17.293  0.5613 -0.0498 -0.9153
  635TMC3    H1 9460   0.335   2.058  17.557 -1.3971 -2.5653 -1.1430
  635TMC3    H2 9461   4.720   2.095  17.282 -0.6244  1.5903  1.2746
  635TMC3    C7 9462   0.088   1.941  17.454 -0.0597  1.1977  0.0828
  635TMC3    C8 9463   0.090   2.321  17.172  0.1601 -0.6876 -0.0130
  635TMC3    O1 9464   4.730   1.891  17.389  0.1320 -0.4088  0.0220
  635TMC3    O2 9465   0.177   2.374  17.105 -0.4988  0.1677 -0.5149
  636MPD2     C 9466   0.388   1.156  16.190 -0.1266 -0.5812  0.4828
  636MPD2    C1 9467   0.356   1.190  16.316  0.2216 -0.5821 -0.6622
  636MPD2    C2 9468   0.359   1.092  16.420  0.4430  0.4700  0.1760
  636MPD2    C3 9469   0.382   0.959  16.392 -0.2307  0.5264  0.2581
  636MPD2    C4 9470   0.412   0.926  16.265 -0.2160 -0.4320 -0.5611
  636MPD2    C5 9471   0.407   1.023  16.164  0.6248  0.5748  0.4532
  636MPD2     H 9472   0.329   1.110  16.523  2.4346  0.5925  0.7307
  636MPD2    H1 9473   0.415   0.823  16.231 -0.2824 -1.4117  2.4534
  636MPD2    H2 9474   0.405   1.229  16.111 -2.3733 -1.6709 -1.0097
  636MPD2    H3 9475   0.430   1.002  16.060  0.4977 -1.0010  0.7374
  636MPD2     N 9476   0.361   0.867  16.498 -0.0234  0.1086 -0.6292
  636MPD2    H5 9477   0.344   0.904  16.591 -0.8797 -0.7964 -0.4186
  636MPD2    N1 9478   0.323   1.315  16.365 -0.4148  0.6255  0.7189
  636MPD2    H7 9479   0.311   1.322  16.465  0.0295  2.0470  0.6760
  637TMC3    C1 9480   0.355   0.672  16.624  0.5619  0.1227 -0.5518
  637TMC3    C2 9481   0.318   0.758  16.716 -0.5117 -0.0695  0.1633
  637TMC3    C3 9482   0.413   0.801  16.809 -0.1980  0.2002 -0.2592
  637TMC3    C4 9483   0.476   0.603  16.627 -0.3178  0.1736  0.5202
  637TMC3    C5 9484   0.576   0.647  16.716 -0.8171 -0.1333 -0.3570
  637TMC3    C6 9485   0.536   0.741  16.816  0.2074  0.2850  0.3295
  637TMC3     C 9486   0.358   0.724  16.489  0.0357  0.0420  0.0909
  637TMC3     O 9487   0.384   0.652  16.396  1.0844  0.2235 -0.1512
  637TMC3     H 9488   0.216   0.797  16.715 -0.0285  1.2346  2.3873
  637TMC3    H1 9489   0.487   0.522  16.555  0.9279  0.6173  0.2075
  637TMC3    H2 9490   0.616   0.791  16.870  1.1948 -1.9101  0.9091
  637TMC3    C7 9491   0.703   0.679  16.660  0.8468 -0.1799  0.1200
  637TMC3    C8 9492   0.401   0.939  16.852  0.6521 -0.6410 -0.2071
  637TMC3    O1 9493   0.793   0.731  16.728  0.0311  0.0144  0.6016
  637TMC3    O2 9494   0.338   1.006  16.768  0.7274 -0.4488  0.4535
  638MPD2     C 9495   0.879   0.265  14.828  0.0219 -0.5338  0.2518
  638MPD2    C1 9496   0.860   0.150  14.755 -0.3071 -0.2141  0.1964
  638MPD2    C2 9497   0.824   0.026  14.819  0.5061 -0.0778 -0.3363
  638MPD2    C3 9498   0.814   0.028  14.956  0.3301  0.0669 -0.3128
  638MPD2    C4 9499   0.831   0.152  15.026 -0.0346  0.0691  0.4764
  638MPD2    C5 9500   0.853   0.265  14.960  0.0473 -0.4572  0.2046
  638MPD2     H 9501   0.827   4.666  14.764 -1.7945 -1.5528  2.0612
  638MPD2    H1 9502   0.805   0.168  15.130 -2.2896 -0.6307  0.0299
  638MPD2    H2 9503   0.905   0.360  14.781  0.1668  0.0877  1.5800
  638MPD2    H3 9504   0.854   0.362  15.009  1.5355 -1.1536  1.5580
  638MPD2     N 9505   0.798   4.641  15.023  0.0958  0.6370  0.5759
  638MPD2    H5 9506   0.794   4.557  14.967 -3.1172  1.8251 -0.9410
  638MPD2    N1 9507   0.882   0.169  14.619 -0.2960 -0.2665  0.5843
  638MPD2    H7 9508   0.902   0.263  14.586  3.1715 -0.7751  1.1666
  639TMC3    C1 9509   0.820   4.476  15.181  0.5182  0.0659 -0.1784
  639TMC3    C2 9510   0.713   4.408  15.123 -0.1687 -0.4760 -0.4605
  639TMC3    C3 9511   0.689   4.283  15.171  0.4681  0.2262 -0.1636
  639TMC3    C4 9512   0.897   4.419  15.281 -0.4389 -0.1043 -0.4618
  639TMC3    C5 9513   0.877   4.289  15.312  0.0881  0.0218 -0.0940
  639TMC3    C6 9514   0.770   4.222  15.265 -0.1146 -0.1476 -0.2679
  639TMC3     C 9515   0.825   4.621  15.154  0.3047 -0.3342  0.0489
  639TMC3     O 9516   0.891   4.692  15.233 -0.4297 -0.2910 -0.0310
  639TMC3     H 9517   0.655   4.450  15.042 -2.2085  1.1019  1.8000
  639TMC3    H1 9518   0.960   4.481  15.343 -0.3381  0.6684 -1.3312
  639TMC3    H2 9519   0.763   4.116  15.287 -0.6113 -0.4572 -1.9403
  639TMC3    C7 9520   0.990   4.202  15.316 -0.2174  0.0197 -0.7547
  639TMC3    C8 9521   0.636   4.193  15.063 -0.7134  0.6329 -0.1195
  639TMC3    O1 9522   1.000   4.108  15.398 -0.1035  0.3189  0.3436
  639TMC3    O2 9523   0.660   4.215  14.946  0.5703 -0.1281  0.2140
  640MPD2     C 9524   1.391   3.219   9.458 -0.4185  0.2195 -0.0438
  640MPD2    C1 9525   1.498   3.313   9.480  0.4027  0.3462 -0.9186
  640MPD2    C2 9526   1.483   3.421   9.569  0.0014  1.0405  0.0655
  640MPD2    C3 9527   1.356   3.440   9.618  0.1238  0.4016 -0.3813
  640MPD2    C4 9528   1.252   3.354   9.590 -0.1478  0.1141  0.0511
  640MPD2    C5 9529   1.268   3.245   9.511  0.3913  0.8534 -0.2807
  640MPD2     H 9530   1.556   3.499   9.587  1.4242 -0.2547 -0.0567
  640MPD2    H1 9531   1.147   3.374   9.612 -0.3932 -0.2040 -0.8175
  640MPD2    H2 9532   1.396   3.136   9.388 -1.7445 -1.0171  1.3412
  640MPD2    H3 9533   1.181   3.187   9.482  1.2016 -0.9808  0.9890
  640MPD2     N 9534   1.328   3.547   9.711  0.1310 -0.1078  0.0898
  640MPD2    H5 9535   1.234   3.557   9.749 -0.2194  1.7826 -1.2559
  640MPD2    N1 9536   1.613   3.300   9.401 -0.5625  0.5927  0.2359
  640MPD2    H7 9537   1.609   3.224   9.335  0.4138 -1.0906  2.0976
  641TMC3    C1 9538   1.827   3.308   9.318  0.0711  0.2029  0.3846
  641TMC3    C2 9539   1.933   3.247   9.368 -0.5244  0.3923  0.1013
  641TMC3    C3 9540   1.996   3.158   9.284 -0.7073 -0.9699 -0.6798
  641TMC3    C4 9541   1.772   3.285   9.190 -0.5755 -0.7292 -0.6315
  641TMC3    C5 9542   1.838   3.186   9.115  0.4072 -0.5949 -0.4261
  641TMC3    C6 9543   1.947   3.122   9.161 -0.2987 -0.1436 -0.3594
  641TMC3     C 9544   1.735   3.347   9.430  0.1937 -0.8156 -0.2956
  641TMC3     O 9545   1.781   3.389   9.534 -0.8555 -0.3474 -0.2343
  641TMC3     H 9546   1.960   3.259   9.473  0.9069  3.7451 -0.6720
  641TMC3    H1 9547   1.686   3.340   9.153 -0.9810 -1.0774 -0.1988
  641TMC3    H2 9548   2.004   3.064   9.089 -0.1241 -1.9433  1.2239
  641TMC3    C7 9549   1.765   3.140   8.999  0.1758 -0.4505  0.3452
  641TMC3    C8 9550   2.085   3.062   9.337  0.2307  0.4689 -0.1491
  641TMC3    O1 9551   1.665   3.203   8.967 -0.1222 -0.7891  0.0993
  641TMC3    O2 9552   2.096   2.961   9.271  0.3348  0.3253 -0.4514
  642TMC3    C1 9553   2.534   4.269  12.077  0.1189 -0.2290  0.2514
  642TMC3    C2 9554   2.566   4.271  12.217  0.0101  0.1768  0.0242
  642TMC3    C3 9555   2.605   4.149  12.267  0.2239  0.4762  0.2565
  642TMC3    C4 9556   2.532   4.155  11.997  0.0089  0.3918 -0.2472
  642TMC3    C5 9557   2.573   4.043  12.054 -0.0026 -0.6771  0.1735
  642TMC3    C6 9558   2.598   4.036  12.192 -0.3879 -0.0542 -0.0491
  642TMC3     C 9559   2.468   4.388  12.024 -0.5296  0.1119  0.3371
  642TMC3     O 9560   2.502   4.422  11.911 -0.0019  0.6339 -0.4263
  642TMC3     H 9561   2.567   4.368  12.264 -0.6607  0.9124 -1.4849
  642TMC3    H1 9562   2.512   4.165  11.891  0.0633  2.7260 -0.0476
  642TMC3    H2 9563   2.633   3.950  12.248 -0.5896  2.0157  3.2803
  642TMC3    C7 9564   2.544   3.921  11.985  0.2590  0.9854  0.0099
  642TMC3    C8 9565   2.653   4.139  12.404 -1.2139 -0.7554 -0.6235
  642TMC3    O1 9566   2.509   3.924  11.870  0.3618 -0.0963 -0.6030
  642TMC3    O2 9567   2.712   4.039  12.440 -0.4925  0.1816  0.1278
  643TMC3    C1 9568   1.231   3.523   0.059  0.4118  0.2857 -0.2210
  643TMC3    C2 9569   1.174   3.633   0.109 -0.3271 -0.4192  0.9666
  643TMC3    C3 9570   1.224   3.753   0.065 -0.5979  0.5031 -0.3568
  643TMC3    C4 9571   1.321   3.518  17.694 -0.6131  0.3186  1.1117
  643TMC3    C5 9572   1.359   3.640  17.646  0.2123  0.2333  0.5223
  643TMC3    C6 9573   1.316   3.762  17.698  0.5173  0.7643  0.1566
  643TMC3     C 9574   1.186   3.400   0.122  0.1171 -0.3735 -0.3907
  643TMC3     O 9575   1.174   3.292   0.064 -0.2402 -0.3813  0.4368
  643TMC3     H 9576   1.083   3.638   0.168 -0.1210  1.1383  1.1766
  643TMC3    H1 9577   1.365   3.426  17.655  2.8027  1.9374  1.1875
  643TMC3    H2 9578   1.342   3.850  17.641  0.4356  0.2671 -0.6385
  643TMC3    C7 9579   1.444   3.655  17.534  0.5178  0.2840  0.8945
  643TMC3    C8 9580   1.169   3.878   0.108 -0.0285 -0.2791 -0.1854
  643TMC3    O1 9581   1.541   3.733  17.544 -0.2729  0.2804 -0.3516
  643TMC3    O2 9582   1.063   3.876   0.171  0.4833 -0.5906 -0.0043
  644MPD2     C 9583   1.853   3.727   9.262 -0.3956  0.5241  0.2695
  644MPD2    C1 9584   1.807   3.649   9.157  0.1168  0.1992  0.3364
  644MPD2    C2 9585   1.677   3.608   9.145 -0.1375  0.1141 -0.2366
  644MPD2    C3 9586   1.595   3.644   9.249 -0.8382 -0.7617 -0.4481
  644MPD2    C4 9587   1.629   3.728   9.356 -0.0583 -0.0826 -0.0073
  644MPD2    C5 9588   1.764   3.775   9.356  0.0125  0.2066  0.4859
  644MPD2     H 9589   1.644   3.532   9.075 -1.4786 -0.6116  1.1649
  644MPD2    H1 9590   1.566   3.745   9.443 -0.2754  0.4722 -0.2717
  644MPD2    H2 9591   1.957   3.746   9.287 -0.5469  1.7439 -0.0441
  644MPD2    H3 9592   1.796   3.830   9.444  0.9156 -1.9626  1.5287
  644MPD2     N 9593   1.465   3.592   9.243  0.1355  1.0258  0.0796
  644MPD2    H5 9594   1.437   3.526   9.171  3.8273 -0.6364  0.1972
  644MPD2    N1 9595   1.910   3.611   9.065  0.4757  0.3632 -0.2332
  644MPD2    H7 9596   2.003   3.642   9.094  1.1871 -1.2961 -0.7329
  645TMC3    C1 9597   1.240   3.563   9.287  0.5850 -0.3710  0.1727
  645TMC3    C2 9598   1.138   3.573   9.375  0.8366  0.0096  0.4237
  645TMC3    C3 9599   1.030   3.506   9.348  0.5558  0.9658 -0.0074
  645TMC3    C4 9600   1.228   3.495   9.165  0.6544  0.6711  0.2749
  645TMC3    C5 9601   1.118   3.415   9.153  0.7744 -0.1624  0.4984
  645TMC3    C6 9602   1.011   3.428   9.242  0.4838  0.6730  0.0802
  645TMC3     C 9603   1.361   3.621   9.329 -0.4270  0.2223 -0.2402
  645TMC3     O 9604   1.341   3.709   9.410 -0.3068 -0.2296  0.1954
  645TMC3     H 9605   1.156   3.619   9.472 -0.5955  0.0010  0.6976
  645TMC3    H1 9606   1.300   3.510   9.085  0.1412 -0.0197 -0.3160
  645TMC3    H2 9607   0.913   3.381   9.235  0.4951  0.9475 -1.7850
  645TMC3    C7 9608   1.088   3.364   9.020  0.5832  0.1548  0.0660
  645TMC3    C8 9609   0.925   3.516   9.447 -0.2482  0.7912 -0.1294
  645TMC3    O1 9610   0.970   3.349   8.993 -0.4033 -0.2637  0.0613
  645TMC3    O2 9611   0.936   3.603   9.532  0.1856 -0.2873  0.2492
  646MPD2     C 9612   1.195   3.528  14.511  0.5643 -0.3469 -0.2320
  646MPD2    C1 9613   1.104   3.468  14.588 -0.1674 -0.5643 -0.1597
  646MPD2    C2 9614   0.964   3.498  14.578 -0.1199 -0.3606 -0.3511
  646MPD2    C3 9615   0.919   3.583  14.482 -0.6221  0.7492  0.2141
  646MPD2    C4 9616   1.016   3.643  14.398  0.4732  0.2934 -0.0551
  646MPD2    C5 9617   1.150   3.612  14.416 -0.4840  0.1474  0.0415
  646MPD2     H 9618   0.896   3.442  14.641  0.0489  2.8155  2.6257
  646MPD2    H1 9619   0.993   3.728  14.334  1.1333  0.2313 -0.3659
  646MPD2    H2 9620   1.302   3.517  14.523  0.9008  2.4544 -0.8524
  646MPD2    H3 9621   1.225   3.657  14.351  0.6176 -1.1410  0.4141
  646MPD2     N 9622   0.781   3.612  14.477  0.2751  0.4294  0.6352
  646MPD2    H5 9623   0.726   3.549  14.534 -0.1976  1.0328  0.8397
  646MPD2    N1 9624   1.159   3.381  14.685  0.6226 -0.5186 -0.3711
  646MPD2    H7 9625   1.259   3.366  14.673  0.9117  1.7191 -0.6963
  647TMC3    C1 9626   1.165   3.198  14.838  0.5589 -0.0500 -0.2845
  647TMC3    C2 9627   1.104   3.091  14.904  0.1427  0.6179  0.7179
  647TMC3    C3 9628   1.182   2.998  14.957  0.2621  0.4447 -0.4771
  647TMC3    C4 9629   1.301   3.225  14.860  0.1846 -0.2297  0.2081
  647TMC3    C5 9630   1.376   3.134  14.933  0.0111  0.5994  0.5304
  647TMC3    C6 9631   1.318   3.012  14.974 -0.5060  0.3324  0.1221
  647TMC3     C 9632   1.086   3.304  14.777  0.4812  0.3123 -0.1650
  647TMC3     O 9633   0.971   3.297  14.807  0.1687  0.2383  0.0475
  647TMC3     H 9634   0.996   3.088  14.907  0.1243  0.0424 -0.3609
  647TMC3    H1 9635   1.336   3.325  14.838 -1.2088  0.0914 -0.5453
  647TMC3    H2 9636   1.379   2.934  15.019 -0.6161 -0.2904 -0.8123
  647TMC3    C7 9637   1.516   3.151  14.963  0.2599 -0.4325 -0.2854
  647TMC3    C8 9638   1.123   2.878  15.018  0.4413 -0.5901  0.0655
  647TMC3    O1 9639   1.582   3.056  14.988 -0.1918 -0.1360  0.3334
  647TMC3    O2 9640   1.191   2.819  15.100  0.5122  0.2755  0.4990
  648TMC3    C1 9641   0.094   0.932  16.077 -0.0366  0.3681 -0.3899
  648TMC3    C2 9642   0.159   0.820  16.042 -0.5909 -0.2198  0.0715
  648TMC3    C3 9643   0.198   0.805  15.915 -0.3620 -0.4949  0.5288
  648TMC3    C4 9644   0.079   1.038  15.990 -0.1995 -0.3805 -0.0567
  648TMC3    C5 9645   0.128   1.025  15.864 -0.5570 -0.0138 -0.3600
  648TMC3    C6 9646   0.188   0.907  15.817  0.0751 -0.2393 -0.2881
  648TMC3     C 9647   0.062   0.966  16.215  0.0656 -0.1068  0.1705
  648TMC3     O 9648   0.025   1.081  16.237 -0.0513  0.3661  0.6034
  648TMC3     H 9649   0.176   0.737  16.111 -1.5968 -0.0297  0.5497
  648TMC3    H1 9650   0.046   1.137  16.023  2.6906  0.2141  1.0973
  648TMC3    H2 9651   0.217   0.901  15.712 -1.8035 -3.3740 -0.6312
  648TMC3    C7 9652   0.103   1.134  15.764 -0.1729  0.5681  0.5447
  648TMC3    C8 9653   0.232   0.662  15.873 -0.3711  0.0380 -0.3503
  648TMC3    O1 9654   0.189   1.142  15.676  0.2002 -0.0365  0.3681
  648TMC3    O2 9655   0.203   0.575  15.952  0.2729  1.0340  0.0063
  649TMC3    C1 9656   4.437   1.760  13.117 -0.2428  0.2782 -0.4535
  649TMC3    C2 9657   4.542   1.786  13.206  0.3009 -0.4714 -0.6346
  649TMC3    C3 9658   4.509   1.788  13.342 -0.3548  0.5694 -0.0225
  649TMC3    C4 9659   4.307   1.736  13.161  0.4257 -0.2312  0.6712
  649TMC3    C5 9660   4.286   1.731  13.298  0.2334  0.3603  0.1670
  649TMC3    C6 9661   4.381   1.766  13.389  0.4603 -0.6874 -0.2645
  649TMC3     C 9662   4.444   1.782  12.968 -0.5289 -0.2413  0.3025
  649TMC3     O 9663   4.344   1.751  12.899 -0.1828  1.2409 -0.1348
  649TMC3     H 9664   4.644   1.785  13.172  0.7547  0.9311  0.6846
  649TMC3    H1 9665   4.231   1.696  13.095 -1.4049  2.1889  1.3032
  649TMC3    H2 9666   4.368   1.773  13.497  0.7422 -0.8365 -0.2200
  649TMC3    C7 9667   4.151   1.702  13.343 -0.3195 -0.3191  0.2150
  649TMC3    C8 9668   4.621   1.781  13.438 -0.3073  0.0212 -1.2526
  649TMC3    O1 9669   4.057   1.733  13.267  0.0614  0.0904 -0.1346
  649TMC3    O2 9670   4.598   1.747  13.555  0.1978 -0.2987 -0.3154
  650TMC3    C1 9671   1.962   3.597  12.810  0.2052 -0.0070 -0.2279
  650TMC3    C2 9672   1.933   3.732  12.828  0.1145  0.3598 -0.3895
  650TMC3    C3 9673   1.844   3.791  12.741  0.5431 -0.2201 -0.0561
  650TMC3    C4 9674   1.897   3.528  12.703 -0.0207  0.1253  0.2268
  650TMC3    C5 9675   1.819   3.598  12.617  0.6589 -0.5136 -0.7413
  650TMC3    C6 9676   1.788   3.728  12.632 -0.2205  0.7354 -0.2713
  650TMC3     C 9677   2.056   3.527  12.894 -0.2103 -0.8659  0.5275
  650TMC3     O 9678   2.156   3.589  12.926  0.5218 -0.0235  0.5450
  650TMC3     H 9679   1.978   3.800  12.900 -2.1319  1.8336 -0.3624
  650TMC3    H1 9680   1.941   3.432  12.676  0.0407  0.2612 -0.1535
  650TMC3    H2 9681   1.718   3.776  12.564  2.0013  1.6858 -1.9093
  650TMC3    C7 9682   1.794   3.530  12.489 -0.0297  0.3327  0.4660
  650TMC3    C8 9683   1.802   3.932  12.746  0.1998 -0.5877 -0.6882
  650TMC3    O1 9684   1.802   3.405  12.498  0.4809 -0.1184  0.5510
  650TMC3    O2 9685   1.875   4.020  12.790 -0.5467 -0.3925  0.5222
  651MPD2     C 9686   0.938   0.411  10.553  0.1209 -0.7194 -0.0355
  651MPD2    C1 9687   0.895   0.536  10.589  0.0069 -0.3656  0.1358
  651MPD2    C2 9688   0.982   0.647  10.597  0.0510 -0.6630 -0.1112
  651MPD2    C3 9689   1.119   0.624  10.574  0.1368  0.4913 -0.2443
  651MPD2    C4 9690   1.165   0.495  10.545  0.2961 -0.0080 -0.4780
  651MPD2    C5 9691   1.071   0.395  10.528  0.7739  0.6054  0.9489
  651MPD2     H 9692   0.942   0.743  10.626  2.2064 -0.2047  1.3261
  651MPD2    H1 9693   1.265   0.471  10.511 -0.5602  0.0594 -2.9975
  651MPD2    H2 9694   0.872   0.327  10.534  0.4056 -0.8998 -0.2304
  651MPD2    H3 9695   1.113   0.298  10.502 -2.5538 -0.8444  0.9541
  651MPD2     N 9696   1.206   0.731  10.595 -0.9710 -0.2870 -1.0921
  651MPD2    H5 9697   1.172   0.820  10.630 -0.5709 -0.6843  0.3085
  651MPD2    N1 9698   0.762   0.567  10.620  0.5928  0.2815 -0.0164
  651MPD2    H7 9699   0.749   0.663  10.650 -1.8130  0.6519 -2.1687
  652TMC3    C1 9700   1.568   1.011  10.688  0.3557 -0.1890  0.9478
  652TMC3    C2 9701   1.507   0.884  10.689 -0.2229  0.9657  0.2465
  652TMC3    C3 9702   1.387   0.869  10.626 -0.9077 -0.4885  0.8275
  652TMC3    C4 9703   1.509   1.118  10.621  0.8429  0.0886  0.8561
  652TMC3    C5 9704   1.388   1.090  10.557  0.5072  0.2808 -0.6788
  652TMC3    C6 9705   1.323   0.968  10.566  0.2608  0.2970 -0.1265
  652TMC3     C 9706   1.704   1.031  10.741  0.3673  0.1765  0.7360
  652TMC3     O 9707   1.735   0.958  10.835 -0.3089  0.5721 -0.4936
  652TMC3     H 9708   1.554   0.791  10.719  0.5247  1.1898 -0.2193
  652TMC3    H1 9709   1.551   1.218  10.624 -0.2147  0.5938 -1.3700
  652TMC3    H2 9710   1.244   0.950  10.495  1.3557 -1.3104 -0.9370
  652TMC3    C7 9711   1.325   1.191  10.476  0.2890  0.3372 -0.0435
  652TMC3    C8 9712   1.340   0.735  10.594 -0.0714  0.2986 -0.4500
  652TMC3    O1 9713   1.202   1.182  10.466  0.3178 -0.3842  0.0148
  652TMC3    O2 9714   1.419   0.641  10.579 -0.1054 -0.4264  0.4145
  653MPD2     C 9715   3.975   0.700  17.674  1.0007  0.4142  0.0154
  653MPD2    C1 9716   3.908   0.798  17.611  0.5504  0.0991 -0.4592
  653MPD2    C2 9717   3.850   0.781  17.486 -0.1073 -0.6602  0.1700
  653MPD2    C3 9718   3.856   0.653  17.432  0.0669  0.0383 -1.0346
  653MPD2    C4 9719   3.917   0.549  17.500  0.5497  0.4306 -0.4411
  653MPD2    C5 9720   3.984   0.579  17.614  0.3296 -0.1162 -0.1309
  653MPD2     H 9721   3.797   0.857  17.432  0.3873 -1.0294 -0.8339
  653MPD2    H1 9722   3.923   0.447  17.462 -2.3870  0.6399 -1.5084
  653MPD2    H2 9723   4.043   0.713   0.023 -0.8270 -0.7189  1.6740
  653MPD2    H3 9724   4.029   0.503  17.677  0.8041  0.1847 -0.1076
  653MPD2     N 9725   3.794   0.625  17.300 -0.1116  0.6156 -0.2486
  653MPD2    H5 9726   3.764   0.712  17.257 -0.6288  0.0518 -1.0156
  653MPD2    N1 9727   3.908   0.925  17.673  0.1280 -0.4574  0.2203
  653MPD2    H7 9728   3.885   1.006  17.616  0.4164 -1.4285 -1.2900
  654TMC3    C1 9729   3.746   0.514  17.097 -0.5537  0.3298 -0.3273
  654TMC3    C2 9730   3.674   0.623  17.066  0.0603  0.7832 -0.0884
  654TMC3    C3 9731   3.667   0.665  16.938  0.3431  0.0709  0.2055
  654TMC3    C4 9732   3.809   0.438  17.001  0.1616  0.0079  0.4044
  654TMC3    C5 9733   3.796   0.480  16.869  0.8252 -0.1234  0.0911
  654TMC3    C6 9734   3.730   0.598  16.838  0.3767  0.1905  0.3806
  654TMC3     C 9735   3.776   0.498  17.233 -0.0526 -0.1482  0.5332
  654TMC3     O 9736   3.803   0.384  17.269  0.1175 -0.2660 -0.0628
  654TMC3     H 9737   3.602   0.660  17.138 -2.0440  0.1182 -1.8365
  654TMC3    H1 9738   3.854   0.345  17.032 -1.8433 -1.6194 -1.5715
  654TMC3    H2 9739   3.706   0.618  16.734  0.2972 -3.1529 -0.2588
  654TMC3    C7 9740   3.858   0.397  16.765  0.2813 -0.3294 -0.3168
  654TMC3    C8 9741   3.568   0.771  16.903  0.0358  0.5350 -0.5051
  654TMC3    O1 9742   3.890   0.452  16.664  0.1459  0.4344 -0.1145
  654TMC3    O2 9743   3.494   0.810  16.991 -0.0765  0.9010  0.8284
  655MPD2     C 9744   0.653   1.098  15.629 -0.5791  0.6976  0.0152
  655MPD2    C1 9745   0.555   1.152  15.552 -0.0405  0.7744  0.4697
  655MPD2    C2 9746   0.560   1.144  15.414  0.3196  0.3422 -0.0881
  655MPD2    C3 9747   0.665   1.082  15.348 -0.0825 -0.3695 -0.2545
  655MPD2    C4 9748   0.749   1.010  15.428  0.5239  1.5803 -0.1709
  655MPD2    C5 9749   0.744   1.018  15.564 -0.5266 -0.4475 -0.8758
  655MPD2     H 9750   0.482   1.186  15.352 -0.6206 -0.7363  0.3525
  655MPD2    H1 9751   0.839   0.958  15.399 -0.4733 -0.3415  0.2095
  655MPD2    H2 9752   0.660   1.117  15.736  1.5044 -1.4972  0.2534
  655MPD2    H3 9753   0.820   0.964  15.618 -1.5479 -1.4723 -0.4652
  655MPD2     N 9754   0.669   1.076  15.203 -0.2384 -0.7156  0.3071
  655MPD2    H5 9755   0.739   1.019  15.157 -1.1446 -0.3117 -1.5663
  655MPD2    N1 9756   0.458   1.241  15.609 -0.0174  0.2254 -0.7168
  655MPD2    H7 9757   0.402   1.290  15.540  1.2390  0.4900 -1.5442
  656TMC3    C1 9758   0.369   1.409  15.742 -0.0635 -0.0280 -0.2094
  656TMC3    C2 9759   0.302   1.453  15.849 -0.5710 -0.3152  0.9154
  656TMC3    C3 9760   0.270   1.583  15.863 -0.0259 -0.2071 -0.5934
  656TMC3    C4 9761   0.395   1.500  15.640 -0.3151 -0.1748 -0.5996
  656TMC3    C5 9762   0.346   1.628  15.650 -0.0994  0.3666  0.4600
  656TMC3    C6 9763   0.287   1.668  15.765  0.0594  0.4959 -0.1728
  656TMC3     C 9764   0.437   1.279  15.741 -0.2769  0.0207 -0.2818
  656TMC3     O 9765   0.485   1.234  15.845  0.0533 -0.6641  0.2720
  656TMC3     H 9766   0.306   1.390  15.937 -2.3942 -1.0174  0.4922
  656TMC3    H1 9767   0.430   1.466  15.543  0.8119 -2.1495  0.4908
  656TMC3    H2 9768   0.256   1.769  15.790 -1.1659  0.4112 -1.3193
  656TMC3    C7 9769   0.312   1.699  15.526  0.5150 -0.3042 -0.2025
  656TMC3    C8 9770   0.181   1.631  15.959  0.3245 -0.7109 -0.1055
  656TMC3    O1 9771   0.383   1.679  15.429 -0.3817 -0.1865 -0.0801
  656TMC3    O2 9772   0.175   1.747  15.995 -0.2003  0.6081  0.0025
  657TMC3    C1 9773   4.600   0.382  14.352  0.0214 -0.1291  0.8866
  657TMC3    C2 9774   4.481   0.413  14.418  0.6794 -0.5729  0.3158
  657TMC3    C3 9775   4.449   0.540  14.444  0.6430 -0.4212  0.1936
  657TMC3    C4 9776   4.675   0.477  14.290  0.2972 -0.2913 -0.0428
  657TMC3    C5 9777   4.632   0.608  14.312  0.1015  0.4548 -0.2998
  657TMC3    C6 9778   4.524   0.636  14.388 -0.1745 -0.4068 -0.2894
  657TMC3     C 9779   4.653   0.253  14.355  0.4533  0.8496  0.5895
  657TMC3     O 9780   4.572   0.163  14.351 -0.2387 -0.9093  0.1257
  657TMC3     H 9781   4.434   0.337  14.479  1.0959 -0.3747  0.8826
  657TMC3    H1 9782   0.020   0.443  14.224  0.9178  0.6709  0.2059
  657TMC3    H2 9783   4.509   0.739  14.418  0.3233 -0.2301 -0.6376
  657TMC3    C7 9784   0.005   0.699  14.298 -0.3559 -0.3559  0.9024
  657TMC3    C8 9785   4.381   0.575  14.564 -0.7839  0.0506  0.1228
  657TMC3    O1 9786   0.113   0.647  14.294  0.0321  0.0157 -0.0096
  657TMC3    O2 9787   4.296   0.663  14.551 -0.6108 -0.6172  0.6961
  658MPD2     C 9788   1.128   0.989  14.864 -0.5023 -0.1214 -0.7951
  658MPD2    C1 9789   1.033   0.930  14.788  1.0745  0.0028  0.4620
  658MPD2    C2 9790   1.059   0.903  14.657  0.2503 -0.1945  0.5857
  658MPD2    C3 9791   1.180   0.933  14.607 -0.3951 -0.2213 -0.5767
  658MPD2    C4 9792   1.280   0.981  14.685 -0.1115  1.0486 -0.1535
  658MPD2    C5 9793   1.250   1.023  14.815 -0.6812  0.6771 -0.4456
  658MPD2     H 9794   0.987   0.865  14.586 -0.7647  0.3984  1.2966
  658MPD2    H1 9795   1.384   1.001  14.662  0.5752 -1.5494  0.6971
  658MPD2    H2 9796   1.111   0.999  14.971  0.2904  1.1536 -0.7793
  658MPD2    H3 9797   1.326   1.059  14.883  0.3961  2.5786 -2.6931
  658MPD2     N 9798   1.200   0.914  14.467 -0.4894  0.1871  0.4504
  658MPD2    H5 9799   1.119   0.876  14.419 -0.3351  1.4196 -0.7816
  658MPD2    N1 9800   0.909   0.920  14.846  0.1757  0.3992 -0.0737
  658MPD2    H7 9801   0.904   0.925  14.947 -0.5988 -2.1481  0.0111
  659TMC3    C1 9802   0.677   0.932  14.862 -0.3342  0.0260  0.3230
  659TMC3    C2 9803   0.695   1.038  14.951  0.5922 -0.6176  0.8441
  659TMC3    C3 9804   0.586   1.111  14.988 -0.4548  0.4365  0.0223
  659TMC3    C4 9805   0.550   0.899  14.824 -0.2373 -0.4917  0.4326
  659TMC3    C5 9806   0.445   0.972  14.872  0.1260 -0.0702 -0.2840
  659TMC3    C6 9807   0.459   1.083  14.944 -0.1569  0.2004  0.3388
  659TMC3     C 9808   0.793   0.916  14.778  0.7085 -0.7833  0.8777
  659TMC3     O 9809   0.777   0.916  14.654  0.3621  0.0675  0.7899
  659TMC3     H 9810   0.790   1.070  14.992  0.9762  0.0958 -0.5877
  659TMC3    H1 9811   0.529   0.829  14.744 -1.2077  1.6495 -1.1772
  659TMC3    H2 9812   0.373   1.147  14.961  1.9594  2.5968  2.2081
  659TMC3    C7 9813   0.324   0.906  14.903 -0.1553 -0.8710 -0.9231
  659TMC3    C8 9814   0.592   1.159  15.118  0.1964 -0.2276 -0.1292
  659TMC3    O1 9815   0.236   0.966  14.962 -0.6120 -0.1453 -0.3424
  659TMC3    O2 9816   0.529   1.257  15.146  0.3574  0.5509 -0.6658
  660MPD2     C 9817   3.986   4.510  12.859 -0.3425  0.2336 -0.3083
  660MPD2    C1 9818   3.861   4.451  12.832 -0.4251 -0.6000  0.0769
  660MPD2    C2 9819   3.773   4.429  12.938  0.1704  0.1461 -0.2594
  660MPD2    C3 9820   3.815   4.444  13.069 -0.0799 -0.0885  0.2908
  660MPD2    C4 9821   3.938   4.499  13.099  0.2057  0.9640  0.2593
  660MPD2    C5 9822   4.022   4.536  12.991 -0.2094 -0.6474  0.2675
  660MPD2     H 9823   3.677   4.382  12.921  0.3606 -0.3665  0.0725
  660MPD2    H1 9824   3.968   4.517  13.202 -3.2088 -0.6950  1.5486
  660MPD2    H2 9825   4.060   4.525  12.780  1.1639 -1.0489  0.8507
  660MPD2    H3 9826   4.121   4.569  13.019 -0.1516 -2.7373  2.5647
  660MPD2     N 9827   3.724   4.419  13.180 -0.6755 -0.3952  0.0539
  660MPD2    H5 9828   3.772   4.406  13.268 -0.6874  1.2424  0.2921
  660MPD2    N1 9829   3.835   4.413  12.700  0.1001 -0.0801  0.2086
  660MPD2    H7 9830   3.905   4.441  12.633 -0.2567  2.1390  0.7711
  661TMC3    C1 9831   3.710   4.326  12.524  0.8041  0.1666 -0.0043
  661TMC3    C2 9832   3.741   4.440  12.453 -0.0925 -0.0177 -0.3993
  661TMC3    C3 9833   3.649   4.494  12.357  0.0361 -0.2189  0.4721
  661TMC3    C4 9834   3.609   4.249  12.483  0.1174  0.5518  0.1383
  661TMC3    C5 9835   3.541   4.285  12.368 -0.1892 -0.0789  0.0602
  661TMC3    C6 9836   3.556   4.414  12.313 -0.5317 -0.1949  0.1593
  661TMC3     C 9837   3.737   4.323  12.659 -0.9974 -0.4241 -0.6748
  661TMC3     O 9838   3.654   4.266  12.727 -0.6276  0.8096  0.1565
  661TMC3     H 9839   3.814   4.513  12.486  0.8313  0.1079 -2.7164
  661TMC3    H1 9840   3.577   4.163  12.540 -0.7555  0.6763 -0.1694
  661TMC3    H2 9841   3.489   4.447  12.235  0.9849  2.2554 -0.1098
  661TMC3    C7 9842   3.418   4.215  12.342 -0.6339 -0.8627  0.0656
  661TMC3    C8 9843   3.704   4.601  12.279 -0.5409 -0.9351  0.2881
  661TMC3    O1 9844   3.392   4.128  12.420  0.2051  0.2197  0.1627
  661TMC3    O2 9845   3.825   4.626  12.278  0.4717 -0.2880 -0.3592
  662MPD2     C 9846   3.699   4.331  16.904  0.7590 -0.7399  0.9235
  662MPD2    C1 9847   3.625   4.283  17.008 -0.1101  0.1975 -0.7901
  662MPD2    C2 9848   3.529   4.360  17.071 -0.1479  0.4610  0.1156
  662MPD2    C3 9849   3.491   4.480  17.015  0.1734 -0.4736  0.7543
  662MPD2    C4 9850   3.567   4.531  16.909 -0.0102  0.5806  0.3264
  662MPD2    C5 9851   3.664   4.453  16.857  0.3971  0.4290 -0.1395
  662MPD2     H 9852   3.482   4.317  17.158 -0.1154  0.3321  0.0696
  662MPD2    H1 9853   3.534   4.624  16.865 -0.6356  0.2565  0.1032
  662MPD2    H2 9854   3.762   4.264  16.847  0.3557 -1.1930  1.0072
  662MPD2    H3 9855   3.708   4.491  16.765  0.5525  0.5416 -0.0187
  662MPD2     N 9856   3.369   4.550  17.059  0.3164 -0.0034 -0.7732
  662MPD2    H5 9857   3.361   4.645  17.027 -2.6557  0.6507  1.8891
  662MPD2    N1 9858   3.631   4.152  17.051 -0.6207 -0.2635  0.0416
  662MPD2    H7 9859   3.569   4.128  17.129 -0.5958 -0.5545 -0.0306
  663TMC3    C1 9860   3.651   3.924  17.064  0.6056 -0.1641  0.6822
  663TMC3    C2 9861   3.538   3.925  17.133 -0.0419 -0.1556 -0.2181
  663TMC3    C3 9862   3.501   3.818  17.204  0.6734 -0.6821  0.2574
  663TMC3    C4 9863   3.736   3.822  17.053 -0.0242 -0.4034 -0.6052
  663TMC3    C5 9864   3.692   3.708  17.113  0.0007  0.6031  0.3476
  663TMC3    C6 9865   3.582   3.708  17.191 -0.5949 -0.6341 -0.0527
  663TMC3     C 9866   3.704   4.049  17.003 -0.4782  0.1367 -0.0423
  663TMC3     O 9867   3.814   4.054  16.955  0.2028 -0.3245  0.0782
  663TMC3     H 9868   3.463   4.001  17.116 -0.3767 -0.6520 -0.9407
  663TMC3    H1 9869   3.836   3.835  17.014  0.1284 -2.3754 -0.8554
  663TMC3    H2 9870   3.586   3.632  17.268  0.5542 -1.3109 -0.7811
  663TMC3    C7 9871   3.797   3.616  17.150 -1.0558 -0.2995  0.6922
  663TMC3    C8 9872   3.483   3.876  17.334  0.0149 -0.0420 -0.5074
  663TMC3    O1 9873   3.907   3.663  17.138 -0.1222  0.5146 -0.1595
  663TMC3    O2 9874   3.510   3.996  17.353  0.0713 -0.0093 -0.3852
  664MPD2     C 9875   1.366   2.692  17.662  0.0012 -0.2126 -0.5702
  664MPD2    C1 9876   1.496   2.705  17.704 -0.3813  0.3546 -0.5561
  664MPD2    C2 9877   1.532   2.651   0.091  0.4017 -0.8710  0.3058
  664MPD2    C3 9878   1.450   2.567   0.163 -0.1238 -0.5017 -0.1385
  664MPD2    C4 9879   1.329   2.536   0.101 -0.0040  0.2834  0.1801
  664MPD2    C5 9880   1.283   2.608  17.726 -0.5769 -0.5935 -0.0126
  664MPD2     H 9881   1.638   2.651   0.117  0.3922 -0.3281  0.3453
  664MPD2    H1 9882   1.264   2.467   0.154 -0.7009  1.2516  0.5836
  664MPD2    H2 9883   1.329   2.739  17.571  1.1577  0.7797 -0.5319
  664MPD2    H3 9884   1.179   2.603  17.696 -0.6818  0.3616  0.1841
  664MPD2     N 9885   1.490   2.521   0.288 -0.2790  0.4746  0.7669
  664MPD2    H5 9886   1.575   2.561   0.327  0.6048 -2.5600  2.0367
  664MPD2    N1 9887   1.594   2.768  17.621  0.1512 -0.2629  0.1541
  664MPD2    H7 9888   1.689   2.773  17.656  0.1448 -3.4322  0.6307
  665TMC3    C1 9889   1.465   2.409   0.504 -0.1142  0.4010 -0.0375
  665TMC3    C2 9890   1.386   2.328   0.583 -0.3640  0.5639  0.0948
  665TMC3    C3 9891   1.436   2.305   0.711  0.6164 -0.0002 -0.4352
  665TMC3    C4 9892   1.571   2.480   0.546 -0.0127  0.0962  0.3935
  665TMC3    C5 9893   1.616   2.459   0.674 -0.1774  0.3770  0.5148
  665TMC3    C6 9894   1.552   2.365   0.754  0.0164 -0.1478  0.6540
  665TMC3     C 9895   1.410   2.442   0.375 -0.4859  0.1761 -0.9585
  665TMC3     O 9896   1.310   2.380   0.337 -0.5972  0.2567 -0.0656
  665TMC3     H 9897   1.289   2.294   0.547  0.1800  0.3156 -1.1050
  665TMC3    H1 9898   1.638   2.531   0.478 -0.7913  0.1373 -0.3457
  665TMC3    H2 9899   1.580   2.348   0.857  1.3460 -0.0019  0.3175
  665TMC3    C7 9900   1.756   2.480   0.705 -0.0940 -0.9434  0.5796
  665TMC3    C8 9901   1.362   2.207   0.785  0.9900  0.0966 -0.6269
  665TMC3    O1 9902   1.838   2.481   0.612  0.8161  0.4311  0.4512
  665TMC3    O2 9903   1.378   2.208   0.904 -0.8152 -0.6123  0.4373
  666TMC3    C1 9904   1.376   2.748   9.569 -0.7310  0.0515  0.6511
  666TMC3    C2 9905   1.471   2.665   9.621  0.4956 -0.0463  0.5730
  666TMC3    C3 9906   1.565   2.714   9.704  0.7187  0.6998  0.2826
  666TMC3    C4 9907   1.363   2.879   9.607 -0.2919 -0.7138  0.0310
  666TMC3    C5 9908   1.456   2.928   9.689 -0.0176  0.5839  0.0582
  666TMC3    C6 9909   1.557   2.850   9.737  0.2388 -0.7793  0.4198
  666TMC3     C 9910   1.269   2.695   9.488 -0.8282  0.2217 -0.2963
  666TMC3     O 9911   1.218   2.768   9.408 -0.2870  0.1198  0.0492
  666TMC3     H 9912   1.479   2.561   9.591 -0.4308 -0.6824  2.5064
  666TMC3    H1 9913   1.277   2.939   9.578 -1.1752 -1.7037  0.6283
  666TMC3    H2 9914   1.610   2.883   9.826  0.1445  3.3898 -1.0935
  666TMC3    C7 9915   1.413   3.054   9.753 -0.2371  0.0157 -0.5319
  666TMC3    C8 9916   1.649   2.620   9.773 -0.0043  0.0606 -0.2123
  666TMC3    O1 9917   1.294   3.063   9.785 -0.5634  0.3109 -0.2687
  666TMC3    O2 9918   1.606   2.507   9.783 -0.9574 -0.8516  0.1376
  667MPD2     C 9919   3.338   2.414  14.803 -0.2628  0.2454 -0.3131
  667MPD2    C1 9920   3.269   2.435  14.922  0.6045  0.7202  0.0463
  667MPD2    C2 9921   3.192   2.329  14.966 -0.1062 -0.1149  0.3110
  667MPD2    C3 9922   3.162   2.222  14.887  0.1705 -0.2653  0.3247
  667MPD2    C4 9923   3.226   2.209  14.766 -0.0172 -0.3645 -0.7590
  667MPD2    C5 9924   3.313   2.303  14.727  0.9630  0.2231 -0.1102
  667MPD2     H 9925   3.142   2.355  15.058 -0.1384  1.2401 -0.0973
  667MPD2    H1 9926   3.228   2.115  14.712  4.1123 -0.6710 -0.0340
  667MPD2    H2 9927   3.396   2.494  14.758  0.2277 -1.8456 -3.3856
  667MPD2    H3 9928   3.365   2.284  14.634  2.4337  0.1272  0.7437
  667MPD2     N 9929   3.063   2.132  14.911  0.0817 -0.5896  0.3505
  667MPD2    H5 9930   3.047   2.064  14.837  2.6292 -0.0909 -0.6550
  667MPD2    N1 9931   3.274   2.548  15.013 -0.0685  0.3639  0.2942
  667MPD2    H7 9932   3.223   2.549  15.101 -1.8938  1.4578 -0.7930
  668TMC3    C1 9933   3.325   2.771  15.070  0.1119 -0.6262 -0.3572
  668TMC3    C2 9934   3.370   2.892  15.025 -0.0444 -0.1865 -0.1453
  668TMC3    C3 9935   3.382   2.994  15.114  0.1067 -0.2289 -0.5360
  668TMC3    C4 9936   3.313   2.746  15.206 -0.3312 -0.1616  0.1348
  668TMC3    C5 9937   3.333   2.853  15.293  0.1031  0.2179 -0.6087
  668TMC3    C6 9938   3.364   2.980  15.247 -0.3810  0.3982 -0.2926
  668TMC3     C 9939   3.332   2.663  14.973 -0.1468  0.3331  0.8563
  668TMC3     O 9940   3.379   2.686  14.862  0.5048 -0.1506  0.7993
  668TMC3     H 9941   3.369   2.909  14.918 -0.1057  0.1283 -0.0953
  668TMC3    H1 9942   3.308   2.644  15.243  5.0209 -0.5637 -0.3342
  668TMC3    H2 9943   3.388   3.060  15.316  0.1823 -1.4196  1.6304
  668TMC3    C7 9944   3.328   2.837  15.434  0.3055  0.3957  0.1796
  668TMC3    C8 9945   3.421   3.120  15.062 -0.8177 -0.1648 -0.0696
  668TMC3    O1 9946   3.386   2.906  15.513 -0.6365 -1.0747 -0.2220
  668TMC3    O2 9947   3.389   3.218  15.132  0.2438  1.1462  0.0479
  669TMC3    C1 9948   0.800   2.432  14.721 -0.0501  0.1866  0.2560
  669TMC3    C2 9949   0.720   2.433  14.614 -0.2476 -0.2994 -0.6472
  669TMC3    C3 9950   0.759   2.509  14.503  0.1526  0.7897 -0.8908
  669TMC3    C4 9951   0.907   2.521  14.733  0.5814 -0.7075 -0.2681
  669TMC3    C5 9952   0.937   2.608  14.630  0.0506  0.0732 -0.1245
  669TMC3    C6 9953   0.868   2.599  14.508  0.2712 -0.2419 -0.3359
  669TMC3     C 9954   0.737   2.369  14.834 -0.4837  0.7410 -0.4139
  669TMC3     O 9955   0.617   2.349  14.840 -0.0085 -0.4265 -0.5270
  669TMC3     H 9956   0.642   2.358  14.611 -0.9867  0.3929  1.0497
  669TMC3    H1 9957   0.944   2.545  14.832  0.1801 -0.2851 -0.2165
  669TMC3    H2 9958   0.889   2.662  14.423 -0.5018  1.4180  0.7151
  669TMC3    C7 9959   1.054   2.695  14.640  0.1966 -0.3047  0.5361
  669TMC3    C8 9960   0.650   2.509  14.405  0.6671  0.0210 -0.5347
  669TMC3    O1 9961   1.083   2.778  14.555 -0.2252 -0.0100  0.3720
  669TMC3    O2 9962   0.530   2.489  14.435 -0.2955  0.1747 -0.0283
  670MPD2     C 9963   3.206   0.061  13.311  0.3430 -0.2362  0.0880
  670MPD2    C1 9964   3.340   0.030  13.318  0.1055 -0.5777  0.9205
  670MPD2    C2 9965   3.391   4.723  13.442 -0.0340  0.5201  0.6893
  670MPD2    C3 9966   3.314   4.708  13.557 -0.0443 -0.3621  0.6510
  670MPD2    C4 9967   3.177   0.011  13.539  0.3774  0.9580 -0.0029
  670MPD2    C5 9968   3.121   0.043  13.416  0.1530 -0.4692 -0.4179
  670MPD2     H 9969   3.490   4.681  13.451  0.7122  2.2997  0.8117
  670MPD2    H1 9970   3.105   4.733  13.620 -1.6349  0.9504 -1.7983
  670MPD2    H2 9971   3.167   0.102  13.219  0.2397 -2.5124 -0.8884
  670MPD2    H3 9972   3.016   0.059  13.395  0.5162 -0.4236 -2.1484
  670MPD2     N 9973   3.370   4.658  13.681  0.9486  0.2258 -0.2110
  670MPD2    H5 9974   3.465   4.623  13.678  1.8254  2.5749 -0.2369
  670MPD2    N1 9975   3.429   0.038  13.212 -0.0327  0.4539 -0.5720
  670MPD2    H7 9976   3.528   0.026  13.234  0.0387  1.1262 -0.5051
  671TMC3    C1 9977   3.402   4.644  13.912 -0.5865  0.2030 -0.5469
  671TMC3    C2 9978   3.537   4.618  13.893 -0.2343 -0.0757  0.4925
  671TMC3    C3 9979   3.597   4.549  13.997  0.0730  1.0399  0.8493
  671TMC3    C4 9980   3.327   4.609  14.027 -0.4127 -0.0629  0.0113
  671TMC3    C5 9981   3.391   4.521  14.112  0.1958  0.3928 -0.2226
  671TMC3    C6 9982   3.530   4.494  14.105  0.0934 -0.2877 -0.3771
  671TMC3     C 9983   3.319   4.697  13.803  0.2091  0.0806 -0.3360
  671TMC3     O 9984   3.219   0.027  13.831 -0.1681  0.0220  0.5226
  671TMC3     H 9985   3.588   4.675  13.816 -1.4963 -0.1366 -0.3969
  671TMC3    H1 9986   3.220   4.615  14.040 -0.2709  2.4740 -0.0776
  671TMC3    H2 9987   3.570   4.418  14.170 -1.0301 -1.4826 -1.0749
  671TMC3    C7 9988   3.311   4.429  14.186  0.0265  0.9479  0.2093
  671TMC3    C8 9989   3.742   4.559  14.008  0.0149 -0.1410  0.1130
  671TMC3    O1 9990   3.359   4.317  14.200 -0.2132  0.3392  0.6171
  671TMC3    O2 9991   3.796   4.639  13.935  0.3684 -0.0097  0.0011
  672MPD2     C 9992   3.928   0.519   0.798 -0.3576  0.0672  0.4448
  672MPD2    C1 9993   4.014   0.413   0.772  0.3592 -0.0979  1.1662
  672MPD2    C2 9994   4.143   0.443   0.801 -0.0894 -0.4732  0.5389
  672MPD2    C3 9995   4.193   0.569   0.833 -0.0005  0.5652  0.4449
  672MPD2    C4 9996   4.098   0.667   0.857 -0.0234 -0.3409 -0.7410
  672MPD2    C5 9997   3.969   0.638   0.843  0.5036  0.6158  0.8670
  672MPD2     H 9998   4.212   0.359   0.796  0.1800 -0.2000 -0.4471
  672MPD2    H1 9999   4.125   0.767   0.889 -1.1280  0.2851 -1.7440
  672MPD2    H210000   3.820   0.520   0.791 -0.4393 -1.0918  1.5035
  672MPD2    H310001   3.893   0.712   0.862 -1.4267 -0.5380 -2.2157
  672MPD2     N10002   4.324   0.596   0.871 -0.6372 -0.2408  0.2212
  672MPD2    H510003   4.338   0.691   0.905  1.2989  0.5483 -2.8550
  672MPD2    N110004   3.973   0.288   0.714 -0.0635 -0.3080 -0.4384
  672MPD2    H710005   4.051   0.224   0.701  0.1349 -0.1929  0.2022
  673TMC3    C110006   3.832   0.132   0.609 -0.1482 -0.1144 -0.0894
  673TMC3    C210007   3.942   0.052   0.576  0.0018 -0.1561 -0.4602
  673TMC3    C310008   3.925   4.701   0.470 -0.7673  0.5856  0.2100
  673TMC3    C410009   3.722   0.129   0.537  0.0606 -0.0689  0.0908
  673TMC3    C510010   3.710   0.045   0.427 -0.5086 -0.5512  0.9466
  673TMC3    C610011   3.815   4.701   0.391 -0.7321 -0.4625  0.0897
  673TMC3     C10012   3.847   0.253   0.681 -0.1960  0.1348  0.7015
  673TMC3     O10013   3.750   0.324   0.686  0.1926  0.0020  0.1727
  673TMC3     H10014   4.039   0.060   0.623 -1.0262  1.4077  1.3653
  673TMC3    H110015   3.633   0.182   0.570  1.1462  2.7748 -1.5824
  673TMC3    H210016   3.804   4.647   0.298 -1.2634  1.6243 -1.0556
  673TMC3    C710017   3.608   0.064   0.327 -0.1449  0.0329  0.4022
  673TMC3    C810018   4.016   4.591   0.435 -0.1684  0.0767 -0.0215
  673TMC3    O110019   3.574   4.707   0.252 -0.3384  0.0986 -0.4660
  673TMC3    O210020   4.000   4.530   0.330 -0.3614 -0.2596  0.0855
  674MPD2     C10021   3.492   0.827  17.472  0.0082 -0.5209 -0.5156
  674MPD2    C110022   3.434   0.705  17.472 -0.7968  0.2250  0.1615
  674MPD2    C210023   3.293   0.694  17.498 -0.3778 -0.0369 -0.0787
  674MPD2    C310024   3.221   0.798  17.555 -0.1530  0.2022 -0.2270
  674MPD2    C410025   3.290   0.920  17.550  0.4460  0.1857  0.2441
  674MPD2    C510026   3.412   0.929  17.498  0.2479 -0.4652 -0.2744
  674MPD2     H10027   3.240   0.599  17.502 -0.0954 -0.1864  0.1756
  674MPD2    H110028   3.247   1.015  17.582  0.4812 -0.2454  1.5544
  674MPD2    H210029   3.599   0.839  17.454  0.2772 -0.7160  0.9340
  674MPD2    H310030   3.442   1.028  17.468 -0.5844 -0.8745 -2.4741
  674MPD2     N10031   3.087   0.776  17.602  0.1884  0.0009  0.4040
  674MPD2    H510032   3.054   0.681  17.593 -1.7130  0.4305  2.9149
  674MPD2    N110033   3.521   0.597  17.466 -0.3091  0.1436 -0.2152
  674MPD2    H710034   3.620   0.614  17.475 -0.3547  0.4426 -0.2922
  675TMC3    C110035   3.569   0.358  17.482 -0.3579  0.6391 -0.6427
  675TMC3    C210036   3.503   0.238  17.463 -0.0232 -0.4777  0.5254
  675TMC3    C310037   3.527   0.143  17.549  0.9720  0.6775 -0.0593
  675TMC3    C410038   3.653   0.380  17.590 -0.3783  0.3167 -0.5228
  675TMC3    C510039   3.664   0.275  17.672 -0.8073 -0.6102  0.3411
  675TMC3    C610040   3.607   0.152  17.658  0.3084 -0.1615 -0.0911
  675TMC3     C10041   3.478   0.470  17.434  0.1307 -0.5449 -0.5930
  675TMC3     O10042   3.373   0.428  17.390 -0.6349  0.5587 -0.4831
  675TMC3     H10043   3.441   0.217  17.377 -1.0237 -1.1530  1.4160
  675TMC3    H110044   3.696   0.476  17.613  0.2635 -0.2135  0.4782
  675TMC3    H210045   3.632   0.073  17.727 -0.7100 -0.3481  0.0676
  675TMC3    C710046   3.773   0.272   0.027 -0.1718 -0.0866 -0.2437
  675TMC3    C810047   3.444   0.028  17.538 -0.0955 -0.6261 -0.6145
  675TMC3    O110048   3.817   0.163   0.053  0.1980 -0.2949 -0.3060
  675TMC3    O210049   3.425   4.723  17.424 -0.6614  0.1450 -0.4098
  676MPD2     C10050   1.925   3.548  10.913 -0.5584 -0.4414 -0.0003
  676MPD2    C110051   1.859   3.453  10.999 -1.2596  0.2259  0.7545
  676MPD2    C210052   1.865   3.320  10.960  0.3474 -0.4188  0.3728
  676MPD2    C310053   1.934   3.282  10.847 -0.5176 -0.8363  0.7351
  676MPD2    C410054   1.991   3.378  10.766  0.9774  0.2983  0.1308
  676MPD2    C510055   1.985   3.513  10.798  0.0510 -0.3175  0.5783
  676MPD2     H10056   1.808   3.251  11.022 -0.0818 -0.4125 -0.0226
  676MPD2    H110057   2.054   3.360  10.680 -2.2013 -0.3998 -2.0829
  676MPD2    H210058   1.921   3.653  10.942  0.8605 -0.2346 -0.5811
  676MPD2    H310059   2.036   3.582  10.731 -0.7784  1.6339  1.9535
  676MPD2     N10060   1.951   3.144  10.819 -0.4358 -1.3288  0.1748
  676MPD2    H510061   1.997   3.114  10.734 -0.2905 -0.2865 -0.1194
  676MPD2    N110062   1.793   3.499  11.116  0.1828  0.4451  0.5539
  676MPD2    H710063   1.760   3.421  11.172 -1.0638  0.2009 -0.5132
  677TMC3    C110064   1.740   3.623  11.308 -0.0136 -0.7615 -0.3399
  677TMC3    C210065   1.671   3.513  11.359 -0.3376 -0.4077 -0.4577
  677TMC3    C310066   1.663   3.499  11.494 -0.2909 -0.6675 -0.0352
  677TMC3    C410067   1.794   3.715  11.392  0.4007 -0.4221 -0.1771
  677TMC3    C510068   1.765   3.704  11.528  0.0032 -0.1909 -0.5527
  677TMC3    C610069   1.712   3.588  11.580 -0.4691  0.1210  0.0901
  677TMC3     C10070   1.786   3.627  11.167  0.2434 -0.7536 -0.0250
  677TMC3     O10071   1.842   3.729  11.131  0.5270 -0.1557 -0.0243
  677TMC3     H10072   1.612   3.446  11.298 -0.8165 -0.8661  0.5058
  677TMC3    H110073   1.850   3.801  11.358 -0.8676  0.1844 -0.7300
  677TMC3    H210074   1.706   3.570  11.686 -0.7448  0.7768  0.1900
  677TMC3    C710075   1.801   3.803  11.626 -0.2673 -0.1756  0.2629
  677TMC3    C810076   1.564   3.407  11.545 -0.4010 -0.0649  0.2439
  677TMC3    O110077   1.774   3.795  11.745  0.3155 -0.0598  0.1264
  677TMC3    O210078   1.457   3.438  11.502  0.1702 -0.1683 -0.7920
  678MPD2     C10079   3.404   2.830   1.456 -0.6872  0.0278  0.6722
  678MPD2    C110080   3.369   2.847   1.319 -0.0049  0.1972 -0.0102
  678MPD2    C210081   3.240   2.897   1.295 -0.4517 -0.8138 -0.3884
  678MPD2    C310082   3.152   2.920   1.398  0.1156  0.1759 -0.1564
  678MPD2    C410083   3.194   2.909   1.528  0.5760  0.4761  0.8082
  678MPD2    C510084   3.321   2.866   1.559  0.2068 -0.1537 -0.5617
  678MPD2     H10085   3.199   2.900   1.195 -0.7412  2.0820 -0.1848
  678MPD2    H110086   3.136   2.931   1.617  2.1918  1.7488  1.5259
  678MPD2    H210087   3.505   2.797   1.480 -0.4117  1.3084  1.2764
  678MPD2    H310088   3.363   2.867   1.659 -1.7027 -0.9175  0.2429
  678MPD2     N10089   3.023   2.964   1.371 -0.1334 -0.4545 -0.1662
  678MPD2    H510090   2.993   2.968   1.274  0.4059 -1.2468 -0.3669
  678MPD2    N110091   3.455   2.821   1.205 -0.0097 -0.0431  0.2424
  678MPD2    H710092   3.417   2.853   1.116  0.6211 -2.1830 -0.8172
  679TMC3    C110093   3.835   2.674   0.973 -0.0629  0.0324 -0.5679
  679TMC3    C210094   3.768   2.693   1.093 -0.5968  0.5130  0.8527
  679TMC3    C310095   3.659   2.775   1.089  0.5183 -0.5761 -0.3449
  679TMC3    C410096   3.789   2.720   0.851 -0.0986  0.3040  0.0257
  679TMC3    C510097   3.687   2.808   0.858 -0.3213 -0.7784 -0.2669
  679TMC3    C610098   3.620   2.841   0.981  0.7744  0.2686 -0.3099
  679TMC3     C10099   3.965   2.607   0.966  0.6868 -0.0839  0.0526
  679TMC3     O10100   4.032   2.625   0.867  0.7813 -0.1837  0.2684
  679TMC3     H10101   3.797   2.641   1.184  2.7094 -1.5348 -1.3419
  679TMC3    H110102   3.828   2.691   0.755  0.6802  1.3824  0.0153
  679TMC3    H210103   3.544   2.918   0.990  1.2197  0.8315 -1.3781
  679TMC3    C710104   3.648   2.889   0.746 -1.0019 -0.3048 -0.5946
  679TMC3    C810105   3.586   2.782   1.217 -0.1059 -0.6004  0.6976
  679TMC3    O110106   3.545   2.955   0.756 -0.0421  0.1960 -0.4678
  679TMC3    O210107   3.645   2.730   1.310 -0.0020  0.2436 -0.2457
  680MPD2     C10108   3.182   2.381  13.584 -0.1825 -0.5478  0.1686
  680MPD2    C110109   3.276   2.304  13.640 -0.5599 -0.0811 -0.9399
  680MPD2    C210110   3.356   2.355  13.743 -0.2898 -0.4933  0.2949
  680MPD2    C310111   3.336   2.483  13.793 -0.7963  0.1251  0.0170
  680MPD2    C410112   3.240   2.554  13.736  0.0885 -0.4465 -0.2053
  680MPD2    C510113   3.165   2.507  13.635 -0.3113 -0.1989 -0.2960
  680MPD2     H10114   3.435   2.294  13.786 -0.0815 -2.4389 -2.8726
  680MPD2    H110115   3.223   2.655  13.769 -1.7369 -0.9925  0.5366
  680MPD2    H210116   3.122   2.341  13.503  0.3168 -0.5615 -0.1917
  680MPD2    H310117   3.080   2.567  13.603 -0.5273  1.1910  2.8622
  680MPD2     N10118   3.412   2.542  13.904  0.5332 -0.1717 -0.6169
  680MPD2    H510119   3.377   2.629  13.943 -0.4117 -0.7266 -0.2265
  680MPD2    N110120   3.289   2.170  13.593  0.3408 -0.0026  0.0773
  680MPD2    H710121   3.224   2.128  13.528  1.3451 -1.5541  0.0611
  681TMC3    C110122   3.367   1.955  13.579  0.4482  0.9649 -0.1220
  681TMC3    C210123   3.235   1.912  13.596 -0.0170 -0.2712  0.5760
  681TMC3    C310124   3.219   1.786  13.640  0.4843 -0.1054 -0.0796
  681TMC3    C410125   3.479   1.871  13.579  0.4803  0.2279  0.0973
  681TMC3    C510126   3.461   1.744  13.612  0.4013 -0.2088  0.3640
  681TMC3    C610127   3.333   1.708  13.659 -0.0608  0.8195  0.0545
  681TMC3     C10128   3.387   2.087  13.625  1.1173 -0.0897 -0.5611
  681TMC3     O10129   3.493   2.106  13.685  0.1745 -0.5289 -0.2632
  681TMC3     H10130   3.147   1.974  13.580 -0.5776 -1.0916  0.4453
  681TMC3    H110131   3.578   1.913  13.571  1.1424 -1.3404  0.2333
  681TMC3    H210132   3.310   1.605  13.684 -2.6219  1.1821 -0.8493
  681TMC3    C710133   3.563   1.654  13.649  0.4633  0.5993 -0.8040
  681TMC3    C810134   3.142   1.787  13.764 -0.2482  0.3286 -0.6879
  681TMC3    O110135   3.530   1.566  13.726 -0.3410  0.1384 -0.3796
  681TMC3    O210136   3.022   1.808  13.747 -0.2717 -0.5084  0.1508
  682MPD2     C10137   1.386   3.640  10.966  0.0372 -0.2411  0.3843
  682MPD2    C110138   1.287   3.544  10.950  0.2990  0.7923  0.4529
  682MPD2    C210139   1.243   3.468  11.059 -0.1808  0.0390 -0.2395
  682MPD2    C310140   1.289   3.494  11.188 -0.0145 -0.0471 -0.1932
  682MPD2    C410141   1.384   3.601  11.205 -0.1277  0.4077 -0.2679
  682MPD2    C510142   1.437   3.662  11.094 -0.7957  0.3638  0.3109
  682MPD2     H10143   1.189   3.375  11.041 -2.4950  0.9800  1.7185
  682MPD2    H110144   1.438   3.625  11.296 -0.0237 -1.3148  0.1230
  682MPD2    H210145   1.438   3.696  10.889  1.5894 -1.0237  0.8606
  682MPD2    H310146   1.516   3.737  11.102  1.0104 -1.8418  3.2808
  682MPD2     N10147   1.259   3.431  11.302 -0.1241  0.0241  0.1989
  682MPD2    H510148   1.300   3.458  11.391  3.7306 -0.4452 -1.3865
  682MPD2    N110149   1.234   3.503  10.823  0.2000 -0.2035  0.3005
  682MPD2    H710150   1.166   3.427  10.825 -0.0954  0.0481 -0.2171
  683TMC3    C110151   1.037   3.368  11.644  0.6163  0.4808  0.2555
  683TMC3    C210152   0.923   3.288  11.641 -0.3036  0.0584  0.2077
  683TMC3    C310153   0.922   3.207  11.530 -0.1192  0.5340 -0.4120
  683TMC3    C410154   1.138   3.376  11.551  0.2989  0.0028  0.8312
  683TMC3    C510155   1.126   3.290  11.442  0.3866 -0.0174  0.2516
  683TMC3    C610156   1.024   3.203  11.435 -0.0629  0.1452  0.1388
  683TMC3     C10157   1.056   3.435  11.769  0.5068  0.7574 -0.7295
  683TMC3     O10158   1.122   3.540  11.768 -0.6898 -0.1737 -0.5025
  683TMC3     H10159   0.844   3.277  11.714  0.0785 -0.1898  0.5860
  683TMC3    H110160   1.206   3.460  11.551 -0.6132  0.7253  1.8748
  683TMC3    H210161   1.012   3.130  11.355 -1.8006  0.1810  0.3762
  683TMC3    C710162   1.167   3.326  11.306  0.5744 -0.7812  0.1939
  683TMC3    C810163   0.792   3.146  11.504 -0.2233 -0.2052 -0.2356
  683TMC3    O110164   1.093   3.285  11.219  0.1492 -0.2386  0.1782
  683TMC3    O210165   0.695   3.220  11.506  0.1803  0.2019  0.6203
  684MPD2     C10166   3.161   3.965  16.996 -0.0995  0.2899 -0.0560
  684MPD2    C110167   3.149   3.919  16.867  0.3570 -0.2236 -0.5461
  684MPD2    C210168   3.180   3.996  16.759  0.0156  0.2571 -0.1897
  684MPD2    C310169   3.240   4.117  16.784 -0.1193  0.6791  0.2184
  684MPD2    C410170   3.249   4.165  16.915  0.1534 -0.5151 -0.3230
  684MPD2    C510171   3.209   4.091  17.022 -0.1021 -0.8415  0.2943
  684MPD2     H10172   3.180   3.958  16.657  0.3774  1.5770 -0.6826
  684MPD2    H110173   3.302   4.257  16.937  0.9722 -0.5517 -2.1607
  684MPD2    H210174   3.123   3.910  17.081 -0.5576  0.4865 -0.1319
  684MPD2    H310175   3.222   4.129  17.123 -2.1468 -0.5977  0.4656
  684MPD2     N10176   3.303   4.199  16.683 -0.3763 -0.3800  0.4945
  684MPD2    H510177   3.376   4.262  16.714 -0.4166  1.0470 -2.4124
  684MPD2    N110178   3.124   3.783  16.839 -0.1247  0.3584 -0.1181
  684MPD2    H710179   3.132   3.756  16.741 -0.9458 -0.8990  0.1602
  685TMC3    C110180   3.162   3.564  16.848 -0.4730 -0.1874  0.2751
  685TMC3    C210181   3.080   3.533  16.744 -0.1474 -0.4986  0.1706
  685TMC3    C310182   3.113   3.429  16.665 -0.1209  0.2144 -0.2010
  685TMC3    C410183   3.286   3.505  16.871  0.1914 -1.1766  0.4410
  685TMC3    C510184   3.316   3.400  16.786  0.1227 -0.3131 -0.1452
  685TMC3    C610185   3.231   3.359  16.680  0.2077  0.5028  0.1497
  685TMC3     C10186   3.135   3.683  16.925  0.2669 -0.4989  0.0153
  685TMC3     O10187   3.150   3.678  17.045  0.4562  0.0209 -0.1835
  685TMC3     H10188   2.981   3.577  16.738 -0.1243 -0.7193 -1.8935
  685TMC3    H110189   3.353   3.526  16.953 -0.4015  0.9849  0.3748
  685TMC3    H210190   3.276   3.288  16.612 -1.0459 -0.0861 -0.0441
  685TMC3    C710191   3.462   3.373  16.762 -0.3860 -0.4832  0.2291
  685TMC3    C810192   3.026   3.413  16.553  0.3759  0.4271 -0.5796
  685TMC3    O110193   3.490   3.254  16.780 -0.5780  0.4938  0.8857
  685TMC3    O210194   2.948   3.505  16.527  0.0587  0.0979 -0.5383
  686MPD2     C10195   0.372   3.147  15.418  0.2078  0.4048 -0.2568
  686MPD2    C110196   0.423   3.050  15.501  0.0465 -0.0789 -0.2717
  686MPD2    C210197   0.553   3.059  15.549 -0.2599  0.5043 -0.1516
  686MPD2    C310198   0.628   3.173  15.519 -0.0129 -0.5415  0.7730
  686MPD2    C410199   0.583   3.260  15.427 -0.2548  0.0629 -1.0657
  686MPD2    C510200   0.455   3.246  15.381 -0.0276  0.3097  0.3174
  686MPD2     H10201   0.596   2.971  15.595  2.0820  1.3134 -0.7763
  686MPD2    H110202   0.645   3.344  15.394 -0.4965  0.1479 -1.3030
  686MPD2    H210203   0.276   3.140  15.368 -1.8603 -1.9718  4.0640
  686MPD2    H310204   0.425   3.317  15.305  1.0040  0.2275 -0.1661
  686MPD2     N10205   0.765   3.186  15.542  0.0889 -0.1048  0.0938
  686MPD2    H510206   0.814   3.259  15.491  1.0782 -0.6322  0.2673
  686MPD2    N110207   0.346   2.934  15.539 -0.4620  0.1686  0.0386
  686MPD2    H710208   0.266   2.912  15.481  0.3249 -3.0222  0.1681
  687TMC3    C110209   0.966   3.161  15.660  0.3298 -0.4880  0.2971
  687TMC3    C210210   1.029   3.128  15.546  0.2664 -0.6501 -0.3006
  687TMC3    C310211   1.122   3.020  15.559  0.4633  0.6066 -0.2775
  687TMC3    C410212   1.004   3.111  15.784  0.8246 -0.4891  0.1670
  687TMC3    C510213   1.103   3.017  15.790  0.0802  1.0795  0.3343
  687TMC3    C610214   1.158   2.971  15.680  0.3548  0.3324 -0.1726
  687TMC3     C10215   0.829   3.128  15.655 -0.9926 -0.5198 -0.1850
  687TMC3     O10216   0.764   3.072  15.740 -0.1497  0.4349  0.4232
  687TMC3     H10217   1.003   3.178  15.453 -1.3692 -0.5067  0.2451
  687TMC3    H110218   0.954   3.129  15.878 -1.4511  0.2975 -1.2013
  687TMC3    H210219   1.235   2.895  15.688  0.9558  1.1206  1.5807
  687TMC3    C710220   1.093   2.923  15.906 -0.1027 -0.6787 -0.4977
  687TMC3    C810221   1.072   2.912  15.483  0.9614  0.3208  0.2776
  687TMC3    O110222   1.059   2.965  16.015  0.0803  0.0100  0.2153
  687TMC3    O210223   1.116   2.802  15.514  0.5094 -0.0232 -0.9700
  688MPD2     C10224   4.367   1.538  17.657 -0.1198  0.3023 -0.4405
  688MPD2    C110225   4.308   1.430  17.592  0.0808  1.1136 -0.1207
  688MPD2    C210226   4.359   1.401  17.462  0.3313  0.2107 -0.0919
  688MPD2    C310227   4.462   1.486  17.401  0.1965  0.2808 -0.5321
  688MPD2    C410228   4.510   1.590  17.471  0.0101 -0.9282 -0.1709
  688MPD2    C510229   4.459   1.617  17.597 -0.3032 -0.1155 -0.3966
  688MPD2     H10230   4.321   1.318  17.404  0.6732 -0.6931  0.9911
  688MPD2    H110231   4.591   1.649  17.432 -0.1572  0.8795  2.2619
  688MPD2    H210232   4.332   1.565   0.021  1.0534  2.8786 -0.7329
  688MPD2    H310233   4.506   1.699  17.650  2.0803 -1.1828 -0.8429
  688MPD2     N10234   4.524   1.462  17.275  0.2133  0.2861  0.3688
  688MPD2    H510235   4.605   1.518  17.250  0.5713 -0.4760 -0.1577
  688MPD2    N110236   4.208   1.343  17.646  0.3492 -0.0572  0.0322
  688MPD2    H710237   4.210   1.245  17.621  0.2097  0.0175 -0.2709
  689TMC3    C110238   4.061   1.289   0.089 -0.5816  0.6143 -0.0136
  689TMC3    C210239   4.054   1.318   0.221 -0.4494  0.0873 -0.4118
  689TMC3    C310240   3.986   1.227   0.300 -0.2358 -0.4871  0.5384
  689TMC3    C410241   4.002   1.179   0.036  0.0003 -0.2584 -0.1989
  689TMC3    C510242   3.935   1.091   0.115  0.6026 -0.6634  0.4964
  689TMC3    C610243   3.921   1.113   0.251 -0.1254  0.2396 -0.0849
  689TMC3     C10244   4.131   1.394   0.011  0.0946 -0.1255  0.1738
  689TMC3     O10245   4.115   1.510   0.044 -0.3290  0.5395 -0.4183
  689TMC3     H10246   4.088   1.414   0.257  1.3665 -0.5749 -0.3385
  689TMC3    H110247   4.015   1.170  17.664  2.3972 -0.3719  0.1052
  689TMC3    H210248   3.896   1.029   0.314 -1.7829  0.9994  0.2706
  689TMC3    C710249   3.912   0.949   0.072 -0.5167  0.2776 -0.6785
  689TMC3    C810250   3.981   1.265   0.440 -0.1410 -0.6310  0.5797
  689TMC3    O110251   3.897   0.867   0.167  0.1078 -0.0311 -0.1563
  689TMC3    O210252   4.047   1.363   0.466  0.0802 -0.3289 -0.1790
  690MPD2     C10253   2.108   3.477  15.860 -0.2768  0.3903 -0.7195
  690MPD2    C110254   2.018   3.524  15.764 -0.6084  0.3401 -0.1367
  690MPD2    C210255   2.038   3.644  15.698 -0.3570 -0.3674  0.3491
  690MPD2    C310256   2.156   3.711  15.726  0.0611 -0.1965  0.1106
  690MPD2    C410257   2.251   3.664  15.820  0.4535 -0.7914 -0.1529
  690MPD2    C510258   2.219   3.552  15.894 -0.1444  0.1548 -0.7655
  690MPD2     H10259   1.970   3.674  15.619 -0.5084 -1.0772  0.2085
  690MPD2    H110260   2.348   3.709  15.838  1.0455 -1.4929 -1.6502
  690MPD2    H210261   2.101   3.383  15.914 -1.0188  0.9563  0.1480
  690MPD2    H310262   2.278   3.516  15.977 -1.1501  2.3291  0.8778
  690MPD2     N10263   2.179   3.821  15.641 -0.2094 -0.4919  0.4316
  690MPD2    H510264   2.113   3.838  15.566 -0.9190  0.9569  1.3793
  690MPD2    N110265   1.897   3.450  15.728 -0.2431 -0.2333  0.0053
  690MPD2    H710266   1.843   3.500  15.658 -0.9891  1.1680  1.5577
  691TMC3    C110267   1.733   3.275  15.749 -0.3902  0.6364 -0.1862
  691TMC3    C210268   1.636   3.342  15.676 -0.1546  0.8639  0.0381
  691TMC3    C310269   1.527   3.271  15.634 -0.1706  0.1300 -0.2464
  691TMC3    C410270   1.730   3.140  15.766 -0.0955 -0.5071  0.3314
  691TMC3    C510271   1.627   3.070  15.712  0.1530  0.2434 -0.5400
  691TMC3    C610272   1.529   3.136  15.642 -0.7233  0.2296  0.0265
  691TMC3     C10273   1.858   3.337  15.794 -0.0233 -0.5352  0.2875
  691TMC3     O10274   1.924   3.268  15.874 -0.0970  0.7910  0.4640
  691TMC3     H10275   1.638   3.450  15.671  2.0173  0.7450 -1.7010
  691TMC3    H110276   1.804   3.090  15.827 -1.3178 -2.2058  0.4132
  691TMC3    H210277   1.440   3.086  15.604 -1.8203  0.7101  1.9825
  691TMC3    C710278   1.594   2.949  15.782  0.2490 -0.0600  0.8930
  691TMC3    C810279   1.422   3.346  15.567  0.1554  0.0654  0.0393
  691TMC3    O110280   1.643   2.941  15.894  0.3633  0.1378  0.2055
  691TMC3    O210281   1.353   3.281  15.490 -0.8106  0.1075 -0.6912
  692TMC3    C110282   3.273   0.028  15.598  0.0189  0.4957  0.0172
  692TMC3    C210283   3.396   0.037  15.647 -0.4447  0.4483 -0.2678
  692TMC3    C310284   3.488   4.678  15.611 -0.1271 -0.4586 -0.8449
  692TMC3    C410285   3.229   4.652  15.531 -0.5707  0.1395 -0.3900
  692TMC3    C510286   3.316   4.550  15.511 -0.0275  0.2490 -0.7096
  692TMC3    C610287   3.449   4.562  15.551 -0.0781  0.2775  0.0418
  692TMC3     C10288   3.164   0.125  15.623 -0.2569  0.6031  0.2837
  692TMC3     O10289   3.045   0.100  15.608  0.1498 -0.1361 -0.0717
  692TMC3     H10290   3.426   0.141  15.649  3.7871 -0.8000  2.7218
  692TMC3    H110291   3.124   4.625  15.539  0.0290 -2.0655 -0.0720
  692TMC3    H210292   3.525   4.497  15.511  0.1077 -0.6727  1.9247
  692TMC3    C710293   3.250   4.431  15.556  0.4368  0.0454 -0.6307
  692TMC3    C810294   3.568   4.634  15.719  0.7381  0.2945  0.2234
  692TMC3    O110295   3.134   4.405  15.539  0.3173 -1.0914 -0.1322
  692TMC3    O210296   3.600   4.515  15.721  0.1849  0.0641  0.8950
  693MPD2     C10297   3.153   2.676  11.267  0.7116  0.0376 -0.2006
  693MPD2    C110298   3.129   2.560  11.198  0.5776  0.1568  0.0845
  693MPD2    C210299   3.234   2.487  11.145 -0.1178 -0.3994 -1.3988
  693MPD2    C310300   3.359   2.525  11.194  0.6655  1.0394  0.2665
  693MPD2    C410301   3.385   2.629  11.281  0.6197 -0.4699 -0.3801
  693MPD2    C510302   3.279   2.713  11.312 -0.3850 -0.0106  0.2430
  693MPD2     H10303   3.221   2.402  11.080 -2.1760 -0.4062 -0.9698
  693MPD2    H110304   3.491   2.642  11.300  0.4561  0.8081 -0.3227
  693MPD2    H210305   3.076   2.736  11.314  1.4931  0.4424  0.5703
  693MPD2    H310306   3.296   2.805  11.368 -0.0713  0.6975 -1.0015
  693MPD2     N10307   3.475   2.441  11.172 -0.2130 -0.2447 -0.1238
  693MPD2    H510308   3.545   2.450  11.245  0.4208  0.6010 -0.8585
  693MPD2    N110309   2.993   2.529  11.172 -0.1769 -0.1317  0.1408
  693MPD2    H710310   2.931   2.591  11.223  0.1037 -0.1794  0.5438
  694TMC3    C110311   2.813   2.400  11.140 -0.1116 -0.6780  0.3933
  694TMC3    C210312   2.765   2.306  11.053 -0.1896  0.3240  0.1217
  694TMC3    C310313   2.700   2.195  11.107 -0.5341 -0.3678  0.0383
  694TMC3    C410314   2.791   2.395  11.269  0.0395 -0.3266  0.1077
  694TMC3    C510315   2.720   2.287  11.318 -0.5365  0.2138 -0.0630
  694TMC3    C610316   2.675   2.183  11.237 -0.1781 -0.1126  0.2377
  694TMC3     C10317   2.947   2.432  11.093 -0.3318 -0.7363  0.6824
  694TMC3     O10318   3.007   2.351  11.022 -0.5008 -0.2222  0.0429
  694TMC3     H10319   2.783   2.316  10.947  0.9404 -0.2179  0.2640
  694TMC3    H110320   2.823   2.462  11.347 -0.1401  0.7356 -0.7319
  694TMC3    H210321   2.660   2.082  11.274 -0.7119  0.1439  0.7253
  694TMC3    C710322   2.686   2.283  11.461 -1.1941 -0.2481 -0.4320
  694TMC3    C810323   2.633   2.098  11.018  0.4134  0.0086 -0.1279
  694TMC3    O110324   2.736   2.364  11.532  0.0174  0.2647  0.6519
  694TMC3    O210325   2.556   2.020  11.067 -0.4411  0.9871 -0.4807
  695MPD2     C10326   3.842   4.178  13.835 -0.7530  0.1041 -0.8220
  695MPD2    C110327   3.772   4.119  13.939 -0.1642 -0.0772 -0.2927
  695MPD2    C210328   3.638   4.139  13.961  1.0191  0.3968  0.1161
  695MPD2    C310329   3.566   4.218  13.874 -0.1382  0.1405 -0.6516
  695MPD2    C410330   3.635   4.282  13.772  0.2924 -0.1428 -0.6242
  695MPD2    C510331   3.773   4.267  13.761  0.2991 -0.5607 -0.0123
  695MPD2     H10332   3.598   4.100  14.054  0.3714  0.9709  0.0794
  695MPD2    H110333   3.588   4.350  13.702 -0.9752  0.0065  0.3550
  695MPD2    H210334   3.948   4.163  13.818 -0.3744 -0.4931  2.0453
  695MPD2    H310335   3.817   4.334  13.688  2.2469 -0.4075  1.3045
  695MPD2     N10336   3.423   4.218  13.878  0.1302 -0.0069  0.3646
  695MPD2    H510337   3.382   4.158  13.949 -4.4771  3.0798  0.2744
  695MPD2    N110338   3.841   4.038  14.031 -0.5868  0.3481  0.4732
  695MPD2    H710339   3.780   3.987  14.095 -1.3140  3.0146  1.8910
  696TMC3    C110340   3.194   4.262  13.823 -0.1638  0.3090  0.1747
  696TMC3    C210341   3.161   4.156  13.901 -0.1987 -0.5990 -0.2616
  696TMC3    C310342   3.030   4.152  13.940 -0.0481  0.3118 -0.2407
  696TMC3    C410343   3.109   4.359  13.781  0.5614 -0.6941 -0.2112
  696TMC3    C510344   2.981   4.353  13.821  0.2779 -0.0259 -0.0625
  696TMC3    C610345   2.940   4.245  13.905  0.4501  0.2683 -0.1913
  696TMC3     C10346   3.340   4.289  13.796 -0.1469 -0.1799 -0.8414
  696TMC3     O10347   3.366   4.372  13.711 -0.3873 -0.3128  0.0818
  696TMC3     H10348   3.218   4.063  13.904 -1.3252 -1.2881 -0.2137
  696TMC3    H110349   3.146   4.450  13.735 -1.1335 -1.4461 -3.0249
  696TMC3    H210350   2.838   4.240  13.941  2.1124  0.9048  4.5246
  696TMC3    C710351   2.910   4.483  13.832  0.1596  0.0170  0.3177
  696TMC3    C810352   2.986   4.057  14.035 -0.4548  0.1118 -0.2225
  696TMC3    O110353   2.873   4.540  13.729  0.5098  0.0976 -0.4259
  696TMC3    O210354   2.983   3.945  13.983  0.2232  0.0801 -0.3271
  697MPD2     C10355   2.975   1.625  15.880  0.2531  0.0108 -0.1369
  697MPD2    C110356   3.027   1.569  15.762  0.2767  0.2885 -0.2343
  697MPD2    C210357   3.126   1.643  15.695  0.2082 -0.3939 -0.1333
  697MPD2    C310358   3.163   1.772  15.739  0.2888  0.4630 -0.0137
  697MPD2    C410359   3.106   1.822  15.849 -0.0984  0.3649  0.1301
  697MPD2    C510360   3.023   1.746  15.924 -0.4565 -0.1205  0.5716
  697MPD2     H10361   3.157   1.611  15.596 -1.8579  0.3027 -1.0016
  697MPD2    H110362   3.141   1.910  15.901 -2.9694  0.5264  1.7587
  697MPD2    H210363   2.892   1.589  15.939 -0.8870  1.0679 -1.1179
  697MPD2    H310364   2.975   1.783  16.014 -0.9727 -0.0778  0.2806
  697MPD2     N10365   3.259   1.844  15.660  0.8955  0.5514  0.2905
  697MPD2    H510366   3.281   1.811  15.566  0.1921  1.7786 -0.3013
  697MPD2    N110367   2.981   1.441  15.711 -0.0009 -0.3428  0.5301
  697MPD2    H710368   3.019   1.417  15.619  0.3791 -1.2771  0.9350
  698TMC3    C110369   3.431   1.982  15.590  0.5959 -0.0173  0.2323
  698TMC3    C210370   3.533   2.058  15.635 -0.7667  0.3831 -0.3837
  698TMC3    C310371   3.626   2.092  15.539  0.1400  0.0899 -0.1340
  698TMC3    C410372   3.418   1.925  15.464 -0.6942  0.6444  0.0901
  698TMC3    C510373   3.519   1.950  15.376  0.6266  0.0444 -0.3221
  698TMC3    C610374   3.630   2.024  15.414  0.1135 -0.5446  0.4960
  698TMC3     C10375   3.338   1.949  15.697 -0.3106  0.1005  0.4124
  698TMC3     O10376   3.362   1.992  15.808 -0.5282  0.4476  0.1518
  698TMC3     H10377   3.534   2.108  15.731  1.0985  1.6436 -1.0702
  698TMC3    H110378   3.334   1.861  15.436 -0.4724  2.0139 -3.7836
  698TMC3    H210379   3.711   2.037  15.344 -0.9484 -2.2680 -1.0544
  698TMC3    C710380   3.519   1.863  15.266  0.1655 -0.1951 -0.3899
  698TMC3    C810381   3.738   2.172  15.585 -0.2099  0.7341  0.2613
  698TMC3    O110382   3.413   1.817  15.247 -1.1279 -0.2285 -0.2211
  698TMC3    O210383   3.769   2.161  15.704  0.3901 -0.0207 -0.4175
  699TMC3    C110384   3.530   4.354  13.285 -0.1969 -0.6561  0.6920
  699TMC3    C210385   3.580   4.235  13.327  0.3415 -0.5639  0.1743
  699TMC3    C310386   3.499   4.155  13.408 -0.0916  0.4254 -0.0237
  699TMC3    C410387   3.397   4.394  13.298 -0.2126  0.1300 -0.3001
  699TMC3    C510388   3.319   4.313  13.380  0.2507 -0.4502 -0.3865
  699TMC3    C610389   3.375   4.202  13.437 -0.3367 -0.9013 -0.2751
  699TMC3     C10390   3.588   4.402  13.165  0.7632 -0.2500  0.0827
  699TMC3     O10391   3.505   4.419  13.080  0.1924  0.0401 -0.2554
  699TMC3     H10392   3.681   4.206  13.304  1.2781  1.2113  2.0339
  699TMC3    H110393   3.366   4.491  13.262 -0.9848  0.0967  0.2715
  699TMC3    H210394   3.315   4.146  13.507  0.2352 -0.9808  0.1490
  699TMC3    C710395   3.176   4.334  13.399 -0.9185  0.4529  0.2650
  699TMC3    C810396   3.532   4.018  13.445  0.2742 -0.1026 -0.1318
  699TMC3    O110397   3.122   4.276  13.495 -0.3095 -0.0226 -0.5786
  699TMC3    O210398   3.471   3.955  13.531  0.1849  0.5860  0.1604
  700TMC3    C110399   2.045   1.675  17.271  0.1985 -0.6473  0.5103
  700TMC3    C210400   2.081   1.559  17.208  0.5880 -0.1788  0.6253
  700TMC3    C310401   2.163   1.478  17.278  0.3437  0.5398  0.4482
  700TMC3    C410402   2.095   1.706  17.395  0.5188 -0.3886  0.4151
  700TMC3    C510403   2.184   1.619  17.461  0.8579  0.1407  0.6965
  700TMC3    C610404   2.221   1.495  17.402 -0.0239 -1.4447 -0.3206
  700TMC3     C10405   1.999   1.784  17.191 -0.5658  0.9006  0.6231
  700TMC3     O10406   1.878   1.780  17.160 -0.2986  0.1042  1.2358
  700TMC3     H10407   2.039   1.532  17.111  0.5693 -0.0175  0.5889
  700TMC3    H110408   2.059   1.797  17.441 -0.8664 -0.7719  0.0927
  700TMC3    H210409   2.301   1.433  17.440  2.0629 -0.0562 -2.3942
  700TMC3    C710410   2.278   1.686  17.556 -0.3693  0.3070 -0.7921
  700TMC3    C810411   2.230   1.376  17.200 -0.2295  0.7144 -0.0952
  700TMC3    O110412   2.246   1.796  17.584  0.2506  0.0795  0.4057
  700TMC3    O210413   2.238   1.399  17.080 -0.7808  0.6854 -0.2838
  701TMC3    C110414   1.986   1.132  15.697  0.0637  0.0840 -0.0134
  701TMC3    C210415   1.986   1.081  15.568 -0.2840  0.3645 -0.1499
  701TMC3    C310416   2.041   1.160  15.473 -0.9192  0.1497  0.9726
  701TMC3    C410417   2.030   1.261  15.722  0.4211 -0.1426 -0.0370
  701TMC3    C510418   2.054   1.352  15.624 -0.1013 -0.0867  0.0538
  701TMC3    C610419   2.060   1.297  15.499  0.3367 -0.4441  0.3487
  701TMC3     C10420   1.905   1.068  15.803  0.0075 -0.9806  0.0242
  701TMC3     O10421   1.872   1.144  15.893  0.2636 -0.3205 -0.1137
  701TMC3     H10422   1.972   0.976  15.545  1.5575  0.3341 -1.1463
  701TMC3    H110423   2.026   1.292  15.826  0.1931 -1.4634  0.3507
  701TMC3    H210424   2.052   1.366  15.416  0.2634  0.4242  1.0726
  701TMC3    C710425   1.971   1.475  15.643  0.6624  0.6002  0.3698
  701TMC3    C810426   2.077   1.118  15.346  0.5548  0.4047 -0.1156
  701TMC3    O110427   1.898   1.504  15.548 -0.1886  0.5515 -0.5389
  701TMC3    O210428   2.171   1.177  15.292  0.3828  0.1541 -0.1490
  702MPD2     C10429   2.403   2.653  10.522  0.0184  0.3180 -0.4179
  702MPD2    C110430   2.349   2.775  10.554  0.1729  0.0215 -0.6885
  702MPD2    C210431   2.414   2.888  10.515  1.0752  0.1794 -0.2263
  702MPD2    C310432   2.532   2.878  10.437  0.3598  0.1394  0.4396
  702MPD2    C410433   2.597   2.756  10.422  0.0303  0.1526 -1.0467
  702MPD2    C510434   2.525   2.647  10.458  0.2278 -0.9644 -0.0207
  702MPD2     H10435   2.370   2.974  10.562 -2.1645 -0.8267 -1.4254
  702MPD2    H110436   2.685   2.737  10.363  1.2314  1.6130  0.2954
  702MPD2    H210437   2.352   2.562  10.553  1.4741 -0.0620  0.8515
  702MPD2    H310438   2.556   2.547  10.431  0.2696 -1.1912  0.8659
  702MPD2     N10439   2.601   2.989  10.386  0.3550  0.4532  0.4924
  702MPD2    H510440   2.677   2.971  10.321 -1.3680 -2.4166 -0.7254
  702MPD2    N110441   2.221   2.790  10.619  0.2146 -0.8914  0.9674
  702MPD2    H710442   2.171   2.878  10.610 -0.4794 -1.3536  0.3097
  703TMC3    C110443   2.620   3.205  10.310  0.4636  1.0504 -0.5725
  703TMC3    C210444   2.520   3.286  10.267  0.1127 -0.5442  0.4272
  703TMC3    C310445   2.554   3.396  10.196 -0.3018 -0.2727 -0.1655
  703TMC3    C410446   2.753   3.225  10.294 -0.2153  0.5690 -0.0511
  703TMC3    C510447   2.789   3.332  10.216  0.0639 -0.5152  0.6790
  703TMC3    C610448   2.686   3.415  10.165  0.1729 -0.5075 -0.2645
  703TMC3     C10449   2.565   3.121  10.410  0.4981 -0.1054 -0.1659
  703TMC3     O10450   2.472   3.166  10.477  0.2842  0.8496 -0.3978
  703TMC3     H10451   2.417   3.260  10.287 -0.9926  1.8045 -2.1945
  703TMC3    H110452   2.820   3.174  10.362 -2.4384 -1.4806  0.6035
  703TMC3    H210453   2.704   3.513  10.123  2.3789 -1.1791 -0.9071
  703TMC3    C710454   2.926   3.375  10.200 -0.3508  0.6402  0.5832
  703TMC3    C810455   2.464   3.508  10.184  0.0635 -0.5228  0.4022
  703TMC3    O110456   2.944   3.470  10.126 -0.2137  0.1598  0.8067
  703TMC3    O210457   2.515   3.614  10.154 -0.2074  0.4265 -0.2349
  704TMC3    C110458   4.645   1.103  12.753 -0.0338 -0.0406 -0.0398
  704TMC3    C210459   0.013   1.116  12.660  0.1028 -0.1230 -0.2974
  704TMC3    C310460   0.136   1.073  12.698 -0.6969  0.0253  0.4579
  704TMC3    C410461   4.661   1.044  12.874 -0.5316 -0.1732 -0.0235
  704TMC3    C510462   0.050   0.998  12.903 -0.1899 -0.0228 -0.3303
  704TMC3    C610463   0.156   1.008  12.817  0.2133 -0.1789  0.0713
  704TMC3     C10464   4.512   1.154  12.725  0.7026 -0.3705  0.0516
  704TMC3     O10465   4.439   1.190  12.816  0.3303 -0.1160 -0.0577
  704TMC3     H10466   4.733   1.176  12.571 -0.7746  0.3785  0.1738
  704TMC3    H110467   4.572   1.030  12.935 -0.0081  0.5757  0.9070
  704TMC3    H210468   0.253   0.966  12.838  0.1530 -0.6471 -0.5719
  704TMC3    C710469   0.051   0.885  12.995 -0.0610  0.1953  0.3678
  704TMC3    C810470   0.219   1.056  12.578  0.0162  0.2536  0.0944
  704TMC3    O110471   4.677   0.830  13.016 -0.5063 -0.0584  0.3992
  704TMC3    O210472   0.162   1.071  12.468  0.6963 -0.4213  0.1894
  705MPD2     C10473   3.266   4.568  16.651 -0.0064  0.1629 -0.5261
  705MPD2    C110474   3.263   4.683  16.569  0.0425 -0.0370 -0.0808
  705MPD2    C210475   3.142   0.001  16.535  0.0303  0.4581  0.1730
  705MPD2    C310476   3.018   4.677  16.552 -0.0040  0.0053 -0.1863
  705MPD2    C410477   3.029   4.558  16.617 -0.5188  0.7526 -0.1325
  705MPD2    C510478   3.146   4.497  16.656 -0.0781 -0.0220  0.0297
  705MPD2     H10479   3.142   0.097  16.484  1.6388  1.2173  1.5967
  705MPD2    H110480   2.940   4.496  16.628  0.1972 -0.0510  1.0904
  705MPD2    H210481   3.357   4.519  16.684 -0.5836  0.1870  1.1026
  705MPD2    H310482   3.135   4.408  16.718 -0.0208 -1.2913 -1.7917
  705MPD2     N10483   2.896   0.001  16.519 -0.2052  0.4238 -0.2895
  705MPD2    H510484   2.814   4.676  16.526  1.1040 -1.8045 -3.8933
  705MPD2    N110485   3.378   0.023  16.549  0.0352  0.6318  0.7164
  705MPD2    H710486   3.370   0.116  16.510  0.6853  0.5782  0.4539
  706TMC3    C110487   3.762   0.114  16.359 -0.1728  0.3896 -0.6118
  706TMC3    C210488   3.732   0.248  16.362 -0.3945 -0.1765  0.1954
  706TMC3    C310489   3.634   0.279  16.448  1.0908 -0.4391  0.0460
  706TMC3    C410490   3.711   0.021  16.444 -0.0527 -0.3376  0.0015
  706TMC3    C510491   3.609   0.063  16.527 -0.5318 -0.0690  0.8859
  706TMC3    C610492   3.572   0.194  16.533 -1.1964 -0.2037  0.0106
  706TMC3     C10493   3.856   0.082  16.259 -0.0923  0.3645 -0.0946
  706TMC3     O10494   3.899   0.172  16.188  0.1126  0.3695  0.0715
  706TMC3     H10495   3.779   0.329  16.307 -0.9733  0.4734  0.6504
  706TMC3    H110496   3.738   4.650  16.446 -2.6904 -1.0089  0.4558
  706TMC3    H210497   3.484   0.230  16.585 -0.2356  0.7789  0.9600
  706TMC3    C710498   3.504   4.701  16.561  0.3129  0.0256 -1.2063
  706TMC3    C810499   3.583   0.416  16.430  0.7516 -0.0433 -0.4821
  706TMC3    O110500   3.542   4.584  16.573 -0.7793 -0.5360 -0.2035
  706TMC3    O210501   3.619   0.469  16.325  0.5524  0.3943  0.3156
  707TMC3    C110502   0.278   2.584   1.617  0.0213  0.1005  0.7319
  707TMC3    C210503   0.291   2.441   1.629  0.2961 -0.1007 -0.2054
  707TMC3    C310504   0.173   2.373   1.657 -0.4040  0.1406 -0.3168
  707TMC3    C410505   0.155   2.641   1.609  0.7462  0.6179 -0.3515
  707TMC3    C510506   0.039   2.565   1.630 -0.1540 -0.5984 -0.4035
  707TMC3    C610507   0.051   2.430   1.653  0.0513  0.3020  0.3761
  707TMC3     C10508   0.400   2.651   1.591  0.2226 -0.0570 -0.3304
  707TMC3     O10509   0.507   2.605   1.627  0.2461  0.3122  0.0142
  707TMC3     H10510   0.389   2.394   1.620  0.1563 -0.1094 -1.7182
  707TMC3    H110511   0.149   2.749   1.614 -0.1955  0.5522  0.0369
  707TMC3    H210512   4.689   2.381   1.658 -0.3287  1.0850  0.7533
  707TMC3    C710513   4.641   2.619   1.618 -0.3411  0.1591  0.1346
  707TMC3    C810514   0.166   2.224   1.682 -0.0195  0.4435 -0.1787
  707TMC3    O110515   4.548   2.549   1.652 -0.0085 -0.0193  0.2262
  707TMC3    O210516   0.063   2.170   1.721  0.5299  0.3387 -0.6013
  708MPD2     C10517   2.603   2.781  13.916 -0.1221 -0.2112  0.1283
  708MPD2    C110518   2.490   2.709  13.907  0.5353 -0.5995 -0.6696
  708MPD2    C210519   2.465   2.613  14.002  0.0884 -0.6117 -0.1593
  708MPD2    C310520   2.555   2.596  14.107 -0.6603 -0.7734 -0.2152
  708MPD2    C410521   2.654   2.686  14.122 -0.1547 -0.6912 -0.4320
  708MPD2    C510522   2.686   2.781  14.027 -0.5453  0.6887 -0.3101
  708MPD2     H10523   2.376   2.551  14.000  0.8199 -1.7337  1.4834
  708MPD2    H110524   2.720   2.683  14.208 -0.2030 -1.3700 -0.4186
  708MPD2    H210525   2.634   2.857  13.846  1.3262  0.3752  1.4168
  708MPD2    H310526   2.770   2.849  14.030 -0.6410  0.8825 -1.7519
  708MPD2     N10527   2.529   2.506  14.218  0.8367  0.5027  0.6665
  708MPD2    H510528   2.573   2.522  14.308 -1.5908 -1.1520  2.1514
  708MPD2    N110529   2.398   2.734  13.803 -0.0521  0.0791  0.4867
  708MPD2    H710530   2.411   2.817  13.745  1.4794 -0.7005 -0.2713
  709TMC3    C110531   2.175   2.727  13.713  0.1332  0.5667 -0.3282
  709TMC3    C210532   2.102   2.648  13.631  0.6450  0.3571  0.2437
  709TMC3    C310533   1.969   2.654  13.635  0.0009  0.3585 -0.1615
  709TMC3    C410534   2.113   2.810  13.805  0.3852 -0.2082  0.1967
  709TMC3    C510535   1.978   2.791  13.820 -0.2417 -0.7964 -0.0010
  709TMC3    C610536   1.905   2.722  13.730 -0.2097 -0.5045  0.0079
  709TMC3     C10537   2.292   2.653  13.773  0.2648 -0.1370  0.0560
  709TMC3     O10538   2.272   2.533  13.796  1.0421  0.3195 -0.5228
  709TMC3     H10539   2.150   2.567  13.577  0.3435  0.4489 -0.1638
  709TMC3    H110540   2.170   2.858  13.883  0.9159 -1.3776  0.5344
  709TMC3    H210541   1.797   2.731  13.732 -0.0524  1.1464  0.7644
  709TMC3    C710542   1.936   2.770  13.954 -0.6469  0.3531  0.2588
  709TMC3    C810543   1.886   2.570  13.552  0.2568 -0.1787 -0.2111
  709TMC3    O110544   2.004   2.831  14.035  0.1699  0.1206  0.2201
  709TMC3    O210545   1.770   2.542  13.578 -0.3356  0.6017  0.0442
  710TMC3    C110546   3.050   3.148   0.122  0.2756 -0.5001  0.7316
  710TMC3    C210547   3.092   3.255   0.057 -0.3265  0.0503 -0.1304
  710TMC3    C310548   3.214   3.314   0.074  0.5082  0.0062  0.0218
  710TMC3    C410549   3.143   3.097   0.209 -0.6758 -0.4384 -1.2053
  710TMC3    C510550   3.265   3.145   0.218  0.0247  0.0666  0.8109
  710TMC3    C610551   3.303   3.254   0.155 -0.2378  0.4984  0.1970
  710TMC3     C10552   2.911   3.114   0.122 -0.1115  0.5070  0.6844
  710TMC3     O10553   2.854   3.138   0.018 -0.3446  0.0058 -0.7302
  710TMC3     H10554   3.023   3.292  17.716  1.8957  0.4859 -1.9599
  710TMC3    H110555   3.120   3.002   0.254  0.4607  0.6845  1.7397
  710TMC3    H210556   3.396   3.303   0.181 -0.4043  0.3236  1.1005
  710TMC3    C710557   3.354   3.067   0.305  0.0016 -0.1136 -0.7530
  710TMC3    C810558   3.251   3.429  17.722 -0.0219  0.2672  0.0917
  710TMC3    O110559   3.303   2.996   0.390  1.0647 -0.8611 -0.4386
  710TMC3    O210560   3.201   3.421  17.609 -0.5729 -0.1209 -0.7248
  711TMC3    C110561   2.784   0.265  14.972  0.1678  0.1424 -0.4634
  711TMC3    C210562   2.700   0.299  15.075 -1.2108 -0.0449 -0.1178
  711TMC3    C310563   2.753   0.302  15.202  0.3038 -0.0211 -0.2547
  711TMC3    C410564   2.915   0.230  14.991  0.1923  0.6523 -0.3467
  711TMC3    C510565   2.963   0.239  15.118  0.0582 -0.1313 -0.2232
  711TMC3    C610566   2.882   0.270  15.228  0.2001 -0.2359  0.0393
  711TMC3     C10567   2.714   0.212  14.853  0.0436  1.1960 -0.1808
  711TMC3     O10568   2.592   0.193  14.855  0.2945  0.7756 -0.0594
  711TMC3     H10569   2.593   0.308  15.067 -1.2357 -1.6161 -1.4814
  711TMC3    H110570   2.984   0.213  14.909  1.0311  0.9907  0.2870
  711TMC3    H210571   2.918   0.254  15.329  0.5659  4.7272  0.7158
  711TMC3    C710572   3.092   0.173  15.137 -0.3199 -0.0633  0.3140
  711TMC3    C810573   2.676   0.383  15.297 -0.7203 -0.2599  0.1722
  711TMC3    O110574   3.094   0.099  15.234 -0.1573 -0.4704 -0.1015
  711TMC3    O210575   2.564   0.410  15.256 -0.2399 -0.1223 -0.3239
  712MPD2     C10576   4.528   1.280  14.052  0.8094 -0.1491 -0.1731
  712MPD2    C110577   4.628   1.319  13.960  0.1621  0.3776 -0.2386
  712MPD2    C210578   4.648   1.452  13.930  0.0293  0.4697 -0.0780
  712MPD2    C310579   4.578   1.548  14.009 -0.4796  0.5487  0.7395
  712MPD2    C410580   4.467   1.505  14.084  0.4174  0.5493 -0.5248
  712MPD2    C510581   4.448   1.375  14.105  0.1285  0.2918 -0.0685
  712MPD2     H10582   4.717   1.485  13.853  1.5791 -1.2131  0.5968
  712MPD2    H110583   4.394   1.574  14.126  1.0098  2.4174 -2.5830
  712MPD2    H210584   4.524   1.176  14.084  0.1562 -0.6580 -1.9333
  712MPD2    H310585   4.367   1.345  14.171 -1.9054  1.6599 -1.9751
  712MPD2     N10586   4.598   1.688  13.992  0.1923 -0.3883  0.8971
  712MPD2    H510587   4.524   1.752  14.017  0.4753 -0.2516  1.3777
  712MPD2    N110588   4.690   1.211  13.883  0.6070  0.4515  0.8593
  712MPD2    H710589   4.656   1.115  13.883  1.4852  0.1442  1.1137
  713TMC3    C110590   4.710   1.885  13.933  0.2811 -0.0263 -0.3661
  713TMC3    C210591   0.094   1.957  13.935 -0.0237 -0.1144  0.6265
  713TMC3    C310592   0.093   2.063  13.847  0.0727  0.3107  0.7703
  713TMC3    C410593   4.597   1.927  13.866 -0.2431  0.1034 -0.1178
  713TMC3    C510594   4.616   2.020  13.772 -0.3259 -0.6977  0.2258
  713TMC3    C610595   4.731   2.090  13.754 -0.2282 -0.4419 -1.0667
  713TMC3     C10596   4.718   1.746  13.962  0.2747  0.3430 -0.0245
  713TMC3     O10597   0.094   1.689  13.973 -0.2546 -0.2959  0.2616
  713TMC3     H10598   0.179   1.922  13.992  1.4454 -0.2991 -1.6777
  713TMC3    H110599   4.509   1.864  13.861 -1.0631  1.1639  0.9550
  713TMC3    H210600   0.005   2.180  13.696  2.0884 -0.4971 -0.8159
  713TMC3    C710601   4.506   2.040  13.684  1.0748 -0.3343 -0.1679
  713TMC3    C810602   0.221   2.141  13.815  0.1726 -0.3009  0.2684
  713TMC3    O110603   4.392   2.006  13.706  0.1768 -0.2224 -0.3942
  713TMC3    O210604   0.203   2.249  13.763 -0.5302 -0.2568 -0.2185
  714MPD2     C10605   1.756   4.462   1.647  0.1899 -1.2518  1.0673
  714MPD2    C110606   1.735   4.428   1.520  0.3467  0.0463  0.2496
  714MPD2    C210607   1.632   4.492   1.455 -0.4214  0.0337 -0.0180
  714MPD2    C310608   1.566   4.595   1.514 -0.9182 -0.0748  0.1403
  714MPD2    C410609   1.580   4.617   1.652  0.8034  0.1524 -0.6607
  714MPD2    C510610   1.677   4.554   1.714  0.5571 -0.0357  0.2990
  714MPD2     H10611   1.614   4.457   1.354 -0.4860  0.4031 -0.1368
  714MPD2    H110612   1.527   4.696   1.705 -0.7635  0.6994 -3.0265
  714MPD2    H210613   1.828   4.417   1.715  0.3093 -0.0247  1.7478
  714MPD2    H310614   1.690   4.570   1.820 -1.1604 -1.9785  0.8071
  714MPD2     N10615   1.461   4.649   1.439  1.0450  0.0105 -0.7132
  714MPD2    H510616   1.458   4.620   1.342 -1.6097 -1.9254 -0.0533
  714MPD2    N110617   1.806   4.322   1.475  0.4876 -0.2248  0.0566
  714MPD2    H710618   1.885   4.286   1.528 -0.6424 -1.7880  0.6664
  715TMC3    C110619   1.861   4.134   1.351 -1.5569 -0.1680 -0.2967
  715TMC3    C210620   1.822   4.030   1.274 -0.2305 -0.1340  0.5013
  715TMC3    C310621   1.910   3.933   1.241  0.3919 -0.0649  0.2372
  715TMC3    C410622   1.989   4.132   1.406 -0.7389 -0.7830 -0.1854
  715TMC3    C510623   2.074   4.027   1.375  0.1841 -0.2501  0.2401
  715TMC3    C610624   2.031   3.931   1.294 -0.2466 -0.1525  0.1438
  715TMC3     C10625   1.779   4.246   1.368 -0.0732  0.5354 -0.3665
  715TMC3     O10626   1.677   4.250   1.296 -0.5329 -0.0912 -0.2352
  715TMC3     H10627   1.719   4.014   1.244  0.4397 -1.8936 -0.8669
  715TMC3    H110628   2.024   4.224   1.451 -0.2451 -1.3205  0.5158
  715TMC3    H210629   2.090   3.849   1.255 -0.5263 -1.7468  3.0851
  715TMC3    C710630   2.219   4.030   1.399 -0.6828  0.3171 -0.4014
  715TMC3    C810631   1.842   3.807   1.214  0.1753  0.5774  0.2855
  715TMC3    O110632   2.295   3.967   1.325 -0.4071 -0.4311  0.3982
  715TMC3    O210633   1.753   3.802   1.130 -0.4980  0.4530  0.4002
  716MPD2     C10634   2.240   3.036   9.662  0.0747 -0.8324  0.0635
  716MPD2    C110635   2.170   2.992   9.555  0.4492  0.3736  0.8910
  716MPD2    C210636   2.170   2.851   9.535  0.0832 -0.3550 -0.1156
  716MPD2    C310637   2.233   2.775   9.628 -0.1268 -0.6270  0.3682
  716MPD2    C410638   2.295   2.823   9.743  0.1116 -0.4215 -0.1604
  716MPD2    C510639   2.293   2.956   9.763  0.2624 -0.0301  0.0329
  716MPD2     H10640   2.127   2.806   9.446  2.9112  1.2887 -2.3365
  716MPD2    H110641   2.337   2.759   9.820 -2.6742  0.5400  2.1440
  716MPD2    H210642   2.237   3.143   9.682  0.0611 -0.4524 -1.9493
  716MPD2    H310643   2.322   2.996   9.859 -1.0401  0.3541  0.2706
  716MPD2     N10644   2.244   2.634   9.595 -0.5635  0.5934  0.5108
  716MPD2    H510645   2.196   2.603   9.511  0.7167 -0.2989  0.1122
  716MPD2    N110646   2.125   3.083   9.464 -0.3017 -0.0623  0.1325
  716MPD2    H710647   2.126   3.181   9.490  1.5255 -0.1349  0.3469
  717TMC3    C110648   2.261   2.405   9.612  0.3256  0.4250 -0.1617
  717TMC3    C210649   2.161   2.403   9.512 -0.2659 -0.3722  0.2245
  717TMC3    C310650   2.171   2.292   9.425 -0.4379  0.5824 -0.4702
  717TMC3    C410651   2.363   2.323   9.629 -0.5681  0.4066 -0.3754
  717TMC3    C510652   2.377   2.224   9.530  1.1562  0.1201 -0.2584
  717TMC3    C610653   2.282   2.208   9.426 -0.6682 -0.0998 -0.4548
  717TMC3     C10654   2.284   2.538   9.678 -0.3251 -0.3211 -0.3310
  717TMC3     O10655   2.348   2.543   9.785  0.3688 -0.2472 -0.2155
  717TMC3     H10656   2.076   2.470   9.518 -0.5240 -0.6753 -0.0090
  717TMC3    H110657   2.435   2.339   9.708 -0.7924  0.8751 -0.2699
  717TMC3    H210658   2.296   2.128   9.354  0.4827  1.9171 -2.4862
  717TMC3    C710659   2.494   2.141   9.530 -0.3147  0.1253  0.0186
  717TMC3    C810660   2.075   2.295   9.316  0.4474 -1.2622 -0.3956
  717TMC3    O110661   2.500   2.081   9.424 -0.4009 -0.4522  0.4500
  717TMC3    O210662   1.985   2.375   9.324 -0.1505  0.6126  1.0082
  718MPD2     C10663   1.431   1.504  12.343 -0.5503  0.3639 -0.7713
  718MPD2    C110664   1.331   1.434  12.403 -0.7230  0.6030  0.1498
  718MPD2    C210665   1.358   1.363  12.518  0.7160 -0.4370  0.0865
  718MPD2    C310666   1.479   1.367  12.585  0.4248  0.4904  0.0437
  718MPD2    C410667   1.583   1.424  12.515 -0.5090  0.3868  0.0832
  718MPD2    C510668   1.554   1.497  12.403 -0.7301  0.3737  0.7706
  718MPD2     H10669   1.278   1.311  12.570  1.4044 -0.9855  0.5961
  718MPD2    H110670   1.689   1.429  12.536  0.0581  1.5382 -3.0822
  718MPD2    H210671   1.417   1.557  12.250  4.1013  1.8710 -0.5877
  718MPD2    H310672   1.635   1.545  12.349 -0.7473 -1.0896 -0.5568
  718MPD2     N10673   1.500   1.308  12.713  0.6251  0.4903  0.4358
  718MPD2    H510674   1.422   1.282  12.772  1.8392  0.2734  1.9736
  718MPD2    N110675   1.211   1.433  12.326  0.3363 -0.1111  0.0496
  718MPD2    H710676   1.222   1.453  12.227  3.1923 -0.1301  0.3580
  719TMC3    C110677   1.048   1.295  12.253  0.3012  0.1534 -0.0878
  719TMC3    C210678   1.019   1.168  12.297 -0.2584  0.1710  0.1284
  719TMC3    C310679   1.097   1.063  12.262  0.0618  0.7010 -0.2992
  719TMC3    C410680   1.127   1.306  12.141  0.1363 -0.4058 -0.0274
  719TMC3    C510681   1.204   1.203  12.106  0.1647  0.1090  0.1919
  719TMC3    C610682   1.189   1.081  12.166  0.1061 -0.3535  0.5166
  719TMC3     C10683   1.096   1.370  12.365  0.0613  1.0371 -0.0384
  719TMC3     O10684   1.067   1.330  12.477 -0.6248 -0.1018 -0.2291
  719TMC3     H10685   0.951   1.156  12.380 -1.9008 -3.2858 -1.7137
  719TMC3    H110686   1.146   1.403  12.097 -1.3091  0.2611  0.8480
  719TMC3    H210687   1.257   0.999  12.146 -0.4701 -1.5800  3.6475
  719TMC3    C710688   1.334   1.236  12.058  0.1877  0.3944 -0.0469
  719TMC3    C810689   1.157   1.004  12.387  0.3154 -0.5480  0.3213
  719TMC3    O110690   1.345   1.331  11.985  0.9495 -0.6613 -0.6502
  719TMC3    O210691   1.274   0.980  12.384 -0.2274 -0.5258 -0.1029
  720MPD2     C10692   4.518   2.911  13.881 -0.2609 -1.2728 -0.8075
  720MPD2    C110693   4.557   2.984  13.768  0.3469  1.0864  0.4842
  720MPD2    C210694   4.690   3.021  13.755  0.3533  0.0266 -0.4455
  720MPD2    C310695   0.049   2.991  13.847 -0.4275 -0.0881 -0.0503
  720MPD2    C410696   0.010   2.919  13.953  0.2717  0.5300  0.1467
  720MPD2    C510697   4.614   2.872  13.976  0.0615 -0.8825 -0.5327
  720MPD2     H10698   4.723   3.080  13.670  0.7353 -1.0338 -1.0383
  720MPD2    H110699   0.086   2.909  14.029 -0.4265 -1.9260  0.5157
  720MPD2    H210700   4.420   2.871  13.904 -0.7445 -1.2182 -2.8054
  720MPD2    H310701   4.579   2.817  14.062  1.0564 -0.6737  0.0014
  720MPD2     N10702   0.186   3.046  13.857  0.0366  0.9570 -0.8901
  720MPD2    H510703   0.237   3.025  13.942 -1.9729  4.1600  1.1381
  720MPD2    N110704   4.466   3.028  13.670 -0.5488  0.1710  0.0799
  720MPD2    H710705   4.506   3.085  13.596 -1.2022 -4.1753 -3.6177
  721TMC3    C110706   0.378   3.162  13.789  0.2626 -0.0505  0.4729
  721TMC3    C210707   0.409   3.216  13.914 -0.1370 -0.1137  0.3775
  721TMC3    C310708   0.504   3.315  13.907 -0.3018 -0.3966 -0.1253
  721TMC3    C410709   0.449   3.200  13.674 -0.2842  0.1846 -0.0183
  721TMC3    C510710   0.544   3.301  13.675  0.3640 -0.1025  0.1958
  721TMC3    C610711   0.562   3.367  13.792 -1.4478  0.0048  0.7695
  721TMC3     C10712   0.247   3.118  13.757  0.0551 -0.0309 -0.2604
  721TMC3     O10713   0.202   3.149  13.645  0.2480 -0.0737 -0.4192
  721TMC3     H10714   0.360   3.193  14.008 -2.2865 -0.2240 -0.7734
  721TMC3    H110715   0.427   3.164  13.574  2.0494 -0.6405 -0.2425
  721TMC3    H210716   0.614   3.462  13.794 -0.1726 -0.7258  3.0777
  721TMC3    C710717   0.675   3.270  13.613 -0.0582  0.4580  0.6468
  721TMC3    C810718   0.576   3.352  14.027  0.3402 -0.5212 -0.1942
  721TMC3    O110719   0.771   3.306  13.679  0.9659 -0.6139 -0.0148
  721TMC3    O210720   0.681   3.410  14.006 -0.4839 -0.0738  0.6150
  722MPD2     C10721   3.503   1.663  13.315 -0.0786 -0.3692  0.8001
  722MPD2    C110722   3.458   1.783  13.260 -0.3263  0.1158  0.9223
  722MPD2    C210723   3.321   1.788  13.233 -0.0499  0.5107 -0.0680
  722MPD2    C310724   3.236   1.675  13.250  0.1206  0.0329  0.7830
  722MPD2    C410725   3.288   1.555  13.302 -0.4758 -0.3237  0.4534
  722MPD2    C510726   3.421   1.559  13.344  0.6491  0.8598  0.1596
  722MPD2     H10727   3.275   1.880  13.198 -3.1061 -0.9632  0.0205
  722MPD2    H110728   3.226   1.475  13.339 -0.0986 -0.6268  0.4384
  722MPD2    H210729   3.610   1.656  13.334 -0.0765  1.5683  1.5202
  722MPD2    H310730   3.456   1.468  13.392 -0.0222  1.2459  1.3905
  722MPD2     N10731   3.099   1.684  13.219 -0.4812 -0.8631 -0.2057
  722MPD2    H510732   3.063   1.775  13.192  1.4276  0.1003  0.4806
  722MPD2    N110733   3.543   1.898  13.226  0.2035 -0.3771  0.3592
  722MPD2    H710734   3.504   1.961  13.157  0.3733 -0.9581 -0.2690
  723TMC3    C110735   2.870   1.623  13.206  0.4025  0.0051 -0.4640
  723TMC3    C210736   2.776   1.524  13.216  0.5259  0.7882 -0.6157
  723TMC3    C310737   2.659   1.544  13.150 -0.1869  0.0845  0.4925
  723TMC3    C410738   2.845   1.738  13.124  0.4497 -0.1087 -0.0015
  723TMC3    C510739   2.720   1.749  13.063  0.5805 -0.0684  0.7121
  723TMC3    C610740   2.624   1.651  13.075 -0.4738 -0.2593  0.5455
  723TMC3     C10741   3.005   1.583  13.233 -0.1921 -0.1736  0.5982
  723TMC3     O10742   3.018   1.474  13.277  0.1052 -0.4034  0.2132
  723TMC3     H10743   2.790   1.437  13.280 -0.4564 -0.4708 -2.1043
  723TMC3    H110744   2.924   1.807  13.096  1.3326 -0.9353  0.4834
  723TMC3    H210745   2.537   1.663  13.011  0.9271 -1.0157 -1.5061
  723TMC3    C710746   2.706   1.824  12.936  0.0526  0.0564 -0.5876
  723TMC3    C810747   2.571   1.430  13.117 -0.6576  0.0080  0.2485
  723TMC3    O110748   2.630   1.782  12.849  0.3157  0.6771 -0.6003
  723TMC3    O210749   2.457   1.453  13.082 -0.1639 -0.1346 -0.1424
  724TMC3    C110750   3.981   0.035  10.976  0.0114 -0.1940 -0.4455
  724TMC3    C210751   3.959   0.001  10.841  0.2823 -0.4239 -0.1516
  724TMC3    C310752   3.923   0.105  10.763 -0.0329  0.4593 -0.1945
  724TMC3    C410753   3.964   0.165  11.023 -0.4027  0.6094  0.4183
  724TMC3    C510754   3.923   0.267  10.942 -0.0005  0.1119 -0.2324
  724TMC3    C610755   3.898   0.235  10.811  0.5377 -0.0188  0.1592
  724TMC3     C10756   4.034   4.672  11.062 -0.3342 -0.2228 -0.0354
  724TMC3     O10757   4.081   4.703  11.172  0.4883 -0.1484  0.1688
  724TMC3     H10758   3.982   4.637  10.801  1.0346 -0.1621 -0.3488
  724TMC3    H110759   4.009   0.192  11.118  0.9207  0.8477 -0.2859
  724TMC3    H210760   3.876   0.317  10.743 -0.0229 -0.1129  0.2283
  724TMC3    C710761   3.970   0.405  10.954 -0.3584 -0.4787 -0.4543
  724TMC3    C810762   3.865   0.064  10.633  0.3955 -0.2730  0.0658
  724TMC3    O110763   4.013   0.458  10.856  0.4075 -0.6032 -0.2645
  724TMC3    O210764   3.829   4.682  10.624 -0.1971  0.2580 -0.0906
  725TMC3    C110765   1.037   3.318  12.699 -0.1189  0.1873 -0.6898
  725TMC3    C210766   0.935   3.368  12.628  0.0620 -0.1472  0.5745
  725TMC3    C310767   0.871   3.283  12.538 -0.1043  0.3270 -0.2573
  725TMC3    C410768   1.101   3.199  12.672 -0.4545  0.0303 -0.1892
  725TMC3    C510769   1.038   3.120  12.580 -0.0737  0.5463 -0.1223
  725TMC3    C610770   0.919   3.153  12.520  0.4779 -0.7746  0.1228
  725TMC3     C10771   1.104   3.406  12.791 -0.3224 -0.0568 -0.0167
  725TMC3     O10772   1.173   3.498  12.749 -0.2310  0.1446  0.3436
  725TMC3     H10773   0.901   3.470  12.639 -1.8059 -0.5580 -1.2523
  725TMC3    H110774   1.192   3.171  12.724 -1.3003 -0.6789  0.9225
  725TMC3    H210775   0.859   3.087  12.458  0.7589  0.3251 -1.3391
  725TMC3    C710776   1.111   3.004  12.515  0.1744  0.3381  0.4572
  725TMC3    C810777   0.744   3.314  12.463  0.2779 -0.1207  1.0907
  725TMC3    O110778   1.047   2.949  12.425  0.0188  0.0355  1.0325
  725TMC3    O210779   0.664   3.221  12.454  0.1038 -0.2983 -0.1260
  726MPD2     C10780   3.364   0.649  10.721  0.6898 -0.2555 -0.4991
  726MPD2    C110781   3.285   0.621  10.615 -0.2460 -0.4750 -0.4386
  726MPD2    C210782   3.218   0.497  10.610  0.7853 -0.5373 -0.5432
  726MPD2    C310783   3.235   0.405  10.711 -0.1298 -1.2360 -0.3558
  726MPD2    C410784   3.311   0.438  10.820  0.0992 -0.9599 -0.3494
  726MPD2    C510785   3.367   0.565  10.823 -0.2836 -0.4079  0.5147
  726MPD2     H10786   3.163   0.461  10.524  1.9231 -1.6956 -0.7944
  726MPD2    H110787   3.331   0.368  10.900 -0.6563 -1.9063 -0.9942
  726MPD2    H210788   3.419   0.741  10.733 -0.0563  0.2801 -1.1406
  726MPD2    H310789   3.425   0.592  10.910 -2.6784  2.1237  1.3307
  726MPD2     N10790   3.162   0.285  10.694 -0.1225  0.0539  0.2087
  726MPD2    H510791   3.097   0.275  10.617 -1.7027  1.2677  1.4002
  726MPD2    N110792   3.273   0.731  10.520 -0.3861 -0.2509  0.4903
  726MPD2    H710793   3.323   0.818  10.536  1.4036 -0.8624 -1.7899
  727TMC3    C110794   3.198   0.862  10.346 -0.2607 -0.0710 -0.3414
  727TMC3    C210795   3.273   0.968  10.388  0.0867  0.8789  0.4117
  727TMC3    C310796   3.257   1.092  10.330  0.0614  0.2264 -0.6618
  727TMC3    C410797   3.105   0.878  10.243  0.3072  0.2920  0.3947
  727TMC3    C510798   3.094   1.000  10.180  0.1463 -0.0542  0.1618
  727TMC3    C610799   3.169   1.113  10.223 -0.2246  0.7331  0.0100
  727TMC3     C10800   3.195   0.736  10.406 -0.6081 -0.2208 -0.3334
  727TMC3     O10801   3.127   0.646  10.358 -0.1180 -0.1352  0.1102
  727TMC3     H10802   3.344   0.960  10.470 -1.0382 -0.2464  1.2794
  727TMC3    H110803   3.044   0.793  10.213 -3.4264  2.4731  1.7437
  727TMC3    H210804   3.153   1.213  10.185  1.0283  0.7493 -0.4876
  727TMC3    C710805   3.006   1.008  10.068  0.2823  0.2744  0.3251
  727TMC3    C810806   3.325   1.199  10.392 -0.1747 -0.1434 -0.4540
  727TMC3    O110807   2.923   0.922  10.068 -0.2141  0.1938  0.4017
  727TMC3    O210808   3.429   1.165  10.450 -0.0549  0.2124 -0.4086
  728TMC3    C110809   2.292   4.003  15.539  0.3522 -0.4199  0.0425
  728TMC3    C210810   2.398   4.088  15.541 -0.0991 -0.4841 -0.3789
  728TMC3    C310811   2.435   4.152  15.427  0.8316  0.1006  0.1389
  728TMC3    C410812   2.205   3.996  15.430 -0.5223 -0.6841 -0.3160
  728TMC3    C510813   2.241   4.061  15.320 -0.1140  0.1465 -0.5012
  728TMC3    C610814   2.357   4.147  15.314 -0.3388 -0.4108 -0.2234
  728TMC3     C10815   2.293   3.894  15.639 -0.4483  0.4439  0.3573
  728TMC3     O10816   2.385   3.894  15.719  0.8216  0.0941  0.6453
  728TMC3     H10817   2.466   4.098  15.625 -2.2481 -2.5341  1.6198
  728TMC3    H110818   2.117   3.933  15.421  0.4483 -1.7492 -2.3091
  728TMC3    H210819   2.371   4.209  15.226 -2.2147 -0.2033 -0.3619
  728TMC3    C710820   2.167   4.020  15.205  0.0924 -0.5091  0.0245
  728TMC3    C810821   2.520   4.256  15.455 -0.3272  0.0893  0.9274
  728TMC3    O110822   2.064   3.956  15.227  0.0764 -0.9068 -0.0557
  728TMC3    O210823   2.512   4.302  15.566  0.4922 -0.1348  0.3193
  729MPD2     C10824   4.424   4.359  16.393  0.3226 -0.0802  0.2278
  729MPD2    C110825   4.419   4.496  16.390  0.3383  0.7802  0.1417
  729MPD2    C210826   4.414   4.568  16.510 -0.0670  0.1557  0.4562
  729MPD2    C310827   4.429   4.509  16.630  0.5926 -0.0431  0.0253
  729MPD2    C410828   4.424   4.371  16.635 -0.8787 -0.5702 -0.0113
  729MPD2    C510829   4.411   4.294  16.519 -0.0518  0.2094 -0.4249
  729MPD2     H10830   4.416   4.676  16.502  1.1810  0.1856  1.3431
  729MPD2    H110831   4.407   4.314  16.726 -1.5098 -0.9221 -0.3441
  729MPD2    H210832   4.412   4.305  16.300  0.5747  0.1564  0.0578
  729MPD2    H310833   4.403   4.186  16.516 -2.5630  0.4209 -1.5557
  729MPD2     N10834   4.414   4.596  16.741  0.7915  0.1470 -0.0973
  729MPD2    H510835   4.383   4.692  16.728  0.2888 -0.2108 -1.5769
  729MPD2    N110836   4.441   4.547  16.263  0.2886  0.3099 -0.2422
  729MPD2    H710837   4.464   4.474  16.196  0.3123 -3.0699  3.4949
  730TMC3    C110838   4.376   4.627  16.969  0.4183  0.1940  0.4761
  730TMC3    C210839   4.395   4.595  17.099 -0.3004  0.0429  0.4210
  730TMC3    C310840   4.343   4.676  17.201  0.3131  0.5267 -0.7830
  730TMC3    C410841   4.282   4.723  16.942 -0.4365  0.6607  0.2946
  730TMC3    C510842   4.226   0.060  17.044  0.3630  0.1175  0.0628
  730TMC3    C610843   4.250   0.034  17.176  1.0061  0.4822 -0.8434
  730TMC3     C10844   4.436   4.548  16.866  0.6749 -0.0925 -0.0898
  730TMC3     O10845   4.499   4.449  16.899  0.5497  0.4301 -0.2481
  730TMC3     H10846   4.472   4.526  17.131 -0.5368 -0.6939 -0.5873
  730TMC3    H110847   4.260   0.010  16.838 -0.6989 -0.0708  0.2025
  730TMC3    H210848   4.189   0.071  17.258  1.4836  0.7394 -0.6043
  730TMC3    C710849   4.215   0.193  16.999  0.5415  0.4445  0.2489
  730TMC3    C810850   4.336   4.616  17.334 -0.2660  0.1216  0.8841
  730TMC3    O110851   4.275   0.220  16.899  0.8426 -0.2251  0.0830
  730TMC3    O210852   4.363   4.500  17.341 -0.4212  0.1218  0.1975
  731MPD2     C10853   0.095   3.465  12.144 -0.1949  0.0255  0.1360
  731MPD2    C110854   0.042   3.347  12.093  0.7698 -0.2342 -0.0228
  731MPD2    C210855   4.637   3.331  12.122 -0.2919  0.4547  0.0790
  731MPD2    C310856   4.562   3.410  12.211  0.3638 -0.4730  0.1303
  731MPD2    C410857   4.625   3.525  12.259 -0.2208  0.3976  0.1440
  731MPD2    C510858   0.023   3.552  12.220  0.3276  0.3563 -0.3369
  731MPD2     H10859   4.600   3.235  12.087  0.0630  0.3910 -0.1265
  731MPD2    H110860   4.568   3.590  12.324 -2.8670  0.2355 -2.0119
  731MPD2    H210861   0.195   3.489  12.111  0.5958  0.3459  2.7469
  731MPD2    H310862   0.071   3.645  12.249  1.8030 -0.6663  0.4929
  731MPD2     N10863   4.436   3.375  12.256  0.0545  0.0288 -0.9047
  731MPD2    H510864   4.426   3.408  12.352 -1.0537 -1.6976 -0.4251
  731MPD2    N110865   0.131   3.259  12.020 -0.2288 -0.0518 -0.1025
  731MPD2    H710866   0.228   3.289  12.018  0.1683 -1.1915  2.4641
  732TMC3    C110867   0.200   3.046  11.948  0.9636 -0.0898  0.3719
  732TMC3    C210868   0.171   2.927  11.887  0.2683 -0.5019 -0.2144
  732TMC3    C310869   0.238   2.810  11.915  0.0049 -0.3492  0.3366
  732TMC3    C410870   0.291   3.044  12.051  0.1246  0.0851  1.2052
  732TMC3    C510871   0.352   2.923  12.083 -0.6928  0.0821 -0.2906
  732TMC3    C610872   0.329   2.807  12.012 -0.5436 -0.3123  0.2063
  732TMC3     C10873   0.092   3.136  11.968 -0.3000 -0.9085 -0.5079
  732TMC3     O10874   4.712   3.096  11.955  0.1711 -0.4382  0.5680
  732TMC3     H10875   0.110   2.919  11.798  0.5190 -1.9018 -0.2642
  732TMC3    H110876   0.302   3.125  12.122 -0.0950  0.8307  0.3913
  732TMC3    H210877   0.388   2.717  12.024  1.9636  1.4762  1.2426
  732TMC3    C710878   0.447   2.929  12.190 -0.2163 -0.6495 -0.3209
  732TMC3    C810879   0.181   2.683  11.861  0.6214  0.8137  0.0598
  732TMC3    O110880   0.471   3.040  12.236  0.3225 -0.3916  0.9317
  732TMC3    O210881   0.251   2.583  11.846  0.4918 -0.4347  0.2744
  733TMC3    C110882   1.660   1.177  13.110  0.5430 -0.0779  0.1665
  733TMC3    C210883   1.683   1.242  12.993  0.0706 -0.1613 -0.3252
  733TMC3    C310884   1.630   1.204  12.877 -0.0885 -0.0184 -0.9030
  733TMC3    C410885   1.585   1.064  13.107  0.5921 -0.1097 -0.2046
  733TMC3    C510886   1.533   1.019  12.980 -0.6081 -0.0036 -0.3185
  733TMC3    C610887   1.559   1.090  12.867 -0.4978  0.1371 -0.1394
  733TMC3     C10888   1.606   1.267  13.218  0.2018  0.1570  0.3911
  733TMC3     O10889   1.552   1.365  13.176 -0.4396  0.1756 -1.0661
  733TMC3     H10890   1.731   1.339  13.007 -0.8187  0.0519  1.2265
  733TMC3    H110891   1.560   1.007  13.195 -1.0089  0.1962 -0.4648
  733TMC3    H210892   1.514   1.071  12.770 -0.5368  0.0519 -0.1053
  733TMC3    C710893   1.418   0.931  12.989 -0.7027 -0.0742  0.0877
  733TMC3    C810894   1.625   1.291  12.769 -0.5151  0.3430  0.3879
  733TMC3    O110895   1.365   0.913  13.098  0.6025  0.2546  0.2393
  733TMC3    O210896   1.743   1.318  12.739  0.2785  0.3840  0.1584
  734MPD2     C10897   2.749   3.488  12.488  0.3338 -0.5309  0.2221
  734MPD2    C110898   2.798   3.391  12.398  0.0577  0.3899  0.5108
  734MPD2    C210899   2.850   3.443  12.281 -0.3163  0.5609 -0.4248
  734MPD2    C310900   2.869   3.575  12.254  0.3635  0.5287  0.2686
  734MPD2    C410901   2.819   3.673  12.339 -0.2509  0.2704 -0.1079
  734MPD2    C510902   2.757   3.626  12.455 -0.3585  0.1480  0.1966
  734MPD2     H10903   2.886   3.375  12.204 -0.5322  1.4319 -1.2898
  734MPD2    H110904   2.818   3.780  12.323  1.1682  0.5244  1.5149
  734MPD2    H210905   2.692   3.478  12.580 -1.1874  1.4639 -0.5181
  734MPD2    H310906   2.712   3.699  12.522 -0.1922  1.7226 -1.3963
  734MPD2     N10907   2.888   3.604  12.116  0.2632  0.6412 -0.6430
  734MPD2    H510908   2.904   3.525  12.055  0.0019  0.0949 -0.0146
  734MPD2    N110909   2.771   3.253  12.413  0.3059 -0.1977  0.5730
  734MPD2    H710910   2.719   3.228  12.496  0.6863  3.0223  1.7573
  735TMC3    C110911   2.741   3.036  12.348 -0.4501 -0.0044  0.8289
  735TMC3    C210912   2.672   2.984  12.242  0.4595  0.7583  0.0757
  735TMC3    C310913   2.710   2.864  12.192 -0.2742 -0.4131  0.4068
  735TMC3    C410914   2.845   2.964  12.403 -0.3599  0.4574  0.3130
  735TMC3    C510915   2.886   2.849  12.339 -0.0295 -0.4438 -0.0674
  735TMC3    C610916   2.813   2.793  12.240  0.0420 -0.3403  0.3060
  735TMC3     C10917   2.785   3.166  12.310 -0.1560  0.3234  0.0701
  735TMC3     O10918   2.834   3.173  12.196  0.2507 -0.3475 -0.5197
  735TMC3     H10919   2.584   3.038  12.207  0.8977  1.1122 -0.4768
  735TMC3    H110920   2.917   3.010  12.471  0.1789  0.5922 -0.3504
  735TMC3    H210921   2.848   2.711  12.177 -0.4730 -0.9794  0.8513
  735TMC3    C710922   3.022   2.818  12.362 -0.4108 -0.1190  0.2175
  735TMC3    C810923   2.700   2.867  12.052  0.7898  0.4637  0.7311
  735TMC3    O110924   3.096   2.912  12.392  0.1020  0.3658  0.2044
  735TMC3    O210925   2.658   2.767  11.994  0.2696 -0.2143  0.1240
  736MPD2     C10926   3.160   2.495  12.281  0.4541  0.1313  0.2475
  736MPD2    C110927   3.166   2.628  12.301 -0.6953 -0.3644 -0.0259
  736MPD2    C210928   3.278   2.700  12.274 -0.5435  0.7087 -0.0472
  736MPD2    C310929   3.388   2.638  12.216  0.9157 -0.3086 -0.4639
  736MPD2    C410930   3.382   2.502  12.204 -1.1031  0.4638  0.5292
  736MPD2    C510931   3.273   2.436  12.234 -0.7868 -0.0757 -0.1111
  736MPD2     H10932   3.275   2.808  12.282 -2.3126  0.7262 -0.9637
  736MPD2    H110933   3.459   2.455  12.145 -0.2327  0.4933  1.6605
  736MPD2    H210934   3.067   2.440  12.291 -0.6236  1.9716  0.4178
  736MPD2    H310935   3.259   2.329  12.225  1.8972 -0.2425 -2.5649
  736MPD2     N10936   3.494   2.707  12.163 -0.7527 -0.5160 -0.1141
  736MPD2    H510937   3.566   2.657  12.112 -1.5146 -1.3065 -0.4151
  736MPD2    N110938   3.042   2.686  12.344  0.4871  0.4208  0.1422
  736MPD2    H710939   2.962   2.626  12.361  2.4225 -2.3587 -0.4402
  737TMC3    C110940   3.621   2.867  12.063 -0.1161  0.0356  0.3158
  737TMC3    C210941   3.615   2.990  11.998  0.0630 -0.1561 -0.1057
  737TMC3    C310942   3.684   3.005  11.887 -0.0297  0.4365  0.6749
  737TMC3    C410943   3.689   2.771  12.008 -0.4019  0.5924  0.2565
  737TMC3    C510944   3.762   2.789  11.902 -0.2472 -0.4670  0.2400
  737TMC3    C610945   3.769   2.909  11.837  0.2397  0.1163 -0.3725
  737TMC3     C10946   3.512   2.844  12.153  0.1831 -1.0918  0.2456
  737TMC3     O10947   3.432   2.932  12.175 -0.0357 -0.9637 -0.1729
  737TMC3     H10948   3.560   3.072  12.043  1.6948  0.7457  0.2692
  737TMC3    H110949   3.701   2.672  12.052 -0.2642  0.6757  0.4065
  737TMC3    H210950   3.836   2.920  11.752  1.3371  0.9937  0.6052
  737TMC3    C710951   3.816   2.669  11.832 -0.1467 -0.3987  0.2844
  737TMC3    C810952   3.743   3.135  11.877 -0.5141 -0.3018  0.7959
  737TMC3    O110953   3.779   2.557  11.867  0.5010  0.6555  0.2613
  737TMC3    O210954   3.724   3.211  11.973 -0.4037 -0.3335  0.0252
  738MPD2     C10955   4.001   2.309  15.602 -0.1226  0.0654  0.4655
  738MPD2    C110956   3.930   2.290  15.485  0.0914 -0.1913 -0.3650
  738MPD2    C210957   3.982   2.334  15.366  0.3141  0.7026 -0.1386
  738MPD2    C310958   4.109   2.393  15.367  0.4455  0.0384 -0.7514
  738MPD2    C410959   4.186   2.400  15.482  0.4548  0.4120 -0.1288
  738MPD2    C510960   4.129   2.360  15.599  0.1576 -0.7801  0.3524
  738MPD2     H10961   3.935   2.319  15.269  1.8435 -0.8369 -0.6430
  738MPD2    H110962   4.286   2.439  15.491 -0.7584  3.2024  1.2338
  738MPD2    H210963   3.963   2.291  15.702 -1.8355 -0.9719 -0.3733
  738MPD2    H310964   4.182   2.371  15.694 -1.6351  3.6194  0.8492
  738MPD2     N10965   4.181   2.419  15.245 -0.5255  0.5070  0.2964
  738MPD2    H510966   4.282   2.427  15.253 -0.8400  0.9290  3.8627
  738MPD2    N110967   3.803   2.227  15.484 -0.0825  0.2757  0.2207
  738MPD2    H710968   3.743   2.243  15.403  1.6641  1.6419 -0.8071
  739TMC3    C110969   4.227   2.432  15.007 -0.9518 -0.2290  0.0194
  739TMC3    C210970   4.197   2.375  14.885 -0.6625 -0.4645 -0.4544
  739TMC3    C310971   4.274   2.402  14.774 -0.6184  0.0464 -0.0876
  739TMC3    C410972   4.332   2.512  15.017  0.2795  0.3521  0.0979
  739TMC3    C510973   4.412   2.531  14.908 -0.6145 -0.3210  0.2547
  739TMC3    C610974   4.388   2.475  14.783 -0.0048  0.3206  0.6453
  739TMC3     C10975   4.125   2.424  15.118  0.7688  0.6063 -0.2820
  739TMC3     O10976   4.009   2.418  15.079 -0.1344  0.0718  0.8869
  739TMC3     H10977   4.101   2.326  14.884 -0.7665 -0.3006  1.2729
  739TMC3    H110978   4.348   2.575  15.104 -1.8852 -0.3176  0.9579
  739TMC3    H210979   4.435   2.497  14.687  1.5172 -0.4490  1.2055
  739TMC3    C710980   4.543   2.584  14.926 -0.1372  0.5605 -0.3017
  739TMC3    C810981   4.207   2.371  14.645 -0.3383 -0.1866  0.2515
  739TMC3    O110982   4.602   2.582  15.034 -0.3720 -0.4790  0.2892
  739TMC3    O210983   4.098   2.315  14.649  0.3006 -0.2651 -0.5620
  740TMC3    C110984   4.366   3.494  14.246 -0.2573  0.1087  0.1371
  740TMC3    C210985   4.457   3.498  14.350  0.2337 -0.3911  0.6752
  740TMC3    C310986   4.587   3.478  14.319  1.2202 -0.2504 -0.0048
  740TMC3    C410987   4.401   3.467  14.118 -0.1193  0.1221 -0.0519
  740TMC3    C510988   4.530   3.434  14.094 -0.1575 -0.0715 -0.3227
  740TMC3    C610989   4.625   3.442  14.192  0.9222  0.4590  0.0660
  740TMC3     C10990   4.227   3.540  14.271  0.0601  0.0436 -0.1267
  740TMC3     O10991   4.167   3.588  14.176 -0.0539  0.2844 -0.0367
  740TMC3     H10992   4.417   3.521  14.448  1.1380 -0.6683  1.1095
  740TMC3    H110993   4.321   3.458  14.045  0.5379  0.6241 -0.8268
  740TMC3    H210994   4.728   3.425  14.164  0.7715 -0.1976 -0.0971
  740TMC3    C710995   4.575   3.393  13.955 -0.2639 -0.5157 -0.1081
  740TMC3    C810996   4.692   3.473  14.414  0.0283 -0.0656 -0.0606
  740TMC3    O110997   4.686   3.346  13.948 -0.4901 -0.0925  0.0064
  740TMC3    O210998   0.068   3.461  14.362 -0.1524 -0.3812  0.2504
  741TMC3    C110999   4.135   2.737  14.722  0.2045  0.4783  0.8548
  741TMC3    C211000   4.047   2.638  14.696  0.7373 -0.4567  0.0590
  741TMC3    C311001   3.960   2.602  14.799 -0.5288  0.4138 -0.4968
  741TMC3    C411002   4.160   2.791  14.848 -0.2558  0.4379  0.3098
  741TMC3    C511003   4.079   2.745  14.950  0.3127 -0.4401  0.4119
  741TMC3    C611004   3.973   2.655  14.930  0.3966  0.2730  0.5318
  741TMC3     C11005   4.221   2.757  14.618  0.1440 -0.0424 -0.3753
  741TMC3     O11006   4.339   2.738  14.638  0.3465 -0.6922  0.3414
  741TMC3     H11007   4.036   2.602  14.594  0.3719  1.5986 -0.6221
  741TMC3    H111008   4.236   2.867  14.857 -2.2808  2.5138 -0.2176
  741TMC3    H211009   3.910   2.612  15.007 -0.3576  0.8038  0.2153
  741TMC3    C711010   4.115   2.799  15.079 -0.5591  0.3771  0.5642
  741TMC3    C811011   3.836   2.560  14.759 -0.4812 -0.0176 -0.5242
  741TMC3    O111012   4.192   2.893  15.077  0.1959  0.0251 -0.0524
  741TMC3    O211013   3.741   2.619  14.806 -0.6087  0.1115  0.1171
  742TMC3    C111014   3.473   1.264  15.517  0.0763 -0.3611  0.3337
  742TMC3    C211015   3.409   1.260  15.392  0.3730  0.2244  0.9451
  742TMC3    C311016   3.486   1.208  15.292 -0.2319  0.2805  0.4457
  742TMC3    C411017   3.608   1.230  15.543 -0.2772  0.2392 -0.7643
  742TMC3    C511018   3.676   1.193  15.429 -0.0107  0.1274  0.1398
  742TMC3    C611019   3.619   1.178  15.306  0.4468  0.3528  0.5220
  742TMC3     C11020   3.377   1.269  15.633  0.7519 -0.1125  0.0147
  742TMC3     O11021   3.268   1.320  15.618 -0.0301  0.6550 -0.0138
  742TMC3     H11022   3.301   1.261  15.389  0.4611  3.0245 -0.5068
  742TMC3    H111023   3.672   1.231  15.631  0.7190  0.8405 -1.4858
  742TMC3    H211024   3.678   1.137  15.225 -0.1153  1.3318 -0.3744
  742TMC3    C711025   3.818   1.147  15.429 -0.3193 -0.0698 -0.0337
  742TMC3    C811026   3.434   1.181  15.157 -0.2909 -0.6490 -0.6625
  742TMC3    O111027   3.865   1.087  15.330  0.1195 -0.0092 -0.0125
  742TMC3    O211028   3.484   1.093  15.088  0.5100 -0.5004  0.2856
  743MPD2     C11029   1.127   1.281   1.255 -0.1081 -0.3405 -1.0887
  743MPD2    C111030   1.128   1.370   1.359  1.2446 -0.2723  0.0918
  743MPD2    C211031   1.224   1.368   1.462 -0.2520  1.2424 -0.4485
  743MPD2    C311032   1.317   1.262   1.457 -1.0693  0.5036 -0.0176
  743MPD2    C411033   1.312   1.169   1.358 -0.0663  0.3852 -0.6800
  743MPD2    C511034   1.223   1.176   1.258  0.0557 -0.3823  0.2025
  743MPD2     H11035   1.231   1.442   1.541 -2.0858  1.2916 -0.3390
  743MPD2    H111036   1.380   1.085   1.356 -1.1490 -0.5011 -0.8308
  743MPD2    H211037   1.047   1.288   1.182 -0.7377  0.0368 -0.3691
  743MPD2    H311038   1.215   1.097   1.184 -1.5208  1.3635 -1.5269
  743MPD2     N11039   1.428   1.279   1.544  0.0606  0.1486 -0.0152
  743MPD2    H511040   1.430   1.360   1.605  2.2093  1.4511 -1.8193
  743MPD2    N111041   1.041   1.478   1.347 -0.8173  0.2793  0.0403
  743MPD2    H711042   1.004   1.498   1.255 -1.6876 -0.8569  0.1473
  744TMC3    C111043   0.978   1.701   1.388 -0.2534 -0.1682 -0.2660
  744TMC3    C211044   0.897   1.778   1.462  0.4006 -0.8598  0.1035
  744TMC3    C311045   0.844   1.891   1.407 -0.1977 -0.7975 -0.0831
  744TMC3    C411046   1.021   1.733   1.257 -0.0999  0.1231  0.1714
  744TMC3    C511047   0.976   1.856   1.214 -0.8937 -0.3988 -0.3449
  744TMC3    C611048   0.876   1.927   1.279  0.0083 -0.0611 -0.8721
  744TMC3     C11049   1.025   1.580   1.440 -0.1095  1.0509 -0.2408
  744TMC3     O11050   1.035   1.577   1.562  0.5800  0.4438 -0.1698
  744TMC3     H11051   0.872   1.767   1.567  0.5703  0.4543  0.2764
  744TMC3    H111052   1.091   1.678   1.196 -2.4901 -1.1231 -1.4013
  744TMC3    H211053   0.846   2.024   1.240 -0.1600  0.4248  0.4803
  744TMC3    C711054   1.031   1.926   1.094  0.9296 -0.6305 -0.2959
  744TMC3    C811055   0.731   1.952   1.468  0.4159  1.3367 -0.6695
  744TMC3    O111056   1.030   2.049   1.091  0.0647  0.0569  0.3027
  744TMC3    O211057   0.716   2.064   1.439 -0.1420 -0.1583 -0.1153
  745TMC3    C111058   0.076   1.105  13.715  0.5601 -0.1225  0.1112
  745TMC3    C211059   4.708   1.009  13.705 -0.7232  0.2453  0.0361
  745TMC3    C311060   4.684   0.958  13.579 -0.0992 -0.2062 -0.2525
  745TMC3    C411061   0.147   1.140  13.603 -0.7257 -1.1514 -0.0672
  745TMC3    C511062   0.124   1.081  13.481 -0.1560  0.1027  0.8294
  745TMC3    C611063   0.010   1.002  13.466 -0.4090 -0.1340 -0.1809
  745TMC3     C11064   0.051   1.225  13.789 -0.0799 -0.7606  0.4595
  745TMC3     O11065   0.115   1.323  13.755 -0.0201 -0.8122  0.1375
  745TMC3     H11066   4.667   0.976  13.800 -0.5008  1.7596  0.6505
  745TMC3    H111067   0.225   1.213  13.614 -0.0386 -1.8615 -0.2218
  745TMC3    H211068   4.724   0.948  13.374 -0.4965 -0.8395  0.2503
  745TMC3    C711069   0.188   1.125  13.352  0.1943  0.2509  0.1669
  745TMC3    C811070   4.566   0.875  13.561 -0.3980  0.0713 -0.5720
  745TMC3    O111071   0.139   1.093  13.242 -0.2690 -0.2457  0.0944
  745TMC3    O211072   4.514   0.874  13.447  0.0433  0.3170 -0.0338
  746TMC3    C111073   1.910   2.911  10.843 -0.2497  0.3279  0.2079
  746TMC3    C211074   2.022   2.873  10.783 -0.1153 -0.2190  0.4479
  746TMC3    C311075   2.038   2.742  10.752  0.5407  0.5413  0.2744
  746TMC3    C411076   1.839   2.812  10.907  0.7185 -0.3285 -0.1861
  746TMC3    C511077   1.861   2.679  10.882  0.3466  0.7200  0.3656
  746TMC3    C611078   1.960   2.641  10.795 -0.4172 -0.3542 -0.0521
  746TMC3     C11079   1.900   3.041  10.898  0.2072  0.2280 -0.8221
  746TMC3     O11080   1.856   3.048  11.014  0.7034  0.0991  0.0806
  746TMC3     H11081   2.085   2.951  10.741 -2.7809  0.3970 -2.3906
  746TMC3    H111082   1.755   2.842  10.968  1.1443 -0.0482  0.2680
  746TMC3    H211083   1.979   2.536  10.776  0.4676 -0.2573  0.2609
  746TMC3    C711084   1.757   2.586  10.913 -0.4552 -0.3210 -0.1146
  746TMC3    C811085   2.169   2.706  10.708 -0.0639  0.8988 -0.2417
  746TMC3    O111086   1.732   2.498  10.828 -0.2520  0.1077 -0.0392
  746TMC3    O211087   2.212   2.603  10.750 -0.2209 -0.3464  0.3690
  747TMC3    C111088   4.725   2.632  11.259  0.5962  0.5050 -0.1991
  747TMC3    C211089   4.598   2.587  11.292 -0.3316 -0.1500 -0.8624
  747TMC3    C311090   4.537   2.620  11.407 -0.7829  0.2313 -0.3949
  747TMC3    C411091   0.062   2.713  11.346  0.3061  0.5032 -0.1118
  747TMC3    C511092   4.732   2.744  11.463 -0.2143 -0.2752  0.0643
  747TMC3    C611093   4.606   2.703  11.495  0.0755 -0.0557 -0.2348
  747TMC3     C11094   0.036   2.635  11.124 -0.2997 -0.1036 -0.4829
  747TMC3     O11095   0.103   2.732  11.093 -0.0559  0.2424 -0.4200
  747TMC3     H11096   4.551   2.517  11.224  1.9485 -0.9890 -1.6012
  747TMC3    H111097   0.156   2.760  11.323 -0.0345  0.5013 -1.5085
  747TMC3    H211098   4.560   2.729  11.590 -0.5794 -1.9952 -0.0300
  747TMC3    C711099   0.054   2.853  11.542 -0.0785  0.5842 -0.1708
  747TMC3    C811100   4.429   2.543  11.447  0.0481 -0.2743  0.4451
  747TMC3    O111101   4.714   2.941  11.584 -0.7626  0.2631 -0.8165
  747TMC3    O211102   4.414   2.435  11.393 -0.5385  0.0340  0.3239
  748MPD2     C11103   0.732   3.316   1.449 -0.1807 -0.4545 -0.1917
  748MPD2    C111104   0.783   3.351   1.322 -0.0159 -0.0283 -0.3060
  748MPD2    C211105   0.919   3.387   1.317 -0.2701 -0.0520 -0.1743
  748MPD2    C311106   0.993   3.405   1.423 -0.4522  0.0107  0.1948
  748MPD2    C411107   0.942   3.370   1.548  0.3423  0.2542 -0.7362
  748MPD2    C511108   0.815   3.325   1.556 -0.5010  0.0185  0.1882
  748MPD2     H11109   0.976   3.398   1.225  1.2198  0.1934  0.7712
  748MPD2    H111110   0.982   3.380   1.648 -1.4283  2.5033 -0.2525
  748MPD2    H211111   0.630   3.283   1.469 -0.2913 -0.4111 -0.6781
  748MPD2    H311112   0.780   3.315   1.657 -1.4613  0.2495 -0.1268
  748MPD2     N11113   1.129   3.456   1.414  0.1886 -0.1916  0.2816
  748MPD2    H511114   1.167   3.480   1.323 -0.7563  1.5998  0.3630
  748MPD2    N111115   0.700   3.334   1.207 -0.2446 -0.0938  0.7936
  748MPD2    H711116   0.603   3.309   1.227 -0.6996  1.6266  0.7216
  749TMC3    C111117   1.314   3.570   1.492  0.6377  0.5772 -0.0790
  749TMC3    C211118   1.432   3.553   1.558 -0.0847 -0.2250  0.0793
  749TMC3    C311119   1.530   3.641   1.527  0.1954 -0.3729  0.3096
  749TMC3    C411120   1.290   3.669   1.397 -0.9762 -0.2463  0.3117
  749TMC3    C511121   1.397   3.755   1.378 -0.5678 -0.1393  0.6567
  749TMC3    C611122   1.517   3.750   1.449 -0.2621  0.3725 -0.4145
  749TMC3     C11123   1.203   3.484   1.524  0.3127 -0.5545  0.1351
  749TMC3     O11124   1.197   3.433   1.631 -0.0225 -0.3059  0.5019
  749TMC3     H11125   1.429   3.480   1.637  0.3617 -0.3777 -0.0430
  749TMC3    H111126   1.201   3.675   1.336 -1.0694 -0.9700  0.3700
  749TMC3    H211127   1.601   3.810   1.417  1.1111 -0.2300  2.1017
  749TMC3    C711128   1.385   3.846   1.267 -1.0732  0.5237  0.2842
  749TMC3    C811129   1.656   3.617   1.596  0.7420 -0.7632 -1.2112
  749TMC3    O111130   1.478   3.930   1.257  0.0987  0.2597  0.0570
  749TMC3    O211131   1.731   3.710   1.619 -0.1361 -0.1438  0.4893
  750MPD2     C11132   2.428   0.043  11.210  0.0585  0.5889 -0.1316
  750MPD2    C111133   2.292   0.038  11.205  0.7478 -0.2770 -0.2149
  750MPD2    C211134   2.231   4.694  11.101  0.3524  0.2997 -0.8203
  750MPD2    C311135   2.312   4.625  11.012  0.6766 -0.4825  0.4415
  750MPD2    C411136   2.447   4.641  11.015  0.5761 -0.5684 -0.1074
  750MPD2    C511137   2.507   4.721  11.113  0.1131  0.0043 -0.0751
  750MPD2     H11138   2.123   4.681  11.103  0.5180 -1.0482 -0.3415
  750MPD2    H111139   2.508   4.576  10.953  1.2212 -0.0506 -0.0071
  750MPD2    H211140   2.487   0.096  11.284 -0.6423  1.5239 -0.2392
  750MPD2    H311141   2.615   4.731  11.126  0.5399 -2.0090 -1.9782
  750MPD2     N11142   2.258   4.524  10.923  0.1345  0.0328 -0.2452
  750MPD2    H511143   2.327   4.465  10.878 -0.2444  0.0051 -0.7932
  750MPD2    N111144   2.234   0.111  11.310  0.0243  0.2011 -0.2947
  750MPD2    H711145   2.293   0.163  11.374 -2.0570  2.8829 -0.5518
  751TMC3    C111146   2.103   4.393  10.808 -0.3745  1.7386 -0.5864
  751TMC3    C211147   1.980   4.392  10.751  0.8889  1.3960  0.0398
  751TMC3    C311148   1.962   4.304  10.656 -0.4556  0.0697 -0.7502
  751TMC3    C411149   2.210   4.318  10.758 -0.6167  0.3862  0.2241
  751TMC3    C511150   2.185   4.254  10.637  0.0128  0.5247 -0.3297
  751TMC3    C611151   2.061   4.235  10.593  0.4031  0.2885  0.5341
  751TMC3     C11152   2.130   4.500  10.902 -0.0497  0.5349 -0.5596
  751TMC3     O11153   2.031   4.557  10.944 -0.0919 -0.5479 -0.3778
  751TMC3     H11154   1.906   4.453  10.801 -1.6406 -3.7097  2.5257
  751TMC3    H111155   2.302   4.313  10.817 -0.1328 -4.7042 -1.0115
  751TMC3    H211156   2.050   4.168  10.508 -0.2722  0.5298  0.4379
  751TMC3    C711157   2.267   4.142  10.591 -0.1593  0.0882 -0.0637
  751TMC3    C811158   1.842   4.239  10.649  0.3763 -0.2521 -0.2074
  751TMC3    O111159   2.258   4.112  10.475 -0.5247  0.3184 -0.5679
  751TMC3    O211160   1.819   4.185  10.539  0.1016 -0.2072  0.3605
  752TMC3    C111161   0.547   4.379  16.718 -0.6232  0.3165  0.6034
  752TMC3    C211162   0.660   4.375  16.787 -0.2079  0.2118  0.4251
  752TMC3    C311163   0.660   4.389  16.922  0.2211  0.0245  0.0977
  752TMC3    C411164   0.432   4.385  16.783 -0.5419  0.1620 -0.1840
  752TMC3    C511165   0.430   4.429  16.910 -0.1664  0.3863  0.5640
  752TMC3    C611166   0.544   4.427  16.986  0.0268  0.1419  0.8930
  752TMC3     C11167   0.549   4.356  16.576  0.1280  0.0485  0.8323
  752TMC3     O11168   0.656   4.323  16.533 -0.1591  0.6134  0.3807
  752TMC3     H11169   0.757   4.368  16.739 -0.1455  3.1795  0.1167
  752TMC3    H111170   0.339   4.369  16.731  1.1686 -1.4071 -2.7532
  752TMC3    H211171   0.544   4.433  17.094 -1.9347  2.4783  0.7568
  752TMC3    C711172   0.300   4.452  16.982  0.4846  0.1032  0.2149
  752TMC3    C811173   0.772   4.478  16.951  0.3096  0.4338  0.1740
  752TMC3    O111174   0.198   4.482  16.923  0.3589  0.2808  0.5255
  752TMC3    O211175   0.811   4.549  16.857  0.5527  0.2684 -0.2874
  753TMC3    C111176   2.637   1.621  13.609 -0.3001  0.2455 -0.7654
  753TMC3    C211177   2.761   1.593  13.665  0.0223 -0.7010 -0.7464
  753TMC3    C311178   2.818   1.472  13.648  0.0589 -0.1816  0.3119
  753TMC3    C411179   2.560   1.527  13.551 -0.4769 -0.2282 -0.2570
  753TMC3    C511180   2.610   1.395  13.550  0.4288  0.2393  0.4866
  753TMC3    C611181   2.744   1.366  13.594  0.9583 -0.2639  0.2779
  753TMC3     C11182   2.639   1.745  13.539  0.2136  0.3912 -0.0428
  753TMC3     O11183   2.606   1.746  13.420 -0.7211  0.2926  0.1471
  753TMC3     H11184   2.828   1.673  13.696 -2.0172  0.1317  1.5258
  753TMC3    H111185   2.463   1.547  13.506 -1.2100  1.8991  2.2427
  753TMC3    H211186   2.785   1.267  13.576  0.0631 -0.2923 -1.5774
  753TMC3    C711187   2.539   1.295  13.465  0.1516  0.3637 -0.0461
  753TMC3    C811188   2.949   1.437  13.711  0.4684  0.0131 -0.7460
  753TMC3    O111189   2.429   1.329  13.422  0.2927  0.4409 -0.2751
  753TMC3    O211190   2.996   1.336  13.660  0.3172 -0.3114  0.2974
  754MPD2     C11191   1.833   4.648  12.963  0.6954 -0.3999 -0.0160
  754MPD2    C111192   1.872   4.518  12.974  0.2785  0.7768  0.6578
  754MPD2    C211193   1.772   4.418  12.976  0.0008 -0.0836  0.8756
  754MPD2    C311194   1.642   4.451  13.010  0.1343 -0.2366 -0.4269
  754MPD2    C411195   1.606   4.586  13.008  0.2435 -0.6749 -0.2079
  754MPD2    C511196   1.697   4.683  12.974  0.2145 -0.1459  0.0013
  754MPD2     H11197   1.800   4.316  12.953 -1.1769 -0.2429  0.1440
  754MPD2    H111198   1.502   4.614  13.019 -0.8256 -4.4811 -0.6030
  754MPD2    H211199   1.908   4.726  12.962 -1.2914  1.5018 -0.2142
  754MPD2    H311200   1.671   0.053  12.962  1.3800  0.2669  1.0154
  754MPD2     N11201   1.552   4.362  13.063  0.5589 -0.1129 -0.5646
  754MPD2    H511202   1.456   4.387  13.088  0.0405 -2.1056 -0.5170
  754MPD2    N111203   2.008   4.490  12.966 -0.1541  0.4804 -0.0687
  754MPD2    H711204   2.063   4.558  12.915  0.3536 -0.2713 -0.5076
  755MPD2     C11205   0.912   4.569  13.537 -0.0084  0.2884  0.0861
  755MPD2    C111206   0.867   4.442  13.509  0.2490 -0.3956  0.1033
  755MPD2    C211207   0.958   4.351  13.454  0.1304 -0.3955  0.6045
  755MPD2    C311208   1.088   4.393  13.425  0.5432  0.4756 -0.6200
  755MPD2    C411209   1.128   4.528  13.458 -0.3817  0.5025 -0.4571
  755MPD2    C511210   1.039   4.616  13.514  0.6073 -0.1889 -0.2344
  755MPD2     H11211   0.925   4.249  13.435  1.0824 -0.2449 -1.9241
  755MPD2    H111212   1.225   4.564  13.425  0.1739  0.5306  1.1721
  755MPD2    H211213   0.841   4.641  13.577 -0.7895  0.8049 -2.2680
  755MPD2    H311214   1.066   4.719  13.530 -0.6052 -0.0311  0.8525
  755MPD2     N11215   1.189   4.310  13.370 -0.0597  0.0890 -0.1544
  755MPD2    H511216   1.270   4.361  13.334  1.6309 -1.6800  1.1215
  755MPD2    N111217   0.748   4.392  13.549 -0.9103  0.3503  0.0626
  755MPD2    H711218   0.721   4.296  13.531  1.0196  0.1772 -1.8712
  756MPD2     C11219   1.674   0.904   9.626  0.6160 -0.4950  0.1816
  756MPD2    C111220   1.597   0.843   9.719 -0.4751  0.3555 -0.5504
  756MPD2    C211221   1.472   0.805   9.683  0.3255 -0.2145  0.0007
  756MPD2    C311222   1.424   0.825   9.554  0.7656 -0.6526 -0.1974
  756MPD2    C411223   1.497   0.889   9.465 -0.3064  1.8363 -0.2244
  756MPD2    C511224   1.623   0.927   9.496  0.0575 -0.0157 -0.1518
  756MPD2     H11225   1.418   0.742   9.752  1.9032 -0.1697  1.2714
  756MPD2    H111226   1.466   0.906   9.363  2.3367 -1.4828 -1.5674
  756MPD2    H211227   1.770   0.942   9.660  2.1743 -3.4868 -0.8659
  756MPD2    H311228   1.679   0.988   9.426 -0.4085  0.9650  0.3351
  756MPD2     N11229   1.294   0.778   9.530 -0.2704 -0.0951 -0.0438
  756MPD2    H511230   1.248   0.711   9.590 -0.0625  0.6894  0.9902
  756MPD2    N111231   1.631   0.813   9.859  0.7777 -0.4141  0.2318
  756MPD2    H711232   1.560   0.770   9.916  0.7394 -0.1021  0.4177
  757MPD2     C11233   0.979   0.068   9.848 -0.1040 -0.1638  0.0399
  757MPD2    C111234   1.102   0.106   9.786 -0.7262  0.3506 -0.2623
  757MPD2    C211235   1.097   0.212   9.698 -0.4324  0.2965  0.3919
  757MPD2    C311236   0.986   0.286   9.671  0.2410 -0.4778  0.0179
  757MPD2    C411237   0.872   0.256   9.745 -0.4219  0.2938  0.6250
  757MPD2    C511238   0.871   0.147   9.829  0.0943  0.3568  0.3704
  757MPD2     H11239   1.187   0.257   9.659 -0.6624 -0.7817 -1.3792
  757MPD2    H111240   0.778   0.309   9.736 -1.0552 -0.5058  2.5185
  757MPD2    H211241   0.958   4.710   9.902 -0.9969 -1.0762 -1.8326
  757MPD2    H311242   0.773   0.113   9.862  0.5959 -2.3956 -0.9674
  757MPD2     N11243   0.996   0.396   9.584 -0.1262 -0.3658 -0.1274
  757MPD2    H511244   1.087   0.413   9.544  0.2792 -0.3726  0.8014
  757MPD2    N111245   1.216   0.024   9.815  0.2419 -0.0802  0.4676
  757MPD2    H711246   1.209   4.675   9.874  2.1734 -0.2814  0.4131
  758MPD2     C11247   1.231   4.694  15.779  0.3078  0.2248  0.8422
  758MPD2    C111248   1.272   4.584  15.846 -0.4128 -0.0296 -0.0604
  758MPD2    C211249   1.187   4.548  15.952 -0.4481 -0.0288 -0.0710
  758MPD2    C311250   1.066   4.614  15.978  0.2781 -0.6808 -0.7729
  758MPD2    C411251   1.032   4.728  15.904  0.2740  0.0455 -0.0219
  758MPD2    C511252   1.113   0.015  15.797  0.2162  0.4306  0.6091
  758MPD2     H11253   1.221   4.472  16.021 -3.0281 -1.7080 -0.6312
  758MPD2    H111254   0.941   0.050  15.919  0.2987 -0.0676  0.5592
  758MPD2    H211255   1.293   4.729  15.698 -1.7023  1.1811 -0.2833
  758MPD2    H311256   1.086   0.100  15.734  0.6057  0.4395  0.4535
  758MPD2     N11257   0.981   4.581  16.090 -0.4136  0.3624 -0.3247
  758MPD2    H511258   0.894   4.634  16.094  0.5925  2.1317 -1.8433
  758MPD2    N111259   1.393   4.512  15.808  0.3553  0.0358 -0.4404
  758MPD2    H711260   1.440   4.544  15.724  0.0068  0.5296 -0.4501
  759MPD2     C11261   0.443   2.496   9.986  0.5216 -0.5904 -0.3186
  759MPD2    C111262   0.565   2.504  10.054  0.1998 -0.6523 -0.1724
  759MPD2    C211263   0.667   2.579  10.002  0.3349  0.4188  0.1622
  759MPD2    C311264   0.663   2.616   9.869 -0.0198  0.2290 -0.2711
  759MPD2    C411265   0.549   2.581   9.791  0.8499  0.4314  0.7566
  759MPD2    C511266   0.434   2.543   9.856  0.0365  1.2088  0.2146
  759MPD2     H11267   0.759   2.587  10.058  0.1175 -1.7755  0.8662
  759MPD2    H111268   0.546   2.612   9.687  1.3261 -1.8866  0.0603
  759MPD2    H211269   0.354   2.443  10.018 -0.9611  2.2438  0.2161
  759MPD2    H311270   0.343   2.527   9.800  0.2264  0.5985  0.0832
  759MPD2     N11271   0.770   2.694   9.811 -0.1914  0.3626 -0.0893
  759MPD2    H511272   0.847   2.713   9.875 -2.1732  2.5630  1.6598
  759MPD2    N111273   0.584   2.439  10.182 -0.8363  0.2774  0.3507
  759MPD2    H711274   0.674   2.447  10.227 -0.9365 -1.9999  0.9623
  760MPD2     C11275   0.148   4.733  12.088 -0.3443  0.0238 -0.2440
  760MPD2    C111276   0.226   4.708  11.978  0.6768  0.5070  0.0578
  760MPD2    C211277   0.305   4.597  11.975  0.0413  0.0505  0.3361
  760MPD2    C311278   0.294   4.500  12.066  0.0273  0.3998  0.3644
  760MPD2    C411279   0.222   4.529  12.182  0.2426 -0.0471  0.6561
  760MPD2    C511280   0.146   4.644  12.193  0.1945 -0.0163  0.2776
  760MPD2     H11281   0.357   4.568  11.884  0.7439  1.2396  0.3584
  760MPD2    H111282   0.202   4.457  12.260 -1.4215 -0.4572 -0.1487
  760MPD2    H211283   0.077   0.081  12.088  0.3730  0.6512 -1.5698
  760MPD2    H311284   0.080   4.655  12.278 -0.6703  0.9534 -0.5177
  760MPD2     N11285   0.365   4.377  12.057 -0.2233 -0.4636 -0.6420
  760MPD2    H511286   0.346   4.318  12.137  2.5619  1.3435  1.3211
  760MPD2    N111287   0.244   0.063  11.872 -0.2831  0.2987 -0.0647
  760MPD2    H711288   0.304   0.036  11.794 -0.5457  0.9135 -0.4849
  761MPD2     C11289   1.452   3.981  10.814  0.2326 -0.3785 -0.4096
  761MPD2    C111290   1.544   3.940  10.728 -0.0446  0.0860  0.7785
  761MPD2    C211291   1.652   4.021  10.707  0.7966 -0.4253  0.2080
  761MPD2    C311292   1.664   4.139  10.781  0.3447 -0.7766  0.0782
  761MPD2    C411293   1.570   4.173  10.878  1.0241  0.2885  0.1710
  761MPD2    C511294   1.469   4.088  10.895 -0.3330  0.2706 -0.0195
  761MPD2     H11295   1.731   3.999  10.637  0.3702  3.0484 -1.3692
  761MPD2    H111296   1.573   4.268  10.931  3.7381 -0.4757  1.4026
  761MPD2    H211297   1.361   3.925  10.831  1.2230 -1.7193  0.5576
  761MPD2    H311298   1.379   4.119  10.947  0.3492  1.7663  0.2983
  761MPD2     N11299   1.769   4.234  10.765  0.1917  0.4500  0.0716
  761MPD2    H511300   1.776   4.311  10.830  0.9280  0.4038  0.0521
  761MPD2    N111301   1.534   3.814  10.668 -0.1223 -0.0829  0.0889
  761MPD2    H711302   1.448   3.761  10.678 -0.0006 -0.0367  1.3707
  762MPD2     C11303   2.054   3.744  10.392 -0.0998  0.2721 -0.6377
  762MPD2    C111304   2.019   3.616  10.361  0.3415 -0.6149  0.3672
  762MPD2    C211305   2.114   3.529  10.306  0.5333  0.8870  0.2792
  762MPD2    C311306   2.247   3.576  10.281 -0.0968 -0.8347 -0.0364
  762MPD2    C411307   2.278   3.711  10.315 -0.1989 -0.1649 -0.0519
  762MPD2    C511308   2.180   3.789  10.376 -0.2548 -0.4138 -0.6133
  762MPD2     H11309   2.092   3.427  10.276 -0.5691  0.9083  0.9933
  762MPD2    H111310   2.376   3.753  10.298 -1.1387  2.4662  1.0740
  762MPD2    H211311   1.988   3.815  10.441  0.1176 -1.4788  2.1767
  762MPD2    H311312   2.199   3.890  10.411 -0.9964 -0.6413  0.4594
  762MPD2     N11313   2.339   3.484  10.231 -0.6238  0.4664 -0.4580
  762MPD2    H511314   2.305   3.388  10.233  0.9414 -0.0851 -0.1836
  762MPD2    N111315   1.887   3.575  10.385  0.0775 -0.1741 -0.0817
  762MPD2    H711316   1.816   3.641  10.416 -0.4828  0.2248 -2.2511
  763MPD2     C11317   2.699   4.328  15.839  0.3466  0.4872  0.0842
  763MPD2    C111318   2.817   4.365  15.776 -0.7649 -0.2000 -0.1615
  763MPD2    C211319   2.883   4.476  15.829  0.1631 -0.4586  0.0418
  763MPD2    C311320   2.837   4.545  15.944 -0.1564  0.1929  0.4971
  763MPD2    C411321   2.723   4.497  16.008  0.0349  0.2378 -0.1236
  763MPD2    C511322   2.663   4.386  15.954  0.0671 -0.3660  0.5229
  763MPD2     H11323   2.969   4.506  15.770  1.3001 -0.3712  1.7529
  763MPD2    H111324   2.686   4.546  16.098 -1.9680 -1.6055  0.0467
  763MPD2    H211325   2.629   4.252  15.807 -1.2493  2.5971 -1.4585
  763MPD2    H311326   2.564   4.358  15.987  0.0692  0.3557  1.1270
  763MPD2     N11327   2.902   4.660  15.994 -0.1125  0.4134 -0.4701
  763MPD2    H511328   2.997   4.679  15.963  0.4578  0.2760  1.1756
  763MPD2    N111329   2.860   4.297  15.656  0.1083  0.3578 -0.1739
  763MPD2    H711330   2.929   4.343  15.597  1.7976 -0.4344  1.1773
  764MPD2     C11331   0.551   1.230   0.071 -0.4808  0.3954  0.0777
  764MPD2    C111332   0.490   1.109   0.045  0.6851 -0.1058 -0.5734
  764MPD2    C211333   0.494   1.016   0.143 -0.3683 -0.1060 -0.1390
  764MPD2    C311334   0.559   1.030   0.269  0.4835 -0.0335  0.7438
  764MPD2    C411335   0.614   1.154   0.285 -0.4663  0.1409  0.1671
  764MPD2    C511336   0.619   1.250   0.188 -0.2131  0.2508 -0.3682
  764MPD2     H11337   0.448   0.921   0.116  0.2507 -0.4339 -0.0414
  764MPD2    H111338   0.673   1.169   0.375  1.5178  0.4823 -1.2076
  764MPD2    H211339   0.575   1.295  17.723  1.6922  0.3632  0.6647
  764MPD2    H311340   0.676   1.341   0.202  1.6870 -1.2911  1.8626
  764MPD2     N11341   0.553   0.932   0.373 -0.0206  0.0797 -0.5390
  764MPD2    H511342   0.504   0.846   0.351 -0.3435  0.4003 -1.0600
  764MPD2    N111343   0.411   1.078  17.664 -0.3526  0.5449 -0.6385
  764MPD2    H711344   0.364   0.988  17.654  1.0094 -0.1501 -0.9122
  765MPD2     C11345   1.147   3.768  15.484  0.5267  0.6232  0.6701
  765MPD2    C111346   1.198   3.771  15.611 -0.2733  0.5308  0.6169
  765MPD2    C211347   1.274   3.659  15.660 -0.5151  0.5402 -0.3521
  765MPD2    C311348   1.301   3.556  15.575  0.6232  0.2100 -0.1799
  765MPD2    C411349   1.254   3.553  15.447  0.2416  0.1515 -0.4208
  765MPD2    C511350   1.184   3.662  15.399 -0.3107 -0.0067  0.3849
  765MPD2     H11351   1.301   3.662  15.765  0.1798 -1.2216 -0.4789
  765MPD2    H111352   1.276   3.484  15.367  1.0112 -0.7342  0.5607
  765MPD2    H211353   1.086   3.851  15.451 -0.0768  0.5980  1.7356
  765MPD2    H311354   1.155   3.657  15.294 -0.5633 -0.0419  0.4572
  765MPD2     N11355   1.392   3.463  15.628  0.1939  0.1372 -1.0270
  765MPD2    H511356   1.433   3.481  15.719  1.5258 -2.1107 -1.1709
  765MPD2    N111357   1.175   3.892  15.682 -0.0583  0.3134 -0.1688
  765MPD2    H711358   1.124   3.964  15.632 -1.4686 -0.4230  0.2056
  766MPD2     C11359   0.696   3.728  15.497  0.2779  0.9707  0.4756
  766MPD2    C111360   0.769   3.842  15.463  0.5862  0.5833  0.2500
  766MPD2    C211361   0.814   3.851  15.330  0.2395  0.0603  0.4901
  766MPD2    C311362   0.775   3.762  15.234 -0.2549  0.1486 -0.2606
  766MPD2    C411363   0.696   3.656  15.273 -0.1408 -0.1299  0.5674
  766MPD2    C511364   0.665   3.643  15.401  0.0411  0.1253  0.4212
  766MPD2     H11365   0.881   3.927  15.291 -0.3295  0.2254 -0.1563
  766MPD2    H111366   0.656   3.575  15.214 -2.0211  2.2976 -1.4881
  766MPD2    H211367   0.652   3.706  15.594  0.1884  1.1874  0.4852
  766MPD2    H311368   0.608   3.556  15.434 -0.4673  0.1475 -0.4083
  766MPD2     N11369   0.819   3.780  15.098  0.1556  0.2174  0.6177
  766MPD2    H511370   0.880   3.856  15.070  1.8437 -2.1058 -2.0288
  766MPD2    N111371   0.814   3.945  15.551  0.2555 -0.4746 -0.2538
  766MPD2    H711372   0.877   4.021  15.525  0.8951  0.0870  2.9455
  767MPD2     C11373   0.388   3.932  15.120 -1.0281  0.8448 -0.3448
  767MPD2    C111374   0.486   4.001  15.044 -0.1561 -0.0609 -0.2455
  767MPD2    C211375   0.492   3.974  14.911  1.4503 -0.0545 -0.0425
  767MPD2    C311376   0.398   3.888  14.855 -0.0111  0.1276  0.2563
  767MPD2    C411377   0.312   3.818  14.934 -0.0375 -0.8018  0.4222
  767MPD2    C511378   0.310   3.836  15.068 -0.5267  0.4488 -0.1385
  767MPD2     H11379   0.560   4.030  14.847  1.9847  0.5285  1.0402
  767MPD2    H111380   0.256   3.740  14.884  0.2438 -1.6695  1.4571
  767MPD2    H211381   0.382   3.957  15.225  3.0813  1.2690 -0.2064
  767MPD2    H311382   0.242   3.777  15.129 -0.7110  1.5277  0.6956
  767MPD2     N11383   0.416   3.852  14.720  0.0432  0.3406 -0.3382
  767MPD2    H511384   0.511   3.868  14.686 -0.0010  0.4223 -0.4253
  767MPD2    N111385   0.569   4.093  15.113  0.0507 -0.1232  0.2660
  767MPD2    H711386   0.563   4.090  15.214  0.5903 -1.1285  0.2637
  768MPD2     C11387   1.245   1.895  10.616 -0.1405 -0.5120 -0.3839
  768MPD2    C111388   1.312   2.008  10.633 -0.2785 -0.4187 -0.2016
  768MPD2    C211389   1.437   2.004  10.693  0.2886 -1.2297  0.4580
  768MPD2    C311390   1.481   1.883  10.748 -0.4756 -0.2186  0.2721
  768MPD2    C411391   1.409   1.771  10.732 -0.1546 -0.6642  0.3340
  768MPD2    C511392   1.286   1.778  10.672 -1.0256 -0.4036 -0.1601
  768MPD2     H11393   1.498   2.091  10.715  0.2397 -1.5125  1.6880
  768MPD2    H111394   1.446   1.678  10.775  0.8759 -0.9831 -1.2221
  768MPD2    H211395   1.155   1.883  10.556  0.1723 -0.5810 -0.8365
  768MPD2    H311396   1.231   1.685  10.655 -0.1733 -0.8136 -0.6870
  768MPD2     N11397   1.596   1.879  10.830  0.0880 -0.4786 -0.2077
  768MPD2    H511398   1.632   1.792  10.868 -1.1502 -0.3498  1.2842
  768MPD2    N111399   1.262   2.137  10.601  1.0934 -0.1086  0.3644
  768MPD2    H711400   1.319   2.214  10.635  1.3418 -0.2129  0.1822
  769MPD2     C11401   2.088   0.828  14.930 -0.8847  0.3036  0.0148
  769MPD2    C111402   1.962   0.813  14.988  0.2899  0.1320  0.0256
  769MPD2    C211403   1.939   0.872  15.110  0.5486  0.7119  0.4863
  769MPD2    C311404   2.034   0.944  15.179 -0.4067 -0.1967 -0.5689
  769MPD2    C411405   2.158   0.952  15.118  0.2418  0.1252  0.0841
  769MPD2    C511406   2.181   0.902  14.993  0.4788 -0.6938  0.5531
  769MPD2     H11407   1.840   0.867  15.155  1.3011  0.8181  2.1697
  769MPD2    H111408   2.242   0.998  15.168  1.6560  1.3771 -3.4310
  769MPD2    H211409   2.110   0.799  14.828 -1.3839  0.3078 -0.0961
  769MPD2    H311410   2.271   0.929  14.940  1.0591  0.3246  2.0589
  769MPD2     N11411   1.997   1.011  15.301 -0.4448  0.1261 -0.3829
  769MPD2    H511412   1.913   0.982  15.351 -1.1223  1.2882 -0.8639
  769MPD2    N111413   1.860   0.745  14.910  0.1220  0.2996  0.2803
  769MPD2    H711414   1.886   0.718  14.815 -1.4377  0.2369 -0.1232
  770MPD2     C11415   1.291   0.024  14.752  0.3248  0.1123 -0.0542
  770MPD2    C111416   1.423   0.050  14.760 -0.1719  0.2423  0.1228
  770MPD2    C211417   1.471   0.183  14.766  0.1225 -0.3686 -0.2573
  770MPD2    C311418   1.383   0.283  14.781  0.8049 -0.0951  0.4817
  770MPD2    C411419   1.246   0.259  14.770  0.1300 -0.3418  0.0872
  770MPD2    C511420   1.205   0.129  14.758  1.1252 -0.0313 -0.6230
  770MPD2     H11421   1.575   0.211  14.767 -0.3078  1.2766 -1.5417
  770MPD2    H111422   1.164   0.330  14.762  0.5379  0.0143 -0.9387
  770MPD2    H211423   1.249   4.658  14.749  0.8390 -0.1618  1.6906
  770MPD2    H311424   1.101   0.106  14.738  0.7560  1.7908 -0.8491
  770MPD2     N11425   1.428   0.416  14.787  1.5431  0.3868 -0.0179
  770MPD2    H511426   1.524   0.439  14.813  2.5518 -1.4956 -2.1525
  770MPD2    N111427   1.511   4.674  14.761 -0.1281 -0.2390 -0.3077
  770MPD2    H711428   1.459   4.587  14.746  2.6439 -1.9985  0.3606
  771MPD2     C11429   3.482   2.706  13.527 -1.0112 -0.0565  0.0271
  771MPD2    C111430   3.453   2.825  13.466 -0.5535 -0.3972  0.3952
  771MPD2    C211431   3.407   2.825  13.333 -0.2786  0.2468 -0.2270
  771MPD2    C311432   3.370   2.707  13.268 -0.1760  0.1525 -0.3653
  771MPD2    C411433   3.393   2.587  13.332  0.0208 -0.2140 -0.4255
  771MPD2    C511434   3.455   2.588  13.456 -0.4756  0.4221 -0.9408
  771MPD2     H11435   3.385   2.927  13.304 -0.2964  0.2918 -0.0595
  771MPD2    H111436   3.355   2.495  13.288 -1.7427  0.2423  0.1425
  771MPD2    H211437   3.500   2.681  13.631 -2.7035  0.9216  0.5631
  771MPD2    H311438   3.490   2.497  13.503 -0.8480  1.1731  0.8013
  771MPD2     N11439   3.300   2.722  13.146 -0.3974  0.1651 -0.7303
  771MPD2    H511440   3.305   2.814  13.103  3.5150  1.2056  1.9293
  771MPD2    N111441   3.458   2.945  13.527  0.6734  0.4461  0.4630
  771MPD2    H711442   3.431   3.026  13.472 -0.6530 -0.0981  0.3259
  772MPD2     C11443   3.243   3.501  14.080 -0.7920 -0.0118 -0.3825
  772MPD2    C111444   3.220   3.404  13.988  0.1211  0.1700 -0.2765
  772MPD2    C211445   3.092   3.374  13.960 -0.2565  0.1181  0.4536
  772MPD2    C311446   2.980   3.444  14.012  0.4687  0.0560 -0.2724
  772MPD2    C411447   3.008   3.550  14.106  0.3268 -0.1106  0.2582
  772MPD2    C511448   3.140   3.567  14.137 -0.1988 -0.2267  0.0532
  772MPD2     H11449   3.086   3.302  13.878 -3.6205 -2.3242  2.8770
  772MPD2    H111450   2.940   3.625  14.144 -0.5704 -0.4307 -0.7386
  772MPD2    H211451   3.342   3.533  14.111 -0.4413 -0.9505 -0.5411
  772MPD2    H311452   3.160   3.657  14.193 -0.6346  0.3395 -0.6967
  772MPD2     N11453   2.857   3.413  13.961 -0.4908 -0.6246  0.0831
  772MPD2    H511454   2.855   3.328  13.906 -2.6631 -0.5549  0.0562
  772MPD2    N111455   3.327   3.327  13.922  0.5207  0.4913 -0.8595
  772MPD2    H711456   3.308   3.255  13.853  1.5739  1.0993 -1.7638
  773MPD2     C11457   2.024   4.537   0.120 -0.3980  0.4252  0.1725
  773MPD2    C111458   1.926   4.447   0.081  0.5384  0.7022  0.0530
  773MPD2    C211459   1.907   4.336   0.164 -0.3740  0.2393 -0.2514
  773MPD2    C311460   1.979   4.315   0.277  0.5771 -0.1861 -0.1701
  773MPD2    C411461   2.086   4.399   0.312 -0.7988  0.2926 -0.0244
  773MPD2    C511462   2.100   4.510   0.233 -0.7692  0.2132  0.1732
  773MPD2     H11463   1.829   4.264   0.141  0.6581 -0.7769 -0.5771
  773MPD2    H111464   2.150   4.381   0.398  0.9648  0.3674 -1.3355
  773MPD2    H211465   2.040   4.621   0.053  0.2934  1.0062  1.0665
  773MPD2    H311466   2.179   4.577   0.265 -0.6836 -0.2100  0.8424
  773MPD2     N11467   1.948   4.198   0.355 -1.1015 -0.4003 -0.1370
  773MPD2    H511468   1.900   4.121   0.310  0.1115  1.0286 -3.9508
  773MPD2    N111469   1.849   4.464  17.702 -0.4615 -0.2856  0.5193
  773MPD2    H711470   1.787   4.387  17.677 -1.0863 -0.1554  1.6455
  774MPD2     C11471   1.870   3.429  13.303  1.0927  0.7409  0.3280
  774MPD2    C111472   1.767   3.498  13.365  0.1355  0.3246 -0.4969
  774MPD2    C211473   1.762   3.635  13.335  0.2057  0.3916 -0.1063
  774MPD2    C311474   1.857   3.706  13.254  0.5233  0.1213  0.4333
  774MPD2    C411475   1.943   3.627  13.180  0.0719 -0.4888  0.3370
  774MPD2    C511476   1.945   3.493  13.211  0.5662 -0.1865 -0.8847
  774MPD2     H11477   1.686   3.697  13.382  1.5072  0.8346  1.4133
  774MPD2    H111478   1.998   3.661  13.094 -0.2916 -0.7194  0.0133
  774MPD2    H211479   1.878   3.322  13.318  0.8041  0.5433 -0.9176
  774MPD2    H311480   2.023   3.440  13.157 -0.3158 -0.9444 -1.4089
  774MPD2     N11481   1.865   3.856  13.247 -0.3151 -0.2227 -0.3650
  774MPD2    H511482   1.784   3.901  13.287 -0.7013 -1.6790  0.4962
  774MPD2    N111483   1.682   3.424  13.449 -0.0910  0.5033 -0.3097
  774MPD2    H711484   1.730   3.343  13.486  0.3315  0.7288 -0.3647
  775MPD2     C11485   2.133   0.768  15.672 -0.3014 -0.2337 -0.2609
  775MPD2    C111486   2.189   0.813  15.790  0.0666 -0.3634 -0.7004
  775MPD2    C211487   2.301   0.893  15.781 -0.1003 -0.1679 -0.4930
  775MPD2    C311488   2.366   0.912  15.657 -0.0232 -0.5469  0.7609
  775MPD2    C411489   2.302   0.866  15.539  0.4176  0.0188 -0.0315
  775MPD2    C511490   2.185   0.786  15.549 -0.3555  0.0325 -0.0062
  775MPD2     H11491   2.357   0.930  15.866 -1.4788  2.4497 -0.6930
  775MPD2    H111492   2.338   0.885  15.439 -0.5841  1.1238 -0.1793
  775MPD2    H211493   2.034   0.724  15.671 -0.0177 -0.8755  0.0676
  775MPD2    H311494   2.127   0.755  15.463 -0.1636  1.6192 -0.6921
  775MPD2     N11495   2.486   0.985  15.634  0.2870  0.9820 -0.9090
  775MPD2    H511496   2.517   0.985  15.537 -0.1481  1.5848 -1.0501
  775MPD2    N111497   2.119   0.792  15.912  0.4038  0.1528  0.0719
  775MPD2    H711498   2.043   0.725  15.906 -0.0151  0.5503  0.9438
  776MPD2     C11499   2.213   0.599  11.984 -0.8045  0.6822 -0.8240
  776MPD2    C111500   2.181   0.596  11.850  0.1900 -0.3135  0.0200
  776MPD2    C211501   2.164   0.719  11.785  0.2626  0.1547 -0.1792
  776MPD2    C311502   2.174   0.838  11.854  0.3090  0.2509  0.1896
  776MPD2    C411503   2.227   0.832  11.981 -0.0763  0.2148 -0.9991
  776MPD2    C511504   2.240   0.715  12.048 -0.4815  0.5496 -0.0719
  776MPD2     H11505   2.148   0.722  11.678  0.0985 -0.0519 -0.1584
  776MPD2    H111506   2.237   0.920  12.043  0.6341 -1.0998  0.7462
  776MPD2    H211507   2.229   0.507  12.039 -0.8125  0.7629 -0.6870
  776MPD2    H311508   2.267   0.714  12.153 -0.8131  1.3967  0.0188
  776MPD2     N11509   2.163   0.964  11.801 -0.1908  0.6253 -0.3475
  776MPD2    H511510   2.179   1.040  11.867  0.9217  0.6246 -0.6158
  776MPD2    N111511   2.159   0.475  11.786  0.4230  0.5255 -0.2708
  776MPD2    H711512   2.167   0.392  11.844  2.2417  0.1997 -1.0002
  777MPD2     C11513   2.141   2.631   1.015 -0.5450  0.8285 -0.3461
  777MPD2    C111514   2.020   2.639   1.083 -0.1321 -0.0642 -0.4657
  777MPD2    C211515   1.904   2.596   1.023 -0.1346 -0.2711  0.3821
  777MPD2    C311516   1.903   2.544   0.894 -0.5672  0.0296  0.4482
  777MPD2    C411517   2.024   2.532   0.830  0.4263 -0.3417  0.3437
  777MPD2    C511518   2.140   2.578   0.888 -0.0412  0.1872  0.0091
  777MPD2     H11519   1.813   2.598   1.082 -1.7588 -0.5197 -2.0860
  777MPD2    H111520   2.034   2.502   0.726  1.2300 -1.3834  0.7228
  777MPD2    H211521   2.230   2.671   1.061 -0.1187 -1.1913  0.5831
  777MPD2    H311522   2.228   2.565   0.827  1.4175  0.3056  2.0771
  777MPD2     N11523   1.779   2.512   0.840  0.3188  0.2350  0.0329
  777MPD2    H511524   1.695   2.524   0.895  0.0822 -0.5111 -0.1761
  777MPD2    N111525   2.027   2.681   1.220  0.4173  0.0960 -0.5396
  777MPD2    H711526   2.106   2.733   1.258  0.5731 -1.4054  1.1891
  778MPD2     C11527   3.479   3.327  14.869 -0.1611  0.3902  0.1290
  778MPD2    C111528   3.543   3.206  14.872 -1.0709  0.0287  0.0754
  778MPD2    C211529   3.637   3.178  14.774  0.3277  0.0537 -0.0341
  778MPD2    C311530   3.652   3.267  14.669  0.2539 -0.1000  0.7499
  778MPD2    C411531   3.581   3.385  14.664 -0.4663  0.5233  0.0738
  778MPD2    C511532   3.501   3.415  14.772  0.7190  0.6558 -0.2381
  778MPD2     H11533   3.692   3.086  14.791 -2.6506 -1.5842  0.7106
  778MPD2    H111534   3.609   3.451  14.583  1.8557 -1.3789 -0.7016
  778MPD2    H211535   3.410   3.353  14.948  0.3383 -0.7171  0.9296
  778MPD2    H311536   3.452   3.511  14.781  0.0167  0.2473  0.2765
  778MPD2     N11537   3.744   3.234  14.566 -0.0993 -0.1652 -0.4960
  778MPD2    H511538   3.804   3.157  14.593 -2.5370 -2.6599 -2.2159
  778MPD2    N111539   3.519   3.107  14.962  0.0606  0.1826  0.6398
  778MPD2    H711540   3.573   3.022  14.951 -0.3594  0.2087 -1.5916
  779MPD2     C11541   2.747   1.964  14.425  0.2602  0.5455  0.5073
  779MPD2    C111542   2.865   1.975  14.502  0.6635  0.6318 -0.6200
  779MPD2    C211543   2.928   2.100  14.524 -0.7582 -0.6777  0.5768
  779MPD2    C311544   2.878   2.209  14.449  0.3490 -0.2300 -0.5799
  779MPD2    C411545   2.772   2.193  14.364  0.3121  0.5641 -0.1670
  779MPD2    C511546   2.703   2.075  14.357  0.4969 -0.1066  0.2394
  779MPD2     H11547   3.007   2.119  14.596 -0.8417  0.0069  0.4801
  779MPD2    H111548   2.742   2.278  14.303 -4.2690 -1.3943 -0.6787
  779MPD2    H211549   2.703   1.865  14.419 -0.7060  0.9908  0.3586
  779MPD2    H311550   2.615   2.066  14.293  1.3230 -1.4728 -0.6992
  779MPD2     N11551   2.948   2.336  14.459 -0.3596 -0.4676 -0.2053
  779MPD2    H511552   3.032   2.337  14.517 -1.2495 -0.4432  1.0793
  779MPD2    N111553   2.915   1.855  14.555  0.3677  0.1335  0.2928
  779MPD2    H711554   2.867   1.768  14.532  2.0927 -0.2972 -1.7376
  780MPD2     C11555   2.119   1.836   1.356  0.3671 -0.3643  0.2794
  780MPD2    C111556   2.044   1.783   1.251  0.0089  0.3271  0.1059
  780MPD2    C211557   2.058   1.839   1.126 -0.7618 -0.6607 -0.3968
  780MPD2    C311558   2.126   1.957   1.110 -0.2996  0.4092 -0.4663
  780MPD2    C411559   2.192   2.018   1.214  0.0156  0.0437  0.2345
  780MPD2    C511560   2.194   1.950   1.338  0.9961 -1.1793  0.7271
  780MPD2     H11561   2.015   1.784   1.044 -1.4188  1.4511 -1.4513
  780MPD2    H111562   2.249   2.110   1.212 -0.8597  0.5588 -0.9698
  780MPD2    H211563   2.122   1.788   1.453  0.8220  0.3940  0.6427
  780MPD2    H311564   2.250   1.993   1.420  0.7205 -1.5510  1.1039
  780MPD2     N11565   2.145   2.000   0.974 -0.1313 -0.9015  0.5232
  780MPD2    H511566   2.122   1.935   0.900  0.3382  0.0910 -0.4997
  780MPD2    N111567   1.974   1.664   1.282  0.1912 -0.3614 -0.2974
  780MPD2    H711568   1.986   1.620   1.373 -1.2875  0.8582  0.4779
  781MPD2     C11569   4.206   3.309  11.790 -0.5193  0.6532 -0.3315
  781MPD2    C111570   4.253   3.405  11.870  0.1699 -0.8835 -0.3680
  781MPD2    C211571   4.363   3.481  11.837 -0.5879  0.5116  0.4253
  781MPD2    C311572   4.436   3.437  11.727  0.8828  0.1524 -0.4429
  781MPD2    C411573   4.391   3.338  11.643 -0.7450 -0.7084 -0.9775
  781MPD2    C511574   4.276   3.276  11.678  0.9234 -0.1586  0.1230
  781MPD2     H11575   4.392   3.562  11.902 -0.1985  1.9568 -1.5562
  781MPD2    H111576   4.435   3.315  11.546  0.2391 -0.6511 -0.5368
  781MPD2    H211577   4.118   3.248  11.809 -1.6137  2.1505 -0.5243
  781MPD2    H311578   4.229   3.202  11.613 -0.7442 -0.0423  1.2033
  781MPD2     N11579   4.555   3.502  11.702  0.1205  0.2232 -0.2287
  781MPD2    H511580   4.621   3.436  11.660  1.2872  0.7187  0.8218
  781MPD2    N111581   4.175   3.449  11.980  0.8339 -0.0831  0.1902
  781MPD2    H711582   4.197   3.540  12.020 -2.3097 -0.7065  3.2736
  782MPD2     C11583   2.779   4.355  10.085 -0.1268  0.5261 -0.0614
  782MPD2    C111584   2.808   4.295  10.211 -0.2043  0.2141 -0.1029
  782MPD2    C211585   2.828   4.375  10.320  0.1793  0.7597 -0.1080
  782MPD2    C311586   2.815   4.509  10.326 -0.0536 -0.1302 -0.2133
  782MPD2    C411587   2.782   4.567  10.205 -0.3802  0.5913  0.3261
  782MPD2    C511588   2.772   4.491  10.092 -0.4419 -0.2057  0.4324
  782MPD2     H11589   2.843   4.337  10.420 -2.7161  2.6403  1.0208
  782MPD2    H111590   2.777   4.676  10.199  2.8517  0.6964 -0.2148
  782MPD2    H211591   2.758   4.298   9.995  2.4268  0.0076 -0.3230
  782MPD2    H311592   2.740   4.539  10.000  3.0036 -0.6991 -1.0259
  782MPD2     N11593   2.849   4.575  10.448  0.1874 -0.3203 -0.0140
  782MPD2    H511594   2.872   4.515  10.526 -1.2959  1.1926  1.5616
  782MPD2    N111595   2.830   4.161  10.232  0.4508 -0.5001 -0.4208
  782MPD2    H711596   2.840   4.135  10.329 -0.4909  0.7788  0.0117
  783MPD2     C11597   2.402   3.855  10.790 -0.3342  0.4278 -1.0937
  783MPD2    C111598   2.398   3.945  10.681  0.3046 -0.0046 -0.3465
  783MPD2    C211599   2.468   3.920  10.566 -0.2911  0.3278 -0.3206
  783MPD2    C311600   2.537   3.799  10.544 -0.0579  0.5840 -0.4108
  783MPD2    C411601   2.539   3.711  10.649  0.1423  0.3571 -0.2215
  783MPD2    C511602   2.468   3.735  10.764  0.1079  0.0891 -0.1639
  783MPD2     H11603   2.471   3.997  10.489  0.3791 -0.0286 -0.6492
  783MPD2    H111604   2.590   3.616  10.643 -1.5602 -0.6327  0.7952
  783MPD2    H211605   2.345   3.878  10.880  1.4238  1.8609 -0.3516
  783MPD2    H311606   2.455   3.647  10.825 -0.4589  0.1281 -0.2298
  783MPD2     N11607   2.616   3.793  10.423 -0.3671 -0.2352  0.4466
  783MPD2    H511608   2.613   3.869  10.356  3.4212  0.9294  1.5680
  783MPD2    N111609   2.323   4.070  10.696 -0.5244 -0.0720 -0.3904
  783MPD2    H711610   2.297   4.091  10.792  0.5617 -1.7395  0.2687
  784MPD2     C11611   4.460   4.353   0.501 -0.0375 -0.4613  0.3796
  784MPD2    C111612   4.431   4.407   0.625  0.0053  0.0828  0.6135
  784MPD2    C211613   4.316   4.483   0.633 -0.0320  0.3201  0.0353
  784MPD2    C311614   4.229   4.495   0.526  0.1966  0.4368 -0.3436
  784MPD2    C411615   4.264   4.432   0.407 -0.0552 -0.4330 -0.4972
  784MPD2    C511616   4.376   4.358   0.396  0.2455  0.3574 -0.2672
  784MPD2     H11617   4.287   4.529   0.727 -0.7185 -0.8155  0.3715
  784MPD2    H111618   4.203   4.431   0.317  0.7633  0.3588 -1.0650
  784MPD2    H211619   4.559   4.312   0.484 -0.6206 -1.2305 -1.1365
  784MPD2    H311620   4.405   4.318   0.299  1.7225  1.4956 -0.2880
  784MPD2     N11621   4.106   4.565   0.537 -0.0929  0.0749 -0.1036
  784MPD2    H511622   4.077   4.604   0.627 -1.8491 -0.8665 -0.2532
  784MPD2    N111623   4.517   4.403   0.733 -0.0662 -0.1131 -0.0436
  784MPD2    H711624   4.499   4.463   0.814  0.5739  0.9015 -0.6519
  785MPD2     C11625   0.923   2.967  11.071  0.0573 -0.0216 -0.8716
  785MPD2    C111626   0.869   3.080  11.010  0.4468  0.1228 -0.5426
  785MPD2    C211627   0.774   3.058  10.911 -0.4519  0.0565  0.2434
  785MPD2    C311628   0.717   2.931  10.889  0.8928 -0.2513 -0.0075
  785MPD2    C411629   0.770   2.827  10.962  0.6138 -0.2886 -0.2057
  785MPD2    C511630   0.875   2.850  11.046  0.4084  0.3024 -0.3372
  785MPD2     H11631   0.731   3.135  10.848 -1.0934 -0.2282  0.3322
  785MPD2    H111632   0.746   2.722  10.972  0.6681 -0.2913 -0.1104
  785MPD2    H211633   1.004   2.962  11.143 -1.8352  0.5021  1.3303
  785MPD2    H311634   0.911   2.771  11.111  0.2776 -0.4836 -1.2286
  785MPD2     N11635   0.619   2.905  10.787 -0.3745 -0.6450  0.5931
  785MPD2    H511636   0.595   2.985  10.730 -0.2224 -0.2649  1.0673
  785MPD2    N111637   0.889   3.204  11.063  0.2833 -0.0484 -0.1090
  785MPD2    H711638   0.937   3.196  11.152 -1.3314 -0.1662  0.7486
  786MPD2     C11639   3.116   1.273  14.753 -0.1133 -0.4246  0.5437
  786MPD2    C111640   3.201   1.166  14.781 -0.7058 -0.3954  1.2869
  786MPD2    C211641   3.277   1.166  14.895 -0.0321 -0.5319 -0.2386
  786MPD2    C311642   3.265   1.265  14.994  0.3828  0.1214 -0.3583
  786MPD2    C411643   3.180   1.373  14.966  0.2174 -0.2523 -0.3089
  786MPD2    C511644   3.107   1.374  14.845 -0.0317 -0.3472  0.1533
  786MPD2     H11645   3.333   1.075  14.916  0.4691 -0.3148 -0.6141
  786MPD2    H111646   3.183   1.460  15.031 -1.3148 -1.5435  1.4647
  786MPD2    H211647   3.071   1.286  14.656  0.5937 -0.1648  0.2483
  786MPD2    H311648   3.051   1.462  14.814  0.9083  0.9034  1.9639
  786MPD2     N11649   3.335   1.265  15.118 -0.0888 -0.5490 -0.0523
  786MPD2    H511650   3.297   1.330  15.187 -1.7619 -0.1029 -1.3821
  786MPD2    N111651   3.223   1.053  14.690  0.0181  0.3020  0.2079
  786MPD2    H711652   3.293   0.986  14.719 -0.6227 -0.5484 -0.1941
  787MPD2     C11653   3.287   0.230  14.610 -0.4439  0.1158  0.8103
  787MPD2    C111654   3.368   0.347  14.619 -0.1596 -0.0627 -0.2163
  787MPD2    C211655   3.502   0.340  14.665  0.0542 -0.0149  0.2960
  787MPD2    C311656   3.547   0.214  14.706 -0.6118 -0.0835  0.5161
  787MPD2    C411657   3.459   0.109  14.714 -0.3011 -0.2551 -0.2822
  787MPD2    C511658   3.330   0.121  14.675  0.0800  0.0276  0.7331
  787MPD2     H11659   3.574   0.420  14.652 -1.2361  0.6765 -2.7012
  787MPD2    H111660   3.491   0.012  14.752 -0.7851 -0.3664 -0.1578
  787MPD2    H211661   3.190   0.227  14.561  0.0370  0.2777 -0.1362
  787MPD2    H311662   3.261   0.038  14.686  0.6555 -0.6626 -0.8902
  787MPD2     N11663   3.691   0.196  14.728  0.1425  0.6124  0.1854
  787MPD2    H511664   3.737   0.287  14.730  1.9207 -0.2568 -1.0036
  787MPD2    N111665   3.319   0.472  14.572 -0.7122  0.1696 -0.4170
  787MPD2    H711666   3.225   0.481  14.535  0.0193  0.8479 -2.0989
  788MPD2     C11667   0.502   4.336   0.989  0.1094 -0.5346  0.2157
  788MPD2    C111668   0.444   4.282   0.876  0.5247  1.7506 -0.6659
  788MPD2    C211669   0.399   4.366   0.779  0.4532 -0.1091  0.7596
  788MPD2    C311670   0.420   4.502   0.784 -0.0764  0.4956  0.1468
  788MPD2    C411671   0.464   4.555   0.907 -0.2788  0.1208  0.2142
  788MPD2    C511672   0.511   4.469   1.004 -0.1393 -0.1442 -0.1411
  788MPD2     H11673   0.362   4.323   0.686 -0.7378 -0.8822  1.5882
  788MPD2    H111674   0.466   4.663   0.917  1.2992  0.0761  0.4058
  788MPD2    H211675   0.544   4.273   1.068  0.3419 -0.1243  0.4231
  788MPD2    H311676   0.544   4.506   1.100  0.7709 -1.8209  0.1960
  788MPD2     N11677   0.419   4.579   0.664  0.6120  0.2930  0.6982
  788MPD2    H511678   0.386   4.522   0.586  0.0261 -0.6309  1.6185
  788MPD2    N111679   0.425   4.142   0.868 -0.0010  0.1187 -0.6856
  788MPD2    H711680   0.463   4.089   0.946  1.2659  0.6476 -0.9349
  789MPD2     C11681   1.007   4.075  16.177  0.0834  0.6763 -0.3036
  789MPD2    C111682   0.982   4.019  16.298  0.1695 -0.7365  0.4630
  789MPD2    C211683   0.852   4.014  16.348  0.1053  0.0745  0.2870
  789MPD2    C311684   0.753   4.067  16.272 -0.0098 -0.3321  0.0313
  789MPD2    C411685   0.776   4.128  16.155  0.0977  0.3649  0.1512
  789MPD2    C511686   0.907   4.136  16.115  0.5969 -0.7854  0.1993
  789MPD2     H11687   0.836   3.971  16.447  1.2331  0.2771  0.5513
  789MPD2    H111688   0.700   4.178  16.096  0.4069  0.6450 -0.0116
  789MPD2    H211689   1.105   4.073  16.129 -0.7857  2.3273 -2.1411
  789MPD2    H311690   0.929   4.185  16.021 -0.5071 -0.1298  0.2871
  789MPD2     N11691   0.615   4.054  16.319 -0.0618 -0.2100 -0.1379
  789MPD2    H511692   0.546   4.091  16.255 -0.2850 -0.0398  0.2014
  789MPD2    N111693   1.087   3.960  16.372 -0.0811  0.0772 -0.3206
  789MPD2    H711694   1.064   3.926  16.465  1.8140  1.9693  0.8272
  790MPD2     C11695   2.041   1.216  13.090  0.1318  0.5359  0.3563
  790MPD2    C111696   2.063   1.120  13.179 -0.1812  0.2422  0.4826
  790MPD2    C211697   2.041   0.985  13.146  0.4517  0.3350  0.0114
  790MPD2    C311698   1.993   0.949  13.021 -0.3350 -0.2540 -0.2469
  790MPD2    C411699   1.966   1.055  12.937  0.0946  0.4684 -0.4432
  790MPD2    C511700   1.995   1.185  12.967  0.1063 -0.2301  0.0027
  790MPD2     H11701   2.063   0.910  13.221 -0.7138  2.4262  2.4362
  790MPD2    H111702   1.931   1.040  12.836 -0.2351 -0.0348 -0.2570
  790MPD2    H211703   2.062   1.320  13.113  1.0073  0.7327 -1.3957
  790MPD2    H311704   1.985   1.270  12.900  0.9520 -0.9806 -1.0844
  790MPD2     N11705   1.963   0.813  12.989 -0.0491 -0.3813 -0.3414
  790MPD2    H511706   1.989   0.745  13.060  0.2995 -1.2560 -1.2939
  790MPD2    N111707   2.112   1.164  13.306  0.3856  0.5560 -0.1828
  790MPD2    H711708   2.144   1.260  13.317  1.6894  0.2825 -1.6322
  791MPD2     C11709   1.271   0.574  12.897  0.8662 -0.5190 -0.0988
  791MPD2    C111710   1.356   0.472  12.873 -0.5533 -0.5964 -0.4424
  791MPD2    C211711   1.308   0.346  12.865 -0.5712 -0.1867 -0.2656
  791MPD2    C311712   1.176   0.319  12.883  0.1114  0.5731 -0.3466
  791MPD2    C411713   1.087   0.428  12.901  0.4455 -0.9796 -0.3419
  791MPD2    C511714   1.133   0.556  12.914  0.1938 -0.6642 -0.2943
  791MPD2     H11715   1.363   0.253  12.860 -2.7716 -1.4849 -0.0272
  791MPD2    H111716   0.983   0.410  12.928  0.5161  2.1773  1.9931
  791MPD2    H211717   1.305   0.676  12.914 -0.5069  0.0537 -0.7892
  791MPD2    H311718   1.064   0.638  12.933 -0.1830 -0.0351 -4.2399
  791MPD2     N11719   1.135   0.184  12.903  0.3076  0.0281  0.2296
  791MPD2    H511720   1.193   0.102  12.889 -0.3022 -0.2333 -0.8297
  791MPD2    N111721   1.493   0.497  12.875 -0.1655  0.9576  0.2851
  791MPD2    H711722   1.524   0.593  12.884  2.1721  0.3696 -1.4425
  792MPD2     C11723   2.564   0.526  11.271 -0.1729  0.2182 -0.0018
  792MPD2    C111724   2.445   0.570  11.226 -0.2583 -0.5903 -0.5285
  792MPD2    C211725   2.385   0.498  11.123  0.1427  0.3768  0.3097
  792MPD2    C311726   2.440   0.385  11.068 -0.3789  0.3076 -0.4687
  792MPD2    C411727   2.562   0.337  11.113 -0.3056 -0.1911 -0.8577
  792MPD2    C511728   2.620   0.409  11.215  0.3663 -0.0044  0.0231
  792MPD2     H11729   2.298   0.546  11.080  0.5410 -0.4517 -1.4721
  792MPD2    H111730   2.604   0.243  11.079  3.2470  0.5366  1.5427
  792MPD2    H211731   2.614   0.567  11.359 -2.3957 -2.5384  2.5312
  792MPD2    H311732   2.714   0.385  11.263  0.6692 -2.1892 -1.6699
  792MPD2     N11733   2.377   0.313  10.959 -0.3741 -0.3426 -0.4015
  792MPD2    H511734   2.422   0.231  10.921  1.6105  1.2126 -1.4342
  792MPD2    N111735   2.397   0.682  11.299  0.2896  0.0472  0.1254
  792MPD2    H711736   2.451   0.709  11.380 -0.4578 -0.2056  0.7015
  793MPD2     C11737   1.543   0.266  10.418 -0.6734 -0.7171 -0.3674
  793MPD2    C111738   1.650   0.362  10.439 -0.5954  0.4863 -0.1073
  793MPD2    C211739   1.760   0.318  10.504  0.1953 -0.3843 -0.8296
  793MPD2    C311740   1.764   0.187  10.555 -0.2216  0.3924 -0.0592
  793MPD2    C411741   1.659   0.096  10.541 -0.1300  0.1880 -0.0413
  793MPD2    C511742   1.554   0.140  10.463 -0.0513  0.3735  0.1523
  793MPD2     H11743   1.834   0.395  10.523  1.6013 -1.9450 -0.0570
  793MPD2    H111744   1.656   4.731  10.583  0.6512  0.4864  0.7144
  793MPD2    H211745   1.465   0.290  10.347  1.6347  3.7954 -1.4319
  793MPD2    H311746   1.471   0.071  10.465  0.5474 -0.3312  0.9454
  793MPD2     N11747   1.883   0.163  10.630  0.2895 -0.4774 -0.5308
  793MPD2    H511748   1.945   0.243  10.635 -1.7501  1.0232  0.7910
  793MPD2    N111749   1.661   0.495  10.379  0.3317 -0.0868 -0.1944
  793MPD2    H711750   1.745   0.544  10.409  0.6019 -0.1272 -0.9021
  794MPD2     C11751   1.563   0.197  17.022  0.4171  0.2777  0.1752
  794MPD2    C111752   1.459   0.175  17.109 -0.8992  0.3223  0.0220
  794MPD2    C211753   1.332   0.229  17.081 -0.3139  0.4719 -0.5583
  794MPD2    C311754   1.307   0.290  16.957 -0.6748  0.2888 -0.4787
  794MPD2    C411755   1.424   0.321  16.878 -0.2440 -0.4821 -0.4841
  794MPD2    C511756   1.548   0.288  16.923  0.2717 -0.4728  0.1213
  794MPD2     H11757   1.260   0.207  17.158  0.3397  1.3699  0.3209
  794MPD2    H111758   1.418   0.381  16.788 -0.2821  0.6042  0.2422
  794MPD2    H211759   1.661   0.155  17.040  0.6645 -0.8216 -3.7503
  794MPD2    H311760   1.631   0.313  16.859  0.1347 -0.9470 -0.2468
  794MPD2     N11761   1.183   0.329  16.906 -0.3046 -0.4718 -0.0466
  794MPD2    H511762   1.176   0.376  16.816  2.1043  0.7362  0.4024
  794MPD2    N111763   1.479   0.112  17.230 -0.1151  0.1307  0.3259
  794MPD2    H711764   1.391   0.089  17.277 -0.6445  1.1482 -0.1722
  795MPD2     C11765   4.370   2.124  13.195  0.3404 -0.5024  0.5595
  795MPD2    C111766   4.285   2.103  13.297  0.3643 -0.1477  0.0090
  795MPD2    C211767   4.339   2.094  13.428 -0.1680 -0.1080  1.0007
  795MPD2    C311768   4.480   2.108  13.446 -0.2485 -0.1248 -0.1828
  795MPD2    C411769   4.565   2.124  13.336 -0.0053  0.1919  0.4813
  795MPD2    C511770   4.504   2.130  13.215 -0.1378 -0.6475  0.8556
  795MPD2     H11771   4.274   2.075  13.513 -0.6390 -0.4474  0.5605
  795MPD2    H111772   4.673   2.129  13.333 -0.2267  3.7171 -0.9124
  795MPD2    H211773   4.339   2.132  13.092  0.1569 -0.3677  0.6256
  795MPD2    H311774   4.567   2.152  13.131 -0.7599  0.3479  0.6510
  795MPD2     N11775   4.551   2.095  13.571  0.1035 -0.9319  0.3814
  795MPD2    H511776   4.651   2.097  13.555  0.2926  2.7428  2.1657
  795MPD2    N111777   4.148   2.081  13.280 -0.4425  0.1419  0.1633
  795MPD2    H711778   4.088   2.093  13.361 -1.9938 -0.6851 -0.8563
  796MPD2     C11779   3.215   4.063  15.895 -0.5789 -0.3315  0.2519
  796MPD2    C111780   3.324   4.147  15.935  0.5827  0.5224 -0.2755
  796MPD2    C211781   3.370   4.249  15.849  0.4910  0.3759  0.5730
  796MPD2    C311782   3.302   4.260  15.727 -0.4214  0.6330 -0.0841
  796MPD2    C411783   3.200   4.175  15.687 -0.0067 -0.3300  0.0170
  796MPD2    C511784   3.164   4.075  15.769  0.7967 -0.8941 -0.7415
  796MPD2     H11785   3.438   4.328  15.878 -0.0289  0.9073  0.3502
  796MPD2    H111786   3.139   4.183  15.598 -1.8101  1.0848  1.3751
  796MPD2    H211787   3.168   3.992  15.963  0.6304 -2.0144 -0.6518
  796MPD2    H311788   3.087   4.006  15.735 -2.2962  1.9832  0.4753
  796MPD2     N11789   3.329   4.378  15.650 -0.4490  0.2120  0.0127
  796MPD2    H511790   3.407   4.437  15.678  1.3524 -2.4715  0.6306
  796MPD2    N111791   3.370   4.136  16.070 -0.7235 -0.0085  0.3779
  796MPD2    H711792   3.318   4.076  16.133 -1.2324 -1.0676 -1.0447
  797MPD2     C11793   0.048   3.363  17.238  0.4025 -0.0714  0.8686
  797MPD2    C111794   0.008   3.469  17.317  0.3545 -0.2530  0.6650
  797MPD2    C211795   4.615   3.518  17.311  0.3210 -0.4565  0.7262
  797MPD2    C311796   4.531   3.474  17.210 -0.3118  0.3140 -0.4477
  797MPD2    C411797   4.570   3.372  17.134  0.2186  0.5544 -0.1444
  797MPD2    C511798   4.692   3.318  17.148  0.0672  0.6695 -0.9094
  797MPD2     H11799   4.578   3.588  17.385  0.2104 -0.0218  0.2637
  797MPD2    H111800   4.510   3.341  17.049 -0.6230 -0.6697  0.9007
  797MPD2    H211801   0.148   3.323  17.243  0.2840 -0.4125  0.4629
  797MPD2    H311802   4.720   3.230  17.091 -0.6830  1.7794 -2.9910
  797MPD2     N11803   4.406   3.533  17.182  0.0885  0.0742  0.4142
  797MPD2    H511804   4.341   3.477  17.127  2.1533 -0.6542 -1.2779
  797MPD2    N111805   0.093   3.530  17.412  0.7541 -0.4420  0.6764
  797MPD2    H711806   0.049   3.590  17.481  0.5891 -0.9657  1.0232
  798MPD2     C11807   4.417   4.169  17.453  0.5663 -0.2736 -0.4367
  798MPD2    C111808   4.422   4.039  17.420  0.6427  0.6421 -0.4239
  798MPD2    C211809   4.530   3.968  17.461  0.5691 -0.1846 -0.5408
  798MPD2    C311810   4.635   4.026  17.526  0.4324  0.5684 -0.2741
  798MPD2    C411811   4.633   4.161  17.555 -0.5953 -0.1668  0.3656
  798MPD2    C511812   4.520   4.224  17.518 -0.2005 -0.3670  0.3666
  798MPD2     H11813   4.531   3.862  17.435 -0.2818  0.1505 -1.9257
  798MPD2    H111814   4.712   4.214  17.606  1.6497 -2.2883 -0.8896
  798MPD2    H211815   4.333   4.231  17.425 -0.3504 -1.0199  0.6163
  798MPD2    H311816   4.510   4.331  17.532  0.7995 -0.3796  1.1604
  798MPD2     N11817   0.016   3.945  17.547 -0.4396  0.0739 -0.7208
  798MPD2    H511818   0.012   3.852  17.508 -3.1280 -0.0328 -0.2222
  798MPD2    N111819   4.326   3.964  17.353 -0.2680  0.0242 -0.5361
  798MPD2    H711820   4.343   3.865  17.336 -0.0109  0.2117 -1.3496
  799MPD2     C11821   4.103   4.547  14.470  0.0427  0.0209 -0.1717
  799MPD2    C111822   3.990   4.525  14.541  0.3357  0.8540 -0.5850
  799MPD2    C211823   3.880   4.603  14.512 -0.0275 -0.8193 -0.6122
  799MPD2    C311824   3.876   4.696  14.398  0.9404  0.8264 -0.5872
  799MPD2    C411825   3.996   4.720  14.337  0.6307  0.8291  0.2837
  799MPD2    C511826   4.109   4.644  14.372 -0.1553 -0.0871  0.4180
  799MPD2     H11827   3.793   4.585  14.573  0.8664  1.1842  1.2604
  799MPD2    H111828   4.008   0.061  14.259  0.2957 -1.0048 -1.5502
  799MPD2    H211829   4.191   4.488  14.494  0.1810 -1.1942 -3.6140
  799MPD2    H311830   4.203   4.657  14.319 -1.2717  0.8926 -1.3167
  799MPD2     N11831   3.763   0.038  14.364 -0.2930  0.1540 -0.2599
  799MPD2    H511832   3.786   0.095  14.283  0.4539 -1.1638 -0.9731
  799MPD2    N111833   3.974   4.426  14.642  0.1865  0.2021 -0.2139
  799MPD2    H711834   3.883   4.432  14.686  0.9191  0.3983  1.2795
  800MPD2     C11835   4.117   0.677  13.737  0.1553 -1.0051  0.2074
  800MPD2    C111836   4.200   0.721  13.837 -0.4278 -0.0973  0.0297
  800MPD2    C211837   4.326   0.757  13.810 -0.1068  0.0326  0.6187
  800MPD2    C311838   4.381   0.764  13.689  0.3906 -0.0657 -0.0854
  800MPD2    C411839   4.298   0.733  13.585  0.1155  0.3396 -0.2489
  800MPD2    C511840   4.174   0.686  13.611 -0.4650  0.0101  0.2121
  800MPD2     H11841   4.395   0.784  13.889 -0.8113  0.5255  1.0720
  800MPD2    H111842   4.335   0.729  13.483 -0.2933  0.6165 -0.4094
  800MPD2    H211843   4.016   0.638  13.736  0.5016 -1.8862  0.4485
  800MPD2    H311844   4.102   0.682  13.530 -0.2110 -0.3067  0.0008
  800MPD2     N11845   4.510   0.818  13.675 -0.3336  0.1144 -0.9702
  800MPD2    H511846   4.566   0.829  13.759 -1.6487 -1.8142  0.1531
  800MPD2    N111847   4.141   0.731  13.959  0.3513 -0.0890  0.2031
  800MPD2    H711848   4.041   0.713  13.964  0.1346  1.1589  0.1805
  801MPD2     C11849   3.742   1.309  14.061 -0.7276  0.8520 -0.7709
  801MPD2    C111850   3.810   1.307  14.181  0.1320  0.6654  0.4825
  801MPD2    C211851   3.826   1.430  14.251  0.1710  0.4170  0.0705
  801MPD2    C311852   3.778   1.548  14.200 -0.0934 -0.3369  0.2416
  801MPD2    C411853   3.704   1.549  14.085 -0.5010  0.0929 -0.3068
  801MPD2    C511854   3.685   1.425  14.026 -0.9336  0.2016 -0.2506
  801MPD2     H11855   3.885   1.429  14.342 -0.9412  0.0452  0.7919
  801MPD2    H111856   3.670   1.640  14.037  0.4083 -0.1342 -1.3761
  801MPD2    H211857   3.726   1.223  13.996  2.5121 -0.5400  0.2938
  801MPD2    H311858   3.625   1.419  13.936 -1.0713 -3.1676  0.0798
  801MPD2     N11859   3.792   1.674  14.260 -0.1834 -0.4445 -0.3986
  801MPD2    H511860   3.739   1.749  14.216 -0.4181  1.4929  3.1593
  801MPD2    N111861   3.871   1.185  14.233 -1.5394 -0.4460  0.2641
  801MPD2    H711862   3.911   1.208  14.323 -0.3003  0.1588 -0.4241
  802MPD2     C11863   3.726   2.164   0.190 -0.1363  0.1240  0.2399
  802MPD2    C111864   3.661   2.235   0.091 -0.0219  0.5285 -0.5429
  802MPD2    C211865   3.698   2.217  17.699 -0.1675  0.0282  0.8764
  802MPD2    C311866   3.795   2.128  17.660 -0.6785  0.0990  0.4979
  802MPD2    C411867   3.866   2.063   0.025 -0.1338 -0.2455 -0.1798
  802MPD2    C511868   3.827   2.091   0.156  1.2622 -0.4743 -0.4608
  802MPD2     H11869   3.642   2.267  17.621  2.3918  0.7250 -0.5378
  802MPD2    H111870   3.949   1.995   0.010 -0.2463 -0.3044 -0.5213
  802MPD2    H211871   3.707   2.185   0.295  0.6166  1.3433  0.1374
  802MPD2    H311872   3.897   2.048   0.227  2.0042  0.3419 -0.6968
  802MPD2     N11873   3.816   2.105  17.520  0.1959  0.0725 -0.0816
  802MPD2    H511874   3.761   2.167  17.462 -0.4341  1.2996  1.8234
  802MPD2    N111875   3.552   2.323   0.122  0.1889 -0.3428 -0.1948
  802MPD2    H711876   3.516   2.382   0.048  0.2515 -0.8627 -0.6367
  803MPD2     C11877   4.277   0.162  12.669  0.1525  0.2921 -0.5698
  803MPD2    C111878   4.393   0.230  12.680 -0.1703  1.2960  0.1400
  803MPD2    C211879   4.463   0.225  12.802 -0.1618  0.0178  0.5273
  803MPD2    C311880   4.423   0.146  12.911  0.2309  0.3696 -0.8015
  803MPD2    C411881   4.301   0.081  12.899  0.3246 -0.2569  0.5184
  803MPD2    C511882   4.227   0.093  12.785  0.2428  0.6775  0.2468
  803MPD2     H11883   4.553   0.285  12.808 -0.5689  0.6319  0.4159
  803MPD2    H111884   4.254   0.027  12.980 -0.6221  1.1627  0.9237
  803MPD2    H211885   4.212   0.161  12.582  0.8628 -1.2942 -1.0716
  803MPD2    H311886   4.126   0.053  12.793  0.4826  0.1455  0.5807
  803MPD2     N11887   4.515   0.148  13.016 -0.8611 -0.7304  0.0593
  803MPD2    H511888   4.593   0.213  13.014 -0.7488 -0.8318  0.8346
  803MPD2    N111889   4.455   0.296  12.573 -0.1389  0.0564  0.4401
  803MPD2    H711890   4.548   0.333  12.587 -0.4073  0.2559  1.7546
  804MPD2     C11891   4.191   1.812  17.041  0.3229  0.1311 -0.3380
  804MPD2    C111892   4.193   1.752  17.170 -0.0734 -0.0570 -0.2932
  804MPD2    C211893   4.237   1.827  17.273 -0.6441  0.3089  0.5691
  804MPD2    C311894   4.303   1.943  17.253  0.5280  0.3028  0.0933
  804MPD2    C411895   4.309   1.998  17.127  0.3581 -0.4634  0.0711
  804MPD2    C511896   4.252   1.934  17.022  0.9633 -0.2478 -0.5370
  804MPD2     H11897   4.247   1.769  17.365 -3.8815 -1.3152 -0.1132
  804MPD2    H111898   4.374   2.082  17.105 -1.7888  1.1730 -0.0045
  804MPD2    H211899   4.144   1.764  16.956  1.8627 -3.3376  0.7527
  804MPD2    H311900   4.257   1.980  16.924  1.7013  0.0207 -0.3766
  804MPD2     N11901   4.368   1.993  17.369  0.3539  0.1826 -0.2034
  804MPD2    H511902   4.360   1.938  17.454  0.7668  1.3991  0.6220
  804MPD2    N111903   4.125   1.625  17.197 -0.7486 -0.0080  0.0727
  804MPD2    H711904   4.120   1.592  17.293 -1.1972  1.1028  0.4336
  805MPD2     C11905   2.580   0.553  15.510  0.2876 -0.7612  0.6580
  805MPD2    C111906   2.708   0.544  15.475  0.6397  0.3004 -0.4676
  805MPD2    C211907   2.798   0.610  15.556 -0.3000  0.6022 -0.3250
  805MPD2    C311908   2.756   0.687  15.659  0.5320 -0.5317  0.2704
  805MPD2    C411909   2.625   0.697  15.684 -0.0356 -0.6346 -0.3593
  805MPD2    C511910   2.534   0.626  15.615 -0.4867 -0.3938  0.1651
  805MPD2     H11911   2.902   0.588  15.536 -0.4781  1.6307 -2.3887
  805MPD2    H111912   2.596   0.759  15.768  0.9415  0.1135 -0.5656
  805MPD2    H211913   2.509   0.494  15.453 -0.2429 -2.4966  3.1023
  805MPD2    H311914   2.430   0.643  15.641 -0.8101 -0.4179 -1.1147
  805MPD2     N11915   2.849   0.751  15.750  0.4225  0.3376 -0.3282
  805MPD2    H511916   2.947   0.735  15.732  0.8047 -0.8388  2.7224
  805MPD2    N111917   2.758   0.451  15.380  0.6183 -0.3495  0.0623
  805MPD2    H711918   2.858   0.451  15.366  0.3071  3.2545 -2.1761
  806MPD2     C11919   3.166   4.364  17.731 -0.3808 -0.1943  0.0990
  806MPD2    C111920   3.204   4.442   0.102 -0.0692  0.0100  1.1195
  806MPD2    C211921   3.292   4.553   0.078  0.1634  0.0886  0.2194
  806MPD2    C311922   3.334   4.586  17.682 -0.6207  0.0417 -0.6417
  806MPD2    C411923   3.287   4.503  17.581 -0.6472 -0.1591  0.5009
  806MPD2    C511924   3.204   4.398  17.606  0.6165  0.7420 -0.3312
  806MPD2     H11925   3.330   4.616   0.158  1.2939 -2.3869  1.6180
  806MPD2    H111926   3.308   4.516  17.476  0.6441 -1.6144  0.5877
  806MPD2    H211927   3.079   4.299   0.001 -0.8073  0.5698  2.4444
  806MPD2    H311928   3.167   4.335  17.526  0.1330  3.4516 -2.2297
  806MPD2     N11929   3.411   4.702  17.658  0.0200 -0.6320 -0.0576
  806MPD2    H511930   3.418   0.026   0.006  0.1699  3.2342 -2.7648
  806MPD2    N111931   3.146   4.406   0.229  0.0919  0.0385 -0.0521
  806MPD2    H711932   3.096   4.318   0.240  1.3329 -0.4760  1.5723
  807MPD2     C11933   2.771   3.914   0.674 -0.1007 -0.5264 -0.4597
  807MPD2    C111934   2.901   3.931   0.704 -0.5069  0.5289 -0.0008
  807MPD2    C211935   2.964   3.842   0.786  0.0629  1.1214  0.2337
  807MPD2    C311936   2.896   3.727   0.819  0.4773 -0.0597 -0.0185
  807MPD2    C411937   2.760   3.718   0.797  0.0380  0.4694 -0.3009
  807MPD2    C511938   2.695   3.816   0.726 -0.6186  0.0136 -0.3957
  807MPD2     H11939   3.067   3.860   0.815 -0.2442  1.9032  0.8674
  807MPD2    H111940   2.702   3.636   0.837  0.2921  0.4139 -0.0515
  807MPD2    H211941   2.705   3.986   0.626 -0.6364 -0.5231  0.2829
  807MPD2    H311942   2.587   3.814   0.717 -0.8009 -0.2839  1.8889
  807MPD2     N11943   2.957   3.620   0.887  0.0676 -0.2023  0.1564
  807MPD2    H511944   2.902   3.535   0.901 -1.0065  0.3916 -0.4321
  807MPD2    N111945   2.972   4.047   0.663  0.0649  0.1618 -0.3479
  807MPD2    H711946   3.063   4.070   0.700  0.2650 -0.4302 -0.4643
  808MPD2     C11947   3.965   1.232  10.345 -0.2197  0.2968 -0.2203
  808MPD2    C111948   4.042   1.150  10.269 -0.9658 -0.0085  0.0075
  808MPD2    C211949   4.182   1.175  10.263  0.0029  0.5286  0.4308
  808MPD2    C311950   4.228   1.288  10.326  0.1584 -0.3390 -0.2006
  808MPD2    C411951   4.147   1.380  10.379  0.0563  0.3132  0.3866
  808MPD2    C511952   4.017   1.347  10.394  0.7483  0.2746 -0.2664
  808MPD2     H11953   4.245   1.104  10.210  0.7009  1.5940 -0.1472
  808MPD2    H111954   4.181   1.476  10.416 -1.6857  0.5504  1.3595
  808MPD2    H211955   3.858   1.212  10.348  0.0699 -1.1330  0.5400
  808MPD2    H311956   3.953   1.429  10.424  0.2270 -0.9844  2.0836
  808MPD2     N11957   4.367   1.324  10.329 -0.3758  0.4592  0.1182
  808MPD2    H511958   4.392   1.419  10.351  0.3962  0.0801  0.8645
  808MPD2    N111959   3.999   1.032  10.198 -0.3999 -0.3234 -0.4914
  808MPD2    H711960   4.075   0.974  10.164 -0.1741 -1.2285  1.5670
  809MPD2     C11961   0.335   0.743   9.946 -1.1701 -0.2527  0.1022
  809MPD2    C111962   0.342   0.859   9.884 -0.9490  0.5177  0.1487
  809MPD2    C211963   0.296   0.970   9.955 -0.0602 -0.1307 -0.2061
  809MPD2    C311964   0.235   0.954  10.082 -0.4556  0.0203  0.1903
  809MPD2    C411965   0.238   0.828  10.144 -0.3165  0.2732 -0.2206
  809MPD2    C511966   0.295   0.729  10.072 -0.3511  0.1406  0.4051
  809MPD2     H11967   0.298   1.069   9.910 -2.5990  0.8017  1.7562
  809MPD2    H111968   0.189   0.798  10.236 -1.2909  1.1147 -0.4657
  809MPD2    H211969   0.366   0.649   9.901  1.4374 -0.0596  1.5036
  809MPD2    H311970   0.293   0.636  10.128 -1.2113 -0.1408 -0.0834
  809MPD2     N11971   0.169   1.057  10.153  0.6832 -0.1451 -0.0541
  809MPD2    H511972   0.126   1.038  10.243  1.6996  0.0697  0.4806
  809MPD2    N111973   0.402   0.880   9.756 -0.0880 -0.5736  0.0818
  809MPD2    H711974   0.406   0.977   9.725  3.2147  0.2101  2.9600
  810MPD2     C11975   4.087   0.863  10.536 -0.1833 -0.3997 -0.4750
  810MPD2    C111976   3.968   0.841  10.600  0.8919 -0.2559 -0.1143
  810MPD2    C211977   3.915   0.946  10.678 -0.0994  0.1662 -0.2510
  810MPD2    C311978   3.981   1.068  10.693  0.0981 -0.4000  0.0888
  810MPD2    C411979   4.094   1.093  10.620  0.1862 -0.3529 -0.1107
  810MPD2    C511980   4.144   0.990  10.545 -0.1256 -0.5268 -0.9956
  810MPD2     H11981   3.823   0.926  10.731  0.2671  0.1781  0.3844
  810MPD2    H111982   4.153   1.184  10.613  1.2204 -0.9307  1.0033
  810MPD2    H211983   4.127   0.779  10.480 -0.2229 -2.1278  2.0858
  810MPD2    H311984   4.233   1.007  10.487 -0.3084 -0.0703 -1.1382
  810MPD2     N11985   3.931   1.165  10.783 -0.4707 -0.2015 -0.6415
  810MPD2    H511986   3.839   1.146  10.820 -0.5043  1.3004  0.0706
  810MPD2    N111987   3.904   0.718  10.586  0.2222 -0.1889  0.4937
  810MPD2    H711988   3.938   0.664  10.507  0.2620 -1.2495  1.2301
  811MPD2     C11989   3.389   0.701  10.077  0.0363 -0.6421  0.4405
  811MPD2    C111990   3.468   0.744  10.182 -0.4710 -0.6617 -0.0283
  811MPD2    C211991   3.500   0.879  10.180  0.4669  0.1014  0.0389
  811MPD2    C311992   3.460   0.972  10.080 -0.0302 -0.4487 -0.6320
  811MPD2    C411993   3.386   0.925   9.980  0.0085 -0.4577 -0.0684
  811MPD2    C511994   3.358   0.789   9.973 -0.2209 -1.2278  0.4664
  811MPD2     H11995   3.562   0.917  10.260  0.2123 -1.5094  1.0067
  811MPD2    H111996   3.379   0.987   9.891  0.7894  1.1091  0.9805
  811MPD2    H211997   3.355   0.598  10.075  1.3111 -0.9552 -4.8459
  811MPD2    H311998   3.301   0.742   9.894  0.2805 -1.0246 -0.0151
  811MPD2     N11999   3.503   1.106  10.087 -0.0140 -0.7667  0.4807
  811MPD2    H512000   3.580   1.137  10.145  0.7315  0.3621 -1.0806
  811MPD2    N112001   3.510   0.664  10.290  0.0749 -0.1673  0.8716
  811MPD2    H712002   3.548   0.723  10.363  1.4743 -1.0192  0.8384
  812MPD2     C12003   3.176   0.643  12.209 -0.0974  0.1087  0.4132
  812MPD2    C112004   3.072   0.664  12.300 -0.0055  0.2745 -0.2183
  812MPD2    C212005   3.033   0.553  12.381 -0.2809 -0.3783 -0.7788
  812MPD2    C312006   3.083   0.431  12.353 -0.7484 -0.4747  0.1583
  812MPD2    C412007   3.181   0.414  12.267 -0.5745 -0.9103 -0.2874
  812MPD2    C512008   3.234   0.522  12.199  0.2373 -0.0875  0.4290
  812MPD2     H12009   2.959   0.564  12.459 -0.0121  0.1312 -0.5950
  812MPD2    H112010   3.219   0.322  12.225 -0.6402 -0.5390 -1.1823
  812MPD2    H212011   3.210   0.718  12.139  0.2062 -2.0072 -1.7199
  812MPD2    H312012   3.315   0.504  12.129 -1.3063 -0.5426 -1.2099
  812MPD2     N12013   3.020   0.323  12.411 -0.3950  0.0529 -0.1064
  812MPD2    H512014   2.940   0.345  12.469 -0.2259 -0.4302  0.3063
  812MPD2    N112015   3.007   0.792  12.318 -0.2261  0.7431 -0.2866
  812MPD2    H712016   3.041   0.866  12.257  2.4190  0.3706  0.7116
  813MPD2     C12017   1.652   2.402  12.634  0.3201 -0.7308  0.2840
  813MPD2    C112018   1.718   2.497  12.715 -0.0132  0.2283 -0.2049
  813MPD2    C212019   1.654   2.552  12.827  0.8701 -0.7052  0.6491
  813MPD2    C312020   1.533   2.512  12.865 -0.9994  1.0454 -0.0725
  813MPD2    C412021   1.468   2.419  12.787  0.0750  0.2801  0.4488
  813MPD2    C512022   1.526   2.374  12.673 -0.3420  0.4872 -0.1729
  813MPD2     H12023   1.699   2.626  12.894 -3.7471  3.7671 -1.1985
  813MPD2    H112024   1.364   2.396  12.809  0.4603  0.0708  2.0964
  813MPD2    H212025   1.691   2.363  12.541 -0.7540 -1.1741  0.0252
  813MPD2    H312026   1.475   2.301  12.611  0.1309 -1.1249  1.3747
  813MPD2     N12027   1.487   2.566  12.985 -0.2248 -0.4868 -0.1819
  813MPD2    H512028   1.555   2.627  13.029  1.6760 -1.1334 -2.2055
  813MPD2    N112029   1.853   2.535  12.702 -0.0629 -0.7512  0.4841
  813MPD2    H712030   1.886   2.596  12.776  0.9257  1.6795 -1.9159
  814MPD2     C12031   2.515   3.406  11.973  0.1004  0.4532 -0.1630
  814MPD2    C112032   2.487   3.499  11.872  0.2805 -0.1289 -0.7171
  814MPD2    C212033   2.498   3.633  11.900  0.0245 -0.8284  0.1861
  814MPD2    C312034   2.535   3.673  12.021 -0.0740 -0.2305  0.6397
  814MPD2    C412035   2.552   3.581  12.123 -0.1689  0.3259 -0.1039
  814MPD2    C512036   2.548   3.449  12.097  0.2611 -0.3938 -0.2939
  814MPD2     H12037   2.474   3.697  11.816  1.6451 -1.3938 -0.6873
  814MPD2    H112038   2.598   3.617  12.214 -0.2224 -0.3561  0.1930
  814MPD2    H212039   2.529   3.300  11.953  3.5346  0.8323  0.3626
  814MPD2    H312040   2.568   3.375  12.174  1.9835  0.9982  0.5920
  814MPD2     N12041   2.545   3.808  12.069 -0.5905 -0.3130 -0.1964
  814MPD2    H512042   2.570   3.822  12.167 -2.3594 -1.3946  0.4045
  814MPD2    N112043   2.469   3.458  11.741  0.3110 -0.5408 -0.0454
  814MPD2    H712044   2.485   3.531  11.672  0.4202 -0.9054 -0.4061
  815MPD2     C12045   2.513   2.252  12.297  0.7492  0.3377  0.1983
  815MPD2    C112046   2.541   2.132  12.240  0.3318 -0.5397 -0.2884
  815MPD2    C212047   2.430   2.049  12.215 -0.0246 -0.3139  0.8639
  815MPD2    C312048   2.298   2.080  12.247 -0.2235  0.0249  0.3914
  815MPD2    C412049   2.279   2.193  12.319  0.2110  0.3161 -0.4541
  815MPD2    C512050   2.391   2.276  12.341  0.1420  0.6920  0.0910
  815MPD2     H12051   2.443   1.965  12.147 -2.2306 -0.0081  0.0703
  815MPD2    H112052   2.183   2.232  12.350  1.4619  2.6658  0.4139
  815MPD2    H212053   2.582   2.333  12.315  0.9853  0.0658  0.5239
  815MPD2    H312054   2.372   2.376  12.380 -0.2070  0.6080  0.1418
  815MPD2     N12055   2.187   2.001  12.212 -0.3531 -0.3251  0.3927
  815MPD2    H512056   2.211   1.913  12.168  0.2591  0.1549 -0.2148
  815MPD2    N112057   2.670   2.110  12.191  0.2072  0.0199 -0.1313
  815MPD2    H712058   2.719   2.196  12.168  0.2935  0.2693  1.0204
  816MPD2     C12059   2.395   1.060  17.302  0.4053  0.4916  0.0746
  816MPD2    C112060   2.385   1.173  17.227 -0.2491  0.4151 -0.3634
  816MPD2    C212061   2.460   1.198  17.116 -0.0860  0.1281  0.1401
  816MPD2    C312062   2.547   1.105  17.071  0.9522 -0.1209  0.3676
  816MPD2    C412063   2.556   0.987  17.146 -0.2376 -0.4790  0.6148
  816MPD2    C512064   2.496   0.973  17.263 -0.3051 -0.0349 -0.4936
  816MPD2     H12065   2.454   1.298  17.075 -3.7091  0.0186  0.4610
  816MPD2    H112066   2.626   0.908  17.118 -0.1361 -0.4535  0.7960
  816MPD2    H212067   2.338   1.037  17.391 -0.5291  2.8917  0.0827
  816MPD2    H312068   2.518   0.884  17.321 -0.5512 -0.0283 -0.3882
  816MPD2     N12069   2.627   1.137  16.954  0.9918 -0.1126 -0.0760
  816MPD2    H512070   2.629   1.226  16.905  0.8664 -0.4539 -0.6948
  816MPD2    N112071   2.288   1.271  17.273  0.6935  0.4730  0.3209
  816MPD2    H712072   2.254   1.259  17.367 -1.8472 -1.4908 -0.8628
  817MPD2     C12073   2.509   3.232   9.495  0.0283  0.4215  0.2338
  817MPD2    C112074   2.481   3.127   9.415  0.0710  0.5477  0.4394
  817MPD2    C212075   2.418   3.150   9.294 -0.7145  0.1427  0.8382
  817MPD2    C312076   2.385   3.278   9.261  0.5790 -0.5955 -0.7766
  817MPD2    C412077   2.422   3.383   9.343 -0.1189 -0.4136 -0.1882
  817MPD2    C512078   2.494   3.362   9.456 -0.0889  0.0183 -0.0250
  817MPD2     H12079   2.383   3.065   9.237  1.6467  0.3831 -0.9970
  817MPD2    H112080   2.416   3.487   9.311 -1.0781 -0.2369  0.5908
  817MPD2    H212081   2.569   3.210   9.583 -1.4663 -1.0952  0.8769
  817MPD2    H312082   2.525   3.450   9.513 -2.7817  1.3808 -0.7000
  817MPD2     N12083   2.325   3.295   9.133  0.4631  0.1794  0.3121
  817MPD2    H512084   2.324   3.213   9.073  1.0715  0.6642 -0.3632
  817MPD2    N112085   2.515   2.990   9.437 -0.6172 -0.6178  0.8246
  817MPD2    H712086   2.487   2.921   9.368  1.9891 -1.4251  0.5443
  818MPD2     C12087   1.528   3.447  10.040 -0.7941 -0.4175  0.3925
  818MPD2    C112088   1.415   3.362  10.047 -0.4896  0.3848  0.1551
  818MPD2    C212089   1.408   3.259   9.956 -0.1060  0.5587 -0.2421
  818MPD2    C312090   1.519   3.231   9.875  0.6873  0.4198 -0.7235
  818MPD2    C412091   1.632   3.308   9.877 -0.0588  0.6829  0.0588
  818MPD2    C512092   1.637   3.417   9.964  0.2441  0.1289  0.1623
  818MPD2     H12093   1.322   3.195   9.969  0.4084  0.4220  2.4563
  818MPD2    H112094   1.709   3.306   9.801  0.5884  1.3825  0.6982
  818MPD2    H212095   1.539   3.529  10.109  1.3435  0.3995 -0.8957
  818MPD2    H312096   1.727   3.477   9.962  1.1046 -1.2082 -1.0720
  818MPD2     N12097   1.518   3.133   9.780 -0.1660  0.2806  0.6216
  818MPD2    H512098   1.613   3.122   9.743 -0.3196  1.0695 -0.0173
  818MPD2    N112099   1.321   3.378  10.156  0.4461 -0.0822  0.3012
  818MPD2    H712100   1.247   3.308  10.153  1.1850 -0.7564 -1.9242
  819MPD2     C12101   4.103   4.440  15.047 -0.3411 -0.0167 -0.6889
  819MPD2    C112102   4.064   4.367  15.151 -0.4605 -0.1313 -0.7948
  819MPD2    C212103   4.163   4.302  15.226 -0.2437  0.0930  0.5010
  819MPD2    C312104   4.300   4.323  15.198  0.5448 -0.0948 -0.7303
  819MPD2    C412105   4.338   4.396  15.088  0.4046  0.1742  0.1163
  819MPD2    C512106   4.238   4.439  15.011  1.0199 -0.2913 -0.7209
  819MPD2     H12107   4.137   4.240  15.312 -0.6339 -0.3573  0.0593
  819MPD2    H112108   4.443   4.401  15.059 -0.0876 -0.7066 -1.7696
  819MPD2    H212109   4.043   4.493  14.974  1.5663 -0.9536 -2.9682
  819MPD2    H312110   4.259   4.481  14.914  2.4967  1.6467  0.4307
  819MPD2     N12111   4.399   4.275  15.277  0.2133 -0.1619  0.6929
  819MPD2    H512112   4.492   4.279  15.237 -0.7732 -2.2867 -1.7893
  819MPD2    N112113   3.936   4.363  15.189 -0.2910  0.1471  0.3616
  819MPD2    H712114   3.868   4.431  15.155  1.6239  1.2287 -1.3128
  820MPD2     C12115   3.436   0.236  15.033 -0.0856  0.1609 -0.6350
  820MPD2    C112116   3.330   0.162  15.063 -0.3024  0.1981 -0.1030
  820MPD2    C212117   3.355   0.034  15.109  0.5019 -0.3646  0.0014
  820MPD2    C312118   3.488   4.724  15.121  0.8510 -0.3201 -0.0875
  820MPD2    C412119   3.587   0.079  15.092 -0.4166 -0.3137 -0.8069
  820MPD2    C512120   3.565   0.197  15.040 -0.2680  0.6149  0.1136
  820MPD2     H12121   3.281   4.699  15.148 -0.0794 -1.6871 -3.3957
  820MPD2    H112122   3.688   0.041  15.104 -0.5987 -0.6375 -0.2715
  820MPD2    H212123   3.426   0.341  15.008  0.1766  0.3458  0.0368
  820MPD2    H312124   3.646   0.266  15.016  0.1774 -0.7502 -2.2572
  820MPD2     N12125   3.526   4.599  15.162 -0.2040 -0.1583  1.6592
  820MPD2    H512126   3.627   4.590  15.169 -0.2051 -0.5373  1.0907
  820MPD2    N112127   3.199   0.216  15.052  0.5922  0.5941  0.5982
  820MPD2    H712128   3.191   0.300  14.995 -1.0488 -0.2120 -0.3272
  821MPD2     C12129   0.378   1.225  13.145  0.1684  0.0089  0.4276
  821MPD2    C112130   0.404   1.229  13.281  0.2031 -0.0570 -0.3442
  821MPD2    C212131   0.517   1.294  13.323 -0.3960  0.5002  0.4541
  821MPD2    C312132   0.587   1.376  13.236 -0.2082 -0.0943  0.0931
  821MPD2    C412133   0.554   1.374  13.103  0.1362 -0.2775  0.0681
  821MPD2    C512134   0.453   1.296  13.056  0.6811 -0.2952 -0.8833
  821MPD2     H12135   0.539   1.295  13.430 -2.8903  3.2473  0.9168
  821MPD2    H112136   0.608   1.432  13.029  0.9389 -0.0649  0.8256
  821MPD2    H212137   0.296   1.165  13.107  0.9172 -1.4912  1.1893
  821MPD2    H312138   0.427   1.282  12.952 -1.4869  1.6632 -0.5942
  821MPD2     N12139   0.707   1.443  13.258 -0.3457  0.2396 -0.5363
  821MPD2    H512140   0.753   1.483  13.176  2.0541 -0.7721  0.3299
  821MPD2    N112141   0.312   1.174  13.379  0.3760 -0.4491 -0.0880
  821MPD2    H712142   0.343   1.195  13.474  1.3865  1.6316 -0.8642
  822MPD2     C12143   4.722   1.363  15.594  0.4567 -0.5183 -0.1326
  822MPD2    C112144   4.673   1.314  15.715 -0.1109 -0.2278  0.3568
  822MPD2    C212145   4.568   1.376  15.775  1.0718  0.3689 -0.4565
  822MPD2    C312146   4.509   1.488  15.716 -0.3250 -0.0466 -0.0332
  822MPD2    C412147   4.558   1.531  15.598  0.2788 -0.1452  0.4332
  822MPD2    C512148   4.667   1.468  15.533 -0.3880  0.1133  0.1741
  822MPD2     H12149   4.521   1.338  15.865 -2.4016 -0.5693 -2.6535
  822MPD2    H112150   4.505   1.611  15.548 -0.6266  1.0751  3.2987
  822MPD2    H212151   0.076   1.322  15.546  0.6936 -1.9896  1.5286
  822MPD2    H312152   4.703   1.508  15.439 -0.9563  1.6335  0.6071
  822MPD2     N12153   4.410   1.557  15.796  0.1718 -0.0530 -0.5417
  822MPD2    H512154   4.381   1.512  15.882  0.7396 -1.2961 -0.9870
  822MPD2    N112155   4.716   1.203  15.788  0.5960  0.4526 -0.1327
  822MPD2    H712156   4.657   1.169  15.863  0.6615  1.3538  0.3292
  823MPD2     C12157   4.215   1.665  16.598 -0.2886  1.0348 -0.3355
  823MPD2    C112158   4.217   1.590  16.479 -0.2446  0.0013  0.1265
  823MPD2    C212159   4.246   1.457  16.488  0.3910  0.0296 -0.0695
  823MPD2    C312160   4.267   1.391  16.612 -0.8512 -0.3645 -0.0178
  823MPD2    C412161   4.242   1.465  16.730 -0.5339 -0.3619 -0.7822
  823MPD2    C512162   4.222   1.599  16.722 -0.3646  0.2134  0.4049
  823MPD2     H12163   4.248   1.396  16.399  0.3109  0.8837 -0.6550
  823MPD2    H112164   4.241   1.429  16.832  1.5541 -1.7540 -1.2583
  823MPD2    H212165   4.186   1.769  16.603  0.1268  1.2161 -1.5376
  823MPD2    H312166   4.206   1.661  16.810 -0.7469 -0.3304  0.7138
  823MPD2     N12167   4.291   1.252  16.627 -0.1244 -0.0223  0.0033
  823MPD2    H512168   4.277   1.212  16.719 -0.5172  0.5496  0.1883
  823MPD2    N112169   4.195   1.658  16.354 -0.3349 -0.2258 -0.0861
  823MPD2    H712170   4.183   1.758  16.363 -1.5953 -0.3157 -0.6932
  824MPD2     C12171   0.283   0.411  15.723 -0.2398  0.0887 -0.2517
  824MPD2    C112172   0.346   0.532  15.700  0.3215  0.1423 -0.2582
  824MPD2    C212173   0.459   0.529  15.616  0.0985  0.4861 -0.4822
  824MPD2    C312174   0.501   0.416  15.551  0.0936 -0.1103 -0.5587
  824MPD2    C412175   0.429   0.297  15.568 -0.1179  0.2697  0.4884
  824MPD2    C512176   0.327   0.297  15.660  0.6247  0.1594 -0.1701
  824MPD2     H12177   0.523   0.616  15.604  1.5133 -0.6750 -1.3650
  824MPD2    H112178   0.445   0.199  15.526 -1.2062 -0.6701  2.2788
  824MPD2    H212179   0.199   0.397  15.789  0.0612  0.0530  0.1235
  824MPD2    H312180   0.279   0.202  15.677 -0.2129  0.2040 -2.2242
  824MPD2     N12181   0.633   0.422  15.495  0.3156 -0.5375 -0.4226
  824MPD2    H512182   0.678   0.513  15.504 -0.3823 -0.1407 -0.9307
  824MPD2    N112183   0.313   0.653  15.765  0.1432  0.2816 -0.4683
  824MPD2    H712184   0.379   0.727  15.744  0.6864 -0.6727 -2.1902
  825MPD2     C12185   1.325   0.788  15.182  0.3795  0.3698  0.4709
  825MPD2    C112186   1.209   0.803  15.256  0.2292 -0.1559  0.2465
  825MPD2    C212187   1.149   0.929  15.286 -0.1327  0.2873  0.7208
  825MPD2    C312188   1.204   1.042  15.232  0.3715 -0.5091 -0.6573
  825MPD2    C412189   1.323   1.027  15.154 -0.6262 -0.4421 -0.4023
  825MPD2    C512190   1.379   0.904  15.129  0.7190 -0.2077 -0.4723
  825MPD2     H12191   1.059   0.938  15.346 -1.0375  2.5865 -0.9834
  825MPD2    H112192   1.346   1.110  15.088 -2.5527  0.9615  0.7065
  825MPD2    H212193   1.370   0.692  15.160 -0.5658  0.0091  0.1108
  825MPD2    H312194   1.466   0.896  15.065  1.7514 -0.6323  0.9786
  825MPD2     N12195   1.139   1.170  15.241 -0.2563 -0.3516  0.3051
  825MPD2    H512196   1.185   1.252  15.202  1.5922 -0.4665  2.2157
  825MPD2    N112197   1.146   0.683  15.303  0.1384 -0.2574  0.1354
  825MPD2    H712198   1.198   0.600  15.277  0.0444 -0.6026  1.0934
  826MPD2     C12199   0.915   0.187  13.305 -0.8998 -0.0525 -0.1988
  826MPD2    C112200   0.955   0.320  13.315 -0.2468 -0.0077  0.7734
  826MPD2    C212201   0.858   0.418  13.357 -0.0104  0.9975 -0.0333
  826MPD2    C312202   0.726   0.383  13.397 -0.2258  0.1877  1.1993
  826MPD2    C412203   0.696   0.244  13.394  0.0590  0.3117 -0.3690
  826MPD2    C512204   0.794   0.156  13.349  0.1681 -0.5386 -0.2482
  826MPD2     H12205   0.897   0.518  13.366 -0.3841  1.0485  0.9544
  826MPD2    H112206   0.602   0.206  13.434  0.5226 -0.7041 -0.2526
  826MPD2    H212207   0.992   0.120  13.269 -1.7235 -1.4825  0.6598
  826MPD2    H312208   0.770   0.050  13.354  1.3348 -0.8923 -2.0488
  826MPD2     N12209   0.634   0.474  13.455  0.2988 -0.5704  0.7070
  826MPD2    H512210   0.554   0.427  13.496  0.7975 -0.7582  1.4690
  826MPD2    N112211   1.084   0.340  13.282  0.0194 -0.6374 -0.0498
  826MPD2    H712212   1.143   0.258  13.270 -1.0508 -1.6134  1.5186
  827MPD2     C12213   2.058   1.735  10.161  0.2444  0.2086 -0.2206
  827MPD2    C112214   1.959   1.676  10.236  0.0420  0.4061  0.5665
  827MPD2    C212215   1.827   1.669  10.189 -0.1666  0.5172 -0.5993
  827MPD2    C312216   1.795   1.737  10.070  0.1318  0.2557  0.2624
  827MPD2    C412217   1.897   1.800   9.998  0.2981  0.0017  0.6740
  827MPD2    C512218   2.025   1.803  10.041  0.2616  0.8382 -0.0943
  827MPD2     H12219   1.759   1.599  10.236  0.1911 -1.1355 -2.5256
  827MPD2    H112220   1.884   1.846   9.901  0.0414 -0.6130  0.4157
  827MPD2    H212221   2.158   1.744  10.202 -0.0917  2.2378  0.1411
  827MPD2    H312222   2.102   1.854   9.986 -0.5324  0.9606 -1.1016
  827MPD2     N12223   1.661   1.726  10.021 -1.0064 -0.1557  0.2146
  827MPD2    H512224   1.591   1.687  10.084 -1.0714 -2.0010 -0.9851
  827MPD2    N112225   2.003   1.643  10.366 -0.7516 -0.4324 -0.1559
  827MPD2    H712226   2.103   1.645  10.385 -0.5178 -0.6349 -1.3997
  828MPD2     C12227   0.540   1.460  12.565 -0.3820  0.6404 -0.0133
  828MPD2    C112228   0.428   1.413  12.493  0.3607  0.3711  0.6332
  828MPD2    C212229   0.443   1.368  12.367  0.1756 -0.5075  0.3252
  828MPD2    C312230   0.568   1.348  12.319 -0.1101 -0.7306  0.8279
  828MPD2    C412231   0.681   1.374  12.398  0.6513  0.6652 -0.0049
  828MPD2    C512232   0.663   1.433  12.521  0.0421 -0.2100 -0.0455
  828MPD2     H12233   0.351   1.342  12.315  0.6113  3.3501 -2.3686
  828MPD2    H112234   0.783   1.349  12.368 -0.1171 -1.0802 -1.1581
  828MPD2    H212235   0.535   1.519  12.656 -0.2819 -1.8977  1.6340
  828MPD2    H312236   0.748   1.455  12.585 -0.2576 -1.1604  0.6743
  828MPD2     N12237   0.602   1.295  12.193  0.1020 -0.2466 -0.1723
  828MPD2    H512238   0.698   1.281  12.165  0.9814  2.3229  1.6287
  828MPD2    N112239   0.296   1.436  12.536  0.1396  0.1842 -0.1298
  828MPD2    H712240   0.223   1.386  12.485 -0.9501  1.5149  0.1204
  829MPD2     C12241   4.336   1.455  12.035 -0.0886 -0.2359 -0.4249
  829MPD2    C112242   4.277   1.506  12.143  0.0330  0.3341 -0.5152
  829MPD2    C212243   4.356   1.516  12.253  0.6287 -0.2523  0.3115
  829MPD2    C312244   4.487   1.473  12.264 -0.2562  0.1344 -0.0871
  829MPD2    C412245   4.540   1.425  12.149 -0.1623 -0.1713  0.1406
  829MPD2    C512246   4.467   1.431  12.031 -0.3365  0.5361  0.1560
  829MPD2     H12247   4.309   1.550  12.344 -0.2663 -0.1544 -0.1876
  829MPD2    H112248   4.640   1.386  12.157  0.0312 -0.2951 -2.8045
  829MPD2    H212249   4.285   1.437  11.941 -3.0641 -0.1554  1.1669
  829MPD2    H312250   4.512   1.397  11.938  1.8820  1.8442  0.7528
  829MPD2     N12251   4.568   1.475  12.386 -0.1446 -0.2897 -0.3977
  829MPD2    H512252   4.662   1.443  12.368  1.1094  2.9437  0.3747
  829MPD2    N112253   4.137   1.547  12.130  0.2218 -0.4651  0.4735
  829MPD2    H712254   4.096   1.530  12.039  2.1119 -0.8289 -0.3020
  830MPD2     C12255   0.396   4.507  15.664 -0.3621  0.2307  0.3102
  830MPD2    C112256   0.319   4.492  15.545  0.4081 -0.3077 -0.0781
  830MPD2    C212257   0.340   4.572  15.435 -0.1412  0.6230  0.5389
  830MPD2    C312258   0.441   4.666  15.445  0.9330 -0.9141  0.5020
  830MPD2    C412259   0.510   4.690  15.563 -0.3064  0.0256 -0.0603
  830MPD2    C512260   0.484   4.608  15.669  0.6779 -0.4985 -0.1227
  830MPD2     H12261   0.279   4.560  15.346 -0.9685  2.6909  0.8150
  830MPD2    H112262   0.573   0.044  15.574 -0.3403 -0.1152  1.2560
  830MPD2    H212263   0.377   4.442  15.749 -3.7178 -1.7669 -1.8998
  830MPD2    H312264   0.528   4.617  15.768  1.7569  1.5538 -0.7741
  830MPD2     N12265   0.472   0.013  15.338  0.3732  0.1201 -0.3374
  830MPD2    H512266   0.548   0.076  15.363  0.4881 -0.1163 -0.0891
  830MPD2    N112267   0.219   4.396  15.543  0.4194  0.0776 -0.2265
  830MPD2    H712268   0.200   4.336  15.622 -0.0168  0.3886 -0.0973
  831MPD2     C12269   4.692   1.635  16.160 -0.1441  0.1385  0.3774
  831MPD2    C112270   4.717   1.528  16.081 -0.5049  0.3714 -0.2375
  831MPD2    C212271   4.637   1.416  16.085 -0.1408  0.4511 -0.5382
  831MPD2    C312272   4.523   1.417  16.166 -1.1743 -0.1287  0.1315
  831MPD2    C412273   4.509   1.528  16.254 -0.5201 -0.2332  0.5037
  831MPD2    C512274   4.595   1.636  16.247  0.4737 -0.2918  0.2920
  831MPD2     H12275   4.658   1.331  16.021 -0.6386  1.7777 -2.4591
  831MPD2    H112276   4.423   1.540  16.318  0.4599  1.0858  1.5702
  831MPD2    H212277   0.019   1.724  16.153  0.2957 -0.1333  0.7409
  831MPD2    H312278   4.573   1.717  16.315  1.4537  0.1655  0.0496
  831MPD2     N12279   4.419   1.322  16.157  0.3151  0.1514 -0.6589
  831MPD2    H512280   4.345   1.340  16.224  0.6680  0.0365 -0.2421
  831MPD2    N112281   0.094   1.526  15.992  0.2581 -0.2497 -0.3025
  831MPD2    H712282   0.115   1.440  15.942  0.6957  0.9783 -2.2278
  832MPD2     C12283   3.321   2.239  17.210  0.4430  0.1520 -0.2335
  832MPD2    C112284   3.287   2.370  17.201  0.4345  0.5014  0.4045
  832MPD2    C212285   3.165   2.419  17.152 -0.2021  0.2349 -0.2118
  832MPD2    C312286   3.071   2.319  17.125  0.2000  0.5084  0.3227
  832MPD2    C412287   3.101   2.181  17.138 -0.2090 -0.5819  0.4722
  832MPD2    C512288   3.224   2.142  17.178  0.4139 -0.1480 -0.3532
  832MPD2     H12289   3.134   2.523  17.153 -0.9858 -0.0204  1.1812
  832MPD2    H112290   3.024   2.105  17.123 -1.4126  0.4180  1.6577
  832MPD2    H212291   3.421   2.201  17.228 -0.1061 -1.7969 -1.3110
  832MPD2    H312292   3.260   2.040  17.172 -1.8079 -0.9988  0.8740
  832MPD2     N12293   2.937   2.345  17.089 -0.0077 -0.6483  0.6994
  832MPD2    H512294   2.866   2.275  17.103  0.1075 -1.0137 -0.5720
  832MPD2    N112295   3.402   2.451  17.232 -0.4410  0.2083  0.5075
  832MPD2    H712296   3.490   2.404  17.250  1.1610  2.4057 -1.4766
  833MPD2     C12297   0.497   4.044  12.970  0.6251 -0.3628  0.2972
  833MPD2    C112298   0.544   4.144  12.893 -0.7436 -0.5614  0.1745
  833MPD2    C212299   0.658   4.114  12.812  0.3446  0.2091  0.7343
  833MPD2    C312300   0.720   3.993  12.808  0.6782  0.6732  1.0398
  833MPD2    C412301   0.672   3.897  12.892  0.4572  0.0736 -1.1030
  833MPD2    C512302   0.569   3.920  12.976 -0.1844  0.3913 -0.3424
  833MPD2     H12303   0.703   4.195  12.754 -0.0799 -0.3059 -0.3083
  833MPD2    H112304   0.726   3.806  12.914 -1.2323 -0.7676 -0.4148
  833MPD2    H212305   0.409   4.053  13.033  1.3062  0.5776  1.1378
  833MPD2    H312306   0.530   3.847  13.046  0.4564  0.8892  0.5199
  833MPD2     N12307   0.830   3.958  12.732  0.3827 -0.3445  0.3241
  833MPD2    H512308   0.868   3.864  12.732  0.3945 -0.3485 -1.9300
  833MPD2    N112309   0.494   4.273  12.907  0.4473 -0.5764 -0.4330
  833MPD2    H712310   0.399   4.273  12.944  1.4137  3.0005  2.0684
  834MPD2     C12311   1.089   3.266  12.091  0.1954 -0.0598 -0.1029
  834MPD2    C112312   1.052   3.369  12.009  0.8167 -0.2181  0.3468
  834MPD2    C212313   1.028   3.498  12.060  0.1082  0.1689  1.0177
  834MPD2    C312314   1.037   3.519  12.193 -0.2534  0.4602 -0.1954
  834MPD2    C412315   1.075   3.417  12.282  0.0500 -0.2628  0.1897
  834MPD2    C512316   1.105   3.295  12.222  0.1357 -0.4366  0.0287
  834MPD2     H12317   0.990   3.571  11.990 -2.7374 -2.2011  0.0892
  834MPD2    H112318   1.095   3.431  12.387 -0.2272 -2.3541  0.5152
  834MPD2    H212319   1.115   3.170  12.049 -1.7103 -0.8037  0.3986
  834MPD2    H312320   1.126   3.211  12.288  1.2970  0.4707  0.8250
  834MPD2     N12321   1.007   3.651  12.231 -0.1236  0.7128 -0.4540
  834MPD2    H512322   0.983   3.717  12.157  1.1070  0.0347 -1.4472
  834MPD2    N112323   1.044   3.343  11.873 -0.3195  0.5242 -0.4151
  834MPD2    H712324   1.041   3.247  11.839  1.4394 -0.6162  2.6576
  835MPD2     C12325   1.173   1.360  10.799  0.6302  0.2098 -0.5377
  835MPD2    C112326   1.091   1.433  10.885 -0.4029  0.2526  0.3548
  835MPD2    C212327   1.120   1.441  11.021  0.0248 -0.3566 -0.2018
  835MPD2    C312328   1.231   1.379  11.078 -0.3063  0.4281 -0.6476
  835MPD2    C412329   1.320   1.323  10.988 -0.5224 -0.2097 -0.6672
  835MPD2    C512330   1.285   1.307  10.857 -0.5751  0.0965 -0.3942
  835MPD2     H12331   1.043   1.486  11.083  0.1557  0.2268 -0.4589
  835MPD2    H112332   1.413   1.278  11.020 -0.0061 -0.1765 -2.0767
  835MPD2    H212333   1.138   1.334  10.700  0.6532 -2.0946  0.0665
  835MPD2    H312334   1.368   1.270  10.798 -0.0763 -2.6379  2.0570
  835MPD2     N12335   1.256   1.359  11.215  0.1095  0.3528  0.0241
  835MPD2    H512336   1.332   1.297  11.242 -1.5639 -2.4311 -1.6589
  835MPD2    N112337   0.980   1.498  10.822 -0.6969 -0.6103 -0.2883
  835MPD2    H712338   0.971   1.489  10.721  2.8051 -1.6168 -0.5366
  836MPD2     C12339   0.673   1.435  11.684 -0.2505 -0.4194  0.0167
  836MPD2    C112340   0.790   1.432  11.754 -0.8988  0.3263 -0.7798
  836MPD2    C212341   0.788   1.491  11.883  0.1021  0.3372  0.2362
  836MPD2    C312342   0.674   1.555  11.927 -0.6766  0.3614 -0.3615
  836MPD2    C412343   0.565   1.566  11.846  0.0499 -0.2268 -0.6869
  836MPD2    C512344   0.569   1.504  11.723  0.7688 -0.1060 -0.4233
  836MPD2     H12345   0.880   1.498  11.941 -0.8682  1.2269  1.6479
  836MPD2    H112346   0.479   1.613  11.892 -0.0119 -0.9623 -0.0507
  836MPD2    H212347   0.674   1.395  11.584 -0.9524  1.4020 -0.7015
  836MPD2    H312348   0.488   1.520  11.654  0.6721  1.4469  0.0574
  836MPD2     N12349   0.662   1.624  12.047  0.6777 -0.3204  0.0802
  836MPD2    H512350   0.582   1.684  12.062 -1.7613 -3.5563 -0.0712
  836MPD2    N112351   0.899   1.381  11.688 -0.1080 -0.3072  0.2104
  836MPD2    H712352   0.881   1.345  11.595 -0.3430  0.4179 -0.0282
  837MPD2     C12353   4.054   1.727  10.029 -0.2188  0.3961  0.0461
  837MPD2    C112354   3.958   1.724  10.126 -0.3974 -0.0732  0.1257
  837MPD2    C212355   3.948   1.833  10.209 -0.1430  0.5283  0.1062
  837MPD2    C312356   4.019   1.952  10.195  0.4441  0.9456 -0.1361
  837MPD2    C412357   4.120   1.951  10.101 -0.4691 -0.2003  0.0762
  837MPD2    C512358   4.130   1.840  10.020  0.6503 -0.0134  0.3216
  837MPD2     H12359   3.863   1.840  10.276  0.7602 -0.7932  1.3749
  837MPD2    H112360   4.178   2.036  10.067 -0.7544  0.1591  0.4712
  837MPD2    H212361   4.066   1.647   9.958  0.3888  1.0138 -0.5480
  837MPD2    H312362   4.209   1.846   9.946 -2.2413  0.1972 -2.7441
  837MPD2     N12363   3.960   2.067  10.251  0.0083  0.5345 -0.2894
  837MPD2    H512364   3.874   2.041  10.298 -0.7903  1.0413 -1.4773
  837MPD2    N112365   3.868   1.619  10.145  0.2091 -0.1549  0.2918
  837MPD2    H712366   3.806   1.630  10.225 -1.1518 -1.9837 -0.4811
  838MPD2     C12367   1.760   4.101  11.123 -0.9053 -0.3277 -0.4873
  838MPD2    C112368   1.779   4.181  11.236  0.0805  0.2942 -1.1848
  838MPD2    C212369   1.700   4.153  11.347  0.0859  0.7241  0.0070
  838MPD2    C312370   1.612   4.044  11.353  0.4144 -0.1198 -0.0692
  838MPD2    C412371   1.603   3.962  11.243 -0.1345  0.1098  0.2981
  838MPD2    C512372   1.672   3.992  11.129  0.1473  0.3957 -0.1769
  838MPD2     H12373   1.706   4.211  11.439  0.7211  0.4139  0.1601
  838MPD2    H112374   1.566   3.860  11.251 -0.7394  0.0915 -2.7847
  838MPD2    H212375   1.821   4.117  11.034  0.5388 -0.1197  0.5382
  838MPD2    H312376   1.686   3.919  11.050  0.2620 -0.5430  0.7031
  838MPD2     N12377   1.552   4.012  11.476  0.0631  0.1696 -0.3665
  838MPD2    H512378   1.564   4.074  11.555 -0.8778  0.4668 -0.4536
  838MPD2    N112379   1.874   4.286  11.250 -0.6123  0.2514 -0.1907
  838MPD2    H712380   1.860   4.351  11.327 -1.4767 -1.9258  1.5229
  839MPD2     C12381   1.830   4.068  11.745 -0.4138  0.2318 -0.1068
  839MPD2    C112382   1.898   4.026  11.630  0.5493  0.5787  1.3368
  839MPD2    C212383   1.978   4.123  11.567  0.3665 -0.5514  0.6755
  839MPD2    C312384   2.001   4.250  11.613 -0.3264  0.3007  0.3575
  839MPD2    C412385   1.922   4.292  11.721  1.0136  0.1880  0.5877
  839MPD2    C512386   1.838   4.203  11.786 -0.4277  0.5690  0.6939
  839MPD2     H12387   2.031   4.101  11.475  0.2863  0.7592  0.3275
  839MPD2    H112388   1.936   4.393  11.757  0.9686  0.2959  0.2966
  839MPD2    H212389   1.747   4.019  11.794 -0.5900  2.5216  1.8438
  839MPD2    H312390   1.770   4.246  11.858 -0.8404  1.7999 -0.4428
  839MPD2     N12391   2.099   4.325  11.541 -0.3169  0.2536  0.0533
  839MPD2    H512392   2.151   4.281  11.466 -1.1981  1.2623 -1.1480
  839MPD2    N112393   1.875   3.904  11.573  0.1660  0.1494  0.4517
  839MPD2    H712394   1.912   3.892  11.479 -0.1783 -2.8855  0.7229
  840MPD2     C12395   2.535   1.866  10.573  0.1875 -0.4409 -0.2375
  840MPD2    C112396   2.455   1.880  10.681 -0.2136  0.8191 -0.5265
  840MPD2    C212397   2.495   1.957  10.787  0.2290 -0.6909 -0.3880
  840MPD2    C312398   2.624   2.013  10.791 -0.4633 -0.3781 -0.6054
  840MPD2    C412399   2.705   1.990  10.679  0.1222 -0.7580  0.3906
  840MPD2    C512400   2.663   1.915  10.580  0.1642 -0.7783  0.4604
  840MPD2     H12401   2.426   1.979  10.868 -0.3475 -2.0504 -0.5061
  840MPD2    H112402   2.800   2.041  10.665 -0.6246  0.6981  0.6271
  840MPD2    H212403   2.501   1.802  10.493  0.1483 -0.7313  0.0122
  840MPD2    H312404   2.725   1.885  10.496 -0.7921  1.3664 -1.0230
  840MPD2     N12405   2.676   2.096  10.891 -0.0435 -0.0174  0.1575
  840MPD2    H512406   2.769   2.132  10.871 -0.4538  0.7091 -0.4389
  840MPD2    N112407   2.329   1.821  10.680  0.2704  0.0075 -0.0709
  840MPD2    H712408   2.304   1.772  10.595  2.2208 -1.8609  0.4464
  841MPD2     C12409   2.206   1.910  14.445  0.1315 -0.1174 -0.6445
  841MPD2    C112410   2.200   1.836  14.557 -0.4531  0.4785  0.7551
  841MPD2    C212411   2.294   1.859  14.662  0.9680  0.1630 -0.0721
  841MPD2    C312412   2.392   1.953  14.653  0.0445  0.8746 -0.8824
  841MPD2    C412413   2.404   2.026  14.532 -0.1444 -0.1366 -0.4061
  841MPD2    C512414   2.316   1.991  14.430  0.5709  0.4300 -0.6483
  841MPD2     H12415   2.269   1.799  14.749  0.5112  1.4472  0.6863
  841MPD2    H112416   2.489   2.087  14.504 -0.5233 -0.2606 -1.8201
  841MPD2    H212417   2.129   1.895  14.370  0.8619  0.8684 -1.5894
  841MPD2    H312418   2.336   2.043  14.337  1.4015 -0.2803 -0.8636
  841MPD2     N12419   2.488   1.965  14.755  0.0702  0.4133  0.2479
  841MPD2    H512420   2.470   1.907  14.837  0.4338  3.1015  2.2353
  841MPD2    N112421   2.098   1.732  14.564  0.1499 -0.6608 -0.1192
  841MPD2    H712422   2.043   1.725  14.479 -0.0872 -0.4621  0.0183
  842MPD2     C12423   1.661   2.505  17.054  0.0533 -0.0140  0.4969
  842MPD2    C112424   1.742   2.614  17.044  0.2068  0.2405  0.1114
  842MPD2    C212425   1.845   2.630  17.133 -0.2577 -0.3351  0.3992
  842MPD2    C312426   1.868   2.546  17.242  0.1072 -0.0571 -0.0695
  842MPD2    C412427   1.790   2.431  17.249  0.3056  1.1733 -0.6260
  842MPD2    C512428   1.689   2.407  17.152 -0.1201  0.0269  0.4997
  842MPD2     H12429   1.915   2.711  17.122  0.1599 -0.7456  0.0096
  842MPD2    H112430   1.798   2.360  17.331 -0.5078  0.6096 -1.0333
  842MPD2    H212431   1.583   2.477  16.985 -1.5744 -1.1754  2.8054
  842MPD2    H312432   1.623   2.322  17.164  0.3395 -0.5756 -1.3485
  842MPD2     N12433   1.960   2.578  17.351  0.0594  0.2206 -0.5771
  842MPD2    H512434   1.982   2.495  17.407 -1.2696 -0.5400 -1.1985
  842MPD2    N112435   1.722   2.697  16.931  0.0173  0.1836  0.3951
  842MPD2    H712436   1.653   2.666  16.863  0.6845 -2.4906  0.9652
  843MPD2     C12437   4.145   3.431  17.580 -0.5454  0.8407  0.8953
  843MPD2    C112438   4.280   3.402  17.564  0.0393 -0.0872 -0.4753
  843MPD2    C212439   4.373   3.503  17.579  0.1136  0.6665 -0.1976
  843MPD2    C312440   4.327   3.623  17.637 -0.0884 -0.4355  0.4281
  843MPD2    C412441   4.193   3.648  17.660  0.1909  1.5845  0.0254
  843MPD2    C512442   4.103   3.555  17.620  0.0718  0.7059  0.3213
  843MPD2     H12443   4.477   3.484  17.559  0.3186  2.8779 -1.2854
  843MPD2    H112444   4.148   3.739  17.699 -2.4396  0.2447  0.0780
  843MPD2    H212445   4.074   3.349  17.575  0.6890 -0.2439  1.1009
  843MPD2    H312446   3.997   3.568  17.639  0.5398  1.2563  2.5676
  843MPD2     N12447   4.413   3.723  17.702  0.8974 -0.0974  0.6747
  843MPD2    H512448   4.367   3.788   0.029  1.1756  0.3126  0.4500
  843MPD2    N112449   4.323   3.270  17.535  0.6666 -0.4458 -0.7351
  843MPD2    H712450   4.249   3.201  17.528  0.5224 -0.4398  0.6675
  844MPD2     C12451   2.372   1.975  16.804 -0.1641  0.2910  0.5060
  844MPD2    C112452   2.372   2.023  16.675  0.1995  0.1607  0.2773
  844MPD2    C212453   2.476   2.112  16.646 -0.4461  0.5222  0.4420
  844MPD2    C312454   2.581   2.130  16.735  0.0447  0.1298 -0.1859
  844MPD2    C412455   2.573   2.077  16.860 -0.9653  0.8809  0.4723
  844MPD2    C512456   2.468   2.005  16.894 -0.2003  0.1343  0.1746
  844MPD2     H12457   2.491   2.155  16.548  0.5047 -1.8698 -0.4565
  844MPD2    H112458   2.647   2.091  16.938  0.5817  2.8861 -1.3530
  844MPD2    H212459   2.288   1.917  16.842  0.2180 -0.1188  0.7311
  844MPD2    H312460   2.471   1.975  16.998 -0.0807  0.9322  0.3998
  844MPD2     N12461   2.688   2.212  16.695  0.2623 -0.2371  0.1649
  844MPD2    H512462   2.682   2.251  16.602  2.9317  1.8453  0.8712
  844MPD2    N112463   2.271   1.981  16.586  0.7946  0.0288 -0.1271
  844MPD2    H712464   2.207   1.910  16.619 -1.5830  1.1814 -2.3115
  845MPD2     C12465   2.913   3.079  16.790  0.8590 -0.4919 -0.0732
  845MPD2    C112466   2.959   3.000  16.887  0.2934  0.2327  0.0937
  845MPD2    C212467   2.981   2.865  16.859 -0.5061 -0.1911  0.4402
  845MPD2    C312468   2.962   2.817  16.725  0.2615 -0.9275 -0.3281
  845MPD2    C412469   2.930   2.902  16.625  0.4498  0.2552 -0.0937
  845MPD2    C512470   2.903   3.034  16.660 -0.2983  0.3475 -0.8311
  845MPD2     H12471   3.012   2.800  16.940  1.7611  1.9907  1.2857
  845MPD2    H112472   2.921   2.872  16.521 -1.4153  1.5043 -0.2937
  845MPD2    H212473   2.897   3.186  16.802  0.8764 -0.3501 -1.2873
  845MPD2    H312474   2.877   3.111  16.588 -0.4546 -1.9670 -3.2716
  845MPD2     N12475   2.987   2.681  16.709 -0.8538 -0.1831  0.1540
  845MPD2    H512476   3.016   2.625  16.789  0.1541  0.5503  0.3135
  845MPD2    N112477   3.002   3.061  17.007 -0.4810  0.3433 -0.6649
  845MPD2    H712478   2.971   3.158  17.007  0.0788  0.5318  0.4332
  846MPD2     C12479   4.614   3.440  13.444  0.5362  0.0424  0.4953
  846MPD2    C112480   4.520   3.539  13.488  0.8293 -0.3292  0.2939
  846MPD2    C212481   4.483   3.546  13.622  0.5601  0.6252  0.0814
  846MPD2    C312482   4.541   3.456  13.713  0.0118  0.0855 -0.0857
  846MPD2    C412483   4.621   3.355  13.666  0.0972  0.9342  0.2129
  846MPD2    C512484   4.650   3.345  13.534 -0.1300  0.1885  0.7357
  846MPD2     H12485   4.426   3.628  13.665 -2.9515 -2.7882  1.8792
  846MPD2    H112486   4.664   3.282  13.733  0.7304  0.2011 -1.0031
  846MPD2    H212487   4.647   3.430  13.341 -0.5080  0.5169  0.1168
  846MPD2    H312488   4.711   3.265  13.495  0.7667  0.3266  1.8585
  846MPD2     N12489   4.503   3.455  13.854  0.1183 -0.2225 -0.6380
  846MPD2    H512490   4.417   3.505  13.873  0.3365 -0.0372 -0.1192
  846MPD2    N112491   4.479   3.648  13.406  0.2723 -0.4911  0.2683
  846MPD2    H712492   4.427   3.720  13.454  0.1621 -0.6580  0.4010
  847MPD2     C12493   4.701   4.281  14.279  0.6838  0.2899  0.4260
  847MPD2    C112494   0.058   4.363  14.233  0.1034  0.2064  0.1555
  847MPD2    C212495   0.188   4.335  14.255 -0.2354  0.0657 -1.0339
  847MPD2    C312496   0.226   4.216  14.318  0.2623  0.2796  0.1914
  847MPD2    C412497   0.127   4.129  14.365 -0.0835  0.2220 -0.2926
  847MPD2    C512498   4.731   4.174  14.352  0.2693 -0.6048 -0.6881
  847MPD2     H12499   0.269   4.400  14.225  3.9762 -3.1331  3.2860
  847MPD2    H112500   0.153   4.039  14.420 -2.3467 -0.1556  0.1534
  847MPD2    H212501   4.595   4.304  14.281  0.4321 -0.7783 -0.9279
  847MPD2    H312502   4.648   4.113  14.386  0.7142 -0.3206  0.9004
  847MPD2     N12503   0.361   4.217  14.364 -0.3299 -0.0408  0.0214
  847MPD2    H512504   0.420   4.291  14.327 -1.7936  0.8228 -0.5869
  847MPD2    N112505   0.038   4.473  14.153  0.2618  0.5431 -0.2573
  847MPD2    H712506   0.125   4.509  14.115  0.2526  0.2374 -0.5653
  848MPD2     C12507   2.524   2.692  16.469 -0.0426  0.5803  0.0024
  848MPD2    C112508   2.575   2.762  16.574 -0.1633  0.0882  0.5176
  848MPD2    C212509   2.603   2.898  16.554 -0.0286 -0.0205  0.0925
  848MPD2    C312510   2.580   2.959  16.427  1.3315 -0.3750 -0.0564
  848MPD2    C412511   2.552   2.874  16.323 -0.1070  0.0866  0.0475
  848MPD2    C512512   2.515   2.742  16.344 -0.4148  0.6405 -0.3033
  848MPD2     H12513   2.639   2.960  16.636 -0.2061  0.7221 -0.3905
  848MPD2    H112514   2.536   2.919  16.226 -1.3925  0.3752  0.3987
  848MPD2    H212515   2.501   2.586  16.471  0.5895  0.4583  0.6987
  848MPD2    H312516   2.488   2.681  16.258 -1.0557 -1.8190  1.6316
  848MPD2     N12517   2.601   3.091  16.391  0.1573  0.2591 -0.0359
  848MPD2    H512518   2.592   3.109  16.291  0.3904 -0.4344 -0.1850
  848MPD2    N112519   2.602   2.699  16.697 -0.2508 -0.7492  0.0974
  848MPD2    H712520   2.676   2.729  16.759  0.2797 -0.6821 -0.5773
  849MPD2     C12521   1.695   2.542  14.113 -0.2455  0.3854  0.3860
  849MPD2    C112522   1.813   2.617  14.100  0.1407 -0.1133  0.6746
  849MPD2    C212523   1.919   2.597  14.182  0.0687  0.0966 -0.4621
  849MPD2    C312524   1.905   2.517  14.290 -0.2421 -0.2264 -0.5341
  849MPD2    C412525   1.785   2.452  14.308 -0.1891 -0.8224  0.4129
  849MPD2    C512526   1.680   2.458  14.221  0.1169  0.5639 -0.2424
  849MPD2     H12527   2.016   2.638  14.160  0.0605  0.9883  1.1721
  849MPD2    H112528   1.774   2.377  14.386 -1.0734  0.0997  1.1907
  849MPD2    H212529   1.618   2.544  14.036 -0.2713  1.7107  0.4481
  849MPD2    H312530   1.587   2.404  14.231  0.8252 -0.9450 -1.7096
  849MPD2     N12531   2.028   2.481  14.351  0.5182  0.5007  0.1090
  849MPD2    H512532   2.114   2.512  14.307  1.4350 -2.5828 -0.2996
  849MPD2    N112533   1.827   2.689  13.980  0.2662  0.1870  0.4595
  849MPD2    H712534   1.762   2.665  13.906  1.2076  1.8780 -0.9323
  850MPD2     C12535   0.067   0.469  14.981 -0.6024  0.1228 -1.0450
  850MPD2    C112536   0.022   0.597  14.996 -0.3542  0.1137 -1.0376
  850MPD2    C212537   0.111   0.699  14.958  1.1360 -0.2939  0.1167
  850MPD2    C312538   0.237   0.674  14.907 -0.4519 -0.2961 -0.6092
  850MPD2    C412539   0.267   0.540  14.874  0.8745  0.5183  0.1074
  850MPD2    C512540   0.182   0.438  14.908 -0.4342  0.1481  1.1078
  850MPD2     H12541   0.081   0.803  14.971 -0.5394 -0.4359 -2.6592
  850MPD2    H112542   0.361   0.510  14.830  2.5816  1.9215  2.7633
  850MPD2    H212543   0.004   0.386  15.012 -1.6558  1.7058  1.0031
  850MPD2    H312544   0.202   0.334  14.885 -0.5777  0.0864  1.2577
  850MPD2     N12545   0.340   0.773  14.886  0.4670 -0.0505 -0.0436
  850MPD2    H512546   0.423   0.742  14.835  0.4209  1.7802 -1.2167
  850MPD2    N112547   4.629   0.616  15.056  0.3311  0.2632  0.1020
  850MPD2    H712548   4.578   0.531  15.077 -0.1870  0.5741  0.1031
  851MPD2     C12549   0.283   0.813  15.332  0.1516 -0.1014  0.4555
  851MPD2    C112550   0.237   0.693  15.382  0.0146  0.4821  0.1294
  851MPD2    C212551   0.306   0.581  15.354  0.1390 -0.7728  0.3682
  851MPD2    C312552   0.406   0.585  15.262 -0.3986 -0.7617  0.3909
  851MPD2    C412553   0.440   0.698  15.201 -0.0351 -0.0555  0.0270
  851MPD2    C512554   0.391   0.813  15.245  0.0084 -0.3573  0.2561
  851MPD2     H12555   0.282   0.485  15.399  0.1576 -0.6397  0.6589
  851MPD2    H112556   0.511   0.698  15.119 -0.5629 -0.1934 -0.4329
  851MPD2    H212557   0.225   0.903  15.349  0.5668 -0.1926  2.3878
  851MPD2    H312558   0.419   0.906  15.196  1.0873 -1.4029 -1.1196
  851MPD2     N12559   0.455   0.461  15.224 -0.0332  0.4412 -0.2713
  851MPD2    H512560   0.427   0.375  15.270  0.2266  0.7765  0.5307
  851MPD2    N112561   0.104   0.699  15.439  0.0863  0.1608 -0.0089
  851MPD2    H712562   0.062   0.789  15.461 -0.8766 -0.6889  1.6355
  852MPD2     C12563   0.418   3.126  10.097  0.6311 -0.3731  0.2067
  852MPD2    C112564   0.425   3.188  10.220  0.2338 -0.4386 -0.1198
  852MPD2    C212565   0.441   3.322  10.234 -0.2314 -0.1039  0.2797
  852MPD2    C312566   0.440   3.406  10.127 -0.1557 -0.9020  0.3262
  852MPD2    C412567   0.415   3.353  10.008  0.2578 -0.0270 -0.0363
  852MPD2    C512568   0.412   3.212   9.999 -0.1734  0.0842  0.4490
  852MPD2     H12569   0.475   3.367  10.327 -3.0692 -0.4169  1.4832
  852MPD2    H112570   0.399   3.410   9.917  2.8196  4.1267  2.0876
  852MPD2    H212571   0.397   3.024  10.066  0.9063 -0.9035  1.7756
  852MPD2    H312572   0.389   3.171   9.901 -1.3570  0.6931  0.4735
  852MPD2     N12573   0.467   3.547  10.147  0.4003 -0.5420  0.2618
  852MPD2    H512574   0.504   3.578  10.237  2.5134  0.0335 -0.8092
  852MPD2    N112575   0.416   3.114  10.337  0.0145  0.4219  0.4292
  852MPD2    H712576   0.414   3.169  10.422 -1.6554 -0.4377  0.9326
  853MPD2     C12577   1.662   2.909  12.223 -0.0953  0.0837 -0.4776
  853MPD2    C112578   1.590   3.000  12.153  0.0464  0.3729  0.6443
  853MPD2    C212579   1.555   2.979  12.020 -0.2613  0.2156  0.0418
  853MPD2    C312580   1.603   2.867  11.949  0.2658  0.0280  0.0782
  853MPD2    C412581   1.677   2.778  12.017  0.8876 -0.1719 -0.3236
  853MPD2    C512582   1.703   2.799  12.153  0.4076 -0.0071 -0.0118
  853MPD2     H12583   1.488   3.044  11.966 -1.1225  1.1586  2.2436
  853MPD2    H112584   1.704   2.683  11.971  0.7067  0.6065 -2.0462
  853MPD2    H212585   1.696   2.925  12.325 -2.1155 -2.0578  0.5370
  853MPD2    H312586   1.751   2.716  12.204  1.7566 -0.4332 -1.9692
  853MPD2     N12587   1.582   2.849  11.809  0.1496  1.1408  0.3123
  853MPD2    H512588   1.628   2.767  11.771  0.1284  1.0158  0.5538
  853MPD2    N112589   1.539   3.110  12.229  0.1018  0.3954 -0.3432
  853MPD2    H712590   1.566   3.114  12.327  3.2245 -0.1188 -1.1730
  854MPD2     C12591   3.364   2.956  12.575 -1.3424 -0.0917 -0.0187
  854MPD2    C112592   3.401   3.048  12.667  0.1223 -0.5906 -0.2055
  854MPD2    C212593   3.479   3.007  12.775 -0.3209 -0.4533 -0.3086
  854MPD2    C312594   3.497   2.874  12.804  0.4195  0.4877 -0.3208
  854MPD2    C412595   3.449   2.778  12.719 -0.1412 -0.5066  0.2846
  854MPD2    C512596   3.388   2.819  12.602  0.9613  0.9375  0.0564
  854MPD2     H12597   3.521   3.078  12.845  2.3610  0.0681 -2.4695
  854MPD2    H112598   3.452   2.671  12.739 -1.6513 -0.6443 -0.1860
  854MPD2    H212599   3.322   2.980  12.478 -0.8203  1.4600  0.1414
  854MPD2    H312600   3.347   2.745  12.534 -0.0550 -0.6496  2.3925
  854MPD2     N12601   3.595   2.831  12.904  0.2107  0.1902 -0.4158
  854MPD2    H512602   3.608   2.730  12.897  2.3294  0.6135 -2.2566
  854MPD2    N112603   3.380   3.186  12.638 -0.2998  0.3845  0.3443
  854MPD2    H712604   3.344   3.219  12.549  0.9859  1.6769  0.3085
  855MPD2     C12605   3.854   3.097  13.839 -0.2108  0.5096 -0.0708
  855MPD2    C112606   3.805   2.976  13.810 -0.0497  0.2925 -0.8088
  855MPD2    C212607   3.818   2.917  13.686  0.3179  0.4786 -0.0049
  855MPD2    C312608   3.867   2.990  13.582  0.2619  0.0827  0.5043
  855MPD2    C412609   3.900   3.122  13.599  0.3144  0.2125 -0.6055
  855MPD2    C512610   3.898   3.172  13.731  0.0305 -0.2666 -0.3559
  855MPD2     H12611   3.774   2.820  13.667  0.8238  0.5407 -1.4913
  855MPD2    H112612   3.941   3.182  13.518  1.3400 -1.5935 -1.4065
  855MPD2    H212613   3.857   3.144  13.936 -0.5161 -0.7026  0.5223
  855MPD2    H312614   3.938   3.271  13.750 -0.0233 -0.3110 -0.0095
  855MPD2     N12615   3.862   2.927  13.456 -0.3246  0.2480 -0.8536
  855MPD2    H512616   3.870   2.993  13.378 -1.9730 -1.8759 -2.8162
  855MPD2    N112617   3.745   2.897  13.905  0.1395  0.5898 -0.3912
  855MPD2    H712618   3.716   2.808  13.865 -1.6085  0.7808  0.4685
  856MPD2     C12619   1.474   3.487  13.908  0.1427  0.0075 -0.3008
  856MPD2    C112620   1.426   3.594  13.826 -0.4162 -1.2318  0.0032
  856MPD2    C212621   1.298   3.607  13.795  0.7468 -0.1077  0.3915
  856MPD2    C312622   1.207   3.509  13.831 -0.3793 -0.3781  0.5728
  856MPD2    C412623   1.247   3.411  13.918  1.0860  0.0990  0.1656
  856MPD2    C512624   1.385   3.401  13.958 -0.6064  0.2980 -0.6226
  856MPD2     H12625   1.267   3.688  13.729  2.2363  0.3925  0.3059
  856MPD2    H112626   1.181   3.332  13.953  1.3614 -1.1369 -2.0878
  856MPD2    H212627   1.576   3.473  13.940  0.0565 -0.7196 -0.3327
  856MPD2    H312628   1.423   3.327  14.028 -0.8119  2.2745  1.5456
  856MPD2     N12629   1.070   3.516  13.792  0.1256 -0.1095  0.8646
  856MPD2    H512630   1.002   3.474  13.853 -1.9323 -0.1241 -1.4506
  856MPD2    N112631   1.515   3.700  13.793  0.2691  0.2014 -0.3918
  856MPD2    H712632   1.473   3.785  13.758  0.7823  0.9993  0.9026
  857MPD2     C12633   2.507   0.940  12.949 -0.1391  0.2764  0.0811
  857MPD2    C112634   2.638   0.959  12.978 -0.1985 -0.0859  0.2007
  857MPD2    C212635   2.674   1.085  13.020  0.3534  0.4830 -0.3733
  857MPD2    C312636   2.588   1.183  13.057 -0.7582 -0.3627 -0.3649
  857MPD2    C412637   2.450   1.157  13.035 -0.3791 -0.1773 -0.5599
  857MPD2    C512638   2.416   1.031  12.985  0.0910  0.3239  0.5416
  857MPD2     H12639   2.781   1.098  13.034  0.6979 -0.2190 -2.2395
  857MPD2    H112640   2.369   1.222  13.068 -1.5560 -1.4488 -0.9519
  857MPD2    H212641   2.473   0.843  12.915 -1.8186  1.0182 -0.3843
  857MPD2    H312642   2.313   1.002  12.975  0.2017 -0.4257  1.5367
  857MPD2     N12643   2.639   1.307  13.105 -0.2400 -0.1208  0.0720
  857MPD2    H512644   2.737   1.294  13.128  0.0024  2.2971  0.4870
  857MPD2    N112645   2.726   0.854  12.939 -0.2549  0.1916 -0.4772
  857MPD2    H712646   2.672   0.772  12.913  1.3686 -0.9343 -0.3188
  858MPD2     C12647   2.796   0.689  16.381 -0.4004 -0.6436  0.1193
  858MPD2    C112648   2.879   0.597  16.430 -0.4265 -0.1916 -0.3135
  858MPD2    C212649   2.906   0.587  16.564  0.2111 -0.4892 -0.2013
  858MPD2    C312650   2.856   0.683  16.658 -0.3624 -0.6720  0.2781
  858MPD2    C412651   2.784   0.789  16.600 -0.0353  0.1010 -0.3987
  858MPD2    C512652   2.739   0.776  16.471  0.0642 -0.2852 -0.0912
  858MPD2     H12653   2.981   0.515  16.595  1.2326  0.7220  0.1545
  858MPD2    H112654   2.749   0.876  16.655 -0.8110 -0.0374 -0.6805
  858MPD2    H212655   2.772   0.711  16.278  0.3076  2.2818  0.5798
  858MPD2    H312656   2.682   0.858  16.427 -0.6026 -1.8662 -2.1853
  858MPD2     N12657   2.900   0.693  16.796 -0.5703  0.2578 -0.2885
  858MPD2    H512658   2.857   0.765  16.852 -1.4803 -1.4036  1.1612
  858MPD2    N112659   2.942   0.505  16.352  0.2064 -0.4328 -0.0551
  858MPD2    H712660   3.025   0.471  16.399 -0.0906  2.1478  2.3051
  859MPD2     C12661   1.887   2.628  15.074 -0.3097 -0.4408  0.0378
  859MPD2    C112662   1.971   2.652  15.175  0.3441 -0.5043  0.0598
  859MPD2    C212663   1.983   2.552  15.272 -0.7597 -0.1946 -0.3688
  859MPD2    C312664   1.898   2.445  15.274  0.0557 -0.1510 -0.1350
  859MPD2    C412665   1.810   2.432  15.175 -0.0332 -0.5819 -0.0338
  859MPD2    C512666   1.803   2.521  15.074  0.2621 -0.4927  0.0969
  859MPD2     H12667   2.054   2.564  15.354  0.3087 -0.0901 -1.3126
  859MPD2    H112668   1.751   2.342  15.162 -0.3268 -0.0205 -2.5893
  859MPD2    H212669   1.878   2.696  14.989 -0.9015 -2.1092 -1.2310
  859MPD2    H312670   1.730   2.515  14.994  1.0133  0.1894 -0.6428
  859MPD2     N12671   1.911   2.334  15.366 -0.4310 -0.3912  0.2995
  859MPD2    H512672   1.858   2.253  15.336  2.0954 -1.6951 -0.6069
  859MPD2    N112673   2.055   2.767  15.170  0.3256  0.4723  0.0450
  859MPD2    H712674   2.029   2.836  15.099 -0.9951 -1.1031 -0.9949
  860MPD2     C12675   0.001   2.464  11.753  0.1677 -0.1544  0.6570
  860MPD2    C112676   4.701   2.581  11.817  0.5277  0.3481 -0.0393
  860MPD2    C212677   4.566   2.583  11.840  1.0883 -0.3996  0.8333
  860MPD2    C312678   4.481   2.478  11.831 -0.1911  0.2839  0.0582
  860MPD2    C412679   4.519   2.365  11.767  0.4024 -0.0663  0.1538
  860MPD2    C512680   4.650   2.364  11.725 -0.4418  0.2892 -0.5297
  860MPD2     H12681   4.532   2.672  11.892 -0.7962 -1.1069  0.8088
  860MPD2    H112682   4.460   2.274  11.762  0.6417 -0.0995 -2.1272
  860MPD2    H212683   0.101   2.452  11.714  0.2880  3.0417 -0.0501
  860MPD2    H312684   4.688   2.273  11.680  1.9529 -0.3454  2.7641
  860MPD2     N12685   4.362   2.484  11.903 -0.1375  0.6712  0.4413
  860MPD2    H512686   4.351   2.569  11.956 -0.0044  0.9467  0.0281
  860MPD2    N112687   0.043   2.686  11.863 -0.7083 -0.1308 -0.5878
  860MPD2    H712688   4.725   2.765  11.901 -4.4962 -1.7393 -2.4127
  861MPD2     C12689   3.492   1.227  11.313 -0.3899  0.1903 -0.2410
  861MPD2    C112690   3.362   1.202  11.347 -0.0777 -0.2982 -0.9743
  861MPD2    C212691   3.249   1.262  11.290  0.4653  0.0570  0.2620
  861MPD2    C312692   3.277   1.346  11.175 -0.0346  0.9406  0.4005
  861MPD2    C412693   3.407   1.368  11.138 -0.8353 -0.2790 -0.2272
  861MPD2    C512694   3.512   1.309  11.207 -0.6801  0.3507  0.1443
  861MPD2     H12695   3.148   1.234  11.316 -0.1541  1.0730 -1.0251
  861MPD2    H112696   3.429   1.427  11.050  1.6960  1.7504  1.7573
  861MPD2    H212697   3.572   1.167  11.355 -0.7935 -0.8666 -0.9783
  861MPD2    H312698   3.608   1.319  11.159 -1.7759  1.5548 -1.8240
  861MPD2     N12699   3.173   1.399  11.097 -0.1860 -0.0112 -0.4739
  861MPD2    H512700   3.209   1.454  11.019  0.5660  1.9632  1.2599
  861MPD2    N112701   3.330   1.122  11.470  0.2623 -0.2565  0.0384
  861MPD2    H712702   3.232   1.111  11.494  0.3167 -1.2495 -0.1601
  862MPD2     C12703   2.807   1.574  10.476  0.6162  0.1940  0.1414
  862MPD2    C112704   2.863   1.482  10.561  0.1699  0.3691 -0.9351
  862MPD2    C212705   2.858   1.348  10.532 -0.2893  0.1153 -0.3372
  862MPD2    C312706   2.792   1.307  10.417 -0.4818 -0.1712 -0.4959
  862MPD2    C412707   2.730   1.399  10.339 -0.2372 -0.7524 -0.0901
  862MPD2    C512708   2.734   1.530  10.366 -0.0698  0.4016  0.5397
  862MPD2     H12709   2.909   1.283  10.602  1.0526  1.3340 -0.1883
  862MPD2    H112710   2.699   1.378  10.237 -0.8881 -0.3268  0.0169
  862MPD2    H212711   2.820   1.681  10.490  1.7516  0.1550 -0.6187
  862MPD2    H312712   2.693   1.598  10.292 -1.3387 -0.5964  0.3416
  862MPD2     N12713   2.795   1.171  10.375 -0.4111 -0.2363 -0.0884
  862MPD2    H512714   2.753   1.150  10.285 -3.0721 -3.4146  1.8578
  862MPD2    N112715   2.931   1.515  10.680 -0.2389  0.0048  0.6697
  862MPD2    H712716   2.949   1.437  10.742 -0.9779 -0.4783  0.2677
  863MPD2     C12717   1.349   4.285  16.376 -0.3792 -0.0595 -0.2775
  863MPD2    C112718   1.280   4.298  16.497 -0.8342  0.1092  0.2124
  863MPD2    C212719   1.337   4.275  16.618 -0.0658 -0.5232  0.0419
  863MPD2    C312720   1.473   4.252  16.625 -0.1356  0.3093 -0.1751
  863MPD2    C412721   1.542   4.239  16.505  0.7579 -0.0930 -0.8251
  863MPD2    C512722   1.483   4.265  16.382 -0.8937 -0.4497  0.2755
  863MPD2     H12723   1.282   4.293  16.709 -1.3885 -0.4183 -0.7728
  863MPD2    H112724   1.647   4.214  16.500  0.8080  0.5219 -2.7283
  863MPD2    H212725   1.303   4.299  16.279 -1.9353  0.2285  0.4991
  863MPD2    H312726   1.545   4.248  16.295 -1.3059  1.4629 -0.3957
  863MPD2     N12727   1.544   4.223  16.746 -0.0492 -0.5128  0.1134
  863MPD2    H512728   1.488   4.208  16.829  1.9130 -1.0207  1.3250
  863MPD2    N112729   1.142   4.326  16.479 -0.4938 -0.5481 -0.6159
  863MPD2    H712730   1.126   4.343  16.380 -4.9382 -2.0031 -0.1341
  864MPD2     C12731   1.966   0.343  17.334  0.3194  0.2723  0.1221
  864MPD2    C112732   2.018   0.314  17.209 -0.1091  0.2245  0.2675
  864MPD2    C212733   2.073   0.417  17.128  0.8304 -0.0859 -0.2787
  864MPD2    C312734   2.082   0.544  17.179 -0.2008  0.4542 -0.1488
  864MPD2    C412735   2.032   0.571  17.303 -0.2358  0.0588 -0.0365
  864MPD2    C512736   1.979   0.469  17.379 -0.0521 -0.0841 -0.6648
  864MPD2     H12737   2.094   0.393  17.025 -0.0862 -0.3374 -0.4131
  864MPD2    H112738   2.037   0.665  17.356 -0.4224 -1.3667  2.5158
  864MPD2    H212739   1.913   0.274  17.398 -1.4527  1.0626 -0.5062
  864MPD2    H312740   1.939   0.487  17.478 -2.3455  0.4643 -1.7119
  864MPD2     N12741   2.108   0.657  17.100 -0.1131 -0.1342  0.4650
  864MPD2    H512742   2.107   0.747  17.148 -2.2026 -1.5882  3.1528
  864MPD2    N112743   2.005   0.179  17.167 -0.0158  0.1672  0.2770
  864MPD2    H712744   1.948   0.120  17.226  0.2222  1.0121  1.3490
  865MPD2     C12745   1.893   1.259  16.539  0.2701 -0.1428  0.1205
  865MPD2    C112746   1.940   1.144  16.578 -0.1487 -0.3821 -0.7115
  865MPD2    C212747   1.966   1.121  16.716  0.5910  0.3999  0.2628
  865MPD2    C312748   1.950   1.226  16.809 -0.2332  0.1368 -0.3077
  865MPD2    C412749   1.896   1.351  16.766  0.0310 -0.0596  0.2877
  865MPD2    C512750   1.873   1.359  16.630 -0.3278  0.8948 -1.0792
  865MPD2     H12751   2.010   1.029  16.752  0.4427 -0.9595 -3.0401
  865MPD2    H112752   1.867   1.425  16.840 -2.3773 -2.2146  1.4905
  865MPD2    H212753   1.882   1.279  16.433 -1.4193 -0.2851  0.2627
  865MPD2    H312754   1.830   1.454  16.601  0.3834  1.8446  0.9442
  865MPD2     N12755   1.981   1.226  16.951 -0.3175  0.5758  0.0976
  865MPD2    H512756   1.939   1.307  16.996  0.6378 -0.2390  2.4606
  865MPD2    N112757   1.964   1.044  16.476  0.3017 -0.5281  0.6814
  865MPD2    H712758   1.944   1.080  16.384  1.2783  0.4146  0.8354
  866MPD2     C12759   3.987   1.424  11.742 -0.0132  0.2956  0.4718
  866MPD2    C112760   3.993   1.434  11.605 -0.2521  0.0027 -0.0673
  866MPD2    C212761   3.875   1.476  11.540  0.2629 -0.0519 -0.5019
  866MPD2    C312762   3.758   1.497  11.609  0.2454  0.4997 -0.3206
  866MPD2    C412763   3.755   1.486  11.747  0.6423  0.4673 -0.0087
  866MPD2    C512764   3.877   1.461  11.811  0.4271 -0.1423  0.0732
  866MPD2     H12765   3.875   1.479  11.432  0.6935  1.7237 -0.4520
  866MPD2    H112766   3.661   1.495  11.801  1.0981  2.3582  0.4559
  866MPD2    H212767   4.081   1.409  11.793 -0.3776  0.5068  1.2053
  866MPD2    H312768   3.881   1.464  11.919  2.9992  0.8503 -0.0497
  866MPD2     N12769   3.634   1.532  11.555  0.7446 -0.1105  0.0098
  866MPD2    H512770   3.554   1.540  11.618  0.7912  1.1123 -0.0861
  866MPD2    N112771   4.112   1.404  11.533  0.2988 -0.2001 -0.3043
  866MPD2    H712772   4.192   1.373  11.587  0.2006 -1.9519 -1.1520
  867MPD2     C12773   0.256   0.440  16.868 -0.1100 -0.3579  0.4093
  867MPD2    C112774   0.359   0.467  16.954 -0.0646  0.1655  0.3989
  867MPD2    C212775   0.341   0.552  17.061  0.0645  0.6972 -0.1968
  867MPD2    C312776   0.223   0.625  17.073 -0.4682  0.5645  0.9251
  867MPD2    C412777   0.119   0.588  16.984 -0.6388 -0.6985  0.1800
  867MPD2    C512778   0.139   0.510  16.878  0.3851 -0.1425 -0.8822
  867MPD2     H12779   0.421   0.577  17.129 -0.7826  1.5894  0.4732
  867MPD2    H112780   0.019   0.629  16.984 -0.2977  0.1676 -2.4034
  867MPD2    H212781   0.270   0.374  16.784 -0.5553 -0.5192  0.4613
  867MPD2    H312782   0.056   0.501  16.809  0.1939  1.9003 -0.8926
  867MPD2     N12783   0.203   0.737  17.166 -0.7425 -0.2275  0.5825
  867MPD2    H512784   0.107   0.757  17.193 -1.3686 -0.5437 -1.4229
  867MPD2    N112785   0.483   0.406  16.917 -0.8636  0.8034  0.0642
  867MPD2    H712786   0.491   0.339  16.841 -3.7887 -0.2462  0.6584
  868MPD2     C12787   2.960   4.547  13.197 -0.5970 -0.1866  0.0903
  868MPD2    C112788   2.994   4.482  13.307  0.2191  0.1156 -0.4494
  868MPD2    C212789   2.897   4.460  13.406  0.0396  0.2317  0.7096
  868MPD2    C312790   2.773   4.510  13.389 -0.2336 -0.7207 -0.4693
  868MPD2    C412791   2.737   4.561  13.269 -0.2133  0.3227 -0.5705
  868MPD2    C512792   2.828   4.592  13.169 -0.9512  0.2090 -0.1091
  868MPD2     H12793   2.931   4.415  13.499 -1.7050 -0.8033  0.8476
  868MPD2    H112794   2.634   4.578  13.242 -0.4533  0.1474  0.2370
  868MPD2    H212795   3.039   4.559  13.123  1.3848 -0.6639  2.1092
  868MPD2    H312796   2.804   4.638  13.074 -0.7837 -0.2589 -0.3749
  868MPD2     N12797   2.686   4.492  13.498 -0.2682  0.0665 -0.2319
  868MPD2    H512798   2.727   4.442  13.577 -1.4227 -2.4630 -1.2317
  868MPD2    N112799   3.129   4.432  13.312  0.0333  0.3999 -0.4118
  868MPD2    H712800   3.195   4.464  13.242 -0.4084 -2.2406 -2.0444
  869MPD2     C12801   3.989   1.948   0.547 -0.1797 -0.0522  0.4890
  869MPD2    C112802   4.040   2.070   0.515 -0.4188 -0.1116 -0.5638
  869MPD2    C212803   4.175   2.089   0.524 -0.2123  0.1931  0.2498
  869MPD2    C312804   4.253   1.992   0.575 -1.3510  0.1721 -0.0720
  869MPD2    C412805   4.198   1.875   0.620 -0.0107 -0.4619  0.0197
  869MPD2    C512806   4.065   1.850   0.600  0.6492  0.0085  0.5307
  869MPD2     H12807   4.213   2.190   0.519  1.6859 -0.6064 -1.4404
  869MPD2    H112808   4.257   1.805   0.677  1.0158 -0.9657 -1.6439
  869MPD2    H212809   3.884   1.924   0.549  0.0356 -0.9232  1.5631
  869MPD2    H312810   4.022   1.757   0.635  3.3944 -0.8185  1.7692
  869MPD2     N12811   4.390   2.014   0.589  0.1041 -0.0419 -0.1747
  869MPD2    H512812   4.448   1.955   0.647  0.3581 -0.0571 -0.4448
  869MPD2    N112813   3.949   2.171   0.474  0.1719 -0.4970 -0.6554
  869MPD2    H712814   3.849   2.160   0.487  0.0391  0.9681 -0.3725
  870MPD2     C12815   3.970   0.958   1.287 -0.0369 -0.1098  0.4403
  870MPD2    C112816   3.878   0.866   1.237  0.2410  0.1744 -0.1515
  870MPD2    C212817   3.751   0.913   1.213 -0.2409  0.4812  0.8577
  870MPD2    C312818   3.705   1.036   1.247 -0.3189  0.2841  0.3905
  870MPD2    C412819   3.798   1.128   1.294  0.2439  0.2316 -0.3267
  870MPD2    C512820   3.928   1.085   1.311 -0.1754 -0.6049  0.1735
  870MPD2     H12821   3.675   0.842   1.181  0.9905  0.0128 -1.1131
  870MPD2    H112822   3.786   1.236   1.301  1.1475  0.2866  0.4244
  870MPD2    H212823   4.069   0.932   1.321 -0.2640 -1.1997  0.2796
  870MPD2    H312824   4.001   1.159   1.342  0.2256 -0.7687 -0.3800
  870MPD2     N12825   3.567   1.074   1.227  0.0291 -0.3032  0.1685
  870MPD2    H512826   3.514   1.002   1.179  0.1990  0.0395 -0.5294
  870MPD2    N112827   3.925   0.728   1.221  0.0093  0.0301 -0.1530
  870MPD2    H712828   4.009   0.709   1.275 -2.3336 -2.4950  2.6471
  871MPD2     C12829   4.547   0.777  16.082 -0.3130  0.3937 -0.2470
  871MPD2    C112830   4.490   0.696  16.178  0.0145  0.1408  0.3774
  871MPD2    C212831   4.496   0.557  16.176  0.2865  0.3575  0.3189
  871MPD2    C312832   4.567   0.505  16.073 -0.1779 -0.0531 -0.2626
  871MPD2    C412833   4.626   0.591  15.977  1.0167 -0.0081  0.0461
  871MPD2    C512834   4.605   0.721  15.974  0.1112  0.6317  0.0227
  871MPD2     H12835   4.447   0.497  16.252 -0.1282  0.7698  0.3833
  871MPD2    H112836   4.686   0.549  15.898  1.1784  1.4951 -0.6397
  871MPD2    H212837   4.525   0.883  16.081  0.4999  0.5591 -1.6001
  871MPD2    H312838   4.654   0.792  15.908 -2.3712  2.2054 -0.1205
  871MPD2     N12839   4.572   0.366  16.063  0.4719  0.0197  0.3923
  871MPD2    H512840   4.550   0.316  16.148  3.2736 -1.2104  0.4183
  871MPD2    N112841   4.436   0.766  16.286  1.0129  0.3947  0.0953
  871MPD2    H712842   4.441   0.867  16.278 -0.1382  0.4029 -0.6085
  872MPD2     C12843   1.022   3.052  13.302  0.4325 -0.9624 -0.5394
  872MPD2    C112844   1.036   3.105  13.434 -0.2951 -0.8220  0.1963
  872MPD2    C212845   0.923   3.143  13.506 -0.0662 -0.2800  0.2041
  872MPD2    C312846   0.795   3.125  13.452 -0.3489  0.0484 -0.5115
  872MPD2    C412847   0.779   3.061  13.328 -0.2265  0.2655 -0.0328
  872MPD2    C512848   0.894   3.035  13.251  0.0503  0.1225 -0.9977
  872MPD2     H12849   0.940   3.180  13.607 -1.3474 -1.2870  0.7900
  872MPD2    H112850   0.677   3.044  13.296 -0.9221  0.8328  1.8694
  872MPD2    H212851   1.115   3.035  13.248  1.1391  2.6399 -0.4817
  872MPD2    H312852   0.894   2.994  13.151  2.2056  0.9842 -1.3569
  872MPD2     N12853   0.682   3.182  13.508 -0.0777  0.3199  0.2350
  872MPD2    H512854   0.594   3.177  13.457 -0.7434  0.0932  1.4173
  872MPD2    N112855   1.164   3.136  13.490  0.5061 -0.3451  0.4894
  872MPD2    H712856   1.242   3.148  13.426  1.1437  0.4301  1.4169
  873MPD2     C12857   2.625   2.604   1.020  0.7666  0.2422 -0.0909
  873MPD2    C112858   2.561   2.663   1.121  0.3016 -0.2209  0.1663
  873MPD2    C212859   2.465   2.593   1.194  0.1230  0.2375  0.5978
  873MPD2    C312860   2.418   2.470   1.147 -0.0405  0.4476 -0.2171
  873MPD2    C412861   2.481   2.419   1.036  0.2847 -0.0103  0.3423
  873MPD2    C512862   2.585   2.478   0.974 -0.1082  0.5669 -0.0910
  873MPD2     H12863   2.426   2.640   1.284 -1.4522  1.3658 -0.6589
  873MPD2    H112864   2.460   2.314   1.015  1.9414 -0.1422 -0.6475
  873MPD2    H212865   2.703   2.660   0.970  0.4261  0.4622 -0.3840
  873MPD2    H312866   2.641   2.432   0.894 -3.2220 -0.7207 -1.5326
  873MPD2     N12867   2.307   2.399   1.194  0.4555  0.5690  0.0709
  873MPD2    H512868   2.262   2.336   1.129 -0.0254  3.2851 -2.2412
  873MPD2    N112869   2.606   2.796   1.148 -0.0870  0.2551 -0.0248
  873MPD2    H712870   2.687   2.832   1.099  0.2045  0.7919  0.8524
  874MPD2     C12871   1.822   3.339  16.272  0.1423  0.5059  0.0119
  874MPD2    C112872   1.892   3.289  16.376  0.5182 -0.7134 -0.2925
  874MPD2    C212873   2.026   3.308  16.389  0.5217  0.7559 -0.0326
  874MPD2    C312874   2.100   3.380  16.304  0.1354 -0.1030 -0.0354
  874MPD2    C412875   2.030   3.443  16.203  0.5487  0.1729 -0.2239
  874MPD2    C512876   1.901   3.413  16.176 -0.4844 -0.5243  0.0618
  874MPD2     H12877   2.075   3.270  16.478  1.6948 -1.1752 -1.5250
  874MPD2    H112878   2.082   3.507  16.133  0.4937  1.8601  1.2555
  874MPD2    H212879   1.714   3.338  16.263  0.1136 -1.8433  0.6351
  874MPD2    H312880   1.852   3.455  16.089 -0.2591 -1.5362 -0.5524
  874MPD2     N12881   2.244   3.381  16.319 -0.4622 -0.0671  0.4792
  874MPD2    H512882   2.293   3.322  16.385 -0.8284  0.4932  1.2418
  874MPD2    N112883   1.809   3.210  16.460  0.9046  0.3514 -0.5010
  874MPD2    H712884   1.711   3.200  16.434  0.6197  1.0009  0.3425
  875MPD2     C12885   3.677   1.646  14.833  0.2541  0.6631  0.5182
  875MPD2    C112886   3.555   1.670  14.883  0.3251 -0.4427  0.1290
  875MPD2    C212887   3.536   1.731  15.004  0.0305 -0.3146  0.3507
  875MPD2    C312888   3.653   1.774  15.080  0.4878  0.0606 -0.5677
  875MPD2    C412889   3.781   1.751  15.030 -0.0404 -0.7457 -0.0510
  875MPD2    C512890   3.789   1.699  14.898 -0.7454 -0.0300  0.5584
  875MPD2     H12891   3.433   1.738  15.037 -0.0181  1.1349 -0.0974
  875MPD2    H112892   3.863   1.789  15.089 -0.3159 -0.2493  0.0144
  875MPD2    H212893   3.692   1.603  14.735 -1.9180  4.0838 -1.3003
  875MPD2    H312894   3.883   1.671  14.854  0.2715  2.9123  0.8339
  875MPD2     N12895   3.640   1.840  15.205  0.9502 -0.5936 -0.2569
  875MPD2    H512896   3.728   1.858  15.253  1.1942  0.4073 -1.0696
  875MPD2    N112897   3.440   1.647  14.808  0.3662  0.5593  0.1622
  875MPD2    H712898   3.357   1.692  14.844 -0.5277 -0.7103 -0.3353
  876MPD2     C12899   2.157   3.375  15.455  0.5974 -0.1027  0.0732
  876MPD2    C112900   2.234   3.312  15.548 -0.0465  0.5949 -1.1190
  876MPD2    C212901   2.201   3.181  15.577  0.2424  0.0124 -0.1671
  876MPD2    C312902   2.083   3.121  15.535 -0.2599  0.4309  0.5107
  876MPD2    C412903   1.999   3.194  15.450  0.0446  0.1907 -0.2801
  876MPD2    C512904   2.041   3.319  15.414  0.3910 -0.8765 -0.4050
  876MPD2     H12905   2.269   3.124  15.639  2.3653  1.2062 -1.4224
  876MPD2    H112906   1.904   3.167  15.405  0.0191 -0.1126 -0.0475
  876MPD2    H212907   2.166   3.478  15.423  0.2950  1.1440  3.9298
  876MPD2    H312908   1.975   3.370  15.344  0.5421  0.0064  0.0920
  876MPD2     N12909   2.055   2.982  15.567  0.5236 -0.1156 -0.1969
  876MPD2    H512910   2.122   2.930  15.624 -0.8859 -1.6179  0.0953
  876MPD2    N112911   2.357   3.376  15.593  0.3445 -0.0798  0.3838
  876MPD2    H712912   2.395   3.447  15.531  0.8986 -1.3472 -0.7223
  877MPD2     C12913   2.622   3.707  15.153 -0.4822 -0.2968 -0.2684
  877MPD2    C112914   2.678   3.587  15.192 -0.3239  0.6211  0.1543
  877MPD2    C212915   2.713   3.493  15.099  0.7091 -0.1173 -0.2628
  877MPD2    C312916   2.698   3.530  14.962 -0.6212 -0.1798  0.1620
  877MPD2    C412917   2.643   3.650  14.923  0.4526  0.8071 -0.2576
  877MPD2    C512918   2.606   3.740  15.022  0.2126 -0.5340 -0.5534
  877MPD2     H12919   2.762   3.405  15.138  0.6053  0.0132  0.1672
  877MPD2    H112920   2.635   3.686  14.822 -2.0444  0.0419 -0.3319
  877MPD2    H212921   2.601   3.792  15.217 -2.3724  1.5325 -3.3332
  877MPD2    H312922   2.546   3.829  15.002 -0.2002 -1.2400 -2.4565
  877MPD2     N12923   2.725   3.439  14.856 -0.6043  0.0676  0.5785
  877MPD2    H512924   2.712   3.476  14.762 -0.6938  0.8152  0.8849
  877MPD2    N112925   2.703   3.561  15.333  0.1102  0.3459  0.2993
  877MPD2    H712926   2.778   3.497  15.357  0.3077  0.4197 -0.1184
  878MPD2     C12927   1.811   2.369  13.082 -0.6239  0.0191  0.1679
  878MPD2    C112928   1.930   2.431  13.085 -0.0547 -0.6070  0.1075
  878MPD2    C212929   1.967   2.497  13.204  0.1532 -0.7835  0.3287
  878MPD2    C312930   1.894   2.491  13.315 -0.5428  0.2732  0.3649
  878MPD2    C412931   1.770   2.423  13.313 -0.0963 -0.0150 -0.1329
  878MPD2    C512932   1.735   2.361  13.194  0.1005  0.7722 -0.2211
  878MPD2     H12933   2.060   2.551  13.209 -0.2290  0.1667 -3.3623
  878MPD2    H112934   1.713   2.412  13.404 -1.0807  1.5094 -0.5546
  878MPD2    H212935   1.772   2.321  12.993 -0.5391 -1.9291  1.1917
  878MPD2    H312936   1.633   2.327  13.190 -0.4700  2.3758  0.6795
  878MPD2     N12937   1.942   2.563  13.429 -0.5511  0.6330 -0.2234
  878MPD2    H512938   2.031   2.609  13.417 -0.4991  0.1128 -1.8163
  878MPD2    N112939   2.015   2.437  12.972 -0.2493  0.5269 -0.4829
  878MPD2    H712940   1.974   2.405  12.884  0.5165 -1.9664  0.0811
  879MPD2     C12941   2.479   3.994  16.978 -0.5201  1.0299  0.4482
  879MPD2    C112942   2.412   3.883  17.023 -0.2498 -0.6834  0.8712
  879MPD2    C212943   2.348   3.809  16.934  0.7408  0.3895 -0.7864
  879MPD2    C312944   2.334   3.848  16.804  0.2598  0.7850  0.1107
  879MPD2    C412945   2.406   3.956  16.758 -0.0656 -0.4717  0.8609
  879MPD2    C512946   2.482   4.024  16.849 -0.7190  0.2806  0.1601
  879MPD2     H12947   2.308   3.713  16.965  0.2388  1.4486  1.9223
  879MPD2    H112948   2.402   3.983  16.654 -1.9289  0.5874  1.2058
  879MPD2    H212949   2.537   4.058  17.044 -1.9535  1.8180  0.9353
  879MPD2    H312950   2.549   4.100  16.810 -1.4154 -0.3255 -2.2033
  879MPD2     N12951   2.260   3.780  16.705  0.4742 -0.2717  0.0911
  879MPD2    H512952   2.247   3.822  16.614 -0.1955 -0.1715  0.2310
  879MPD2    N112953   2.425   3.847  17.159  0.3951 -0.0625 -0.0598
  879MPD2    H712954   2.492   3.902  17.212  0.1094  0.3731 -0.1547
  880MPD2     C12955   3.258   0.372   0.111 -0.0224 -0.3402  0.5883
  880MPD2    C112956   3.364   0.447   0.157  0.3029 -0.6580  0.2261
  880MPD2    C212957   3.481   0.387   0.202  0.0336 -0.3236 -0.1985
  880MPD2    C312958   3.485   0.253   0.231  0.9220 -0.5386  0.2982
  880MPD2    C412959   3.370   0.183   0.197  0.2991 -0.3254  0.5018
  880MPD2    C512960   3.257   0.239   0.142 -0.6484 -0.1951  1.0101
  880MPD2     H12961   3.570   0.447   0.222 -1.8027  2.6405 -0.8649
  880MPD2    H112962   3.354   0.079   0.224 -3.0580  0.1460  0.4133
  880MPD2    H212963   3.167   0.412   0.068  0.5610  2.0147  1.5665
  880MPD2    H312964   3.167   0.181   0.125  0.8551 -1.9218 -1.1171
  880MPD2     N12965   3.590   0.196   0.307  0.0318 -0.7373 -0.1532
  880MPD2    H512966   3.645   0.267   0.356 -0.6411 -1.1035  1.1178
  880MPD2    N112967   3.356   0.587   0.158 -0.5157  0.4036 -0.2941
  880MPD2    H712968   3.437   0.646   0.171  1.4452 -2.0746 -1.3913
  881MPD2     C12969   3.761   1.482  17.681  0.4388  0.0070 -0.5696
  881MPD2    C112970   3.766   1.354  17.621  0.2239  0.3014  0.1886
  881MPD2    C212971   3.707   1.248  17.685  0.1227  0.8437 -0.0334
  881MPD2    C312972   3.632   1.279   0.066 -0.6915 -0.5380 -0.1266
  881MPD2    C412973   3.621   1.403   0.123  0.0584  1.2215  1.0857
  881MPD2    C512974   3.688   1.504   0.057  0.0644  0.4537  0.9720
  881MPD2     H12975   3.701   1.148  17.644 -0.3011  1.2350 -0.9214
  881MPD2    H112976   3.552   1.412   0.206  0.7797  1.4339  1.6609
  881MPD2    H212977   3.813   1.570  17.647  1.2413 -0.3957 -0.3807
  881MPD2    H312978   3.684   1.604   0.098 -2.5374  0.9512 -0.5312
  881MPD2     N12979   3.538   1.187   0.121  0.2119 -0.0543 -0.3560
  881MPD2    H512980   3.471   1.230   0.183  2.6877  2.3883  0.6102
  881MPD2    N112981   3.852   1.347  17.502 -0.5791 -0.1989  0.3409
  881MPD2    H712982   3.886   1.439  17.476 -4.7575  1.0712 -0.6241
  882MPD2     C12983   2.415   3.038  14.205 -0.7447  0.6403 -0.0700
  882MPD2    C112984   2.416   3.134  14.307 -0.1231  0.5671 -0.8863
  882MPD2    C212985   2.304   3.160  14.379 -0.4151  0.0896 -0.3328
  882MPD2    C312986   2.186   3.090  14.357 -0.7087 -0.1536  0.9043
  882MPD2    C412987   2.183   2.992  14.264 -0.7233 -0.5419  0.3793
  882MPD2    C512988   2.294   2.970  14.183 -0.6873  0.8586  0.2530
  882MPD2     H12989   2.313   3.232  14.460  1.5818  1.6483 -1.9518
  882MPD2    H112990   2.095   2.935  14.237 -2.0663  1.1193  1.2818
  882MPD2    H212991   2.499   3.012  14.142 -0.1485  0.0697  0.9564
  882MPD2    H312992   2.284   2.893  14.107  2.1087 -0.2180  0.9389
  882MPD2     N12993   2.063   3.105  14.425 -0.0641 -0.6582 -0.7033
  882MPD2    H512994   1.983   3.046  14.402 -2.1347  1.9088 -0.1646
  882MPD2    N112995   2.545   3.195  14.334 -0.1480  0.6752 -0.6569
  882MPD2    H712996   2.623   3.156  14.283  0.4774 -0.6977  1.3518
  883MPD2     C12997   0.083   3.842  15.736  0.3572  0.2488 -0.1502
  883MPD2    C112998   4.723   3.756  15.793  0.2602  0.1781  0.1475
  883MPD2    C212999   4.727   3.728  15.927 -0.7964  0.2896 -0.1359
  883MPD2    C313000   0.092   3.789  16.007  0.5202 -0.0041 -0.1437
  883MPD2    C413001   0.181   3.876  15.953  0.1507 -0.3689 -0.3758
  883MPD2    C513002   0.177   3.908  15.819 -0.2164 -0.4506 -0.2600
  883MPD2     H13003   4.656   3.659  15.969  0.8678 -0.5949  1.2476
  883MPD2    H113004   0.255   3.933  16.006 -0.4945 -0.5027  0.6711
  883MPD2    H213005   0.093   3.858  15.630  1.1943  0.5578 -0.0264
  883MPD2    H313006   0.258   3.963  15.772  0.0452 -0.2570  0.4170
  883MPD2     N13007   0.105   3.757  16.144 -0.2608  0.2615  0.6188
  883MPD2    H513008   0.036   3.690  16.177 -1.1580 -0.4270 -2.5614
  883MPD2    N113009   4.617   3.689  15.725  0.0800 -0.3399 -0.2394
  883MPD2    H713010   4.545   3.641  15.777  1.6874 -0.5357  1.7840
  884MPD2     C13011   1.421   4.041  15.085  0.4646  0.0228  0.5479
  884MPD2    C113012   1.403   4.174  15.057 -1.4452  0.5236  0.3034
  884MPD2    C213013   1.283   4.231  15.101 -0.1559 -0.3192 -0.6415
  884MPD2    C313014   1.191   4.163  15.181 -0.3034 -0.0434 -0.3177
  884MPD2    C413015   1.230   4.037  15.227  0.1443  0.0218  0.7301
  884MPD2    C513016   1.338   3.976  15.175 -0.6126  0.0327 -0.7978
  884MPD2     H13017   1.272   4.334  15.069 -3.0389  0.2304  2.1124
  884MPD2    H113018   1.172   3.979  15.297 -0.1217  1.2869  1.5464
  884MPD2    H213019   1.503   3.985  15.041 -0.0341  0.4702 -0.9435
  884MPD2    H313020   1.368   3.873  15.192  1.0287  0.8328  1.1544
  884MPD2     N13021   1.071   4.229  15.211  0.2970 -0.3723  0.4086
  884MPD2    H513022   1.053   4.311  15.153  1.7259  0.7471  1.5483
  884MPD2    N113023   1.485   4.256  14.983 -0.0289  0.1712  0.9892
  884MPD2    H713024   1.452   4.348  14.952  0.2459 -0.1303 -0.2130
  885MPD2     C13025   3.944   4.487  17.717 -0.5467  0.2745  0.1443
  885MPD2    C113026   4.004   4.362  17.692  0.2630  0.1759 -0.3521
  885MPD2    C213027   4.035   4.333  17.563  0.0293 -0.3693 -0.2138
  885MPD2    C313028   4.015   4.419  17.454 -0.1258 -0.8398  0.0310
  885MPD2    C413029   3.964   4.541  17.484  0.2894 -0.6638  0.3892
  885MPD2    C513030   3.920   4.568  17.609  0.8025  0.0896  0.0716
  885MPD2     H13031   4.099   4.247  17.548  1.3151  0.7681 -1.3525
  885MPD2    H113032   3.948   4.621  17.414 -0.9790 -0.9372  0.3682
  885MPD2    H213033   3.907   4.516   0.079 -0.2471  2.2848 -0.3429
  885MPD2    H313034   3.866   4.658  17.634  0.6613  0.8400 -2.9760
  885MPD2     N13035   4.072   4.381  17.331 -0.1631  0.6677 -0.6411
  885MPD2    H513036   4.113   4.288  17.327  0.7977  1.0492  0.3206
  885MPD2    N113037   4.024   4.280   0.071 -0.6351 -0.6921  0.3171
  885MPD2    H713038   4.012   4.309   0.167  0.4163  0.3373  0.1310
  886MPD2     C13039   0.739   2.554  15.121  0.3209  0.1320 -0.1245
  886MPD2    C113040   0.863   2.558  15.170  0.1201  0.2817 -0.3475
  886MPD2    C213041   0.951   2.652  15.122  0.5887 -0.3365 -0.0454
  886MPD2    C313042   0.914   2.738  15.020  0.5803 -0.4145 -0.4210
  886MPD2    C413043   0.791   2.732  14.968  0.1467 -0.2514 -0.2150
  886MPD2    C513044   0.702   2.636  15.021 -0.2986  0.0115  0.5351
  886MPD2     H13045   1.052   2.649  15.163  0.2243 -0.9131  0.8259
  886MPD2    H113046   0.750   2.789  14.886  0.5587  0.3757  0.0202
  886MPD2    H213047   0.676   2.470  15.146  0.5701 -0.5539 -1.7936
  886MPD2    H313048   0.601   2.632  14.982  0.4216  1.1518 -1.4540
  886MPD2     N13049   0.999   2.840  14.966 -0.5611  0.3687  0.4676
  886MPD2    H513050   0.959   2.900  14.894  2.4085 -0.9961 -2.3315
  886MPD2    N113051   0.908   2.477  15.274  0.0575  1.0767  0.2688
  886MPD2    H713052   1.007   2.484  15.299  0.1797  0.9513 -0.1865
  887MPD2     C13053   1.322   2.531  15.846 -0.3531  0.3222  0.0246
  887MPD2    C113054   1.334   2.552  15.710 -0.0788 -0.6067 -0.5127
  887MPD2    C213055   1.401   2.667  15.669 -1.0283  0.4113 -0.4499
  887MPD2    C313056   1.455   2.754  15.763 -0.3745 -0.8257 -0.8400
  887MPD2    C413057   1.445   2.726  15.898 -0.5831  0.5268 -0.2100
  887MPD2    C513058   1.375   2.616  15.942  0.1329  0.3097  0.0263
  887MPD2     H13059   1.407   2.701  15.567 -1.7994  1.3517 -0.1807
  887MPD2    H113060   1.492   2.783  15.977 -0.9540  2.2827 -1.2334
  887MPD2    H213061   1.280   2.439  15.884 -1.0983 -0.1871 -2.0119
  887MPD2    H313062   1.368   2.609  16.050  2.2013  1.0756  0.2201
  887MPD2     N13063   1.516   2.866  15.708 -0.3595  0.1282  0.4886
  887MPD2    H513064   1.508   2.879  15.608  0.8211 -0.2253  0.3469
  887MPD2    N113065   1.271   2.476  15.607 -0.4544 -0.2609  0.8425
  887MPD2    H713066   1.254   2.522  15.519  2.7358  1.1785  0.9867
  888MPD2     C13067   3.610   2.667  15.236 -0.1634 -0.0231  0.0028
  888MPD2    C113068   3.640   2.730  15.356 -0.4515  0.4955  0.3649
  888MPD2    C213069   3.699   2.857  15.352 -0.2943  0.4324 -0.7443
  888MPD2    C313070   3.730   2.918  15.240  0.3969  0.8521  0.6819
  888MPD2    C413071   3.707   2.850  15.124  0.2305 -0.6641  0.3806
  888MPD2    C513072   3.651   2.726  15.119 -0.0530  0.6985  0.1121
  888MPD2     H13073   3.698   2.906  15.449  1.7962  1.3202 -1.1593
  888MPD2    H113074   3.741   2.885  15.027  3.8274  0.0989  1.9155
  888MPD2    H213075   3.585   2.562  15.227 -1.4625  0.4334 -1.7593
  888MPD2    H313076   3.642   2.676  15.024 -0.9105  1.2981 -0.1214
  888MPD2     N13077   3.778   3.055  15.234  0.5505  0.1005  1.7139
  888MPD2    H513078   3.767   3.120  15.311  0.4264  3.9555 -1.6189
  888MPD2    N113079   3.627   2.668  15.478  0.2266 -0.1321  0.0712
  888MPD2    H713080   3.673   2.719  15.552 -1.1170 -0.8622  1.4149
  889MPD2     C13081   2.763   2.011  12.717 -0.6136  0.4944 -0.8225
  889MPD2    C113082   2.794   2.044  12.849  0.1416 -0.1932 -0.3328
  889MPD2    C213083   2.883   2.158  12.862  0.0825 -0.3165 -0.0561
  889MPD2    C313084   2.894   2.251  12.754 -1.0194 -0.2401  0.2594
  889MPD2    C413085   2.823   2.226  12.642 -0.2138  0.6929  0.2774
  889MPD2    C513086   2.757   2.109  12.622 -0.1539 -0.6747 -0.7285
  889MPD2     H13087   2.914   2.183  12.963 -0.8642 -1.2054  0.4525
  889MPD2    H113088   2.814   2.303  12.566 -1.0523  1.9321  1.6431
  889MPD2    H213089   2.704   1.924  12.691 -1.4495  0.9906 -0.6221
  889MPD2    H313090   2.708   2.093  12.527 -2.3663 -2.6771  0.7326
  889MPD2     N13091   2.972   2.367  12.777  0.6180 -0.3810 -0.0410
  889MPD2    H513092   3.023   2.381  12.863 -1.9256 -0.4996  1.4824
  889MPD2    N113093   2.784   1.939  12.944 -0.1332  0.3847 -0.3882
  889MPD2    H713094   2.832   1.961  13.031  0.0896  1.3805 -0.7705
  890MPD2     C13095   2.012   4.023  14.711 -0.1146 -0.3919  0.3060
  890MPD2    C113096   2.101   4.127  14.733 -0.5438  0.8601 -0.0909
  890MPD2    C213097   2.159   4.146  14.864 -0.1155  0.2582 -0.3302
  890MPD2    C313098   2.136   4.054  14.965  0.0403 -0.0761  0.5807
  890MPD2    C413099   2.043   3.953  14.942  0.0784 -0.7844  0.3048
  890MPD2    C513100   1.983   3.939  14.817  0.6489  0.2168 -0.7854
  890MPD2     H13101   2.219   4.234  14.884 -0.6931  1.4299 -3.6583
  890MPD2    H113102   2.021   3.868  15.006  1.0312 -1.3215 -0.0919
  890MPD2    H213103   1.964   3.999  14.617 -2.5402  0.6881  1.2599
  890MPD2    H313104   1.913   3.856  14.808  2.3851 -1.0667 -2.2986
  890MPD2     N13105   2.204   4.076  15.086 -0.6212  0.0108 -0.1227
  890MPD2    H513106   2.279   4.144  15.093 -0.9492  0.4058 -0.4855
  890MPD2    N113107   2.123   4.210  14.620 -0.3189  0.6154  0.0744
  890MPD2    H713108   2.073   4.193  14.533 -0.7037  0.6656  0.2867
  891MPD2     C13109   4.710   3.023  16.759  0.2034 -0.0513 -0.1664
  891MPD2    C113110   4.681   2.990  16.886  0.3319 -0.0116  0.0835
  891MPD2    C213111   0.042   2.967  16.978 -0.2883 -0.0770 -0.1994
  891MPD2    C313112   0.176   2.955  16.939 -0.0497  0.2430 -0.6998
  891MPD2    C413113   0.212   2.974  16.801  0.5919 -0.5553  0.0001
  891MPD2    C513114   0.111   3.014  16.713 -0.1597  0.4403  0.1335
  891MPD2     H13115   0.019   2.928  17.077  3.5800  0.7964  1.0626
  891MPD2    H113116   0.311   2.954  16.762 -0.0528  1.0210 -2.4631
  891MPD2    H213117   4.626   3.041  16.692  1.8776  0.4194 -2.1318
  891MPD2    H313118   0.123   3.028  16.606 -0.5916 -0.5251 -0.0367
  891MPD2     N13119   0.266   2.921  17.042  0.4510  0.1189 -0.3825
  891MPD2    H513120   0.231   2.931  17.137  1.4487  1.8555 -0.1908
  891MPD2    N113121   4.544   2.994  16.921 -0.5813 -0.0200 -0.3174
  891MPD2    H713122   4.482   3.007  16.842 -1.9797 -0.9552  0.6413
  892MPD2     C13123   1.531   3.925  14.670 -0.1464 -0.1128 -0.3623
  892MPD2    C113124   1.451   3.821  14.696 -0.0493  0.3540  0.5651
  892MPD2    C213125   1.498   3.691  14.673  0.5851 -0.1496  0.0629
  892MPD2    C313126   1.627   3.663  14.619 -0.2882 -0.1624  0.3378
  892MPD2    C413127   1.709   3.771  14.591 -0.4209 -0.2538  0.5578
  892MPD2    C513128   1.661   3.899  14.623  0.1626 -0.2368 -0.1193
  892MPD2     H13129   1.434   3.608  14.700  0.8823 -0.7224 -0.9892
  892MPD2    H113130   1.801   3.755  14.537 -2.0174 -1.3413 -1.8443
  892MPD2    H213131   1.507   4.030  14.684  4.1731  0.5508  2.2282
  892MPD2    H313132   1.719   3.987  14.596 -0.1534 -0.0078 -0.0581
  892MPD2     N13133   1.677   3.533  14.586  0.3712  0.5978  0.3186
  892MPD2    H513134   1.767   3.526  14.541 -0.1816  0.9415 -0.8356
  892MPD2    N113135   1.320   3.839  14.743  0.5817 -0.4159  0.2914
  892MPD2    H713136   1.284   3.933  14.748  1.1062 -0.3190  2.1340
  893MPD2     C13137   3.296   2.509   1.968 -0.0049  0.0127  0.5244
  893MPD2    C113138   3.266   2.488   1.833 -0.1057 -0.3794  0.0737
  893MPD2    C213139   3.126   2.483   1.798  0.4263  0.5388 -0.0955
  893MPD2    C313140   3.028   2.463   1.895  0.0389  0.7664 -0.1464
  893MPD2    C413141   3.065   2.494   2.025  0.3387  0.0425 -0.2241
  893MPD2    C513142   3.190   2.526   2.058  0.4501 -0.4545  0.2307
  893MPD2     H13143   3.101   2.467   1.694  1.5969  0.0207 -0.2983
  893MPD2    H113144   2.983   2.497   2.096  0.5330 -0.6021  0.0304
  893MPD2    H213145   3.400   2.523   1.996 -0.3988 -1.4976  2.7530
  893MPD2    H313146   3.204   2.540   2.165  0.3682  1.0543  0.0371
  893MPD2     N13147   2.888   2.437   1.871  0.3239  0.0725 -0.0818
  893MPD2    H513148   2.828   2.436   1.953 -1.1932 -0.5443 -1.2018
  893MPD2    N113149   3.376   2.480   1.745  0.2875 -0.3206  0.0014
  893MPD2    H713150   3.470   2.479   1.781  0.6020 -0.4837 -0.8169
  894MPD2     C13151   0.864   4.232   0.966 -0.3498  0.8447 -0.5005
  894MPD2    C113152   0.937   4.219   1.079  0.2610 -0.4495 -0.2951
  894MPD2    C213153   1.016   4.320   1.130  0.4447  0.1280  0.4334
  894MPD2    C313154   1.015   4.445   1.068  1.1620 -0.7408 -0.0019
  894MPD2    C413155   0.930   4.462   0.961 -0.2472 -0.2752 -0.3998
  894MPD2    C513156   0.854   4.360   0.906 -1.1588  0.4789 -0.2333
  894MPD2     H13157   1.065   4.303   1.225  0.1079 -0.4326  0.5023
  894MPD2    H113158   0.919   4.561   0.919  1.1293 -0.2358 -0.6679
  894MPD2    H213159   0.807   4.148   0.928  1.2835 -0.9101  0.9622
  894MPD2    H313160   0.783   4.372   0.826 -1.3260 -0.6468 -0.2568
  894MPD2     N13161   1.104   4.549   1.126  0.0799 -0.1852 -0.0284
  894MPD2    H513162   1.157   4.530   1.211 -0.1441 -3.7093 -0.6726
  894MPD2    N113163   0.937   4.093   1.151 -0.2214 -0.6099 -0.3926
  894MPD2    H713164   1.000   4.078   1.230  0.4250  1.8257 -0.4541
  895MPD2     C13165   0.323   2.850  13.545 -0.2313 -0.8472  0.9843
  895MPD2    C113166   0.314   2.822  13.409 -0.2891 -0.3191  0.3794
  895MPD2    C213167   0.434   2.799  13.342  0.2034  0.3370 -0.1469
  895MPD2    C313168   0.557   2.808  13.404  0.2818 -0.0641 -0.7433
  895MPD2    C413169   0.564   2.832  13.533  0.3215  0.4327 -0.3076
  895MPD2    C513170   0.451   2.862  13.599 -0.4194  0.5495 -1.2364
  895MPD2     H13171   0.427   2.792  13.234 -1.1039  2.2726 -0.1910
  895MPD2    H113172   0.658   2.844  13.586  1.0264  0.7726 -1.6045
  895MPD2    H213173   0.239   2.864  13.612 -1.3023 -0.6219 -0.4167
  895MPD2    H313174   0.459   2.889  13.704 -1.5802 -1.7284 -0.5716
  895MPD2     N13175   0.676   2.761  13.344  0.1277  0.2013 -0.2143
  895MPD2    H513176   0.730   2.721  13.420 -1.5627  1.7107  1.7623
  895MPD2    N113177   0.184   2.826  13.357 -0.3937  0.0585 -0.4473
  895MPD2    H713178   0.104   2.830  13.419 -1.4391  1.7430 -1.9053
  896MPD2     C13179   2.835   0.118   1.560 -0.3326  0.1835 -0.3098
  896MPD2    C113180   2.777   0.127   1.434  0.4529  0.3004  0.2154
  896MPD2    C213181   2.649   0.064   1.420 -0.5630  0.0912  0.0186
  896MPD2    C313182   2.580   0.014   1.524  1.2764  0.0018 -0.3009
  896MPD2    C413183   2.633   0.011   1.648 -0.2360 -0.4249 -0.3278
  896MPD2    C513184   2.767   0.054   1.664 -0.0182 -0.7369 -0.8219
  896MPD2     H13185   2.604   0.054   1.321 -3.7355  4.3891  1.0284
  896MPD2    H113186   2.581   4.699   1.731 -0.1715 -0.6746 -0.4234
  896MPD2    H213187   2.939   0.145   1.573 -0.4200  0.4440 -0.1436
  896MPD2    H313188   2.808   0.060   1.764  0.8946 -0.3356 -1.2245
  896MPD2     N13189   2.448   4.706   1.500 -0.0414 -0.8256 -0.1051
  896MPD2    H513190   2.423   4.700   1.402 -0.2952 -0.8138 -0.0392
  896MPD2    N113191   2.850   0.179   1.332 -0.5676 -0.5730 -0.0329
  896MPD2    H713192   2.936   0.228   1.355 -1.8651  1.0766  1.2038
  897MPD2     C13193   4.119   1.761  10.592 -0.1140 -0.0993 -0.2611
  897MPD2    C113194   4.111   1.895  10.585  0.0113 -0.6239 -0.3944
  897MPD2    C213195   4.020   1.959  10.667  0.1718 -0.4042  0.3842
  897MPD2    C313196   3.952   1.888  10.762  0.6784 -0.1363  0.5586
  897MPD2    C413197   3.964   1.753  10.771 -1.1174  0.8981  0.3361
  897MPD2    C513198   4.044   1.688  10.682  0.3019 -0.3199 -0.5184
  897MPD2     H13199   4.013   2.067  10.671 -1.0017 -0.4091 -1.4411
  897MPD2    H113200   3.904   1.694  10.840 -0.4406 -0.7381 -0.4852
  897MPD2    H213201   4.184   1.694  10.537  2.5801  2.0892  0.2430
  897MPD2    H313202   4.065   1.582  10.688  0.5043 -0.2342  0.2588
  897MPD2     N13203   3.867   1.952  10.859 -0.0683  0.1309 -0.2353
  897MPD2    H513204   3.856   1.893  10.941 -0.8414 -1.0355 -1.1614
  897MPD2    N113205   4.196   1.971  10.503  0.6866  0.4667  0.7458
  897MPD2    H713206   4.270   1.922  10.453 -1.1537  0.3890 -1.9018
  898MPD2     C13207   0.738   3.119  17.601  0.3448 -0.3536  0.0103
  898MPD2    C113208   0.865   3.160  17.646  0.0602  0.3426  0.1281
  898MPD2    C213209   0.906   3.286  17.597  0.0975  0.0285 -0.0042
  898MPD2    C313210   0.823   3.374  17.525 -0.0521 -0.3875 -0.2080
  898MPD2    C413211   0.702   3.330  17.477  0.2977 -0.4356 -0.8308
  898MPD2    C513212   0.664   3.198  17.509  0.1067  0.4268  1.4110
  898MPD2     H13213   0.999   3.327  17.635  0.4060  0.2136 -0.9534
  898MPD2    H113214   0.618   3.393  17.449  0.6006  0.8995  1.2061
  898MPD2    H213215   0.691   3.029  17.639 -2.2344  0.3343 -1.6045
  898MPD2    H313216   0.567   3.167  17.471 -0.2372 -0.1386  2.7641
  898MPD2     N13217   0.871   3.505  17.523 -0.5458  0.1819 -0.2478
  898MPD2    H513218   0.967   3.506  17.554 -0.2317 -1.5539 -1.1827
  898MPD2    N113219   0.965   3.088  17.713  0.0646 -0.6101  0.3567
  898MPD2    H713220   1.050   3.142  17.727  0.7693 -1.8051  0.6726
  899MPD2     C13221   1.504   3.630  17.030  0.5306 -0.0176 -0.2414
  899MPD2    C113222   1.536   3.732  17.115 -0.1640  0.7228  0.3962
  899MPD2    C213223   1.488   3.714  17.246  0.0412  0.2043 -0.0869
  899MPD2    C313224   1.434   3.598  17.294 -0.0770  0.0431 -0.7642
  899MPD2    C413225   1.416   3.496  17.210 -0.3272 -0.2860 -0.3176
  899MPD2    C513226   1.444   3.513  17.074 -0.1036 -0.3417 -0.7939
  899MPD2     H13227   1.503   3.794  17.318 -1.1426 -0.8559  1.3522
  899MPD2    H113228   1.363   3.405  17.234  0.1673 -0.7951 -1.1581
  899MPD2    H213229   1.530   3.636  16.925 -0.3938 -0.3457 -0.4791
  899MPD2    H313230   1.438   3.428  17.006 -0.6039 -0.3445 -0.7515
  899MPD2     N13231   1.400   3.574  17.431  0.0357  0.6645 -0.1750
  899MPD2    H513232   1.340   3.496  17.454  1.4846 -0.0088  1.3025
  899MPD2    N113233   1.609   3.842  17.073  0.3781 -0.8134  0.0428
  899MPD2    H713234   1.631   3.851  16.974 -0.2551 -0.5151 -0.0721
  900MPD2     C13235   1.569   0.373  12.023 -0.0525  0.7972  0.1936
  900MPD2    C113236   1.494   0.303  12.113 -0.1084 -0.2096 -0.0810
  900MPD2    C213237   1.373   0.362  12.155 -0.6001  0.0371  0.0255
  900MPD2    C313238   1.336   0.488  12.113  0.0191  0.2530  0.4561
  900MPD2    C413239   1.414   0.548  12.017 -0.0830  0.5608 -0.2397
  900MPD2    C513240   1.538   0.488  11.975 -0.0509  0.0621  0.0229
  900MPD2     H13241   1.304   0.319  12.227 -0.1100 -2.6315 -1.1164
  900MPD2    H113242   1.395   0.652  11.991 -0.2451  0.0878 -2.0139
  900MPD2    H213243   1.657   0.324  11.984 -0.5183 -0.8115  1.1860
  900MPD2    H313244   1.606   0.549  11.917 -0.8018  0.6938 -0.1948
  900MPD2     N13245   1.218   0.541  12.168 -0.4020  0.6518  0.3254
  900MPD2    H513246   1.180   0.480  12.239  0.7410 -1.5840 -0.9711
  900MPD2    N113247   1.545   0.181  12.160 -0.0802  0.2654  0.1813
  900MPD2    H713248   1.645   0.164  12.151  0.0936  0.9051  0.8001
  901MPD2     C13249   1.456   4.039  12.739 -0.2893 -0.5038  0.1042
  901MPD2    C113250   1.593   4.053  12.727 -0.6670 -0.1878 -1.0034
  901MPD2    C213251   1.642   4.179  12.695 -0.1938 -0.5130  0.3221
  901MPD2    C313252   1.563   4.289  12.688 -0.0571  0.2310 -0.3799
  901MPD2    C413253   1.431   4.271  12.728  0.8150 -0.0339 -0.3069
  901MPD2    C513254   1.373   4.149  12.744  0.0253 -0.2885 -0.4977
  901MPD2     H13255   1.745   4.188  12.664 -0.0674  2.7006  1.6721
  901MPD2    H113256   1.364   4.354  12.748  0.3986 -0.4282 -0.0660
  901MPD2    H213257   1.416   3.940  12.758  0.4704 -0.4282  2.0177
  901MPD2    H313258   1.268   4.146  12.771  0.0194  1.1054 -0.3663
  901MPD2     N13259   1.613   4.411  12.642 -0.1161 -0.6618  0.2028
  901MPD2    H513260   1.714   4.420  12.630  0.4248  0.0757  5.2460
  901MPD2    N113261   1.669   3.935  12.729  0.3321 -0.4941  0.1808
  901MPD2    H713262   1.614   3.849  12.725  0.2390 -0.3733 -1.0360
  902MPD2     C13263   1.457   2.887  12.544  0.1945  0.2433  0.6086
  902MPD2    C113264   1.323   2.864  12.529  0.1624 -0.1223  0.1135
  902MPD2    C213265   1.267   2.744  12.490 -0.5630  0.8105 -0.4554
  902MPD2    C313266   1.351   2.636  12.474 -0.8730  0.9731 -0.0718
  902MPD2    C413267   1.487   2.660  12.473 -0.3202  0.5345 -0.0307
  902MPD2    C513268   1.541   2.779  12.518 -0.2888  0.1957 -0.5736
  902MPD2     H13269   1.161   2.743  12.466 -0.5317 -0.5757 -0.5334
  902MPD2    H113270   1.560   2.584  12.449 -0.3223  0.9067 -1.2173
  902MPD2    H213271   1.500   2.973  12.592 -0.7356 -0.0516  1.9972
  902MPD2    H313272   1.648   2.796  12.523 -0.4029  0.4316  0.8437
  902MPD2     N13273   1.301   2.500  12.453 -0.0522 -0.3529 -0.4171
  902MPD2    H513274   1.366   2.428  12.424  0.8346  0.0742  0.5420
  902MPD2    N113275   1.244   2.982  12.554  0.3643 -0.0125  0.0366
  902MPD2    H713276   1.289   3.060  12.601  0.4665 -0.5660  0.8448
  903MPD2     C13277   0.778   2.691  12.490 -0.7244 -0.2297 -0.2742
  903MPD2    C113278   0.755   2.605  12.385  0.0498 -0.0093 -0.4131
  903MPD2    C213279   0.661   2.644  12.293 -0.3919 -0.7396  0.4555
  903MPD2    C313280   0.602   2.768  12.306 -0.1135  0.1551  0.0900
  903MPD2    C413281   0.645   2.862  12.396  0.1180  0.2508 -0.0537
  903MPD2    C513282   0.733   2.820  12.496  0.7015  0.1401  0.2790
  903MPD2     H13283   0.623   2.573  12.221 -0.2533  0.2407 -0.5865
  903MPD2    H113284   0.605   2.961  12.413 -0.3585 -0.1955  1.4669
  903MPD2    H213285   0.847   2.657  12.568  1.8379  0.8489 -2.0740
  903MPD2    H313286   0.759   2.882  12.581 -1.4605 -0.9464  1.7565
  903MPD2     N13287   0.496   2.802  12.219 -0.2452  0.0708 -0.0218
  903MPD2    H513288   0.458   2.719  12.173 -1.1262 -0.1950  1.1971
  903MPD2    N113289   0.823   2.484  12.379  0.3988 -0.6154  0.2622
  903MPD2    H713290   0.909   2.471  12.432 -0.1328  0.6057  1.4173
  904MPD2     C13291   0.159   2.138  14.260 -0.8201 -0.8285  0.0470
  904MPD2    C113292   0.216   2.228  14.174 -0.5344 -0.3529  0.1573
  904MPD2    C213293   0.354   2.225  14.156  0.5045  0.1416  0.1548
  904MPD2    C313294   0.427   2.127  14.211  0.0047 -0.5791 -0.0893
  904MPD2    C413295   0.377   2.034  14.300 -0.3826  0.6160  0.6698
  904MPD2    C513296   0.239   2.046  14.324 -0.2191 -0.9916  0.2727
  904MPD2     H13297   0.394   2.303  14.092  0.5667 -0.2313 -0.2649
  904MPD2    H113298   0.426   1.950  14.348  1.2530 -0.2845 -2.5909
  904MPD2    H213299   0.055   2.143  14.288 -1.2379 -0.7507 -1.4897
  904MPD2    H313300   0.187   1.982  14.394  0.6113 -0.9372  0.9369
  904MPD2     N13301   0.556   2.121  14.167  0.2226  0.1682  0.6034
  904MPD2    H513302   0.592   2.188  14.099 -0.5407 -1.7687 -1.7185
  904MPD2    N113303   0.136   2.326  14.104  0.5244 -0.8940 -0.4728
  904MPD2    H713304   0.185   2.391  14.043  0.8610  0.6310  1.4359
  905MPD2     C13305   4.677   2.418  13.391  0.1792  0.1508 -1.1867
  905MPD2    C113306   0.039   2.401  13.482 -0.6876  0.2811  0.4860
  905MPD2    C213307   0.167   2.370  13.445 -0.1590  0.4982 -0.1929
  905MPD2    C313308   0.202   2.382  13.310 -0.4803 -0.7494  0.0443
  905MPD2    C413309   0.112   2.419  13.212 -0.1199 -1.1988 -0.3159
  905MPD2    C513310   4.719   2.423  13.258 -0.5175  0.1653 -0.5857
  905MPD2     H13311   0.246   2.351  13.518  0.3025  0.1144 -0.7909
  905MPD2    H113312   0.122   2.420  13.104 -1.8970  0.5861 -0.4512
  905MPD2    H213313   4.571   2.434  13.405  0.1778 -0.1663 -0.8307
  905MPD2    H313314   4.639   2.433  13.186  1.3950  1.3040 -2.5532
  905MPD2     N13315   0.334   2.359  13.285 -0.0368 -0.2797  0.7885
  905MPD2    H513316   0.379   2.338  13.374  0.4987  0.1185  0.6141
  905MPD2    N113317   0.014   2.405  13.620  0.3364 -0.3778 -0.1237
  905MPD2    H713318   0.091   2.405  13.685  0.1047 -1.9699  0.1602
  906MPD2     C13319   2.585   2.222  11.730 -0.3629  0.5615  0.2940
  906MPD2    C113320   2.545   2.150  11.618  0.1511 -0.0928 -0.7701
  906MPD2    C213321   2.459   2.043  11.634 -0.0760 -0.3458  0.0943
  906MPD2    C313322   2.417   2.001  11.760  0.0537  0.0359 -0.1193
  906MPD2    C413323   2.448   2.076  11.867 -0.6080  0.2626 -0.2884
  906MPD2    C513324   2.528   2.183  11.854  0.0048 -0.0745  0.4428
  906MPD2     H13325   2.418   1.982  11.554 -1.0899 -1.6259  1.5902
  906MPD2    H113326   2.409   2.066  11.968  1.3247  2.1659  0.6576
  906MPD2    H213327   2.643   2.313  11.725  0.8263 -0.3690 -2.9082
  906MPD2    H313328   2.550   2.230  11.949 -0.2019  2.7323 -0.8825
  906MPD2     N13329   2.328   1.892  11.764  0.5118 -0.0921 -0.1239
  906MPD2    H513330   2.308   1.853  11.672  0.5538  1.8845 -0.9590
  906MPD2    N113331   2.588   2.182  11.488 -0.1099 -0.3202  0.3834
  906MPD2    H713332   2.545   2.128  11.414 -0.1133  0.5286 -0.2285
  907MPD2     C13333   0.679   1.689  15.753 -0.2750 -0.1644 -0.4378
  907MPD2    C113334   0.738   1.568  15.761  0.0248 -0.0166  0.4555
  907MPD2    C213335   0.724   1.496  15.879  0.2219  0.2052 -0.0180
  907MPD2    C313336   0.665   1.555  15.993  0.2900 -0.2537  0.1959
  907MPD2    C413337   0.600   1.678  15.979 -0.1308 -0.0813  0.5777
  907MPD2    C513338   0.608   1.741  15.858  0.4211  0.0262 -0.3572
  907MPD2     H13339   0.763   1.395  15.892  0.5657  0.2699 -0.5592
  907MPD2    H113340   0.534   1.726  16.049 -0.3187 -0.4334  0.6439
  907MPD2    H213341   0.675   1.757  15.670 -0.6124  2.7163  1.9411
  907MPD2    H313342   0.561   1.837  15.840  0.8104  0.2293 -0.3068
  907MPD2     N13343   0.674   1.486  16.119 -0.1386 -0.1288  0.4906
  907MPD2    H513344   0.683   1.385  16.119 -0.3128 -0.1446 -0.2739
  907MPD2    N113345   0.802   1.502  15.655 -0.6025  0.2258 -0.4299
  907MPD2    H713346   0.851   1.415  15.673 -1.0742 -0.0903 -0.6697
  908MPD2     C13347   4.712   1.726   9.798 -0.2649  0.2345  0.4438
  908MPD2    C113348   4.627   1.664   9.893 -0.0674 -0.2794  0.3029
  908MPD2    C213349   4.572   1.740   9.995 -0.5895 -0.2448  0.4935
  908MPD2    C313350   4.581   1.874   9.992 -0.1509  0.2362  0.3310
  908MPD2    C413351   4.644   1.937   9.888  0.1418  0.2604 -0.7932
  908MPD2    C513352   4.710   1.866   9.784 -0.2968  0.5130  0.2623
  908MPD2     H13353   4.528   1.689  10.080 -1.9027  0.3063  0.1451
  908MPD2    H113354   4.647   2.045   9.881  1.0491  0.2406 -0.6942
  908MPD2    H213355   0.023   1.663   9.723 -2.0899  0.2405 -0.6579
  908MPD2    H313356   0.028   1.908   9.699  0.1179 -0.2341  0.1421
  908MPD2     N13357   4.514   1.944  10.095 -0.3407  0.0258  0.1062
  908MPD2    H513358   4.472   1.883  10.165  1.1178  0.8927  1.7268
  908MPD2    N113359   4.610   1.529   9.873  0.5853  1.0090  0.3373
  908MPD2    H713360   4.652   1.490   9.789  1.3540  2.4301  0.0569
  909MPD2     C13361   4.576   4.541  12.074  0.0482 -0.0590  0.4322
  909MPD2    C113362   4.523   4.628  11.981  0.0633 -0.1638  0.0800
  909MPD2    C213363   4.418   4.706  12.008  0.4331  0.2000 -0.1339
  909MPD2    C313364   4.351   4.683  12.130 -0.1723 -0.1196  0.1089
  909MPD2    C413365   4.388   4.581  12.210  0.2920 -0.4422  1.0311
  909MPD2    C513366   4.505   4.507  12.184  0.5658 -0.1760 -0.3829
  909MPD2     H13367   4.390   0.049  11.937 -0.3253  0.2188  0.1896
  909MPD2    H113368   4.335   4.563  12.302 -1.8722 -1.4808 -0.4060
  909MPD2    H213369   4.669   4.486  12.065 -1.2550 -2.2666  0.5544
  909MPD2    H313370   4.526   4.415  12.237 -0.1693 -0.3723 -0.4323
  909MPD2     N13371   4.243   0.036  12.161  0.3095 -0.1648 -0.2482
  909MPD2    H513372   4.230   0.115  12.098  2.5580  0.4370  0.0461
  909MPD2    N113373   4.589   4.659  11.860 -0.5638  0.1819  0.0999
  909MPD2    H713374   4.563   0.012  11.815  0.2140  0.1745 -0.3669
  910MPD2     C13375   0.528   2.074  16.143  0.2406 -0.2538 -0.0120
  910MPD2    C113376   0.418   2.001  16.101  0.3061  1.0800  0.4680
  910MPD2    C213377   0.389   2.004  15.968 -0.6394 -0.5363  0.1122
  910MPD2    C313378   0.441   2.104  15.885  0.5135  0.0751 -0.4972
  910MPD2    C413379   0.538   2.187  15.925  1.1228  0.4413 -0.7113
  910MPD2    C513380   0.586   2.165  16.055 -0.2342  0.0105  0.3348
  910MPD2     H13381   0.316   1.934  15.929  1.1668 -1.3922 -1.7210
  910MPD2    H113382   0.581   2.263  15.860 -1.3780  3.5238  1.2447
  910MPD2    H213383   0.567   2.061  16.243  1.0796  0.6934 -0.2200
  910MPD2    H313384   0.672   2.221  16.091 -0.1027  1.3001 -1.9472
  910MPD2     N13385   0.404   2.117  15.748  0.2170 -0.1902 -0.0262
  910MPD2    H513386   0.461   2.186  15.701 -0.9797  0.1741 -0.9238
  910MPD2    N113387   0.363   1.891  16.172  0.2511  0.1486 -0.0974
  910MPD2    H713388   0.297   1.826  16.131  2.0890 -0.5978 -1.8740
  911MPD2     C13389   3.203   2.056  16.483  0.0049  0.0426  0.4372
  911MPD2    C113390   3.270   2.180  16.463 -0.6749 -0.1857  0.1875
  911MPD2    C213391   3.199   2.280  16.406  0.2917  0.7902  0.2831
  911MPD2    C313392   3.070   2.261  16.368  0.3358 -0.0639 -0.0787
  911MPD2    C413393   3.005   2.143  16.397  0.0205 -0.2887 -0.3851
  911MPD2    C513394   3.069   2.036  16.456  0.3382 -0.2004 -0.1798
  911MPD2     H13395   3.252   2.371  16.381 -1.1581  1.7806  0.8427
  911MPD2    H113396   2.898   2.132  16.385 -0.1219 -1.2044  1.8978
  911MPD2    H213397   3.247   1.972  16.536  1.1303 -0.7877 -1.7894
  911MPD2    H313398   3.009   1.951  16.485  0.6775 -0.7725 -1.1398
  911MPD2     N13399   2.995   2.360  16.297  0.5246  0.6559  0.4197
  911MPD2    H513400   2.896   2.337  16.293  0.4553  0.9326  0.5690
  911MPD2    N113401   3.403   2.178  16.505 -0.0053 -0.0945  0.1607
  911MPD2    H713402   3.441   2.084  16.511  0.7948  0.1411 -1.1910
  912MPD2     C13403   2.296   2.511  15.865 -0.6744  0.0642 -0.0299
  912MPD2    C113404   2.356   2.477  15.984  0.6031 -0.5781 -0.1310
  912MPD2    C213405   2.292   2.391  16.073  0.8889  0.0161 -0.1382
  912MPD2    C313406   2.172   2.335  16.035 -0.3279 -0.1685 -0.0749
  912MPD2    C413407   2.107   2.362  15.922  0.0018  0.1421  0.2402
  912MPD2    C513408   2.172   2.454  15.837 -0.1933 -0.1310 -0.4192
  912MPD2     H13409   2.338   2.348  16.161 -0.5111 -0.4841  0.3522
  912MPD2    H113410   2.009   2.325  15.895  1.1923 -0.6381 -3.0241
  912MPD2    H213411   2.350   2.556  15.783 -0.7046 -0.9645 -0.6131
  912MPD2    H313412   2.111   2.476  15.751  0.6138  0.7409 -0.7710
  912MPD2     N13413   2.141   2.221  16.121 -0.2038 -0.1112 -0.7240
  912MPD2    H513414   2.201   2.219  16.202 -2.0122  1.3087  0.6793
  912MPD2    N113415   2.492   2.525  16.002  0.1609 -0.4095  0.0721
  912MPD2    H713416   2.533   2.579  15.926 -0.9391 -0.8930 -0.8587
  913MPD2     C13417   4.318   3.227  10.714 -0.2332  0.6085 -1.1936
  913MPD2    C113418   4.319   3.338  10.795 -0.1683  0.3013  0.3030
  913MPD2    C213419   4.261   3.457  10.750 -0.3821  0.6774 -0.1767
  913MPD2    C313420   4.207   3.472  10.624  0.5628  0.3706 -0.0441
  913MPD2    C413421   4.202   3.358  10.548  0.1358  0.3493 -0.9856
  913MPD2    C513422   4.264   3.236  10.589 -0.7264 -0.5616 -0.3450
  913MPD2     H13423   4.260   3.545  10.813 -1.2231  0.4040  0.1980
  913MPD2    H113424   4.162   3.359  10.447 -0.0524 -0.1483 -0.9169
  913MPD2    H213425   4.360   3.134  10.749  0.2267  2.0143  2.0246
  913MPD2    H313426   4.270   3.158  10.514  1.5143 -0.4649 -0.2767
  913MPD2     N13427   4.160   3.599  10.571 -0.2880  0.0348 -0.3416
  913MPD2    H513428   4.120   3.610  10.478 -2.7999  0.7563  0.8019
  913MPD2    N113429   4.375   3.323  10.926 -0.1518 -0.4103 -0.7386
  913MPD2    H713430   4.392   3.227  10.954 -1.3344 -0.8073 -1.3523
  914MPD2     C13431   1.672   3.494  12.001  0.2938 -0.4966 -0.0316
  914MPD2    C113432   1.650   3.628  12.041 -0.0106 -0.1973 -0.3807
  914MPD2    C213433   1.706   3.666  12.165  0.4774  0.1531 -0.4768
  914MPD2    C313434   1.756   3.569  12.247 -0.5168 -1.3019 -0.4554
  914MPD2    C413435   1.779   3.436  12.207  0.0183 -0.8818 -0.4387
  914MPD2    C513436   1.738   3.401  12.080 -0.2889  0.3488 -0.0290
  914MPD2     H13437   1.686   3.766  12.202  1.0715  0.2609 -0.4518
  914MPD2    H113438   1.825   3.358  12.267  2.4307  0.4173 -0.6034
  914MPD2    H213439   1.631   3.463  11.905 -0.1782 -1.1875  0.3929
  914MPD2    H313440   1.747   3.297  12.050  1.0849  1.3101 -2.9740
  914MPD2     N13441   1.777   3.615  12.380 -0.4899  0.1479  0.0703
  914MPD2    H513442   1.788   3.712  12.408  2.1947 -0.5521  1.4918
  914MPD2    N113443   1.570   3.715  11.960  0.2600 -0.1243 -0.0864
  914MPD2    H713444   1.524   3.663  11.886 -0.0400  1.8949 -1.3226
  915MPD2     C13445   4.181   4.525  15.991  0.2019 -0.5105 -0.1385
  915MPD2    C113446   4.096   4.441  16.058  0.0679 -0.2812 -0.3460
  915MPD2    C213447   4.008   4.502  16.150 -0.3567 -0.3151 -0.1748
  915MPD2    C313448   3.994   4.639  16.154 -0.7886  0.1742  0.2623
  915MPD2    C413449   4.067   4.716  16.067  0.1404  0.6921 -0.6935
  915MPD2    C513450   4.160   4.657  15.988  1.3860 -0.1220 -0.3012
  915MPD2     H13451   3.947   4.442  16.215  0.5400 -2.4580 -1.3296
  915MPD2    H113452   4.056   0.089  16.057 -3.1363  0.5621  1.3763
  915MPD2    H213453   4.254   4.485  15.921 -1.5375 -0.8273 -1.7827
  915MPD2    H313454   4.228   4.709  15.920 -1.3336 -0.0469 -2.9615
  915MPD2     N13455   3.896   4.686  16.250  0.1360  0.3673 -0.1670
  915MPD2    H513456   3.863   4.623  16.322 -0.3687  1.9091  0.9396
  915MPD2    N113457   4.107   4.301  16.036  0.1658 -0.5803 -0.0002
  915MPD2    H713458   4.179   4.274  15.969 -0.7958  0.6806 -1.5373
  916MPD2     C13459   1.486   2.477  15.279 -0.1168 -0.0754  0.7051
  916MPD2    C113460   1.550   2.433  15.395 -0.4924 -0.5159 -0.2919
  916MPD2    C213461   1.523   2.308  15.446 -0.3899 -0.2312 -0.6365
  916MPD2    C313462   1.442   2.218  15.384  0.1367  0.4891  0.0243
  916MPD2    C413463   1.375   2.267  15.271 -0.1129  0.0074  0.4149
  916MPD2    C513464   1.399   2.392  15.216  0.5365 -0.1309 -0.1399
  916MPD2     H13465   1.582   2.260  15.523 -1.4862  1.5818  1.3295
  916MPD2    H113466   1.308   2.197  15.223 -0.6671 -0.2953  1.6498
  916MPD2    H213467   1.508   2.568  15.223  0.8813 -1.1592 -0.6632
  916MPD2    H313468   1.347   2.415  15.124 -0.9382 -2.9174 -0.0010
  916MPD2     N13469   1.424   2.094  15.446 -0.0730  0.0802  0.1123
  916MPD2    H513470   1.475   2.079  15.533 -1.3630 -0.2048  0.8101
  916MPD2    N113471   1.638   2.519  15.466  0.0043 -1.0072  1.0729
  916MPD2    H713472   1.654   2.610  15.424  0.9890 -1.0084  1.4424
  917MPD2     C13473   3.177   4.362  11.040 -0.1073  0.1356 -0.0119
  917MPD2    C113474   3.193   4.405  11.171 -0.4778  0.0913 -0.4297
  917MPD2    C213475   3.255   4.527  11.195 -0.2428 -0.3217  0.2990
  917MPD2    C313476   3.283   4.614  11.095  0.4165 -0.5307  0.0045
  917MPD2    C413477   3.267   4.575  10.968  0.0987 -0.2621  0.1512
  917MPD2    C513478   3.198   4.457  10.947  0.2592 -0.1853 -0.2678
  917MPD2     H13479   3.254   4.569  11.295 -0.6593 -1.6730  0.8657
  917MPD2    H113480   3.270   4.642  10.883 -1.1883 -0.6135 -0.1629
  917MPD2    H213481   3.132   4.266  11.015 -1.7321  0.2477  2.3786
  917MPD2    H313482   3.180   4.426  10.844 -0.0300  2.3042 -0.9751
  917MPD2     N13483   3.297   0.022  11.123  0.6207 -0.3563  0.3664
  917MPD2    H513484   3.283   0.084  11.044  1.5758 -0.8389 -0.1688
  917MPD2    N113485   3.156   4.312  11.268  0.0537  0.4482  0.1160
  917MPD2    H713486   3.142   4.214  11.243  0.1688  0.3257  0.5257
  918MPD2     C13487   3.131   4.143  12.262 -0.4598  0.0546 -0.1880
  918MPD2    C113488   3.219   4.225  12.189  0.1268 -0.7310 -0.2610
  918MPD2    C213489   3.175   4.274  12.070  0.5705 -0.2786  0.2870
  918MPD2    C313490   3.049   4.239  12.016 -0.2063  0.0912  0.1313
  918MPD2    C413491   2.968   4.160  12.090 -0.0267  0.1009 -0.2875
  918MPD2    C513492   3.007   4.116  12.212  0.6652 -0.2458  0.2370
  918MPD2     H13493   3.248   4.318  12.002  1.3576  0.2730  1.4970
  918MPD2    H113494   2.874   4.120  12.053  0.3163 -0.5762 -0.4323
  918MPD2    H213495   3.151   4.109  12.363  1.5832  0.6594 -0.3967
  918MPD2    H313496   2.939   4.051  12.265 -0.4170  1.6555  1.1767
  918MPD2     N13497   3.021   4.273  11.879  0.6972  0.1355 -0.0397
  918MPD2    H513498   3.102   4.317  11.836  0.2435  1.5453  0.5499
  918MPD2    N113499   3.346   4.261  12.236  1.0712 -0.0721  0.1674
  918MPD2    H713500   3.402   4.327  12.183 -0.7855  0.8156 -0.6735
  919MPD2     C13501   3.881   3.380  11.769  0.4449  0.6427  0.2203
  919MPD2    C113502   3.844   3.277  11.694  0.0847  0.9134  0.5524
  919MPD2    C213503   3.861   3.277  11.558 -0.4126 -0.9390 -0.0198
  919MPD2    C313504   3.920   3.385  11.496 -0.6268  0.4060  0.0751
  919MPD2    C413505   3.957   3.494  11.573 -0.3952  0.1276  0.1827
  919MPD2    C513506   3.928   3.493  11.711  0.2764  0.7315 -0.1598
  919MPD2     H13507   3.834   3.185  11.507 -0.7139  0.2193 -1.9700
  919MPD2    H113508   3.995   3.586  11.531  0.7287  0.0425  1.0366
  919MPD2    H213509   3.861   3.376  11.875  0.4504  2.5314  0.3014
  919MPD2    H313510   3.957   3.570  11.782  0.5870  1.9075 -1.5637
  919MPD2     N13511   3.940   3.401  11.358 -0.0434 -0.1910  0.0934
  919MPD2    H513512   3.999   3.479  11.331 -0.2455  0.0595  0.3753
  919MPD2    N113513   3.778   3.160  11.748  0.4735  0.1734  0.4658
  919MPD2    H713514   3.765   3.085  11.680 -1.7877 -1.7034  2.9864
  920MPD2     C13515   3.799   4.100  10.660  0.0609 -0.4153 -0.2216
  920MPD2    C113516   3.717   3.988  10.627  0.3727 -0.1450 -0.3127
  920MPD2    C213517   3.747   3.863  10.679 -0.2394  0.2149 -0.3833
  920MPD2    C313518   3.847   3.842  10.776 -0.3286  0.8185 -0.5712
  920MPD2    C413519   3.921   3.954  10.811  0.1865  0.1821 -0.2451
  920MPD2    C513520   3.900   4.077  10.752 -0.4412  0.3111  0.3999
  920MPD2     H13521   3.679   3.785  10.645 -2.4796  1.0396  2.1638
  920MPD2    H113522   4.012   3.934  10.866  0.7144  1.4492 -0.6509
  920MPD2    H213523   3.804   4.195  10.608 -0.3531 -1.0542 -1.4244
  920MPD2    H313524   3.966   4.157  10.783  0.4057 -0.5761  0.8927
  920MPD2     N13525   3.866   3.712  10.831 -0.5413  0.0328 -0.1325
  920MPD2    H513526   3.822   3.629  10.792 -0.3879  0.6198 -1.5493
  920MPD2    N113527   3.606   3.985  10.536 -1.2335  0.1417 -0.2281
  920MPD2    H713528   3.550   3.901  10.540 -0.5000 -0.4442 -2.5710
  921MPD2     C13529   4.106   2.443  17.205  0.0905  0.1431 -0.6020
  921MPD2    C113530   4.064   2.541  17.115 -0.1027  0.2110 -0.0358
  921MPD2    C213531   4.007   2.504  16.997  0.0303 -0.3091 -0.2799
  921MPD2    C313532   4.005   2.368  16.962 -0.2641 -0.2104  0.5571
  921MPD2    C413533   4.048   2.273  17.051 -0.6550  0.9399 -0.0103
  921MPD2    C513534   4.098   2.315  17.169  0.6814 -0.4398  0.4692
  921MPD2     H13535   3.974   2.579  16.927  2.1864  1.6507  0.7992
  921MPD2    H113536   4.042   2.166  17.033 -1.1391  0.6973  1.6263
  921MPD2    H213537   4.136   2.460  17.308 -0.8027  1.3321 -0.5261
  921MPD2    H313538   4.118   2.250  17.254 -0.2063  1.9297  2.5039
  921MPD2     N13539   3.955   2.320  16.843 -0.3132 -0.2887  0.0396
  921MPD2    H513540   3.956   2.221  16.821  0.3038 -0.5965  1.4464
  921MPD2    N113541   4.092   2.678  17.140 -0.4332  0.1948  0.4007
  921MPD2    H713542   4.166   2.697  17.207 -1.0110  0.6746  0.9028
  922MPD2     C13543   4.335   4.667   0.111 -0.2000 -0.3919  0.6421
  922MPD2    C113544   4.343   0.059   0.054  0.3623  0.6529 -0.9755
  922MPD2    C213545   4.337   0.068  17.654 -0.5682 -0.5397 -0.3895
  922MPD2    C313546   4.329   4.691  17.574  0.2626  0.2645  0.0760
  922MPD2    C413547   4.327   4.566  17.631 -0.0201  0.0322 -1.1606
  922MPD2    C513548   4.327   4.557   0.030 -0.2797  0.3896 -0.2092
  922MPD2     H13549   4.343   0.167  17.611  1.7521  0.0910  1.4189
  922MPD2    H113550   4.316   4.473  17.576 -0.5055 -0.0219 -0.9723
  922MPD2    H213551   4.335   4.650   0.218 -3.0104  2.2200  1.0211
  922MPD2    H313552   4.311   4.465   0.085  0.7844  0.2408 -0.1549
  922MPD2     N13553   4.322   4.717  17.436 -0.3963 -0.2986 -0.1353
  922MPD2    H513554   4.319   0.074  17.392 -0.4246 -0.3036 -0.1437
  922MPD2    N113555   4.343   0.175   0.137  0.0928  0.2673 -0.0967
  922MPD2    H713556   4.344   0.158   0.237  0.7323 -1.2712 -0.3634
  923MPD2     C13557   1.904   2.168   8.854  0.2891  0.3870 -0.6932
  923MPD2    C113558   1.876   2.274   8.935  0.2713  0.1029 -0.7695
  923MPD2    C213559   1.937   2.285   9.055 -0.1440  0.4922  0.1921
  923MPD2    C313560   2.031   2.189   9.094  0.5200  0.8583 -0.6211
  923MPD2    C413561   2.056   2.077   9.014 -0.0695 -0.2229 -0.5504
  923MPD2    C513562   1.997   2.073   8.890 -0.1495 -0.2485  0.6407
  923MPD2     H13563   1.931   2.381   9.104  3.7869  1.2074 -0.7464
  923MPD2    H113564   2.112   1.993   9.054 -0.0792 -0.1286 -0.3361
  923MPD2    H213565   1.866   2.163   8.753  0.0683  1.3426 -0.6558
  923MPD2    H313566   2.019   1.993   8.820 -1.7997 -0.4554  0.3552
  923MPD2     N13567   2.098   2.195   9.225  0.0427  0.1103  0.0239
  923MPD2    H513568   2.157   2.114   9.245 -0.5076 -0.7371 -1.7639
  923MPD2    N113569   1.787   2.374   8.877  0.0215  0.0383  0.1733
  923MPD2    H713570   1.745   2.348   8.787  1.2299 -0.2815 -0.2936
  924MPD2     C13571   0.819   0.663  16.302 -0.7176 -0.4699  0.4040
  924MPD2    C113572   0.789   0.724  16.426 -0.3097 -0.0738 -0.3001
  924MPD2    C213573   0.821   0.858  16.444 -0.3346 -0.3726  0.1963
  924MPD2    C313574   0.848   0.940  16.342  0.3124 -0.2833 -0.1194
  924MPD2    C413575   0.866   0.883  16.216 -0.0952  0.3032 -0.2288
  924MPD2    C513576   0.858   0.745  16.202 -0.5896 -0.2183  0.1180
  924MPD2     H13577   0.805   0.905  16.540  0.2587 -0.6133  0.4072
  924MPD2    H113578   0.899   0.947  16.135 -1.9015  0.2325 -1.0122
  924MPD2    H213579   0.791   0.560  16.281 -0.3146 -0.9327  2.1496
  924MPD2    H313580   0.886   0.704  16.105  2.3588  0.3561  0.7295
  924MPD2     N13581   0.853   1.083  16.349 -1.0971 -0.6547  0.2178
  924MPD2    H513582   0.854   1.131  16.259  2.4298 -0.6024  0.2988
  924MPD2    N113583   0.717   0.643  16.526 -0.2496 -0.3241 -0.0417
  924MPD2    H713584   0.677   0.556  16.494 -1.8186  0.6430 -0.6824
  925MPD2     C13585   0.744   3.302  14.273 -0.6928 -0.0525  0.0578
  925MPD2    C113586   0.605   3.288  14.265  0.4293 -0.2441 -0.1199
  925MPD2    C213587   0.534   3.237  14.379 -0.3364  0.1605  0.1515
  925MPD2    C313588   0.594   3.200  14.498 -0.5339  0.5472  0.3226
  925MPD2    C413589   0.730   3.227  14.505  0.1550  0.1662 -0.8161
  925MPD2    C513590   0.794   3.283  14.393 -0.1994  0.0467  0.5071
  925MPD2     H13591   0.426   3.230  14.385 -0.3580 -0.2047 -0.7214
  925MPD2    H113592   0.791   3.213  14.593 -0.6290  1.6622 -0.0385
  925MPD2    H213593   0.808   3.343  14.196 -0.3250  2.0139  1.4742
  925MPD2    H313594   0.903   3.277  14.392 -0.2776 -1.1560 -0.6677
  925MPD2     N13595   0.533   3.137  14.611 -0.4438 -0.1507 -1.0613
  925MPD2    H513596   0.600   3.128  14.688 -0.7809 -3.0037 -1.0923
  925MPD2    N113597   0.529   3.304  14.145  0.0956 -0.4033 -0.2578
  925MPD2    H713598   0.432   3.273  14.149  0.5095 -1.6567  0.0909
  926MPD2     C13599   3.829   1.538  13.713 -0.3179  0.8353 -0.2291
  926MPD2    C113600   3.814   1.631  13.615  0.4424  0.0042  0.8038
  926MPD2    C213601   3.920   1.668  13.537 -0.5140 -0.4156  0.2876
  926MPD2    C313602   4.050   1.623  13.557  0.7303  0.3385 -0.1024
  926MPD2    C413603   4.068   1.531  13.661  0.2892  0.5791  0.0377
  926MPD2    C513604   3.957   1.494  13.736  0.4480  0.8380  0.0680
  926MPD2     H13605   3.907   1.735  13.452 -1.4906 -0.3508  0.4922
  926MPD2    H113606   4.164   1.485  13.678  0.3562  1.0868  1.0293
  926MPD2    H213607   3.750   1.501  13.776  0.3801 -1.1213 -0.4821
  926MPD2    H313608   3.970   1.426  13.820 -0.2564 -0.1966 -0.6557
  926MPD2     N13609   4.160   1.653  13.467 -0.0310 -0.5014  0.1543
  926MPD2    H513610   4.246   1.617  13.506  0.8507  0.1655 -1.1825
  926MPD2    N113611   3.687   1.687  13.594  0.7291  0.6153 -0.1588
  926MPD2    H713612   3.681   1.759  13.522  0.6927  0.7499 -0.0203
  927MPD2     C13613   3.459   3.722   0.074  0.1163 -0.4262 -0.5584
  927MPD2    C113614   3.392   3.630  17.732  0.3366 -0.2795 -0.2715
  927MPD2    C213615   3.378   3.663  17.602  0.2412 -0.4775 -0.8269
  927MPD2    C313616   3.439   3.771  17.545  0.3287  0.2136 -0.1745
  927MPD2    C413617   3.502   3.863  17.621 -0.4631  0.7374 -0.6575
  927MPD2    C513618   3.506   3.840   0.020 -0.1357  0.2206 -0.0429
  927MPD2     H13619   3.322   3.593  17.541 -0.8266 -2.3664  2.2705
  927MPD2    H113620   3.547   3.951  17.577  1.4143 -0.0106 -0.2283
  927MPD2    H213621   3.466   3.706   0.181 -1.1652 -0.9573 -0.5567
  927MPD2    H313622   3.555   3.912   0.085 -0.7845  0.6142  0.0071
  927MPD2     N13623   3.424   3.780  17.411  0.4136 -0.0330  0.1578
  927MPD2    H513624   3.389   3.698  17.361  1.0860  0.5805 -1.3439
  927MPD2    N113625   3.336   3.513   0.055 -0.7587 -0.5403  0.6570
  927MPD2    H713626   3.343   3.497   0.155  1.2193  0.8592  0.7400
  928MPD2     C13627   1.117   1.768   0.779  0.4853  0.2370  0.1167
  928MPD2    C113628   1.117   1.865   0.875 -0.6047  0.0390  0.1208
  928MPD2    C213629   1.182   1.979   0.856 -0.0712  0.2672  0.0298
  928MPD2    C313630   1.239   1.999   0.732  0.7065 -0.6444  0.5249
  928MPD2    C413631   1.229   1.908   0.628  0.8184  0.0664  0.6887
  928MPD2    C513632   1.171   1.789   0.655  0.2149 -0.7817 -0.0544
  928MPD2     H13633   1.197   2.055   0.933 -1.6658  0.2202  0.3820
  928MPD2    H113634   1.271   1.915   0.528 -0.6661  2.2169  0.2228
  928MPD2    H213635   1.065   1.675   0.800  0.4194 -0.4100 -2.8952
  928MPD2    H313636   1.160   1.705   0.587  0.1668 -1.6984  1.0841
  928MPD2     N13637   1.315   2.111   0.695 -0.0115  0.6394 -0.2754
  928MPD2    H513638   1.338   2.125   0.597 -3.9809  0.0264 -1.3278
  928MPD2    N113639   1.048   1.836   0.992 -0.1409  0.0062 -0.3075
  928MPD2    H713640   1.014   1.742   1.008  0.0822 -0.3586 -2.0428
  929MPD2     C13641   2.055   2.473  10.046 -0.0701 -0.0672 -0.0503
  929MPD2    C113642   1.924   2.416  10.046 -0.4854 -0.0699 -0.0443
  929MPD2    C213643   1.829   2.463   9.957  0.0353  0.2590 -0.2444
  929MPD2    C313644   1.861   2.586   9.886  0.0079 -0.2151 -0.6715
  929MPD2    C413645   1.983   2.647   9.900 -0.1844  0.1500  0.0545
  929MPD2    C513646   2.076   2.592   9.982 -0.0921 -0.1062  0.0716
  929MPD2     H13647   1.726   2.433   9.969 -0.2121  0.9442 -0.6301
  929MPD2    H113648   1.997   2.745   9.855 -2.2800  1.0329  1.3335
  929MPD2    H213649   2.138   2.441  10.109  0.9329  0.9248 -0.8614
  929MPD2    H313650   2.172   2.635  10.006 -0.2472  0.0999  0.3249
  929MPD2     N13651   1.768   2.672   9.825 -0.1821  0.1640 -0.0215
  929MPD2    H513652   1.791   2.769   9.806  0.8056 -0.2119 -0.7798
  929MPD2    N113653   1.898   2.301  10.127  0.5593  0.2177  0.0886
  929MPD2    H713654   1.963   2.286  10.204  0.8615 -0.3852 -0.2789
  930MPD2     C13655   2.990   4.453  14.377  0.2933  0.6746  0.1800
  930MPD2    C113656   3.092   4.405  14.289 -0.3820  0.2601  0.3936
  930MPD2    C213657   3.069   4.282  14.222  0.7218  0.4577  0.0312
  930MPD2    C313658   2.952   4.218  14.231 -0.2415 -0.5389 -0.2112
  930MPD2    C413659   2.856   4.264  14.311  0.3139  0.0557  0.4225
  930MPD2    C513660   2.872   4.378  14.383 -0.0467  0.1299  0.3373
  930MPD2     H13661   3.146   4.249  14.153 -0.3438  1.2652 -1.5506
  930MPD2    H113662   2.764   4.207  14.313  0.3600 -0.0177  0.4539
  930MPD2    H213663   3.003   4.545  14.431 -1.5506  0.9382  0.1624
  930MPD2    H313664   2.788   4.409  14.443  1.8746 -0.7784  3.4858
  930MPD2     N13665   2.931   4.096  14.157 -0.6569 -0.1206  0.3594
  930MPD2    H513666   2.850   4.041  14.185 -0.8028 -0.9780 -1.7624
  930MPD2    N113667   3.210   4.483  14.256 -0.4457 -0.7242  0.2421
  930MPD2    H713668   3.206   4.581  14.282  0.9624 -0.9128  1.1559
  931MPD2     C13669   3.712   3.048   0.264 -0.8522 -0.2578 -1.1834
  931MPD2    C113670   3.596   3.029   0.332  0.1673 -0.1425 -0.0836
  931MPD2    C213671   3.607   2.977   0.463  0.2394 -0.4004 -0.4915
  931MPD2    C313672   3.727   2.935   0.517 -0.4531 -0.1909  0.8748
  931MPD2    C413673   3.834   2.941   0.435  0.0991  1.0432  0.5060
  931MPD2    C513674   3.828   3.003   0.319 -0.1414  0.1618  0.1702
  931MPD2     H13675   3.514   2.952   0.512  0.8682 -1.1289  0.3263
  931MPD2    H113676   3.932   2.917   0.475  0.2811  0.7132 -0.1237
  931MPD2    H213677   3.714   3.086   0.163  2.1798 -0.3528 -1.1515
  931MPD2    H313678   3.918   3.008   0.258 -0.1189  0.9597  0.2759
  931MPD2     N13679   3.743   2.886   0.648 -0.1492 -0.5872  0.2641
  931MPD2    H513680   3.837   2.860   0.676 -0.3438 -1.8467 -0.2589
  931MPD2    N113681   3.485   3.084   0.268 -0.4183  0.0478  0.0676
  931MPD2    H713682   3.499   3.127   0.176 -1.1884  0.0210 -0.0647
  932MPD2     C13683   0.595   3.020  11.313 -0.5086 -0.0861  1.1503
  932MPD2    C113684   0.701   2.957  11.375  0.3262  0.6343 -0.1469
  932MPD2    C213685   0.702   2.820  11.364  0.0639  0.1131  0.4580
  932MPD2    C313686   0.600   2.751  11.303  0.1246  0.4228 -0.0624
  932MPD2    C413687   0.500   2.814  11.230  0.1232 -0.1698 -0.1900
  932MPD2    C513688   0.495   2.955  11.245 -0.0410  0.1646 -0.0678
  932MPD2     H13689   0.781   2.770  11.418 -0.5030 -1.1467  0.1035
  932MPD2    H113690   0.417   2.762  11.183  0.9345 -0.8553 -0.8706
  932MPD2    H213691   0.596   3.128  11.311  1.3480 -0.0925  1.9515
  932MPD2    H313692   0.425   3.016  11.189 -0.0478 -1.4346 -1.8057
  932MPD2     N13693   0.600   2.614  11.284 -0.3645  0.4418 -0.4625
  932MPD2    H513694   0.534   2.571  11.220  0.8798  0.4067 -1.7418
  932MPD2    N113695   0.804   3.021  11.444  0.2291 -0.2243 -0.0603
  932MPD2    H713696   0.889   2.968  11.461  0.8048  1.0870  1.1754
  933MPD2     C13697   0.430   1.785   1.599  0.0205  0.3569 -0.1291
  933MPD2    C113698   0.512   1.887   1.560  0.4740  0.2215 -0.5286
  933MPD2    C213699   0.456   2.016   1.565 -0.4506  0.4043  0.8110
  933MPD2    C313700   0.332   2.043   1.628 -0.6330  0.5946  0.5177
  933MPD2    C413701   0.271   1.939   1.680  0.3894 -0.4197  0.1758
  933MPD2    C513702   0.317   1.810   1.670  0.1694  0.4237  0.6097
  933MPD2     H13703   0.519   2.099   1.534 -0.8610  0.0030 -1.0914
  933MPD2    H113704   0.187   1.950   1.748 -0.7456 -1.2103 -1.0973
  933MPD2    H213705   0.461   1.681   1.604  1.1427  0.7746  1.5706
  933MPD2    H313706   0.258   1.732   1.717 -1.5512  0.2360 -1.8840
  933MPD2     N13707   0.282   2.173   1.624 -0.2336 -0.7405 -0.5010
  933MPD2    H513708   0.338   2.242   1.573  0.7949 -0.2216  1.3191
  933MPD2    N113709   0.643   1.854   1.518 -0.6823 -0.6655 -0.6793
  933MPD2    H713710   0.675   1.758   1.524 -0.8476 -0.8919 -3.7161
  934MPD2     C13711   2.610   4.315   1.575 -0.3991 -0.6936 -0.3288
  934MPD2    C113712   2.613   4.219   1.480 -0.1597  0.4396  0.3243
  934MPD2    C213713   2.498   4.143   1.456  0.0972 -0.2347  0.8462
  934MPD2    C313714   2.375   4.182   1.519 -1.0345 -0.0318  0.0048
  934MPD2    C413715   2.377   4.274   1.617  0.6342  0.5269  0.0199
  934MPD2    C513716   2.487   4.346   1.633 -0.6872 -0.2727 -0.2200
  934MPD2     H13717   2.493   4.070   1.376  1.5177  1.9946 -1.2651
  934MPD2    H113718   2.283   4.314   1.653  0.5302  0.6912 -0.4260
  934MPD2    H213719   2.691   4.378   1.609 -0.8828 -0.4551  0.3942
  934MPD2    H313720   2.488   4.420   1.713 -0.9767 -0.7872  0.2642
  934MPD2     N13721   2.247   4.126   1.495 -0.4622 -0.0347 -0.0105
  934MPD2    H513722   2.171   4.172   1.545 -1.0077  1.0934 -1.8819
  934MPD2    N113723   2.739   4.181   1.421 -0.7055 -0.1076  0.0236
  934MPD2    H713724   2.742   4.108   1.351 -1.5093  0.7511 -0.8996
  935MPD2     C13725   1.727   3.324   1.322  0.0897 -0.0354 -0.0087
  935MPD2    C113726   1.659   3.416   1.249 -0.6315  0.2206  0.5024
  935MPD2    C213727   1.713   3.546   1.236 -0.1979  0.1076 -0.3834
  935MPD2    C313728   1.829   3.575   1.307  0.0857 -0.3841  0.2149
  935MPD2    C413729   1.900   3.484   1.374 -0.5495  0.0908 -0.2002
  935MPD2    C513730   1.845   3.360   1.382  0.6186  0.2441  0.2602
  935MPD2     H13731   1.644   3.621   1.198 -0.0786  1.2657  1.7384
  935MPD2    H113732   1.990   3.516   1.425 -1.2680  0.3867  0.8864
  935MPD2    H213733   1.690   3.222   1.330 -0.0494  0.0724  0.7068
  935MPD2    H313734   1.895   3.295   1.453 -1.5471 -0.8956  0.7631
  935MPD2     N13735   1.889   3.707   1.303  0.2510  0.3172  0.2141
  935MPD2    H513736   1.954   3.733   1.377 -1.2457  0.5303  1.4603
  935MPD2    N113737   1.534   3.376   1.184 -0.4952  0.5019 -0.5649
  935MPD2    H713738   1.497   3.441   1.116  0.5092  1.4164 -0.2423
  936MPD2     C13739   1.137   0.918  12.896  0.0614 -0.1035 -0.2518
  936MPD2    C113740   1.245   0.901  12.811  0.3955 -0.0026 -0.4833
  936MPD2    C213741   1.230   0.918  12.673  0.5166  0.2583  0.1433
  936MPD2    C313742   1.108   0.967  12.626  0.4026  0.1720 -0.9460
  936MPD2    C413743   1.004   0.982  12.716 -0.4112  0.4531 -0.4365
  936MPD2    C513744   1.022   0.956  12.844  0.6884 -0.3436  0.1196
  936MPD2     H13745   1.312   0.906  12.604 -1.4824 -1.7051 -1.9246
  936MPD2    H113746   0.915   1.035  12.684  0.1475  0.2227 -2.4307
  936MPD2    H213747   1.143   0.903  13.003  0.8699  2.0821  0.0089
  936MPD2    H313748   0.945   0.966  12.920  0.9324  0.3443  0.2791
  936MPD2     N13749   1.069   1.001  12.496  0.5943  0.4507  0.3550
  936MPD2    H513750   0.973   1.030  12.485  0.1299 -1.0433  0.5352
  936MPD2    N113751   1.378   0.897  12.867  0.1464 -0.3025  0.0780
  936MPD2    H713752   1.452   0.898  12.797  0.0257 -0.8003 -0.0594
  937MPD2     C13753   3.983   2.474  11.678  0.1565  0.0160  0.4430
  937MPD2    C113754   4.022   2.601  11.715 -0.0717 -0.6024  0.0830
  937MPD2    C213755   4.138   2.642  11.654 -0.1856 -0.5592  0.3650
  937MPD2    C313756   4.227   2.556  11.591 -0.1146 -0.2138 -0.6564
  937MPD2    C413757   4.196   2.424  11.579 -0.3399 -0.3415  0.9171
  937MPD2    C513758   4.069   2.387  11.614  0.0981 -0.0531  1.0485
  937MPD2     H13759   4.160   2.748  11.668 -3.0935 -0.1327  1.8279
  937MPD2    H113760   4.258   2.345  11.538 -0.3485 -0.2507  0.7280
  937MPD2    H213761   3.890   2.435  11.720 -0.0204 -1.7315 -1.5613
  937MPD2    H313762   4.039   2.287  11.587  0.1344 -0.1179  1.2485
  937MPD2     N13763   4.351   2.606  11.543  0.2570  0.0631  0.1350
  937MPD2    H513764   4.375   2.701  11.569  1.3088  0.2139 -1.4008
  937MPD2    N113765   3.936   2.699  11.768  0.3651  0.4706 -0.1091
  937MPD2    H713766   3.983   2.789  11.769 -3.1700  2.3178  0.9032
  938MPD2     C13767   1.153   4.024   0.831  0.1608  0.0436  0.1078
  938MPD2    C113768   1.228   4.093   0.926 -0.0801  0.0873 -0.8342
  938MPD2    C213769   1.276   4.028   1.035 -0.4159  0.1799  0.2746
  938MPD2    C313770   1.243   3.897   1.060  0.2605 -0.0072 -0.0431
  938MPD2    C413771   1.159   3.835   0.972  0.0101 -0.3956 -0.1131
  938MPD2    C513772   1.119   3.897   0.860 -1.0193 -0.0744 -0.5636
  938MPD2     H13773   1.346   4.081   1.098  0.4545  0.5042 -0.9647
  938MPD2    H113774   1.127   3.732   0.990  1.8385 -0.9073  0.1985
  938MPD2    H213775   1.115   4.067   0.739  1.6038  1.4411  0.1681
  938MPD2    H313776   1.047   3.850   0.794 -0.0547 -1.8133 -0.3615
  938MPD2     N13777   1.286   3.823   1.171 -0.2522  0.1360 -0.5233
  938MPD2    H513778   1.244   3.731   1.171 -1.1365  0.5314 -1.7300
  938MPD2    N113779   1.272   4.217   0.893 -0.2038 -0.4171  0.2189
  938MPD2    H713780   1.353   4.254   0.943 -0.8441 -2.1786  2.5563
  939MPD2     C13781   2.364   0.638   0.706  0.9061 -0.9515  0.3285
  939MPD2    C113782   2.409   0.530   0.780 -0.3338 -0.7899  0.1548
  939MPD2    C213783   2.479   0.425   0.727  0.6268  0.4559  0.2304
  939MPD2    C313784   2.481   0.412   0.585 -0.6890 -0.6636  0.3593
  939MPD2    C413785   2.433   0.520   0.514  0.0707 -0.7148  0.3853
  939MPD2    C513786   2.385   0.633   0.571 -0.8052  0.1999  0.3857
  939MPD2     H13787   2.521   0.352   0.795 -2.1954 -1.1936  0.1875
  939MPD2    H113788   2.442   0.522   0.406 -0.1644  1.9794  0.4108
  939MPD2    H213789   2.314   0.716   0.762 -0.0767 -0.4561 -1.2391
  939MPD2    H313790   2.365   0.715   0.502 -0.5487 -0.6148 -0.6571
  939MPD2     N13791   2.525   0.289   0.520 -0.0730 -0.1556  0.0066
  939MPD2    H513792   2.534   0.206   0.579 -2.0205 -1.8440 -2.0877
  939MPD2    N113793   2.402   0.546   0.922 -0.3208  0.1277 -0.9182
  939MPD2    H713794   2.334   0.612   0.958 -0.5007 -0.0065 -1.0117
  940MPD2     C13795   1.677   1.635  12.951  0.0561 -0.1571  0.0747
  940MPD2    C113796   1.788   1.615  13.030 -0.8765  0.4106  0.0751
  940MPD2    C213797   1.908   1.589  12.975 -0.3811  0.4539 -0.0579
  940MPD2    C313798   1.914   1.583  12.839  0.0792  0.3108  0.3842
  940MPD2    C413799   1.801   1.604  12.760  0.4770 -0.1425 -0.5118
  940MPD2    C513800   1.682   1.625  12.812  0.0301 -0.3719 -0.1177
  940MPD2     H13801   1.989   1.558  13.041  0.0156 -1.4672 -1.4691
  940MPD2    H113802   1.816   1.593  12.653 -0.1142 -5.4946 -0.0268
  940MPD2    H213803   1.580   1.643  12.999 -0.5767 -2.4295 -0.8569
  940MPD2    H313804   1.594   1.631  12.748 -0.6034 -0.4948  0.7383
  940MPD2     N13805   2.031   1.550  12.769  0.0557 -0.1658  0.6875
  940MPD2    H513806   2.019   1.542  12.669  1.4107 -2.0676  0.6928
  940MPD2    N113807   1.773   1.609  13.171 -0.0932 -0.0066 -0.3730
  940MPD2    H713808   1.862   1.582  13.213 -0.9629 -1.5284  0.4542
  941MPD2     C13809   0.925   0.979   9.581 -0.6041 -0.0858  0.4300
  941MPD2    C113810   1.030   0.956   9.670 -0.1656 -0.2479  0.3070
  941MPD2    C213811   1.023   0.844   9.750 -0.2982  0.0360 -0.6969
  941MPD2    C313812   0.907   0.770   9.768  0.4597 -0.6770  0.1539
  941MPD2    C413813   0.804   0.800   9.675  0.2822 -0.4908 -0.2320
  941MPD2    C513814   0.814   0.899   9.583  0.4724  0.0258  0.4467
  941MPD2     H13815   1.112   0.825   9.808 -0.7938  0.0136  0.0599
  941MPD2    H113816   0.713   0.741   9.666 -1.5244  2.4790 -1.4922
  941MPD2    H213817   0.934   1.060   9.510  0.7415 -0.4323  0.2059
  941MPD2    H313818   0.745   0.920   9.502  0.5421  0.5899  0.5316
  941MPD2     N13819   0.899   0.664   9.862 -0.2664  0.5036 -0.3365
  941MPD2    H513820   0.806   0.628   9.878 -1.2021  2.8447 -0.4503
  941MPD2    N113821   1.139   1.037   9.682 -0.2685  0.1579  0.5633
  941MPD2    H713822   1.211   1.006   9.746  1.2236  0.7096 -0.8251
  942MPD2     C13823   1.292   1.549   8.732 -0.5536 -0.5411 -0.1653
  942MPD2    C113824   1.160   1.542   8.694 -0.4651 -0.1783  0.5584
  942MPD2    C213825   1.098   1.655   8.636 -0.2137  0.1937 -0.1194
  942MPD2    C313826   1.164   1.774   8.639 -0.0606  0.0087 -0.0760
  942MPD2    C413827   1.299   1.779   8.676 -0.2166  0.6859  0.2249
  942MPD2    C513828   1.363   1.668   8.723  0.2077 -0.9709  0.4890
  942MPD2     H13829   0.998   1.645   8.595 -1.0069  2.3014  1.3174
  942MPD2    H113830   1.355   1.871   8.675 -0.7396  0.9818 -1.3452
  942MPD2    H213831   1.353   1.468   8.770  0.4030  0.5996  0.7159
  942MPD2    H313832   1.464   1.679   8.761  0.7660  1.2042 -1.6175
  942MPD2     N13833   1.104   1.900   8.592  0.1499  0.4174  0.1136
  942MPD2    H513834   1.153   1.988   8.598  0.7227  0.1788 -0.9444
  942MPD2    N113835   1.091   1.421   8.693  1.0079  0.0963  0.0379
  942MPD2    H713836   0.993   1.417   8.666  0.7163 -0.0487  1.1029
  943MPD2     C13837   4.525   0.640  10.143 -0.1283  0.4759  0.0646
  943MPD2    C113838   4.455   0.592  10.256  0.2082  0.3431 -0.7163
  943MPD2    C213839   4.465   0.651  10.385 -0.7743  0.9827 -0.1788
  943MPD2    C313840   4.524   0.775  10.393 -0.1700  0.4035  0.2094
  943MPD2    C413841   4.588   0.821  10.283  0.1597 -0.1668 -0.0149
  943MPD2    C513842   4.591   0.754  10.160 -0.1758 -0.4916  0.0757
  943MPD2     H13843   4.410   0.619  10.472  0.1698  0.1440  0.1171
  943MPD2    H113844   4.651   0.909  10.286  0.3569 -0.2926 -0.4775
  943MPD2    H213845   4.535   0.585  10.050  1.0536 -1.1833  1.1751
  943MPD2    H313846   4.647   0.800  10.080  0.2218 -2.7733 -0.9619
  943MPD2     N13847   4.532   0.857  10.507 -0.3214 -0.5560 -0.1081
  943MPD2    H513848   4.569   0.949  10.486 -1.1532 -0.4777 -1.2457
  943MPD2    N113849   4.388   0.469  10.232  0.3218 -0.0549 -0.2609
  943MPD2    H713850   4.399   0.421  10.143 -2.7828 -0.2961 -0.5159
  944MPD2     C13851   4.577   4.486  11.204  0.0658 -0.1512 -0.7609
  944MPD2    C113852   4.505   4.578  11.134 -0.0495 -0.0437 -0.0502
  944MPD2    C213853   4.403   4.651  11.199 -0.4065 -0.0741  0.6982
  944MPD2    C313854   4.388   4.639  11.336  0.2104  0.0143 -0.5360
  944MPD2    C413855   4.468   4.552  11.403 -0.7693 -0.0263  0.7808
  944MPD2    C513856   4.555   4.467  11.339  0.4557  0.6103 -0.0491
  944MPD2     H13857   4.332   4.710  11.142  1.4753  0.0999 -1.4730
  944MPD2    H113858   4.464   4.543  11.511  0.2853  1.5121  0.9539
  944MPD2    H213859   4.653   4.430  11.151  2.2833  1.7588  0.4149
  944MPD2    H313860   4.606   4.388  11.393 -0.8417  0.4777  0.9652
  944MPD2     N13861   4.277   4.705  11.396  0.1481  0.0441 -0.7665
  944MPD2    H513862   4.223   0.028  11.331  0.2289 -0.4277 -1.2523
  944MPD2    N113863   4.538   4.593  10.995  0.2260 -0.3495 -0.4701
  944MPD2    H713864   4.611   4.526  10.972  0.6979 -0.4110  1.1809
    1TMC1    C113865   2.680   0.543  14.500 -0.5075  0.5472 -0.5914
    1TMC1    C213866   2.813   0.522  14.488  0.1505  0.6994  0.3263
    1TMC1    C313867   2.862   0.491  14.363  0.1401 -0.3044 -0.0382
    1TMC1    C413868   2.600   0.546  14.388  0.6516  1.0265 -0.5963
    1TMC1    C513869   2.650   0.489  14.277 -0.0021 -0.1414 -0.3844
    1TMC1    C613870   2.778   0.451  14.264  0.7623 -0.5926  0.0394
    1TMC1     C13871   2.650   0.606  14.624 -0.4553  0.2686  0.2936
    1TMC1     O13872   2.700   0.554  14.725 -0.1038 -0.3263 -0.3216
    1TMC1     H13873   2.879   0.549  14.570 -0.2578  0.0083  0.8769
    1TMC1    H113874   2.496   0.568  14.407  0.5098  1.4879 -1.8996
    1TMC1    H213875   2.814   0.411  14.170 -0.8890  0.3859 -1.0084
    1TMC1    C713876   2.574   0.475  14.149 -0.1056  0.4992  0.3866
    1TMC1    C813877   3.006   0.486  14.352 -0.1127 -0.2534 -0.1111
    1TMC1    O113878   2.622   0.444  14.043  0.4031  0.3325  0.1560
    1TMC1    O213879   3.075   0.460  14.449 -0.0841 -0.1455 -0.1975
    1TMC1    O313880   2.441   0.454  14.167  0.2613 -0.3513  0.4332
    1TMC1    H313881   2.411   0.489  14.254 -0.8050  0.4520 -0.2662
    1TMC1    O513882   3.046   0.469  14.225 -0.2956 -0.0510 -0.1974
    1TMC1    H513883   3.002   0.530  14.162 -0.2481  1.0004  0.7821
    2MPD2     C13884   2.503   1.014  14.913  0.2058  1.4194 -0.7339
    2MPD2    C113885   2.487   1.048  14.779  0.2142  0.8776 -0.1301
    2MPD2    C213886   2.521   0.956  14.688  0.4273 -0.0217 -0.2477
    2MPD2    C313887   2.573   0.832  14.716  0.3057 -0.8819 -0.4466
    2MPD2    C413888   2.601   0.804  14.856 -0.0392 -0.0885 -0.8409
    2MPD2    C513889   2.555   0.891  14.950 -0.0369 -0.3618  0.1620
    2MPD2     H13890   2.526   0.980  14.582  0.4331  1.6199  0.1195
    2MPD2    H113891   2.652   0.714  14.886  0.4293  0.4980  0.0872
    2MPD2    H213892   2.475   1.082  14.992 -1.3266  0.3028 -0.3199
    2MPD2    H313893   2.573   0.868  15.055 -1.4722 -1.1045  0.2503
    2MPD2     N13894   2.598   0.733  14.605 -0.1988 -0.1977 -0.8086
    2MPD2    H513895   2.573   0.769  14.513  0.7142  0.2120 -0.8962
    2MPD2    N113896   2.446   1.182  14.748  0.8740  0.4368  0.5158
    2MPD2    H713897   2.441   1.245  14.828  0.5277 -1.8646  2.3275
    3TMC2    C113898   2.405   1.376  14.617 -0.1235 -0.9658 -0.3146
    3TMC2    C213899   2.491   1.451  14.700 -0.7451 -0.9669  0.1340
    3TMC2    C313900   2.527   1.572  14.652  0.0946  0.5757  0.4950
    3TMC2    C413901   2.360   1.427  14.501  0.3950 -0.4478  0.5035
    3TMC2    C513902   2.406   1.544  14.454 -0.0023 -0.0018  0.0262
    3TMC2    C613903   2.495   1.613  14.528  0.2035 -0.8285  0.1247
    3TMC2     C13904   2.407   1.230  14.626 -0.6394 -0.7353 -0.2276
    3TMC2     O13905   2.375   1.168  14.525 -0.5741  0.1943  0.4468
    3TMC2     H13906   2.551   1.411  14.780 -1.7712  0.3263  1.5442
    3TMC2    H113907   2.283   1.373  14.448  2.0565 -3.1776  0.8668
    3TMC2    H213908   2.531   1.713  14.505 -0.3546 -0.7192 -0.2659
    3TMC2    C713909   2.345   1.611  14.341 -0.1793  0.2956  0.4013
    3TMC2    C813910   2.621   1.646  14.731 -0.5114  0.2867  0.3178
    3TMC2    O113911   2.236   1.568  14.308 -0.5095  0.3198 -0.1654
    3TMC2    O213912   2.704   1.714  14.677  0.2143 -0.0407  0.0884
    3TMC2    O513913   2.574   1.663  14.857  0.5837 -0.3150  0.0870
    3TMC2    H513914   2.494   1.611  14.878  0.2611 -0.6800 -1.9803
    4TMC2    C113915   2.777   2.408  13.873 -0.4689 -0.4687  0.1279
    4TMC2    C213916   2.907   2.418  13.908 -0.1138 -0.9533  0.2678
    4TMC2    C313917   2.962   2.315  13.987 -0.6793  0.2276  0.0549
    4TMC2    C413918   2.697   2.303  13.913  0.3527  0.3609  0.7734
    4TMC2    C513919   2.756   2.204  13.993 -0.0446  0.0083 -0.4305
    4TMC2    C613920   2.890   2.210  14.032 -0.1610 -0.2264 -1.0523
    4TMC2     C13921   2.734   2.485  13.764 -0.5313 -0.2016  0.0512
    4TMC2     O13922   2.801   2.579  13.732  0.2721 -0.5396 -0.0533
    4TMC2     H13923   2.971   2.501  13.879  1.1293 -1.9445  0.1612
    4TMC2    H113924   2.593   2.310  13.883 -0.0635 -2.6188  1.5546
    4TMC2    H213925   2.938   2.126  14.079  0.7999  1.7137  1.4521
    4TMC2    C713926   2.687   2.074  14.015 -0.5270  0.0421 -0.2907
    4TMC2    C813927   3.097   2.320  14.032 -0.2443 -0.0824  0.3570
    4TMC2    O113928   2.756   1.977  14.040 -0.0079 -0.2697 -0.1027
    4TMC2    O213929   3.146   2.217  14.077 -0.7135 -0.0656  0.2950
    4TMC2    O513930   3.103   2.428  14.107 -0.0450  0.6776  0.6662
    4TMC2    H513931   3.054   2.510  14.085 -0.0576  0.5236  0.1133
    5MPD2     C13932   2.464   2.582  13.340 -0.9628  0.3717  0.3808
    5MPD2    C113933   2.408   2.479  13.403 -0.5625 -0.6245  0.0286
    5MPD2    C213934   2.464   2.437  13.523 -0.3394  0.4526 -0.2906
    5MPD2    C313935   2.571   2.501  13.580  0.3538 -0.5754  0.4069
    5MPD2    C413936   2.616   2.622  13.522 -0.0402 -0.6565 -0.2756
    5MPD2    C513937   2.559   2.652  13.404  0.8707  0.0051 -0.5821
    5MPD2     H13938   2.437   2.345  13.574 -2.6281  0.8793 -0.7425
    5MPD2    H113939   2.702   2.677  13.560 -0.6333  1.2967 -1.7831
    5MPD2    H213940   2.438   2.600  13.236 -2.7531 -0.1958  0.7339
    5MPD2    H313941   2.599   2.729  13.339 -1.7092  1.7097 -0.1460
    5MPD2     N13942   2.627   2.437  13.694  0.5664  0.3262  0.3415
    5MPD2    H513943   2.590   2.346  13.719  0.1336  0.2050 -0.7213
    5MPD2    N113944   2.312   2.399  13.339  0.3678 -0.0826 -0.0817
    5MPD2    H713945   2.283   2.413  13.243  0.4364  0.4473 -0.0220
    6MPD1     C13946   0.515   2.261  12.668 -0.0705  0.5653  0.0268
    6MPD1    C113947   0.592   2.166  12.595  0.8715 -0.1381  0.1228
    6MPD1    C213948   0.713   2.130  12.641  0.3520 -0.3170  0.8791
    6MPD1    C313949   0.772   2.203  12.749 -0.2135 -0.1408  0.8968
    6MPD1    C413950   0.698   2.294  12.818  0.6492  0.2418 -0.1727
    6MPD1    C513951   0.567   2.319  12.779  0.2273  0.1592  0.3540
    6MPD1     H13952   0.768   2.056  12.584  0.5914  0.5962 -0.0786
    6MPD1    H113953   0.735   2.336  12.910  0.1885  3.2126 -1.3453
    6MPD1    H213954   0.421   2.303  12.636 -1.7252 -3.4322 -0.3981
    6MPD1    H313955   0.507   2.389  12.836 -0.8786 -0.3903 -0.1313
    6MPD1     N13956   0.895   2.169  12.800  0.0520  0.5526  0.8880
    6MPD1    H513957   0.915   2.201  12.894  1.4396 -0.7468  1.0403
    6MPD1    N113958   0.535   2.097  12.483  0.3153  0.1981 -0.1185
    6MPD1    H613959   0.591   2.091  12.398  1.0626 -1.3599  0.4750
    6MPD1    H713960   0.449   2.146  12.460  0.2330  1.0710  2.0592
    7MPD2     C13961   1.407   2.217  13.384  0.7244 -0.0025  0.0655
    7MPD2    C113962   1.450   2.118  13.301  1.5051  0.2580 -0.2510
    7MPD2    C213963   1.572   2.059  13.319  0.3266 -0.3754 -0.4116
    7MPD2    C313964   1.655   2.102  13.420  0.1706 -0.4949 -1.0687
    7MPD2    C413965   1.603   2.196  13.512 -0.1754  0.5121  0.4645
    7MPD2    C513966   1.484   2.247  13.499  0.0952  0.2069  0.3647
    7MPD2     H13967   1.610   1.973  13.266 -0.1785 -0.4668 -0.6271
    7MPD2    H113968   1.670   2.239  13.585  1.0770 -1.6998  0.6202
    7MPD2    H213969   1.314   2.271  13.369  2.2345  2.4230 -0.6975
    7MPD2    H313970   1.433   2.317  13.564  0.0505 -0.1517  0.7143
    7MPD2     N13971   1.793   2.067  13.423  0.1685 -0.0801  0.0050
    7MPD2    H513972   1.841   2.092  13.509 -0.1000 -1.0205  0.4298
    7MPD2    N113973   1.365   2.083  13.186 -0.2813 -0.1644  0.5455
    7MPD2    H713974   1.409   2.018  13.123  0.8281  0.7852  0.3384
    8TMC3    C113975   2.011   2.030  13.334  0.2098  0.2093  0.4022
    8TMC3    C213976   2.042   2.151  13.387 -0.5005  0.1664 -0.4792
    8TMC3    C313977   2.136   2.230  13.324  0.1059 -0.9358  0.0899
    8TMC3    C413978   2.073   1.985  13.222  0.8911  0.1893  0.2195
    8TMC3    C513979   2.163   2.064  13.153 -0.1282  1.0879 -0.8843
    8TMC3    C613980   2.200   2.184  13.211 -0.2569 -0.1104  0.0523
    8TMC3     C13981   1.870   2.012  13.320  0.3563 -0.6091 -0.4594
    8TMC3     O13982   1.836   1.957  13.218 -0.3857 -0.5273  0.5853
    8TMC3     H13983   2.014   2.178  13.488 -0.9197  2.0847 -1.1089
    8TMC3    H113984   2.058   1.884  13.186 -0.0998 -0.0688  1.3519
    8TMC3    H213985   2.267   2.243  13.150 -0.8091 -0.1353 -0.5834
    8TMC3    C713986   2.131   2.073  13.017 -0.4380 -0.0393 -0.1506
    8TMC3    C813987   2.220   2.315  13.406 -0.1239 -0.7775 -0.0542
    8TMC3    O113988   2.202   2.149  12.947  0.4789 -0.0860  0.3522
    8TMC3    O213989   2.194   2.322  13.524  0.3070  0.1816 -0.4378
    9TMC3    C113990   1.116   2.079  12.806  0.0190 -0.2141  0.5850
    9TMC3    C213991   1.234   2.061  12.729  0.0350 -0.1248 -0.2559
    9TMC3    C313992   1.353   2.085  12.790 -0.4142  0.0036  0.4619
    9TMC3    C413993   1.124   2.111  12.938  0.1149 -0.3064  0.2876
    9TMC3    C513994   1.249   2.121  12.995  0.3975 -0.1730 -0.0253
    9TMC3    C613995   1.366   2.111  12.923 -0.2362  0.4542  0.0859
    9TMC3     C13996   1.000   2.112  12.728 -0.4496 -0.5128 -0.7545
    9TMC3     O13997   0.999   2.086  12.605  0.1354 -0.4870 -0.5057
    9TMC3     H13998   1.228   2.024  12.628  2.6302 -3.3721  0.7785
    9TMC3    H113999   1.032   2.117  12.995 -0.5930 -0.5640 -0.8165
    9TMC3    H214000   1.461   2.131  12.971  0.2980 -0.3218 -0.6508
    9TMC3    C714001   1.253   2.147  13.134  0.1191 -0.1466 -0.2487
    9TMC3    C814002   1.476   2.052  12.710  0.5872  0.9963 -0.5779
    9TMC3    O114003   1.156   2.200  13.186 -0.1985  0.0273  0.6298
    9TMC3    O214004   1.477   2.048  12.585  0.3298  0.2877  0.5076
   10MPD2     C14005   1.987   2.100  12.749  0.5568  0.6401  0.5156
   10MPD2    C114006   1.931   2.046  12.868  0.0296  0.0995 -1.0900
   10MPD2    C214007   1.794   2.015  12.876 -0.3323 -0.3689  0.2114
   10MPD2    C314008   1.714   2.039  12.769 -0.9936  0.7079  1.0276
   10MPD2    C414009   1.769   2.083  12.650 -0.2846  0.4884  0.1445
   10MPD2    C514010   1.896   2.112  12.643 -0.3494 -0.1601  0.9721
   10MPD2     H14011   1.759   1.967  12.967 -0.0186 -1.0932 -0.0479
   10MPD2    H114012   1.704   2.101  12.566  0.9457  0.8359 -0.7377
   10MPD2    H214013   2.091   2.129  12.740  0.9219 -1.2824 -1.3344
   10MPD2    H314014   1.934   2.154  12.551 -1.2781 -1.6640 -0.0964
   10MPD2     N14015   1.576   2.025  12.794  0.1136  0.3372 -0.2353
   10MPD2    H514016   1.559   2.001  12.891 -1.0224  2.2161  0.0277
   10MPD2    N114017   1.998   2.034  12.988  0.1824  0.6462  0.3240
   10MPD2    H714018   1.951   1.972  13.054  0.5145  0.9656  0.8572
   11MPD2     C14019   2.265   1.811  14.150 -0.1601 -0.0283 -0.5003
   11MPD2    C114020   2.397   1.795  14.181 -0.5159  0.1803 -0.7609
   11MPD2    C214021   2.500   1.877  14.133  0.1580 -0.0550 -0.9017
   11MPD2    C314022   2.459   1.988  14.056  0.4216 -0.0010 -0.6793
   11MPD2    C414023   2.323   2.006  14.031  0.6538  0.4222  0.3712
   11MPD2    C514024   2.224   1.918  14.063  0.0602 -0.5074  0.5201
   11MPD2     H14025   2.599   1.866  14.177 -0.7727 -1.0948  0.9148
   11MPD2    H114026   2.294   2.091  13.970  1.7079  0.3764 -0.1976
   11MPD2    H214027   2.192   1.742  14.191  1.1663 -0.9351  0.3314
   11MPD2    H314028   2.119   1.928  14.038  0.2141 -0.5371 -0.1273
   11MPD2     N14029   2.548   2.087  14.011 -0.2505  0.0357 -0.2406
   11MPD2    H514030   2.510   2.173  13.972 -1.1057 -0.7978 -1.2686
   11MPD2    N114031   2.429   1.702  14.286  0.5354  0.0753  0.1537
   11MPD2    H714032   2.527   1.693  14.311  0.1663 -1.2434  1.1482
    1MPD1     C14033   4.597   3.844  17.093  0.8224  0.4482 -0.4235
    1MPD1    C114034   4.579   3.797  16.966 -0.5398 -0.5481  0.1036
    1MPD1    C214035   4.660   3.692  16.927  0.1407 -0.7758 -0.2932
    1MPD1    C314036   0.039   3.652  17.001  0.4004 -0.1081 -0.8084
    1MPD1    C414037   0.074   3.722  17.113  0.0354  0.0729  0.3238
    1MPD1    C514038   4.713   3.812  17.157  0.9038  0.0194 -0.1966
    1MPD1     H14039   4.644   3.653  16.827 -0.4664 -0.7883 -0.1880
    1MPD1    H114040   0.163   3.687  17.163  1.5951 -0.6606 -2.9829
    1MPD1    H214041   4.536   3.919  17.143 -3.1057 -0.3300 -4.0358
    1MPD1    H314042   4.730   3.860  17.252 -0.3692  2.0812 -0.9855
    1MPD1     N14043   0.132   3.547  16.967  0.1809 -0.3943 -0.4151
    1MPD1    H514044   0.220   3.531  17.014  0.6288  0.5886 -0.9306
    1MPD1    N114045   4.461   3.828  16.894  0.1044 -0.3713  0.7663
    1MPD1    H614046   4.470   3.844  16.794 -1.0677 -2.6387  0.3119
    1MPD1    H714047   4.427   3.916  16.933 -1.2365 -0.1408 -0.9041
    2MPD1     C14048   1.017   3.163  17.092  0.2711 -0.6174  0.1068
    2MPD1    C114049   0.993   3.141  16.956  0.2857 -0.4664  0.1980
    2MPD1    C214050   0.870   3.171  16.905  0.2314 -0.4384 -0.1151
    2MPD1    C314051   0.765   3.215  16.987  0.2407 -0.6796  0.5892
    2MPD1    C414052   0.784   3.244  17.117 -0.1678 -0.2085 -0.2619
    2MPD1    C514053   0.908   3.207  17.174 -0.2792 -0.0847 -0.2526
    2MPD1     H14054   0.842   3.163  16.800 -0.7455 -0.4086  0.1456
    2MPD1    H114055   0.701   3.257  17.185  0.7210 -0.1742  0.8125
    2MPD1    H214056   1.116   3.147  17.134  1.2128 -0.3126 -1.9482
    2MPD1    H314057   0.924   3.207  17.281 -1.3506 -0.2989 -0.0886
    2MPD1     N14058   0.646   3.239  16.916  0.3123 -0.2786 -0.0798
    2MPD1    H514059   0.649   3.231  16.815 -1.2048 -0.1684 -0.1267
    2MPD1    N114060   1.106   3.100  16.886  0.4053 -0.1035 -0.2955
    2MPD1    H614061   1.086   3.081  16.788 -0.2105 -0.0735 -0.1792
    2MPD1    H714062   1.145   3.020  16.934  0.8369  0.8823  0.9911
    3TMC3    C114063   0.419   3.270  16.886  0.2995 -0.3566  0.4581
    3TMC3    C214064   0.438   3.244  16.752  0.2282 -0.1671 -0.1371
    3TMC3    C314065   0.342   3.291  16.667  0.3042  0.1762 -0.9657
    3TMC3    C414066   0.304   3.323  16.933  0.1977 -0.2873 -0.5577
    3TMC3    C514067   0.215   3.362  16.838 -0.1847 -0.4275  0.7036
    3TMC3    C614068   0.227   3.344  16.704  0.6950  0.1643 -0.0537
    3TMC3     C14069   0.523   3.252  16.980  0.2545 -0.1869  0.2339
    3TMC3     O14070   0.491   3.261  17.101 -0.7159 -0.1634  0.3186
    3TMC3     H14071   0.531   3.202  16.714 -0.1578 -0.9815 -0.1952
    3TMC3    H114072   0.279   3.311  17.037  3.0655  2.2635  0.4268
    3TMC3    H214073   0.151   3.372  16.632  0.5305  2.1219  0.8737
    3TMC3    C714074   0.101   3.451  16.871  0.1342  0.3587  0.4270
    3TMC3    C814075   0.340   3.234  16.526 -0.2569  0.0475  0.0950
    3TMC3    O114076   0.005   3.447  16.796 -0.0484  0.2987  0.0076
    3TMC3    O214077   0.251   3.269  16.451 -0.0582 -0.6316  0.0863
    4MPD1     C14078   0.474   2.927  16.155 -0.0227  0.1628 -0.2317
    4MPD1    C114079   0.589   2.949  16.226 -0.2490 -0.2756 -0.4482
    4MPD1    C214080   0.571   3.021  16.346  0.0633 -0.2197 -0.2914
    4MPD1    C314081   0.452   3.078  16.381  0.7417 -0.0855 -1.1442
    4MPD1    C414082   0.336   3.046  16.308  0.4941  0.1723 -0.0510
    4MPD1    C514083   0.350   2.968  16.203 -0.0934  0.1672 -0.1867
    4MPD1     H14084   0.651   3.044  16.415  0.1166  0.7818 -0.6836
    4MPD1    H114085   0.235   3.071  16.338  1.1601  1.4298  1.1512
    4MPD1    H214086   0.472   2.866  16.065 -0.0168 -0.7370  0.3774
    4MPD1    H314087   0.261   2.942  16.146  0.9948 -0.1993 -1.7237
    4MPD1     N14088   0.455   3.162  16.496 -0.0077  0.2001  0.2656
    4MPD1    H514089   0.544   3.170  16.544  0.0689 -3.6995  0.7914
    4MPD1    N114090   0.704   2.880  16.186 -0.1674  0.5150  0.0202
    4MPD1    H614091   0.701   2.862  16.086  1.0682  2.1288 -0.3274
    4MPD1    H714092   0.775   2.946  16.219  1.4733 -0.2247 -2.0675
    1TCq1    O114093   1.771   2.335  11.407  0.0872  0.0314 -0.1029
    1TCq1    C114094   1.667   2.336  11.325 -0.4362 -0.2211 -0.3628
    1TCq1    O214095   1.679   2.337  11.201  0.2906 -0.1020  0.3318
    1TCq1    C214096   1.546   2.366  11.397  0.7087 -0.9124 -0.1797
    1TCq1    C314097   1.436   2.310  11.333  0.8452  0.0485  0.4957
    1TCq1    C414098   1.315   2.330  11.387  0.6163 -0.5737  0.3811
    1TCq1    C514099   1.302   2.404  11.497 -0.3769 -0.6939 -0.6999
    1TCq1    C614100   1.409   2.453  11.567 -0.5445 -0.0285  0.0547
    1TCq1    C714101   1.535   2.434  11.522 -0.1863  0.2578 -0.3224
    1TCq1    C814102   1.391   2.514  11.700 -0.9141  0.5336 -0.0246
    1TCq1    O414103   1.493   2.555  11.754  0.2669  0.0603 -0.4716
    1TCq1    C914104   1.190   2.303  11.312 -0.4543 -0.0505 -0.6647
    1TCq1    O514105   1.198   2.202  11.234 -0.0391 -0.0084  0.6650
    1TCq1    O614106   1.086   2.363  11.347 -0.2663 -0.2664  0.0545
    1TCq1    H114107   1.742   2.331  11.500  0.4718  3.2756  0.1873
    1TCq1    H214108   1.439   2.282  11.229  1.0815  2.3441 -0.0968
    1TCq1    H314109   1.202   2.424  11.534  0.6544 -1.5998  2.5036
    1TCq1    H414110   1.626   2.456  11.576  0.0702  3.6174 -2.1404
    2MPD1     C14111   1.104   2.634  12.110  0.1073 -0.3759 -0.0108
    2MPD1    C114112   1.018   2.579  12.012  0.6479 -0.3913  0.6907
    2MPD1    C214113   1.075   2.543  11.889 -0.2357  0.0799  0.3970
    2MPD1    C314114   1.207   2.556  11.871 -0.6460  0.3249 -0.9295
    2MPD1    C414115   1.288   2.616  11.970 -0.2066  0.0982  0.6740
    2MPD1    C514116   1.236   2.648  12.087  0.2504  0.0851  0.5138
    2MPD1     H14117   1.005   2.515  11.812 -0.2345  0.3480  0.3008
    2MPD1    H114118   1.395   2.625  11.955 -0.0210 -1.2299  1.1725
    2MPD1    H214119   1.066   2.655  12.209 -1.0373 -0.6647 -0.3984
    2MPD1    H314120   1.307   2.688  12.159 -1.5780 -1.7213  3.2965
    2MPD1     N14121   1.257   2.517  11.744  0.1911  0.0809  0.3103
    2MPD1    H514122   1.183   2.490  11.680  0.2235  0.3213  0.1715
    2MPD1    N114123   0.883   2.575  12.032  0.4832 -0.1330  0.4207
    2MPD1    H614124   0.840   2.497  11.982 -2.1551  1.6656 -0.0990
    2MPD1    H714125   0.857   2.562  12.130 -1.0998  0.3153  0.0521
    1TMC1    C114126   2.978   2.481  17.468 -0.0046 -0.1574  0.1715
    1TMC1    C214127   3.089   2.404  17.496 -0.7739  0.3820  0.2056
    1TMC1    C314128   3.207   2.468  17.527 -0.2319  0.2932  0.1961
    1TMC1    C414129   2.979   2.614  17.484 -0.8981 -0.9491 -0.3036
    1TMC1    C514130   3.101   2.669  17.513 -0.7334  0.1954 -0.4543
    1TMC1    C614131   3.217   2.603  17.530  0.0694 -0.1215 -0.3696
    1TMC1     C14132   2.854   2.414  17.451  0.9198  0.0060  0.2745
    1TMC1     O14133   2.841   2.317  17.525 -0.2327  0.7631 -0.0002
    1TMC1     H14134   3.072   2.297  17.486 -0.8949  0.1210  3.3448
    1TMC1    H114135   2.891   2.676  17.478 -1.5185 -1.8662 -0.6181
    1TMC1    H214136   3.310   2.652  17.555 -0.4375 -0.1716  1.5785
    1TMC1    C714137   3.116   2.807  17.486  0.3008  0.3888  0.5336
    1TMC1    C814138   3.328   2.405  17.560  0.0476 -0.2593 -0.1737
    1TMC1    O114139   3.040   2.889  17.536  0.0795  0.4694 -0.0097
    1TMC1    O214140   3.427   2.465  17.596  0.2028 -0.2766  0.4292
    1TMC1    O314141   3.232   2.822  17.423 -0.1904 -0.6907  1.1472
    1TMC1    H314142   3.264   2.740  17.380 -1.9338 -1.0616  0.5564
    1TMC1    O514143   3.325   2.273  17.529 -0.2562  0.9046  0.2478
    1TMC1    H514144   3.237   2.231  17.524  0.5836 -0.2649 -4.8305
    2MPD1     C14145   2.354   2.491  17.376 -0.2675 -0.4453 -0.0613
    2MPD1    C114146   2.421   2.598  17.315  0.5620 -0.4511  0.8602
    2MPD1    C214147   2.560   2.586  17.311 -0.2534  0.9179 -0.2319
    2MPD1    C314148   2.631   2.491  17.384  0.0115 -0.3243 -0.1511
    2MPD1    C414149   2.558   2.392  17.450 -0.2500  0.1404  0.5011
    2MPD1    C514150   2.419   2.395  17.445 -0.1987  0.3443  0.2155
    2MPD1     H14151   2.620   2.656  17.255  2.0028 -0.2062  0.7747
    2MPD1    H114152   2.607   2.311  17.503 -0.5164  0.6549  1.5329
    2MPD1    H214153   2.247   2.480  17.366 -0.2874  1.9078 -2.4946
    2MPD1    H314154   2.370   2.320  17.507 -0.7408  0.7516  0.2764
    2MPD1     N14155   2.769   2.500  17.379 -0.0287  0.3682 -0.4382
    2MPD1    H514156   2.801   2.581  17.327  0.5807 -0.3942 -1.2651
    2MPD1    N114157   2.348   2.696  17.250 -0.0508  0.0714  0.8787
    2MPD1    H614158   2.403   2.781  17.258 -0.3847  0.3117  0.6387
    2MPD1    H714159   2.262   2.717  17.301  0.0178 -0.0534  1.0440
    1MPD1     C14160   2.693   2.866  11.184  0.5615 -0.1189  0.4819
    1MPD1    C114161   2.788   2.960  11.201  0.0584  0.4439 -0.3211
    1MPD1    C214162   2.857   2.964  11.323  0.3814  0.0956  0.0802
    1MPD1    C314163   2.838   2.860  11.410  0.1308 -0.0622  0.2433
    1MPD1    C414164   2.748   2.756  11.388 -0.0953 -0.1441 -0.6991
    1MPD1    C514165   2.659   2.772  11.279 -0.1057  0.2823  0.8222
    1MPD1     H14166   2.932   3.037  11.348 -0.8779  1.5323 -0.3367
    1MPD1    H114167   2.723   2.678  11.459  2.5699  0.0355  0.4321
    1MPD1    H214168   2.639   2.865  11.091 -2.2945  2.3246  2.1380
    1MPD1    H314169   2.576   2.703  11.269  0.9644 -0.6725 -1.4678
    1MPD1     N14170   2.913   2.863  11.531 -1.0852 -0.5178 -0.0129
    1MPD1    H514171   2.970   2.943  11.553 -2.3572  1.2740 -3.2527
    1MPD1    N114172   2.798   3.071  11.117  0.1072 -0.1051 -0.4405
    1MPD1    H614173   2.888   3.115  11.132 -0.1985 -0.3150  1.9494
    1MPD1    H714174   2.795   3.046  11.018  0.9085  0.2783 -0.5641
    2MPD1     C14175   2.308   3.159  10.947 -0.0211 -0.1178 -0.5512
    2MPD1    C114176   2.430   3.209  10.919  0.1501  0.2381  0.0852
    2MPD1    C214177   2.522   3.118  10.876  0.3439  0.1609 -0.2124
    2MPD1    C314178   2.501   2.979  10.875 -0.3305 -0.0055 -0.1521
    2MPD1    C414179   2.378   2.937  10.914  0.0048  0.4574  0.6408
    2MPD1    C514180   2.278   3.026  10.938  0.3341  0.7868 -0.1368
    2MPD1     H14181   2.623   3.153  10.864 -0.1051  1.8682  0.8638
    2MPD1    H114182   2.340   2.836  10.919  1.4124 -0.1414 -0.9240
    2MPD1    H214183   2.226   3.220  10.984 -1.4194 -1.9645 -0.6055
    2MPD1    H314184   2.182   2.986  10.967  1.4544 -0.2091  2.1881
    2MPD1     N14185   2.603   2.882  10.838 -0.4025  0.4484  0.0680
    2MPD1    H514186   2.568   2.787  10.838 -1.5799  0.8778 -1.3466
    2MPD1    N114187   2.465   3.346  10.933 -0.3156 -0.2968 -0.5268
    2MPD1    H614188   2.562   3.373  10.928 -0.7124  1.0642 -0.8815
    2MPD1    H714189   2.421   3.401  11.006 -1.0180 -1.6691  0.0897
    3MPD1     C14190   2.344   2.200  10.516 -0.5207 -0.9379 -0.5298
    3MPD1    C114191   2.311   2.280  10.620 -0.5128 -0.1209 -0.2057
    3MPD1    C214192   2.413   2.356  10.674 -0.1243 -0.2781  0.1675
    3MPD1    C314193   2.549   2.345  10.644  0.4641  0.0591  0.1710
    3MPD1    C414194   2.579   2.264  10.544  0.3622  0.0564 -0.1358
    3MPD1    C514195   2.474   2.196  10.478  0.2306 -0.2540 -0.7876
    3MPD1     H14196   2.388   2.422  10.756 -1.6776 -0.4600 -0.1720
    3MPD1    H114197   2.681   2.257  10.506  0.9109 -2.6764  1.7907
    3MPD1    H214198   2.269   2.136  10.473 -0.3070 -1.1730 -0.5525
    3MPD1    H314199   2.497   2.132  10.393  0.0748 -2.0933  0.5350
    3MPD1     N14200   2.637   2.437  10.705 -0.0410  0.0988 -0.1138
    3MPD1    H514201   2.589   2.503  10.765  0.4858 -0.4056  0.8522
    3MPD1    N114202   2.180   2.281  10.666 -0.0117 -0.1439 -0.3223
    3MPD1    H614203   2.167   2.300  10.766  1.3361 -1.4060  0.0870
    3MPD1    H714204   2.132   2.192  10.657 -0.0875 -0.2870  1.4789
    4MPD2     C14205   3.375   3.235  11.653  0.2108 -0.5584  0.9195
    4MPD2    C114206   3.389   3.097  11.655 -0.5198  0.3867 -0.0831
    4MPD2    C214207   3.482   3.035  11.571 -0.2084 -0.2902 -0.1562
    4MPD2    C314208   3.551   3.111  11.474  0.4639 -0.2974 -0.0398
    4MPD2    C414209   3.532   3.251  11.465 -0.7850  0.2475  0.3402
    4MPD2    C514210   3.449   3.307  11.563  0.5439 -0.0610  0.7008
    4MPD2     H14211   3.488   2.929  11.588  1.7638 -0.4339 -1.8516
    4MPD2    H114212   3.580   3.306  11.385 -2.2140 -0.8970 -1.2976
    4MPD2    H214213   3.299   3.285  11.711 -2.5027 -1.1733 -2.0880
    4MPD2    H314214   3.429   3.413  11.551  0.2666 -0.0853  0.9422
    4MPD2     N14215   3.644   3.053  11.388  0.0076  0.0562 -0.1931
    4MPD2    H514216   3.681   3.104  11.309  0.6205 -1.5586 -0.9509
    4MPD2    N114217   3.315   3.019  11.747 -0.7793  0.0490 -0.5523
    4MPD2    H714218   3.342   2.921  11.744  0.7653  0.5292 -1.9390
    5TMC3    C114219   3.141   2.926  11.862  0.4716 -0.1665  0.5669
    5TMC3    C214220   3.038   2.912  11.774 -0.3080 -0.2850 -0.4934
    5TMC3    C314221   3.023   2.791  11.725 -0.1562 -0.4836  0.3591
    5TMC3    C414222   3.232   2.830  11.895 -0.0392  0.3373  0.3163
    5TMC3    C514223   3.212   2.706  11.839 -0.1362 -0.8186  0.4541
    5TMC3    C614224   3.108   2.685  11.759 -0.3982  0.1767 -0.1928
    5TMC3     C14225   3.206   3.053  11.820 -0.4799 -0.4155 -0.0957
    5TMC3     O14226   3.142   3.154  11.824  0.4731  0.1198 -0.3534
    5TMC3     H14227   2.979   2.996  11.740 -0.1396  0.0291 -0.0232
    5TMC3    H114228   3.314   2.863  11.958  0.4779  0.8475 -0.6177
    5TMC3    H214229   3.096   2.593  11.704 -2.5985  0.9663 -1.0527
    5TMC3    C714230   3.349   2.671  11.794 -0.0908  0.4233 -0.3618
    5TMC3    C814231   2.938   2.758  11.613  0.1378  0.2752 -0.5059
    5TMC3    O114232   3.430   2.761  11.796 -0.1396  0.0427  0.0434
    5TMC3    O214233   2.898   2.646  11.599  0.6812  0.2337  0.2747
    6TMC3    C114234   2.815   2.787  10.791  0.2556 -0.1482  0.0209
    6TMC3    C214235   2.749   2.675  10.748  0.2610  0.4067  0.4463
    6TMC3    C314236   2.829   2.561  10.737 -0.3574  0.0177 -0.1339
    6TMC3    C414237   2.955   2.793  10.814 -0.1335 -0.3477  0.6484
    6TMC3    C514238   3.020   2.674  10.815 -0.0259  0.1195 -0.1332
    6TMC3    C614239   2.959   2.562  10.759 -0.1019  0.7628 -0.0336
    6TMC3     C14240   2.738   2.907  10.812 -0.3019 -0.0536  0.8900
    6TMC3     O14241   2.804   3.008  10.804  0.2406 -0.4316  0.2358
    6TMC3     H14242   2.648   2.686  10.710  1.2600 -0.9046 -2.6163
    6TMC3    H114243   2.989   2.886  10.857 -0.0784 -1.6110  3.3757
    6TMC3    H214244   3.015   2.470  10.754 -1.2465 -0.2138  4.6861
    6TMC3    C714245   3.168   2.688  10.838 -0.4634 -0.3483  0.0693
    6TMC3    C814246   2.770   2.441  10.682  0.9794 -0.4167  0.0367
    6TMC3    O114247   3.212   2.794  10.872  0.3448 -0.1535 -0.2929
    6TMC3    O214248   2.843   2.372  10.609  0.4511  0.2893  0.1590
    7MPD2     C14249   3.672   2.376  11.540  0.7619  0.2349  0.2643
    7MPD2    C114250   3.657   2.508  11.534 -0.4158 -0.8850 -0.1248
    7MPD2    C214251   3.563   2.574  11.622  0.1539  0.1356 -0.6845
    7MPD2    C314252   3.468   2.496  11.689  0.6159  0.2999 -0.1670
    7MPD2    C414253   3.484   2.360  11.686 -0.7531 -0.1925  0.2631
    7MPD2    C514254   3.582   2.302  11.615 -0.0304 -0.7197  0.6014
    7MPD2     H14255   3.546   2.679  11.601  0.3411  0.5480  1.1585
    7MPD2    H114256   3.405   2.288  11.706 -0.4342 -0.6243 -0.0352
    7MPD2    H214257   3.748   2.324  11.483  0.4778 -0.4905  0.5485
    7MPD2    H314258   3.576   2.195  11.598 -0.1055 -0.2047 -2.5087
    7MPD2     N14259   3.355   2.540  11.747 -0.3805 -0.0474  0.1427
    7MPD2    H514260   3.285   2.473  11.779  1.2736 -1.3881  0.9347
    7MPD2    N114261   3.741   2.591  11.456 -0.0550 -0.3809 -0.0793
    7MPD2    H714262   3.738   2.691  11.474  1.1630 -0.3325 -0.1818
    8TMC3    C114263   3.864   2.663  11.279 -0.2140 -0.4672  0.2173
    8TMC3    C214264   3.821   2.678  11.150 -0.0923 -0.0279  0.3532
    8TMC3    C314265   3.763   2.793  11.109 -0.1915  0.0329  0.2207
    8TMC3    C414266   3.869   2.772  11.363  0.4940 -0.0112  0.8082
    8TMC3    C514267   3.791   2.882  11.326 -0.2228  0.6776 -0.5391
    8TMC3    C614268   3.750   2.894  11.194 -0.0273  0.2747  0.3016
    8TMC3     C14269   3.820   2.543  11.348 -0.5390 -0.2976 -0.3790
    8TMC3     O14270   3.842   2.434  11.302  0.0507  0.4770 -0.2297
    8TMC3     H14271   3.805   2.591  11.087  0.1911 -1.3983  2.1694
    8TMC3    H114272   3.923   2.772  11.458  0.3699  1.2271  0.8867
    8TMC3    H214273   3.696   2.984  11.166  0.2442  0.6390  0.9480
    8TMC3    C714274   3.716   2.947  11.432  0.5631  0.4592 -0.6619
    8TMC3    C814275   3.679   2.799  10.993 -0.3351  0.1400  0.2308
    8TMC3    O114276   3.716   2.896  11.542 -1.1194  0.2534  0.8822
    8TMC3    O214277   3.573   2.862  11.009 -0.1894 -0.2259 -0.2365
    9MPD2     C14278   3.650   2.553  10.718 -0.2513  0.3821  0.1109
    9MPD2    C114279   3.604   2.639  10.816 -0.5019 -0.0864  0.1634
    9MPD2    C214280   3.463   2.654  10.829 -0.0213  0.2768  0.2888
    9MPD2    C314281   3.376   2.580  10.750  0.4690 -0.5918 -0.1383
    9MPD2    C414282   3.428   2.494  10.653  0.1562 -0.2789 -0.2075
    9MPD2    C514283   3.569   2.480  10.643  0.1833 -0.1747  0.0384
    9MPD2     H14284   3.431   2.721  10.908 -1.5932 -0.0394 -0.0799
    9MPD2    H114285   3.368   2.420  10.601  1.3361 -1.2643 -0.1528
    9MPD2    H214286   3.755   2.527  10.709 -0.3276 -0.0186  0.3903
    9MPD2    H314287   3.614   2.397  10.588  1.2672  1.1077 -0.9984
    9MPD2     N14288   3.235   2.596  10.766  0.2655  0.1196  0.0233
    9MPD2    H514289   3.183   2.536  10.702 -0.4659  1.1192 -0.3240
    9MPD2    N114290   3.708   2.701  10.893 -0.0798 -0.3058  0.4785
    9MPD2    H714291   3.804   2.670  10.879 -0.3151 -1.9878  2.4861
    1MPD1     C14292   2.188   1.350  16.334 -0.3824  0.2829 -0.6649
    1MPD1    C114293   2.087   1.437  16.363  0.8957 -0.5086  0.2626
    1MPD1    C214294   1.978   1.445  16.284  0.4618 -0.4147  0.8789
    1MPD1    C314295   1.959   1.359  16.179  1.0567  0.3627 -0.1613
    1MPD1    C414296   2.062   1.279  16.143  0.6555  0.8749 -0.1136
    1MPD1    C514297   2.170   1.269  16.225 -0.2757  0.0004  0.2736
    1MPD1     H14298   1.899   1.508  16.323 -0.2269 -0.5529 -0.2922
    1MPD1    H114299   2.058   1.218  16.053 -0.5342 -2.9477  2.5333
    1MPD1    H214300   2.286   1.335  16.379 -1.4585 -1.7026  1.0059
    1MPD1    H314301   2.253   1.220  16.175  0.6122  0.3852  1.3798
    1MPD1     N14302   1.839   1.350  16.109 -0.2041  0.3606  0.3053
    1MPD1    H514303   1.844   1.293  16.026  0.4770  0.0721  0.5492
    1MPD1    N114304   2.103   1.527  16.467 -0.6105  0.3322  0.1851
    1MPD1    H614305   2.177   1.488  16.525 -0.9692 -2.4942 -1.2082
    1MPD1    H714306   2.022   1.571  16.511 -1.2545  0.2846 -0.9365
    2TMC2    C114307   1.395   1.305  16.054  0.6678  0.6819 -0.3186
    2TMC2    C214308   1.408   1.258  15.923 -0.1128  0.3532  0.3393
    2TMC2    C314309   1.540   1.266  15.874 -0.1221  0.0021  0.3077
    2TMC2    C414310   1.497   1.368  16.119 -0.3996 -0.3326 -0.0575
    2TMC2    C514311   1.618   1.368  16.061 -0.0810  0.4059  0.0146
    2TMC2    C614312   1.649   1.318  15.938  0.2311 -0.2205  0.5931
    2TMC2     C14313   1.274   1.363  16.081  0.3257  0.0193 -0.7792
    2TMC2     O14314   1.214   1.410  15.983  0.2673 -0.0400  0.9887
    2TMC2     H14315   1.327   1.202  15.878  0.2996  0.1728 -0.1917
    2TMC2    H114316   1.482   1.401  16.221 -0.8657 -2.1461  0.4649
    2TMC2    H214317   1.745   1.332  15.890 -0.9131 -1.0439 -1.9346
    2TMC2    C714318   1.723   1.404  16.153 -0.0235  0.3813 -0.0140
    2TMC2    C814319   1.560   1.230  15.733 -0.1593 -0.2887 -0.4269
    2TMC2    O114320   1.689   1.464  16.255  0.4078  0.5374  0.0556
    2TMC2    O214321   1.665   1.253  15.673 -0.1397 -0.1258 -0.2486
    2TMC2    O514322   1.443   1.197  15.680 -0.4717  0.0444  0.1274
    2TMC2    H514323   1.413   1.132  15.748 -2.3593  1.2874  0.4572
    3MPD1     C14324   0.981   1.620  16.421  0.1448  0.0088  0.8923
    3MPD1    C114325   1.057   1.531  16.492 -0.4143 -0.3988 -0.5498
    3MPD1    C214326   1.148   1.456  16.415 -0.3825  0.2164 -0.3592
    3MPD1    C314327   1.146   1.456  16.279  0.4913  0.2873  0.0742
    3MPD1    C414328   1.056   1.533  16.209  0.3359  0.1579 -0.1711
    3MPD1    C514329   0.978   1.620  16.283 -0.0697  0.4270  0.0832
    3MPD1     H14330   1.232   1.404  16.459 -0.8021  2.1869  2.7651
    3MPD1    H114331   1.034   1.520  16.104  0.7700 -1.5249 -0.0448
    3MPD1    H214332   0.905   1.679  16.470 -1.7576 -0.0015 -2.0495
    3MPD1    H314333   0.895   1.670  16.236 -0.4037  2.0243  2.4370
    3MPD1     N14334   1.241   1.374  16.212  0.3690  0.1358 -0.2154
    3MPD1    H514335   1.291   1.308  16.272  0.8673  0.9753  0.2917
    3MPD1    N114336   1.068   1.547  16.628 -0.3291  0.4359 -0.0553
    3MPD1    H614337   1.113   1.468  16.674 -1.1780  0.2390  0.4343
    3MPD1    H714338   0.985   1.572  16.683 -0.0829 -0.8255  0.8832
    1TMC1    C114339   0.518   0.680  12.849 -0.6043 -0.3630 -0.1176
    1TMC1    C214340   0.385   0.682  12.811 -0.4606 -0.0529 -0.0325
    1TMC1    C314341   0.341   0.574  12.749 -0.0209 -0.3709  0.0295
    1TMC1    C414342   0.603   0.579  12.805 -0.5404 -0.0097  0.3487
    1TMC1    C514343   0.552   0.475  12.742 -0.6061 -0.0464  0.3492
    1TMC1    C614344   0.417   0.466  12.707  0.1475  0.8229  0.1430
    1TMC1     C14345   0.567   0.800  12.917  0.1777 -0.3339 -0.0903
    1TMC1     O14346   0.520   0.915  12.903 -0.6258  0.1485 -0.9680
    1TMC1     H14347   0.315   0.754  12.853 -1.2684 -1.0972  0.4233
    1TMC1    H114348   0.707   0.584  12.832 -0.2232 -0.9110 -0.7221
    1TMC1    H214349   0.369   0.380  12.663  0.5986 -0.6141  2.4759
    1TMC1    C714350   0.633   0.362  12.705  0.1871 -0.2306  0.1990
    1TMC1    C814351   0.193   0.543  12.765 -0.0464  0.3717  0.6028
    1TMC1    O114352   0.597   0.249  12.689 -0.1206 -0.0966  0.2610
    1TMC1    O214353   0.096   0.619  12.754  0.1547  0.2327 -0.3134
    1TMC1    O314354   0.760   0.411  12.690  0.1651  0.2800 -0.0418
    1TMC1    H314355   0.758   0.508  12.677 -1.0256  0.3611  0.7790
    1TMC1    O514356   0.198   0.445  12.855 -0.4190  0.0909  0.3204
    1TMC1    H514357   0.283   0.409  12.889 -0.6313  1.1176  1.9203
    2MPD2     C14358   0.730   1.005  13.065 -0.1756 -0.4248  0.6919
    2MPD2    C114359   0.757   0.866  13.067 -0.2593  0.2503 -0.4558
    2MPD2    C214360   0.867   0.817  13.139 -0.1146  0.1107 -0.0690
    2MPD2    C314361   0.953   0.900  13.210 -0.3503 -0.1480 -0.2774
    2MPD2    C414362   0.919   1.036  13.216 -0.2410  0.4529  0.4087
    2MPD2    C514363   0.817   1.084  13.137  0.1539 -0.3750  0.0687
    2MPD2     H14364   0.886   0.711  13.147 -0.6690  0.2127  2.5488
    2MPD2    H114365   0.974   1.113  13.270  0.1368  1.1398 -0.9619
    2MPD2    H214366   0.653   1.052  13.005 -0.4297  1.2865  2.3784
    2MPD2    H314367   0.799   1.191  13.130 -2.2957 -1.0325 -3.4351
    2MPD2     N14368   1.049   0.832  13.293  0.3889  0.1731 -0.1730
    2MPD2    H514369   1.067   0.733  13.284 -0.2178  0.1515 -1.1132
    2MPD2    N114370   0.676   0.776  12.990  0.5609 -0.3033  0.6674
    2MPD2    H714371   0.709   0.680  12.999 -1.2304 -1.0301 -0.4968
    3TCq1    O114372   0.900   0.613  13.689 -0.0845  0.2906  0.0853
    3TCq1    C114373   1.018   0.559  13.713  0.1892  0.3831 -0.2271
    3TCq1    O214374   1.039   0.441  13.735 -0.3453 -0.4297 -0.4809
    3TCq1    C214375   1.115   0.648  13.657 -0.3215 -0.3224  0.0987
    3TCq1    C314376   1.244   0.649  13.700  0.6192 -1.3087 -0.1093
    3TCq1    C414377   1.343   0.706  13.622  0.1236 -0.3269  0.1091
    3TCq1    C514378   1.308   0.781  13.514 -0.3533 -0.0461  0.5659
    3TCq1    C614379   1.175   0.791  13.482  0.2268 -0.0312  0.0750
    3TCq1    C714380   1.070   0.722  13.545  0.2068 -0.4043 -0.2017
    3TCq1    C814381   1.137   0.888  13.374 -0.2419  0.0634 -0.5282
    3TCq1    O414382   1.158   1.008  13.393  0.4050  0.1800 -0.0659
    3TCq1    C914383   1.488   0.682  13.654 -0.0284 -0.7994 -0.3555
    3TCq1    O514384   1.571   0.717  13.566  0.6774  0.2134 -0.6213
    3TCq1    O614385   1.508   0.615  13.759  0.0123  0.5310  0.5371
    3TCq1    H114386   0.896   0.710  13.702 -1.7673  0.2735 -0.2511
    3TCq1    H214387   1.274   0.595  13.789 -0.6643 -2.1988 -0.2265
    3TCq1    H314388   1.382   0.839  13.460 -1.3950  1.4265  0.7123
    3TCq1    H414389   0.970   0.724  13.503 -0.0995 -0.4547  0.5129
    1MPD2     C14390   0.425   2.052  14.919  0.1114  0.3236 -0.6911
    1MPD2    C114391   0.293   2.008  14.921  0.2360  0.0799 -0.3619
    1MPD2    C214392   0.270   1.870  14.940 -0.2761  0.6752 -0.6281
    1MPD2    C314393   0.369   1.782  14.967 -0.0181  0.2851 -0.3185
    1MPD2    C414394   0.494   1.831  14.974  0.4237  0.3652 -0.4337
    1MPD2    C514395   0.522   1.961  14.937 -0.1589  0.5033  0.5268
    1MPD2     H14396   0.172   1.826  14.951 -1.0522  2.4591 -0.3551
    1MPD2    H114397   0.580   1.766  14.983 -0.2391 -0.6629 -1.5478
    1MPD2    H214398   0.451   2.155  14.897  2.1091  0.3311  1.6003
    1MPD2    H314399   0.624   1.997  14.929 -0.1981  0.9179  1.8925
    1MPD2     N14400   0.355   1.642  14.983 -0.6118  0.5514 -0.2007
    1MPD2    H514401   0.433   1.586  15.016  0.3143  1.1034 -1.4592
    1MPD2    N114402   0.191   2.103  14.887 -0.0294 -0.1510  0.1063
    1MPD2    H714403   0.217   2.199  14.866 -0.9633  0.0682 -0.0620
    2TMC3    C114404   4.705   2.182  14.822 -0.2643 -1.5393 -0.0748
    2TMC3    C214405   4.578   2.127  14.823  0.2467 -0.1833  1.4016
    2TMC3    C314406   4.499   2.115  14.716 -0.8219  0.5193  0.5726
    2TMC3    C414407   0.007   2.247  14.704 -0.3578  0.3544  0.2296
    2TMC3    C514408   4.661   2.234  14.592  0.0341  0.2557  0.1401
    2TMC3    C614409   4.539   2.172  14.597 -0.4958  0.6559  0.2580
    2TMC3     C14410   0.057   2.070  14.868  0.7070  0.3340 -0.5828
    2TMC3     O14411   4.733   1.962  14.869  0.3437 -0.3885  0.2859
    2TMC3     H14412   4.533   2.091  14.915 -2.1613  0.6363  0.5342
    2TMC3    H114413   0.099   2.304  14.698 -0.7515  0.9510 -0.1299
    2TMC3    H214414   4.490   2.145  14.504  1.2528  2.3999 -1.1697
    2TMC3    C714415   4.648   2.351  14.516  0.1716  0.4121  0.8601
    2TMC3    C814416   4.425   1.988  14.705  0.3093  0.7596  0.4989
    2TMC3    O114417   4.534   2.385  14.500  0.5558  0.5146 -0.1386
    2TMC3    O214418   4.330   1.986  14.628 -0.2594 -0.3446  0.5838
    3TCq1    O114419   0.823   2.890  13.980  0.0025  0.1727 -0.3054
    3TCq1    C114420   0.708   2.957  13.972 -0.2663 -0.1758  0.0672
    3TCq1    O214421   0.640   2.975  13.870  0.8531  0.2565  0.4415
    3TCq1    C214422   0.653   2.956  14.103  1.1187  0.0185 -0.4120
    3TCq1    C314423   0.738   2.944  14.211 -0.3559 -0.2793  0.1991
    3TCq1    C414424   0.678   2.919  14.332 -0.3843 -0.0688 -0.1819
    3TCq1    C514425   0.542   2.901  14.352  0.0230  1.1277 -0.4884
    3TCq1    C614426   0.467   2.912  14.235  1.0078  0.4516 -0.2316
    3TCq1    C714427   0.515   2.936  14.111  0.0816  0.0882  0.5540
    3TCq1    C814428   0.327   2.875  14.243  0.5031  0.1232  0.2155
    3TCq1    O414429   0.269   2.901  14.137 -0.2512  0.0117  0.1238
    3TCq1    C914430   0.757   2.923  14.445 -0.3301 -0.2661  0.0398
    3TCq1    O514431   0.883   2.939  14.425  0.3233  0.4018  0.0211
    3TCq1    O614432   0.700   2.880  14.552  0.4017 -0.6251  0.7926
    3TCq1    H114433   0.851   2.858  14.068  1.9664 -0.8135 -1.2824
    3TCq1    H214434   0.842   2.974  14.209 -0.3601 -0.3305 -0.8656
    3TCq1    H314435   0.495   2.879  14.447  2.0733  0.8576  0.4510
    3TCq1    H414436   0.459   2.915  14.021  0.8563 -3.1840  0.8241
    4MPD2     C14437   0.056   2.785  14.301  0.6934  0.0564  0.1963
    4MPD2    C114438   0.175   2.713  14.344  0.9388 -0.2518  0.2419
    4MPD2    C214439   0.162   2.601  14.418 -0.4042  1.1755 -0.2136
    4MPD2    C314440   0.037   2.545  14.434  0.5052 -0.1742  0.2557
    4MPD2    C414441   4.661   2.605  14.385  0.6752 -0.3871 -0.1806
    4MPD2    C514442   4.666   2.721  14.315  0.1110 -0.0585 -0.0272
    4MPD2     H14443   0.241   2.559  14.479 -2.3331 -0.6520  1.0468
    4MPD2    H114444   4.559   2.580  14.413  1.4269 -2.2319  0.9408
    4MPD2    H214445   0.063   2.878  14.247  0.9775  0.2983  0.6547
    4MPD2    H314446   4.573   2.771  14.291  0.4961  0.0426 -1.3062
    4MPD2     N14447   0.030   2.427  14.508  0.3478  0.3097  0.0299
    4MPD2    H514448   0.119   2.388  14.535 -0.9023 -3.1783 -0.9295
    4MPD2    N114449   0.303   2.774  14.331 -0.1644  0.1241 -0.4198
    4MPD2    H714450   0.377   2.746  14.395 -0.1244  0.9917 -0.0890
    5TMC2    C114451   0.035   1.316  14.997 -0.3220  0.1228  0.2873
    5TMC2    C214452   0.059   1.287  15.128 -0.3308 -0.4321 -0.7477
    5TMC2    C314453   0.180   1.321  15.181 -0.2193  0.0066 -0.3755
    5TMC2    C414454   0.126   1.388  14.926  0.1651  0.1139 -0.3927
    5TMC2    C514455   0.238   1.438  14.984  0.2483 -0.7557  0.5850
    5TMC2    C614456   0.276   1.398  15.112  0.6730  0.4510 -0.0658
    5TMC2     C14457   4.629   1.342  14.960  0.1355 -0.2325  0.4156
    5TMC2     O14458   4.539   1.256  14.965 -0.1706  0.0189 -0.1084
    5TMC2     H14459   4.714   1.257  15.196  1.1268  0.3217  1.2614
    5TMC2    H114460   0.082   1.404  14.828  0.4053 -2.3009 -0.8990
    5TMC2    H214461   0.352   1.447  15.171  0.2936  0.2691  0.5701
    5TMC2    C714462   0.239   1.576  14.942  0.2143 -0.5613  0.2063
    5TMC2    C814463   0.207   1.289  15.320  0.4270 -0.3947 -0.0272
    5TMC2    O114464   0.141   1.622  14.893 -0.1267 -0.6026 -0.3216
    5TMC2    O214465   0.298   1.346  15.375  0.3774  0.0188 -0.3415
    5TMC2    O514466   0.153   1.173  15.365  0.0695  0.2402  0.1940
    5TMC2    H514467   0.132   1.127  15.281 -0.3853  2.7501 -1.0643
    6MPD2     C14468   4.311   1.705  14.782 -0.3938  0.0336 -0.5414
    6MPD2    C114469   4.440   1.760  14.801 -0.1047  0.2900 -0.1779
    6MPD2    C214470   4.535   1.674  14.853  0.1262  0.3852  0.3198
    6MPD2    C314471   4.508   1.545  14.881 -0.2065  0.0994  0.4908
    6MPD2    C414472   4.379   1.493  14.867  0.4492  0.4066 -0.0912
    6MPD2    C514473   4.286   1.576  14.804 -0.2836  0.1124 -0.0854
    6MPD2     H14474   4.630   1.720  14.876  0.9489 -0.1376 -2.0286
    6MPD2    H114475   4.338   1.394  14.885  1.6367 -0.0338  0.1669
    6MPD2    H214476   4.228   1.763  14.745 -1.9430 -0.5122  2.0698
    6MPD2    H314477   4.187   1.536  14.783 -0.5336 -0.1004  1.4750
    6MPD2     N14478   4.617   1.473  14.929 -0.2097  0.2391  1.0481
    6MPD2    H514479   4.704   1.524  14.940 -0.1495  0.3112  0.2373
    6MPD2    N114480   4.478   1.890  14.786 -0.0517 -0.0804 -0.6228
    6MPD2    H714481   4.570   1.922  14.814 -0.4944  2.6422 -2.2331
  945NH4     N114482   0.497   2.233  12.103 -0.4137  0.0889  0.9681
  945NH4     H214483   0.519   2.158  12.035  0.8752 -0.9070  2.5054
  945NH4     H314484   0.428   2.203  12.174  0.0090 -1.3390  0.7615
  945NH4     H414485   0.453   2.309  12.047  0.6148  1.2864  1.7922
  945NH4     H514486   0.586   2.261  12.149  1.1203 -0.7125 -1.5448
  946SOD     NA14487   3.653   0.817   9.269 -0.1769  0.2916  0.2515
  947SOD     NA14488   4.659   4.079  14.786  0.1164 -0.4766  0.0510
  948SOD     NA14489   2.544   3.818  13.017 -0.0533  0.2502  0.8496
  949SOD     NA14490   2.162   2.944  16.072 -0.0350  0.3547 -0.1262
  950SOD     NA14491   3.587   0.453   8.051  0.0640  0.0521 -0.0767
  951SOD     NA14492   1.579   2.101  15.932  0.2399  0.2315  0.4805
  952SOD     NA14493   3.145   2.511   3.925 -0.1314  0.1232 -0.1256
  953SOL     OW14494   1.051   0.689  16.799 -0.1392  0.4628  0.0842
  953SOL    HW114495   1.068   0.736  16.880 -2.3467 -0.3739  1.0511
  953SOL    HW214496   0.956   0.703  16.793 -0.0000  0.5569 -2.1884
  954SOL     OW14497   1.236   2.056  14.388  0.3230 -0.1117  0.3120
  954SOL    HW114498   1.239   2.044  14.294 -0.3797 -1.0706  0.4205
  954SOL    HW214499   1.328   2.064  14.414  0.1762 -0.3860  0.9130
  955SOL     OW14500   1.408   2.716   7.408  0.0753 -0.1261 -0.6041
  955SOL    HW114501   1.339   2.743   7.469  0.8382  1.7292 -0.5627
  955SOL    HW214502   1.446   2.639   7.450  1.2733  1.9425  2.0677
  956SOL     OW14503   2.393   1.316  15.019 -0.5859 -0.2166  0.1711
  956SOL    HW114504   2.299   1.304  15.025 -0.5789  0.3696  1.4018
  956SOL    HW214505   2.405   1.405  15.053 -0.2950  0.2937 -1.2554
  957SOL     OW14506   4.269   4.541   7.761 -0.0144 -0.0767  0.1053
  957SOL    HW114507   4.218   4.621   7.752 -0.0980  0.0768  1.8455
  957SOL    HW214508   4.296   4.513   7.674  0.8430  1.5855 -0.1553
  958SOL     OW14509   0.786   0.819  10.259 -0.9498 -0.1236 -1.0156
  958SOL    HW114510   0.741   0.865  10.188 -0.6970 -1.8505 -2.2855
  958SOL    HW214511   0.719   0.757  10.288 -2.0956  1.1903 -0.8791
  959SOL     OW14512   2.482   0.265   7.976 -0.2230 -0.6208  0.0347
  959SOL    HW114513   2.507   0.351   7.943 -2.7664  1.2387  2.9046
  959SOL    HW214514   2.564   0.224   8.004  0.3504  0.1855 -0.4708
  960SOL     OW14515   0.579   1.263   0.997  0.2083  0.4394  0.2091
  960SOL    HW114516   0.543   1.297   0.914  0.5218  3.9782  1.5210
  960SOL    HW214517   0.658   1.312   1.019 -0.4289  1.0747  1.0967
  961SOL     OW14518   0.634   0.071   7.544  0.6030  0.4400  0.1907
  961SOL    HW114519   0.713   0.020   7.562  1.0110  0.5298 -1.3035
  961SOL    HW214520   0.636   0.136   7.615  0.4736 -1.3080  1.7868
  962SOL     OW14521   4.452   0.699  17.671 -0.3623 -0.1401  0.5240
  962SOL    HW114522   4.381   0.698   0.001 -0.4266  2.0009  0.4958
  962SOL    HW214523   4.529   0.707  17.728 -1.2919 -0.0426  1.7747
  963SOL     OW14524   3.814   3.687  12.706 -0.0723 -0.2847  0.7952
  963SOL    HW114525   3.752   3.731  12.765 -0.5035 -0.2074  0.2764
  963SOL    HW214526   3.846   3.762  12.655 -2.6639 -0.0696 -0.5137
  964SOL     OW14527   2.597   4.192   3.780  0.4363 -0.6497  0.1627
  964SOL    HW114528   2.553   4.270   3.816  1.9815 -0.2740  1.2525
  964SOL    HW214529   2.678   4.194   3.831  1.6598 -1.0963 -1.8040
  965SOL     OW14530   3.678   3.538   4.855  0.7978  0.4256 -0.2144
  965SOL    HW114531   3.679   3.576   4.767  2.0303  1.2982  0.1641
  965SOL    HW214532   3.596   3.489   4.851  0.4156  0.9216  1.3675
  966SOL     OW14533   3.918   3.346  16.553 -0.2834  0.2505 -0.3573
  966SOL    HW114534   3.841   3.353  16.609  0.3315  1.9937  0.2696
  966SOL    HW214535   3.911   3.256  16.521 -0.0748  0.5937 -1.3788
  967SOL     OW14536   3.127   0.266   3.323  0.1471 -0.0016  0.0925
  967SOL    HW114537   3.168   0.348   3.349  1.8983 -0.3180 -1.7299
  967SOL    HW214538   3.202   0.207   3.322 -0.1037 -0.3285  0.2374
  968SOL     OW14539   3.199   1.697  14.979 -0.8707  0.0310 -0.2850
  968SOL    HW114540   3.111   1.688  14.942 -0.3346 -1.8267 -1.0763
  968SOL    HW214541   3.180   1.775  15.032  0.1561 -0.7331  1.2113
  969SOL     OW14542   0.430   4.603   4.274  0.0697 -0.6303  0.1818
  969SOL    HW114543   0.501   4.666   4.262 -0.1409 -0.7784 -1.8611
  969SOL    HW214544   0.358   4.652   4.235  0.4302 -0.1672  0.1079
  970SOL     OW14545   0.570   3.868   7.152 -0.0333  0.4751 -0.4818
  970SOL    HW114546   0.484   3.884   7.191 -0.2216 -0.5847 -0.4747
  970SOL    HW214547   0.555   3.902   7.064  0.0648  0.2889 -0.5710
  971SOL     OW14548   2.623   2.496  11.935  0.1092  0.3635 -0.5375
  971SOL    HW114549   2.636   2.577  11.984  0.5889 -0.3637  0.5252
  971SOL    HW214550   2.709   2.482  11.894  1.3625  0.0830  2.2269
  972SOL     OW14551   3.107   1.712   9.392 -0.6514  0.0741  0.4162
  972SOL    HW114552   3.185   1.762   9.416 -1.9682  1.0498  2.6101
  972SOL    HW214553   3.103   1.650   9.464 -1.2381 -0.4197 -0.0463
  973SOL     OW14554   0.052   2.229   6.758 -0.3329  0.4232  0.6069
  973SOL    HW114555   0.051   2.185   6.843 -2.5654  1.4529  1.1211
  973SOL    HW214556   0.140   2.265   6.752 -1.3671  2.3032 -3.2402
  974SOL     OW14557   4.729   3.874   2.364 -0.1858 -0.2996 -0.2652
  974SOL    HW114558   4.658   3.932   2.391 -0.1503  0.1573 -1.1667
  974SOL    HW214559   0.057   3.935   2.324 -3.1838  0.2872 -3.9430
  975SOL     OW14560   4.309   3.369  14.646 -0.2348 -0.0507  0.6669
  975SOL    HW114561   4.230   3.366  14.700 -0.7258 -2.8645 -0.1746
  975SOL    HW214562   4.289   3.296  14.586  3.1411 -1.5666  1.4006
  976SOL     OW14563   1.245   1.671   4.938 -0.1389 -0.1240  0.5386
  976SOL    HW114564   1.161   1.681   4.894  2.0709  1.6362 -3.3399
  976SOL    HW214565   1.259   1.756   4.980  0.6316 -1.0033  2.0932
  977SOL     OW14566   2.171   0.455  10.542 -0.1708  0.2891  0.4343
  977SOL    HW114567   2.138   0.524  10.485  0.0785 -0.3880 -0.5378
  977SOL    HW214568   2.151   0.384  10.480  2.0341  2.5266 -2.8589
  978SOL     OW14569   1.943   0.809   8.939  0.6453 -0.5187  0.3890
  978SOL    HW114570   2.036   0.790   8.953  0.5949 -1.3301 -0.3973
  978SOL    HW214571   1.924   0.753   8.864  2.9856 -1.4723  0.5232
  979SOL     OW14572   1.858   0.385   2.839 -0.1407  0.4446 -0.2679
  979SOL    HW114573   1.797   0.455   2.814 -1.4656 -0.4930  0.3006
  979SOL    HW214574   1.822   0.309   2.794  1.0519 -0.3563  0.1453
  980SOL     OW14575   4.064   3.284  15.432 -0.0557  0.4839 -0.0314
  980SOL    HW114576   3.990   3.233  15.466  0.7844 -1.1094 -0.6345
  980SOL    HW214577   4.094   3.230  15.359  1.0581 -0.8827  1.4396
  981SOL     OW14578   1.348   3.478  15.059  0.1938  0.5528  0.3496
  981SOL    HW114579   1.414   3.540  15.090  1.1903 -0.5951  0.5397
  981SOL    HW214580   1.319   3.524  14.980  1.4108 -1.0585 -1.0346
  982SOL     OW14581   3.951   3.128   1.970  0.0846  0.3479 -0.1033
  982SOL    HW114582   4.042   3.110   1.948 -0.3444 -1.4881 -0.3440
  982SOL    HW214583   3.916   3.142   1.882  0.2893 -0.1905 -0.2675
  983SOL     OW14584   3.047   3.842   4.657 -0.1135  0.3029 -0.0055
  983SOL    HW114585   3.109   3.908   4.689 -1.3480  0.0630  2.9366
  983SOL    HW214586   3.024   3.798   4.739  0.7619 -0.3147 -0.1004
  984SOL     OW14587   4.054   3.204   7.692  0.1813  0.1254 -0.7146
  984SOL    HW114588   3.981   3.255   7.659  0.1188 -0.2461 -1.1439
  984SOL    HW214589   4.116   3.274   7.669 -0.7327  1.1914  0.0899
  985SOL     OW14590   4.361   3.376   0.147  0.0200  0.2200 -0.3249
  985SOL    HW114591   4.361   3.401   0.054  0.0022 -1.0764 -0.6690
  985SOL    HW214592   4.277   3.407   0.182  0.5660  1.5918 -0.2187
  986SOL     OW14593   4.041   1.843  13.948 -0.2419 -0.1166  0.2027
  986SOL    HW114594   4.065   1.933  13.923 -3.1939  0.9057  1.0785
  986SOL    HW214595   4.041   1.855  14.043 -0.1809 -0.9920  0.3099
  987SOL     OW14596   1.188   2.417   3.390 -0.4418 -0.2155  0.4541
  987SOL    HW114597   1.275   2.403   3.352  0.2345 -0.2283  2.0151
  987SOL    HW214598   1.208   2.374   3.473  1.6532 -0.2173 -0.0432
  988SOL     OW14599   1.730   0.654  10.950 -0.1721  0.3611 -0.3015
  988SOL    HW114600   1.806   0.617  10.994 -0.6576 -0.5305 -0.2156
  988SOL    HW214601   1.765   0.704  10.876  1.8919  0.8869  1.0434
  989SOL     OW14602   3.685   4.315  17.490  0.1994  0.2436  0.0688
  989SOL    HW114603   3.703   4.380  17.422 -0.6135  0.8552  0.4401
  989SOL    HW214604   3.776   4.295  17.509  0.4660 -0.4438 -1.9777
  990SOL     OW14605   1.598   1.898   5.098  0.1066  0.3354 -0.7541
  990SOL    HW114606   1.604   1.810   5.060 -0.8647 -0.9594  2.0990
  990SOL    HW214607   1.686   1.933   5.085  0.3673 -0.6571 -1.6210
  991SOL     OW14608   3.069   2.906  13.613  0.0440 -0.0264 -0.3915
  991SOL    HW114609   3.150   2.956  13.627  1.0701 -1.1782 -2.1815
  991SOL    HW214610   3.067   2.884  13.520 -1.4593  1.1675 -0.6469
  992SOL     OW14611   0.193   2.372   7.470  0.2934  0.7653  0.5251
  992SOL    HW114612   0.248   2.435   7.515  0.1018  0.6273  0.9563
  992SOL    HW214613   0.261   2.341   7.410 -0.7907 -1.7879  0.5818
  993SOL     OW14614   3.722   1.085  11.744  0.8485  0.3922 -0.8524
  993SOL    HW114615   3.772   1.160  11.711 -1.1874  2.3116  0.4324
  993SOL    HW214616   3.693   1.053  11.659  0.4003 -1.4043 -0.0252
  994SOL     OW14617   3.229   1.265   5.721  0.3226  0.1450 -0.3953
  994SOL    HW114618   3.255   1.224   5.804 -1.9754  0.4758  0.4767
  994SOL    HW214619   3.204   1.351   5.754  0.7207  0.6085 -1.3042
  995SOL     OW14620   3.447   2.180   3.902 -0.2207  0.4708 -0.0867
  995SOL    HW114621   3.541   2.185   3.883 -0.0765 -2.1811 -0.1538
  995SOL    HW214622   3.453   2.125   3.981 -0.0751 -0.5689 -0.8229
  996SOL     OW14623   4.065   1.911  16.440  0.3680  0.1305 -0.7070
  996SOL    HW114624   4.138   1.970  16.459  0.6790 -0.7485  0.8262
  996SOL    HW214625   4.014   1.958  16.373  0.5769 -1.5358 -2.0382
  997SOL     OW14626   4.599   3.856   1.486 -0.2811  0.2825  0.4169
  997SOL    HW114627   4.645   3.929   1.445 -1.3669 -0.3465 -1.9548
  997SOL    HW214628   4.507   3.882   1.478  0.1802  1.2176 -1.8501
  998SOL     OW14629   2.430   2.018  16.041  0.1405  0.0422  0.6549
  998SOL    HW114630   2.346   1.984  16.011 -1.1417  2.6900  1.2417
  998SOL    HW214631   2.435   2.113  16.036 -2.5536  0.1786  0.7725
  999SOL     OW14632   1.210   2.427   7.800  0.2934  0.2561 -0.6458
  999SOL    HW114633   1.236   2.499   7.744  2.1397  0.7765  0.8625
  999SOL    HW214634   1.290   2.376   7.817  1.0070  1.2192 -1.1110
 1000SOL     OW14635   3.487   4.076   1.962  0.4370  0.0754  0.9949
 1000SOL    HW114636   3.418   4.094   1.898  0.4322 -0.8878  0.7332
 1000SOL    HW214637   3.439   4.074   2.045  1.5746 -1.4480  1.6002
 1001SOL     OW14638   2.909   1.845   0.769  0.5563  0.0833 -0.1720
 1001SOL    HW114639   2.868   1.912   0.822  0.7341  0.5525 -0.6309
 1001SOL    HW214640   2.924   1.781   0.838 -1.4108  0.3356  0.4762
 1002SOL     OW14641   0.569   4.619  11.486 -0.5347  0.0209 -0.3903
 1002SOL    HW114642   0.663   4.634  11.495 -0.4919 -0.7605  0.5189
 1002SOL    HW214643   0.526   4.704  11.475  2.3872  1.5713 -0.0127
 1003SOL     OW14644   3.733   2.547   4.090  0.2821 -0.3261 -0.5075
 1003SOL    HW114645   3.730   2.639   4.118 -0.8078  0.1963 -2.3720
 1003SOL    HW214646   3.641   2.527   4.105  0.3358  0.8533  1.4253
 1004SOL     OW14647   2.421   0.845   9.499  0.6316  0.5499  0.3883
 1004SOL    HW114648   2.429   0.759   9.541  1.7063  0.0037 -0.9160
 1004SOL    HW214649   2.339   0.871   9.541  0.5037 -0.1036  0.5542
 1005SOL     OW14650   0.402   2.927   4.345 -0.0326 -0.2132  0.5035
 1005SOL    HW114651   0.374   3.018   4.356 -2.0545 -0.7888  0.1099
 1005SOL    HW214652   0.315   2.887   4.341  1.2638 -2.7491 -2.5624
 1006SOL     OW14653   2.012   1.893   0.540  1.1663  0.3663  0.5121
 1006SOL    HW114654   1.936   1.849   0.502 -0.9424  2.5689  2.2779
 1006SOL    HW214655   2.071   1.881   0.465  1.1410  1.4309  0.3236
 1007SOL     OW14656   0.171   2.609   1.271  0.4517 -0.7179 -0.1656
 1007SOL    HW114657   0.195   2.606   1.179 -0.4513 -3.1161 -0.3411
 1007SOL    HW214658   0.204   2.521   1.291  0.2552 -0.1758  2.5567
 1008SOL     OW14659   1.825   2.870   3.522 -0.4190  0.1366 -0.0113
 1008SOL    HW114660   1.827   2.915   3.606  2.3266 -1.6683  0.9029
 1008SOL    HW214661   1.737   2.889   3.490 -1.2842 -1.2094  1.5699
 1009SOL     OW14662   1.244   4.236   5.854  0.2661  0.3864 -0.7041
 1009SOL    HW114663   1.212   4.312   5.903 -1.5111 -0.9204  0.2025
 1009SOL    HW214664   1.245   4.276   5.768 -0.4157  1.6845 -0.1129
 1010SOL     OW14665   4.281   0.232  11.237  0.0610 -0.4053  0.1274
 1010SOL    HW114666   4.362   0.185  11.216 -0.8868 -1.9534 -0.0560
 1010SOL    HW214667   4.251   0.250  11.148  0.2318 -1.3034 -0.1117
 1011SOL     OW14668   0.375   0.719   0.252  0.0795 -0.0716  0.2997
 1011SOL    HW114669   0.315   0.719   0.177  2.9208 -0.3967 -1.9486
 1011SOL    HW214670   0.394   0.626   0.259 -1.2131 -0.3391  0.3689
 1012SOL     OW14671   1.006   4.504  12.235  0.2635 -0.2182 -0.4380
 1012SOL    HW114672   0.913   4.520  12.251  0.2917 -1.3449  0.8227
 1012SOL    HW214673   1.028   4.574  12.173  1.6728  0.0704  0.3943
 1013SOL     OW14674   0.774   4.263   5.330  0.4806  0.1638 -0.5030
 1013SOL    HW114675   0.853   4.250   5.276  1.7728  0.9607  1.1821
 1013SOL    HW214676   0.746   4.173   5.347 -0.1560  0.1424 -1.6656
 1014SOL     OW14677   1.073   1.605  14.655 -0.4566 -0.0061 -0.4905
 1014SOL    HW114678   1.045   1.623  14.744 -2.1356  0.1283 -1.0441
 1014SOL    HW214679   1.002   1.559  14.610 -0.9241  0.3108 -0.0767
 1015SOL     OW14680   3.547   0.055  11.552 -0.0595  0.5205 -0.2299
 1015SOL    HW114681   3.505   0.006  11.481 -0.3560  0.9018 -0.3193
 1015SOL    HW214682   3.628   0.005  11.559 -0.7992 -0.6989 -0.2975
 1016SOL     OW14683   4.196   2.759   5.139 -0.2979  0.6458  0.1529
 1016SOL    HW114684   4.186   2.715   5.054 -1.1004  0.9021  0.1089
 1016SOL    HW214685   4.110   2.791   5.166 -2.0387  1.4140 -6.2280
 1017SOL     OW14686   1.149   3.541   3.166  0.9836 -0.2348 -0.2830
 1017SOL    HW114687   1.165   3.633   3.185  1.7796 -0.2587 -0.8160
 1017SOL    HW214688   1.131   3.552   3.073 -0.1792  0.4749  0.0289
 1018SOL     OW14689   1.980   3.439  17.020  0.8036 -0.6767  0.4254
 1018SOL    HW114690   2.062   3.408  17.057  1.4295 -0.9360 -1.1911
 1018SOL    HW214691   1.922   3.395  17.082  0.4106  0.6145  0.9866
 1019SOL     OW14692   0.321   3.354   5.382  0.2969 -0.2977  0.1060
 1019SOL    HW114693   0.299   3.270   5.341  0.7615 -0.6785  0.6439
 1019SOL    HW214694   0.235   3.393   5.365  0.9325 -0.0298 -2.6162
 1020SOL     OW14695   2.928   2.967   9.408 -0.4272  0.0218  0.0390
 1020SOL    HW114696   2.877   2.912   9.348 -1.0303 -0.6752  1.1971
 1020SOL    HW214697   2.882   3.050   9.398 -1.5480 -0.5988  0.0372
 1021SOL     OW14698   3.358   1.731  12.824  0.3088 -0.4600 -0.4026
 1021SOL    HW114699   3.346   1.656  12.882 -0.0148 -0.5483 -0.5879
 1021SOL    HW214700   3.450   1.754  12.837 -0.0019  1.8639 -2.4450
 1022SOL     OW14701   1.778   0.555  16.864  0.1184  0.2708  0.0996
 1022SOL    HW114702   1.716   0.505  16.811  0.7427  0.2575 -0.6100
 1022SOL    HW214703   1.853   0.496  16.858 -1.3100 -1.6637  1.1068
 1023SOL     OW14704   3.571   3.727   4.036  0.2284 -0.2177 -0.3071
 1023SOL    HW114705   3.495   3.722   4.093 -0.1239  2.3722 -0.5472
 1023SOL    HW214706   3.576   3.822   4.041  0.6356 -0.4827  3.7498
 1024SOL     OW14707   3.348   4.437   4.010 -0.1768 -0.5702  0.1214
 1024SOL    HW114708   3.437   4.450   4.044  0.2071 -0.4471 -0.9084
 1024SOL    HW214709   3.333   4.520   3.964 -0.4297 -0.2296  0.8215
 1025SOL     OW14710   1.480   2.635   2.097  0.0040 -0.0439 -0.5607
 1025SOL    HW114711   1.507   2.560   2.045  2.2118  1.1323 -1.0794
 1025SOL    HW214712   1.518   2.715   2.062 -1.2178  1.0052  0.4718
 1026SOL     OW14713   4.156   3.989   8.766  0.6400 -0.3277 -0.3188
 1026SOL    HW114714   4.192   3.900   8.765 -1.5293 -1.2434  0.8116
 1026SOL    HW214715   4.222   4.030   8.821 -2.0447  0.7995  2.0316
 1027SOL     OW14716   0.603   2.302  16.644  0.4875  0.3656 -0.4031
 1027SOL    HW114717   0.556   2.224  16.674  2.2523  0.9022  3.7739
 1027SOL    HW214718   0.619   2.266  16.557 -1.7606 -2.0742  0.2114
 1028SOL     OW14719   1.287   1.348  14.945  0.6702 -0.4208  0.3632
 1028SOL    HW114720   1.326   1.435  14.936  1.0291 -0.4750  1.3859
 1028SOL    HW214721   1.331   1.322  15.026  0.0845 -2.6828 -0.0447
 1029SOL     OW14722   2.976   2.842   9.672  0.1544 -0.8412  0.3843
 1029SOL    HW114723   3.002   2.750   9.658  3.9510  0.3856 -0.6062
 1029SOL    HW214724   2.984   2.873   9.582 -2.1595 -0.2115  0.4128
 1030SOL     OW14725   4.193   1.041   7.797  0.4142 -0.0517  0.2393
 1030SOL    HW114726   4.195   0.945   7.796  2.0732  0.0186 -2.5700
 1030SOL    HW214727   4.109   1.059   7.755  0.1917  0.0997  0.7448
 1031SOL     OW14728   1.279   0.251  17.396 -0.2729 -0.1563 -0.7411
 1031SOL    HW114729   1.353   0.288  17.444 -0.4440 -0.6559 -0.1008
 1031SOL    HW214730   1.205   0.267  17.454  0.8827 -0.5031  0.8385
 1032SOL     OW14731   1.326   2.563   7.156  0.6857 -0.0582  0.1754
 1032SOL    HW114732   1.332   2.646   7.204  1.1822 -0.0883  0.1714
 1032SOL    HW214733   1.304   2.492   7.217 -0.7996  0.8625  0.7077
 1033SOL     OW14734   2.888   4.687   6.270  0.0440 -0.3843 -0.0536
 1033SOL    HW114735   2.932   0.031   6.236  2.0726 -0.7343  1.8434
 1033SOL    HW214736   2.957   4.622   6.285 -1.9163 -2.0567  1.7758
 1034SOL     OW14737   0.455   2.313   5.001 -0.1477  0.4466  0.3923
 1034SOL    HW114738   0.441   2.257   5.077 -3.7321  1.6932  0.6359
 1034SOL    HW214739   0.373   2.362   5.002  0.8040  1.9893  1.7842
 1035SOL     OW14740   2.771   2.274   3.914  0.0026  0.6454  0.1750
 1035SOL    HW114741   2.791   2.181   3.925  1.3880  1.0426  1.0468
 1035SOL    HW214742   2.676   2.280   3.907 -0.2651  0.3521  3.8056
 1036SOL     OW14743   1.149   4.103   9.281  0.3901  0.1375  0.0920
 1036SOL    HW114744   1.228   4.050   9.292  0.8431  1.2077  1.8842
 1036SOL    HW214745   1.159   4.158   9.358  1.2095 -0.3519  0.3387
 1037SOL     OW14746   1.160   2.289   6.612  0.0975  0.2336  0.4025
 1037SOL    HW114747   1.209   2.323   6.537 -0.0458 -0.6465 -0.0880
 1037SOL    HW214748   1.132   2.373   6.649  3.1742  2.2181 -1.8194
 1038SOL     OW14749   3.864   2.325   2.016 -0.3107  0.1740 -0.0989
 1038SOL    HW114750   3.954   2.302   1.996  0.2504  2.0736  0.2090
 1038SOL    HW214751   3.824   2.243   1.988 -2.2111  0.3395  2.1374
 1039SOL     OW14752   1.759   3.871   8.239  0.1841 -0.1336 -0.2578
 1039SOL    HW114753   1.767   3.777   8.223 -1.4876 -0.6384  1.9222
 1039SOL    HW214754   1.850   3.902   8.242 -0.4555  1.6537  0.5836
 1040SOL     OW14755   3.513   1.250   3.360 -0.3936 -0.6623 -0.0870
 1040SOL    HW114756   3.556   1.320   3.409  2.9283 -1.7884 -1.3414
 1040SOL    HW214757   3.423   1.282   3.355  0.3761  2.0190  2.8472
 1041SOL     OW14758   1.150   2.552   5.978 -0.1808  0.3150  0.1238
 1041SOL    HW114759   1.126   2.477   6.032  0.0309 -0.7372 -1.2455
 1041SOL    HW214760   1.194   2.610   6.040  0.4952 -0.1179  0.0457
 1042SOL     OW14761   0.789   3.745   1.937 -0.0336 -0.0867 -0.0024
 1042SOL    HW114762   0.768   3.651   1.936 -2.2935  0.4077 -0.1284
 1042SOL    HW214763   0.758   3.776   2.022 -1.5687  0.9500 -0.9398
 1043SOL     OW14764   0.227   0.954  13.936  0.3454  0.3897  0.2702
 1043SOL    HW114765   0.216   0.865  13.970  0.2108  0.7948  1.2881
 1043SOL    HW214766   0.186   0.999  14.010  1.5582 -0.2952  1.3725
 1044SOL     OW14767   0.745   0.508  13.074 -0.4825  0.4246 -0.2191
 1044SOL    HW114768   0.753   0.502  13.169  2.4691 -0.5925 -0.5281
 1044SOL    HW214769   0.741   0.415  13.054 -1.0875 -0.2213  2.8907
 1045SOL     OW14770   2.392   4.523   4.680  0.1273  0.2393  0.1506
 1045SOL    HW114771   2.419   4.615   4.688 -3.2702  0.9464  3.4306
 1045SOL    HW214772   2.303   4.523   4.646  1.0542 -0.1976 -2.3056
 1046SOL     OW14773   2.729   2.073   8.083  0.3137 -0.4353  0.1046
 1046SOL    HW114774   2.682   2.113   8.156 -1.1051 -0.9285 -0.5475
 1046SOL    HW214775   2.672   2.093   8.009 -0.5004 -0.6178  0.6853
 1047SOL     OW14776   1.024   0.823  11.581 -0.2309 -0.2111 -0.2108
 1047SOL    HW114777   0.982   0.877  11.649  2.2960  2.1930 -0.5863
 1047SOL    HW214778   1.110   0.864  11.582 -1.2989  2.0601  0.4221
 1048SOL     OW14779   1.634   0.628  17.156  0.1854 -0.9400  0.1363
 1048SOL    HW114780   1.632   0.538  17.186 -0.0219 -0.7333  0.7466
 1048SOL    HW214781   1.693   0.621  17.081  2.9321 -1.3629  2.3543
 1049SOL     OW14782   2.481   2.119  13.723 -0.0842  0.1574  0.4627
 1049SOL    HW114783   2.390   2.129  13.696  0.1655 -2.7377 -1.4127
 1049SOL    HW214784   2.485   2.024  13.713  3.7267  0.3087  0.3981
 1050SOL     OW14785   1.823   1.055   8.821 -0.0757  0.1829 -0.2375
 1050SOL    HW114786   1.787   1.018   8.741  0.4567  0.9900 -0.8410
 1050SOL    HW214787   1.855   0.973   8.859  2.2966  1.5087  0.6430
 1051SOL     OW14788   3.685   3.171   6.838 -0.3164 -0.2326  0.1886
 1051SOL    HW114789   3.727   3.232   6.899 -0.1176 -1.8244  1.6668
 1051SOL    HW214790   3.758   3.115   6.812  0.1424  0.7087 -0.5293
 1052SOL     OW14791   4.486   1.685  10.787 -0.6805 -0.2625  0.0141
 1052SOL    HW114792   4.452   1.630  10.857  1.4086 -2.2489 -0.5316
 1052SOL    HW214793   4.561   1.715  10.839 -0.4899 -0.4970 -0.1259
 1053SOL     OW14794   2.257   3.493   3.626 -0.1492 -0.1131  0.6693
 1053SOL    HW114795   2.191   3.562   3.618  0.4799  0.4682  0.4979
 1053SOL    HW214796   2.343   3.527   3.602  0.0691 -1.0557  0.1094
 1054SOL     OW14797   2.096   1.797   8.123 -0.2639 -0.1910 -0.5120
 1054SOL    HW114798   2.040   1.785   8.200  2.2216  1.5083  1.5750
 1054SOL    HW214799   2.168   1.735   8.136 -0.4819 -0.4785 -0.6654
 1055SOL     OW14800   2.888   4.223  16.058  0.3166 -0.1403  0.4336
 1055SOL    HW114801   2.819   4.195  16.118 -0.8294  1.7692  0.0211
 1055SOL    HW214802   2.836   4.249  15.982  1.6971  1.3945  0.0090
 1056SOL     OW14803   2.201   2.930  10.201 -0.1259 -0.3522  0.3576
 1056SOL    HW114804   2.218   2.978  10.282 -2.3285 -1.0348  1.2344
 1056SOL    HW214805   2.106   2.924  10.210 -0.2968  0.5041 -0.8541
 1057SOL     OW14806   4.101   2.985  11.604 -0.0716  0.0393 -0.2227
 1057SOL    HW114807   4.084   3.030  11.687  0.1143 -0.2324 -0.0379
 1057SOL    HW214808   4.186   2.944  11.615 -0.1288 -0.1942 -0.6314
 1058SOL     OW14809   3.062   0.926   7.503  0.6074  0.1321  0.0810
 1058SOL    HW114810   2.997   0.904   7.570  0.3190 -0.2242 -0.3136
 1058SOL    HW214811   3.036   0.897   7.416  0.4455 -2.9674  1.1644
 1059SOL     OW14812   0.282   2.682   9.158  0.0375 -0.2985 -0.0260
 1059SOL    HW114813   0.201   2.703   9.205 -0.6793 -1.3629 -0.7533
 1059SOL    HW214814   0.343   2.678   9.231 -0.7597  0.8379  0.7012
 1060SOL     OW14815   1.218   1.864   5.935 -0.0350  0.1853 -0.1207
 1060SOL    HW114816   1.234   1.958   5.930  2.2893 -0.0802  2.2754
 1060SOL    HW214817   1.192   1.857   5.843 -1.1861 -0.4799  0.2583
 1061SOL     OW14818   1.185   3.314   6.912 -0.0847  0.2096 -0.3952
 1061SOL    HW114819   1.238   3.371   6.857 -3.0787  2.4071 -1.0290
 1061SOL    HW214820   1.246   3.241   6.920 -1.4451 -0.8306  0.5186
 1062SOL     OW14821   0.210   4.013   4.325  0.5960 -0.6233 -0.0896
 1062SOL    HW114822   0.235   3.927   4.291 -0.5379 -0.7824 -0.5030
 1062SOL    HW214823   0.289   4.024   4.379  0.0376 -0.5745  0.7240
 1063SOL     OW14824   0.818   0.047   4.150 -0.4099  0.6109 -0.2436
 1063SOL    HW114825   0.741   0.060   4.206  1.6220  0.2098  2.6539
 1063SOL    HW214826   0.783   0.056   4.061 -0.4321  1.5326 -0.1447
 1064SOL     OW14827   0.818   0.609  15.082  0.3238 -0.0143 -0.3025
 1064SOL    HW114828   0.892   0.580  15.028  0.8917 -0.0290  0.4871
 1064SOL    HW214829   0.748   0.547  15.063 -0.5764  0.8311  0.2506
 1065SOL     OW14830   3.830   0.175   1.451  0.2982 -0.1068 -0.0155
 1065SOL    HW114831   3.780   0.229   1.390 -0.2427 -1.0360 -0.3888
 1065SOL    HW214832   3.770   0.101   1.449 -0.2353  0.2868  1.4397
 1066SOL     OW14833   0.261   3.372   9.040  0.1676  0.1060  0.6718
 1066SOL    HW114834   0.183   3.322   9.065  0.1899 -0.5308 -0.5153
 1066SOL    HW214835   0.327   3.304   9.050  0.5488  0.0237 -2.2227
 1067SOL     OW14836   4.282   3.962   9.830  0.3022 -0.1838  0.3946
 1067SOL    HW114837   4.373   3.963   9.862 -0.5432  1.0303  2.8133
 1067SOL    HW214838   4.248   3.876   9.855  2.1134 -0.8945  0.4381
 1068SOL     OW14839   1.902   3.547   7.951  0.4711 -0.0659 -0.0163
 1068SOL    HW114840   1.926   3.637   7.928  0.2160 -0.3640 -1.4869
 1068SOL    HW214841   1.985   3.503   7.939 -0.3691 -1.1685 -1.8069
 1069SOL     OW14842   1.003   3.853   7.882  0.0920 -0.4174  0.0585
 1069SOL    HW114843   0.986   3.760   7.896 -2.9492  0.2678  0.7060
 1069SOL    HW214844   0.939   3.899   7.935 -0.7242  0.6296 -1.8347
 1070SOL     OW14845   1.653   2.985   9.321 -0.1510 -0.4948 -0.3703
 1070SOL    HW114846   1.631   2.893   9.313 -1.8996 -0.3211  2.4515
 1070SOL    HW214847   1.679   3.003   9.411 -0.4217  2.1315 -0.7940
 1071SOL     OW14848   4.648   0.783   0.086 -0.8500 -0.1261  0.2909
 1071SOL    HW114849   4.730   0.756   0.128 -0.3131 -0.5870 -1.0601
 1071SOL    HW214850   4.662   0.874   0.059  2.0209 -0.5192  0.3739
 1072SOL     OW14851   3.166   2.595   2.768 -0.4339  0.1380 -0.0308
 1072SOL    HW114852   3.219   2.563   2.695 -2.2241 -0.3195 -1.1253
 1072SOL    HW214853   3.226   2.659   2.807 -0.7465 -0.3060  1.1493
 1073SOL     OW14854   2.408   1.834  13.277 -0.2708 -0.1186  0.4036
 1073SOL    HW114855   2.443   1.907  13.226  2.7353 -0.7566  1.5461
 1073SOL    HW214856   2.484   1.783  13.305 -0.4718 -0.7972 -0.2750
 1074SOL     OW14857   3.557   2.408   8.690 -0.4142 -0.2307 -0.4321
 1074SOL    HW114858   3.490   2.349   8.723 -0.8810  0.0962 -0.7992
 1074SOL    HW214859   3.632   2.376   8.740  0.0943 -1.0285 -1.6877
 1075SOL     OW14860   2.729   4.454   6.517 -0.5007  0.5572 -0.0682
 1075SOL    HW114861   2.737   4.410   6.601 -1.4824  0.8346  0.1754
 1075SOL    HW214862   2.634   4.440   6.517 -0.3081 -0.5886  1.8668
 1076SOL     OW14863   4.171   2.230   5.824 -0.0791 -0.7070  0.4272
 1076SOL    HW114864   4.209   2.312   5.856  0.2090 -0.4788 -0.4937
 1076SOL    HW214865   4.237   2.214   5.757  0.1968 -0.4426  0.6339
 1077SOL     OW14866   4.190   1.493   9.091  0.1556 -0.7968 -0.2624
 1077SOL    HW114867   4.159   1.403   9.087  1.7374 -1.4279  1.5972
 1077SOL    HW214868   4.237   1.483   9.008  1.4052 -3.8799  0.8439
 1078SOL     OW14869   3.705   4.427   8.014  0.2098 -0.4595 -0.4716
 1078SOL    HW114870   3.675   4.363   8.078 -1.4817  0.2662 -0.5173
 1078SOL    HW214871   3.649   4.503   8.029  0.4031 -0.6577  1.1708
 1079SOL     OW14872   0.651   4.408   6.837  0.6894 -0.1045 -0.8716
 1079SOL    HW114873   0.662   4.498   6.866  2.5352 -0.3240 -0.9264
 1079SOL    HW214874   0.677   4.355   6.913 -1.8041  1.6646  1.2020
 1080SOL     OW14875   0.872   3.763   4.435 -0.3602  0.0164  0.3098
 1080SOL    HW114876   0.848   3.801   4.351  1.1747  3.8839  1.6372
 1080SOL    HW214877   0.789   3.736   4.475 -0.0735 -2.9527 -1.0572
 1081SOL     OW14878   1.641   3.996   2.189  0.5201  0.4043  0.1331
 1081SOL    HW114879   1.623   4.072   2.134  1.6350  0.4015 -0.2360
 1081SOL    HW214880   1.554   3.956   2.189  0.2339  1.0089 -3.8015
 1082SOL     OW14881   2.285   1.595  10.387 -0.1040 -0.4860 -0.5063
 1082SOL    HW114882   2.325   1.544  10.316  0.7182 -0.5364 -0.0096
 1082SOL    HW214883   2.327   1.553  10.462  0.9614 -1.2585 -1.5346
 1083SOL     OW14884   2.008   4.390   5.983 -0.2241  0.0485  0.3288
 1083SOL    HW114885   2.023   4.474   6.026  4.2703 -1.4751  1.7169
 1083SOL    HW214886   1.925   4.400   5.936  0.2773 -1.7565 -0.9471
 1084SOL     OW14887   3.613   0.269   1.296  0.6315 -0.1413 -0.6500
 1084SOL    HW114888   3.589   0.356   1.328  1.3061  0.1084 -0.8208
 1084SOL    HW214889   3.569   0.207   1.354  0.5563 -0.1550 -0.7214
 1085SOL     OW14890   3.127   4.331   6.003  0.5411 -0.0395  0.2636
 1085SOL    HW114891   3.144   4.241   6.031  1.4842  0.2772  0.7115
 1085SOL    HW214892   3.191   4.384   6.050  0.4525  0.2056  0.1051
 1086SOL     OW14893   0.776   4.095   1.571  0.2146  0.0550  0.0921
 1086SOL    HW114894   0.700   4.040   1.554  0.2972  0.7342 -2.5349
 1086SOL    HW214895   0.735   4.168   1.618  0.8172  0.9075 -0.6841
 1087SOL     OW14896   2.783   0.249   9.249 -0.0129 -0.2812 -0.2621
 1087SOL    HW114897   2.867   0.208   9.266 -1.1189 -0.7657  4.1219
 1087SOL    HW214898   2.801   0.333   9.291 -2.1821  0.8647 -1.6331
 1088SOL     OW14899   0.105   2.013   7.648 -0.1510 -0.2623 -0.4290
 1088SOL    HW114900   0.143   2.085   7.698 -2.0766  1.2497 -1.1378
 1088SOL    HW214901   0.016   2.031   7.679  0.1053  0.8020 -0.3107
 1089SOL     OW14902   4.578   1.557   4.691  0.1529 -0.1761 -0.3174
 1089SOL    HW114903   4.616   1.545   4.604  1.0794 -1.3126  0.2384
 1089SOL    HW214904   4.642   1.503   4.738  0.6311  0.6031 -0.0808
 1090SOL     OW14905   4.237   1.937  11.479  0.7576  0.2455  0.2762
 1090SOL    HW114906   4.229   1.982  11.564  0.1246  2.0682 -0.7490
 1090SOL    HW214907   4.186   1.857  11.487 -1.3350  1.6175  0.6765
 1091SOL     OW14908   0.436   2.468  15.357  0.6012  0.0327 -0.2042
 1091SOL    HW114909   0.528   2.444  15.372  0.9850  1.8605  0.3597
 1091SOL    HW214910   0.409   2.405  15.291  1.0021 -1.0369  0.6434
 1092SOL     OW14911   0.848   1.349   6.353  0.4844  0.1709  0.4506
 1092SOL    HW114912   0.845   1.266   6.401  1.7211  0.1311  0.4751
 1092SOL    HW214913   0.763   1.363   6.312 -0.9722 -2.5751  2.5482
 1093SOL     OW14914   2.953   3.620   7.359  0.0123 -0.2372  0.1615
 1093SOL    HW114915   2.895   3.569   7.302  1.5484 -2.1420  0.3097
 1093SOL    HW214916   3.036   3.596   7.319  0.8534 -0.0784  1.8048
 1094SOL     OW14917   3.127   3.648   2.606  0.4720 -0.2278 -0.7498
 1094SOL    HW114918   3.120   3.744   2.602  0.0296 -0.3205 -2.2862
 1094SOL    HW214919   3.171   3.643   2.691  0.4146 -0.6013 -0.7415
 1095SOL     OW14920   1.526   0.427  10.693  0.3559 -0.4704 -0.2422
 1095SOL    HW114921   1.546   0.356  10.632  1.5068  0.5747 -1.0851
 1095SOL    HW214922   1.508   0.502  10.636  2.2112  1.3122  1.5266
 1096SOL     OW14923   2.368   4.475  15.713 -0.1905  0.3526 -1.0307
 1096SOL    HW114924   2.418   4.443  15.637  0.7930 -1.2981  0.3108
 1096SOL    HW214925   2.440   4.534  15.738 -0.2507  0.3749 -0.9099
 1097SOL     OW14926   3.362   0.304   5.176 -0.1754  0.2258  0.6804
 1097SOL    HW114927   3.294   0.283   5.240  0.8851 -0.5298  1.5540
 1097SOL    HW214928   3.344   0.234   5.113 -1.3422  0.3039  0.9234
 1098SOL     OW14929   2.211   0.243  11.949  0.0156 -0.0537  0.6300
 1098SOL    HW114930   2.210   0.171  12.012  2.2172 -0.6757 -0.0295
 1098SOL    HW214931   2.291   0.216  11.904 -0.3406 -2.2916  1.3376
 1099SOL     OW14932   1.658   2.762   0.350 -0.1121 -0.0421  0.6352
 1099SOL    HW114933   1.608   2.818   0.291  0.1675  0.7660  1.1610
 1099SOL    HW214934   1.611   2.788   0.430 -0.0720  1.3042  0.2303
 1100SOL     OW14935   4.677   4.237  12.684 -0.1570  0.4621 -0.0605
 1100SOL    HW114936   4.726   4.282  12.753  0.8785  0.0308 -0.5137
 1100SOL    HW214937   4.653   4.159  12.733 -0.2960 -0.2058 -1.1779
 1101SOL     OW14938   2.837   0.816   7.715  0.2673  0.4852 -0.7151
 1101SOL    HW114939   2.862   0.775   7.797  0.3854 -0.6883 -1.3411
 1101SOL    HW214940   2.769   0.872   7.753 -0.5602 -1.9456  1.3311
 1102SOL     OW14941   1.415   4.089  16.027 -0.4007 -0.2828 -0.5667
 1102SOL    HW114942   1.396   4.181  16.044  0.4064  0.0159 -1.2965
 1102SOL    HW214943   1.376   4.055  16.108 -0.1758  1.1817  0.1623
 1103SOL     OW14944   2.208   1.336   0.172 -0.7124  0.2948 -0.1613
 1103SOL    HW114945   2.174   1.247   0.182  2.2009 -0.7309  0.6133
 1103SOL    HW214946   2.132   1.376   0.128  0.4665  0.7651 -1.7438
 1104SOL     OW14947   0.225   0.311   9.071  0.3761 -0.5667  0.7393
 1104SOL    HW114948   0.213   0.252   9.146 -1.0448  0.5947  1.4255
 1104SOL    HW214949   0.320   0.299   9.069  0.4465  0.0023  0.6251
 1105SOL     OW14950   1.714   3.034  10.564  0.3661  0.0517  0.0709
 1105SOL    HW114951   1.685   2.966  10.625  2.2259 -1.7199 -1.0105
 1105SOL    HW214952   1.637   3.090  10.567  1.1027  1.1405 -1.3032
 1106SOL     OW14953   2.173   2.031   5.081 -0.0434  0.3781 -0.4609
 1106SOL    HW114954   2.167   2.126   5.078 -2.7905  0.1621 -1.8729
 1106SOL    HW214955   2.178   2.015   5.176  2.1858 -2.3215 -1.0325
 1107SOL     OW14956   3.904   2.133   2.258 -0.6099  0.4389  0.2924
 1107SOL    HW114957   3.910   2.053   2.205 -2.1057  0.5916 -0.0950
 1107SOL    HW214958   3.940   2.199   2.199 -1.3021  1.0068  0.5139
 1108SOL     OW14959   0.598   1.664   2.428 -0.1069 -0.0229 -0.2376
 1108SOL    HW114960   0.524   1.616   2.465 -0.9448  0.1718 -1.6460
 1108SOL    HW214961   0.672   1.628   2.477  1.0317  0.4320 -1.6195
 1109SOL     OW14962   0.027   0.933  12.219  0.3846 -0.4684 -0.0103
 1109SOL    HW114963   0.029   0.958  12.312  0.3466 -0.1931 -0.0858
 1109SOL    HW214964   0.062   1.011  12.178  1.6408 -0.7932  0.4340
 1110SOL     OW14965   2.864   4.411  17.610 -0.7952  0.1121  0.4587
 1110SOL    HW114966   2.889   4.323  17.581  0.5209 -0.2513  2.6457
 1110SOL    HW214967   2.773   4.419  17.582 -1.0635  1.3876  1.7092
 1111SOL     OW14968   0.854   0.669  11.207  0.9085  0.3640  0.1848
 1111SOL    HW114969   0.893   0.586  11.233 -1.4429 -0.4068  1.2669
 1111SOL    HW214970   0.818   0.705  11.288 -0.0956 -0.4229  0.0847
 1112SOL     OW14971   0.781   0.838  17.143  0.2222 -0.2667  0.0236
 1112SOL    HW114972   0.761   0.752  17.180 -0.9674 -0.6200 -1.4324
 1112SOL    HW214973   0.760   0.892  17.220 -0.9478 -0.5385 -0.0970
 1113SOL     OW14974   1.754   2.293  11.686  0.6054 -0.3031  0.4146
 1113SOL    HW114975   1.773   2.334  11.770 -2.0906 -0.2475  0.9899
 1113SOL    HW214976   1.780   2.202  11.696  0.3467 -0.4222  0.0330
 1114SOL     OW14977   0.678   1.151   6.063 -0.2449  0.4032  0.4127
 1114SOL    HW114978   0.597   1.100   6.065  0.7441 -1.1662  1.5081
 1114SOL    HW214979   0.684   1.162   5.968  1.2937 -0.2739  0.4332
 1115SOL     OW14980   4.355   2.869   7.236 -0.6959 -0.8240  0.4018
 1115SOL    HW114981   4.393   2.909   7.314 -1.8470  1.3090 -0.1207
 1115SOL    HW214982   4.263   2.865   7.264 -0.4994  0.1614  1.2079
 1116SOL     OW14983   1.380   2.580   3.706  0.4380  0.1940 -0.6878
 1116SOL    HW114984   1.336   2.582   3.621  0.2158 -1.9803 -0.6420
 1116SOL    HW214985   1.310   2.618   3.759  1.1395 -0.8810  1.0145
 1117SOL     OW14986   0.486   0.473   2.656  0.2938  0.2763  0.1124
 1117SOL    HW114987   0.507   0.385   2.687 -0.3221  0.5908  1.3992
 1117SOL    HW214988   0.512   0.453   2.566 -0.7633 -1.0735  0.1003
 1118SOL     OW14989   2.040   1.006   4.980  0.2937  0.5179  0.0597
 1118SOL    HW114990   2.049   0.921   4.937 -0.0756 -0.7771  2.5122
 1118SOL    HW214991   2.112   1.055   4.942  1.4359 -2.5623 -1.7100
 1119SOL     OW14992   4.164   0.536  12.560 -0.7844 -0.1437  0.1628
 1119SOL    HW114993   4.183   0.443  12.549  0.8680  0.1596  0.4018
 1119SOL    HW214994   4.252   0.574  12.554 -0.9709 -0.2034 -2.8516
 1120SOL     OW14995   2.176   2.761  13.335  0.5554 -0.1705 -0.0286
 1120SOL    HW114996   2.230   2.816  13.392 -0.3527 -1.3211  1.9618
 1120SOL    HW214997   2.241   2.694  13.313 -0.4620 -1.4505  0.8667
 1121SOL     OW14998   0.880   2.409   1.734 -0.1166 -0.4643 -0.4010
 1121SOL    HW114999   0.954   2.422   1.675  1.5881 -0.8251  1.6887
 1121SOL    HW215000   0.882   2.319   1.764 -1.5563 -0.6877 -0.9456
 1122SOL     OW15001   3.228   4.234   7.120 -0.1413 -0.1972  0.2520
 1122SOL    HW115002   3.222   4.311   7.064 -0.8528 -0.0255  0.5631
 1122SOL    HW215003   3.173   4.170   7.074 -0.1347 -0.2680  0.3420
 1123SOL     OW15004   1.109   1.024  15.942  0.0983  0.0779 -0.3887
 1123SOL    HW115005   1.132   1.065  15.859 -1.3147 -0.3207 -0.9705
 1123SOL    HW215006   1.171   0.952  15.949 -0.0761  0.1644  2.2214
 1124SOL     OW15007   2.709   1.172   7.162  0.1194  0.0502 -0.1822
 1124SOL    HW115008   2.755   1.121   7.096 -0.0095 -1.0658  0.5901
 1124SOL    HW215009   2.759   1.253   7.155  1.4251 -0.7645 -0.1973
 1125SOL     OW15010   3.756   3.757  11.279 -0.1293  0.1802  0.1732
 1125SOL    HW115011   3.845   3.737  11.307 -0.3284 -0.7705  0.1202
 1125SOL    HW215012   3.723   3.808  11.353 -0.5060  2.2187 -1.3992
 1126SOL     OW15013   1.278   4.410  14.705 -0.2211  0.1290  0.2993
 1126SOL    HW115014   1.301   4.419  14.612 -0.1225 -1.4757  0.1647
 1126SOL    HW215015   1.186   4.438  14.701  0.3047  1.5665 -1.2178
 1127SOL     OW15016   1.263   0.018   5.633 -0.0107 -0.1702 -0.4812
 1127SOL    HW115017   1.259   0.074   5.711  1.6290  0.4736 -0.8653
 1127SOL    HW215018   1.255   4.666   5.674 -2.1987  0.2344 -0.0129
 1128SOL     OW15019   2.800   1.878  16.678  0.0822  0.0824  0.1731
 1128SOL    HW115020   2.792   1.820  16.602 -0.6832  1.8814 -1.1158
 1128SOL    HW215021   2.721   1.929  16.660  0.2924  0.7900  1.2748
 1129SOL     OW15022   1.011   0.256   4.802  0.5101 -0.4388  0.1941
 1129SOL    HW115023   1.065   0.285   4.728 -0.2980 -0.7093 -0.4913
 1129SOL    HW215024   0.999   0.327   4.865 -2.3696 -0.3403 -0.5044
 1130SOL     OW15025   0.964   3.567   6.880 -0.6266 -0.2478  0.3010
 1130SOL    HW115026   0.945   3.487   6.928 -0.6643  0.7646  1.9698
 1130SOL    HW215027   0.892   3.625   6.905  0.7678  2.7384 -2.6347
 1131SOL     OW15028   4.472   0.041   7.399  0.1939  0.0329  0.4851
 1131SOL    HW115029   4.399   0.098   7.426 -0.4250 -0.2131 -0.6784
 1131SOL    HW215030   4.448   4.686   7.425 -0.3452 -0.6300 -2.3191
 1132SOL     OW15031   2.038   3.584   4.104  0.0679 -0.3357  0.3890
 1132SOL    HW115032   2.001   3.527   4.037 -1.4078 -0.0355  0.9493
 1132SOL    HW215033   2.119   3.541   4.132  0.9108  0.5506 -0.6563
 1133SOL     OW15034   4.032   4.354   4.055 -0.8864 -0.0442  0.2238
 1133SOL    HW115035   4.093   4.418   4.092 -2.7540  0.9628  1.5487
 1133SOL    HW215036   3.987   4.322   4.133 -0.0703 -0.6756  0.4247
 1134SOL     OW15037   2.000   3.808   1.588  0.1588 -0.4146  0.0498
 1134SOL    HW115038   2.038   3.871   1.649 -1.1956  0.1076  0.3642
 1134SOL    HW215039   1.918   3.779   1.629  0.1028  0.2229  0.3867
 1135SOL     OW15040   1.893   1.666  13.812 -0.6148 -0.5331 -0.7018
 1135SOL    HW115041   1.868   1.736  13.873  0.9578 -0.0302 -0.6357
 1135SOL    HW215042   1.968   1.700  13.762 -0.5463  0.0126 -0.2254
 1136SOL     OW15043   0.093   0.034   6.609 -0.6054  0.6701  0.2529
 1136SOL    HW115044   0.063   4.685   6.647  1.8255  1.1751  3.2466
 1136SOL    HW215045   0.183   0.009   6.588 -0.2262  0.8010  1.7431
 1137SOL     OW15046   2.284   0.374   7.846 -0.0524  0.0491 -0.4938
 1137SOL    HW115047   2.228   0.312   7.799  0.0141 -0.2290 -0.2024
 1137SOL    HW215048   2.347   0.314   7.885 -0.8729  0.6145  1.7727
 1138SOL     OW15049   0.339   4.710   2.315  0.5636  0.1550  0.6823
 1138SOL    HW115050   0.367   0.049   2.370  0.9770  1.9318 -1.8799
 1138SOL    HW215051   0.405   4.642   2.329  1.4867  0.4572 -2.3023
 1139SOL     OW15052   0.900   2.190   1.918  0.4198 -0.0732  0.4799
 1139SOL    HW115053   0.846   2.113   1.899  2.8703 -1.6950  0.1411
 1139SOL    HW215054   0.831   2.226   1.974  0.0369 -0.9616  0.5778
 1140SOL     OW15055   0.294   3.991  10.121  0.1869 -0.1839 -0.5530
 1140SOL    HW115056   0.307   3.927  10.191  0.5994  1.6875  1.0986
 1140SOL    HW215057   0.200   4.009  10.124  0.6335  1.8490  1.2103
 1141SOL     OW15058   1.396   4.273   5.196 -0.3147 -0.1394 -0.3009
 1141SOL    HW115059   1.412   4.300   5.106 -1.1891 -1.9103 -0.9778
 1141SOL    HW215060   1.371   4.183   5.179  1.2650  0.0324 -3.4172
 1142SOL     OW15061   2.487   3.041   6.282  0.1372  0.2952 -0.1514
 1142SOL    HW115062   2.468   2.959   6.235  0.7936 -0.8760  1.6144
 1142SOL    HW215063   2.516   3.093   6.208  0.8722  2.0507  1.3740
 1143SOL     OW15064   2.956   0.564   7.565 -0.3545  0.2999  0.4216
 1143SOL    HW115065   2.914   0.641   7.604  1.4296  1.7690 -0.5877
 1143SOL    HW215066   3.049   0.578   7.581 -0.0964 -1.7157  0.6487
 1144SOL     OW15067   4.287   3.165  13.947 -0.4651 -0.2244  0.1478
 1144SOL    HW115068   4.221   3.225  13.914 -0.6667 -0.1364  0.7232
 1144SOL    HW215069   4.282   3.096  13.881 -0.0664 -1.1862  1.1125
 1145SOL     OW15070   2.361   3.028   9.004 -0.2697 -0.6243 -0.1774
 1145SOL    HW115071   2.324   2.942   8.982  0.0721 -0.6632 -0.6026
 1145SOL    HW215072   2.446   3.003   9.040  0.9323  0.2346 -2.4630
 1146SOL     OW15073   0.270   0.899   1.628  0.5628  1.1481  0.0157
 1146SOL    HW115074   0.257   0.853   1.545 -0.5272 -0.5355  1.1194
 1146SOL    HW215075   0.234   0.828   1.681  0.1926 -0.1755 -2.0279
 1147SOL     OW15076   2.872   4.548   5.669 -0.2383 -0.2616  0.0047
 1147SOL    HW115077   2.950   4.546   5.613 -1.2456 -0.4245 -1.3814
 1147SOL    HW215078   2.894   4.617   5.732 -0.2178  1.1775 -1.5724
 1148SOL     OW15079   0.878   3.456   2.376  0.5458  0.1966 -0.5536
 1148SOL    HW115080   0.904   3.377   2.422 -1.0652 -0.2733 -0.4525
 1148SOL    HW215081   0.790   3.436   2.342 -0.9757  3.0442  1.7736
 1149SOL     OW15082   2.558   4.040  17.332 -0.3668  0.2946 -0.9187
 1149SOL    HW115083   2.550   4.131  17.305 -0.5997  0.3122 -0.7848
 1149SOL    HW215084   2.529   4.027  17.422  1.3029 -0.9171 -0.5519
 1150SOL     OW15085   2.342   0.834   2.753 -0.5228 -0.3911  0.6789
 1150SOL    HW115086   2.359   0.757   2.699 -2.6638 -0.3466 -0.0240
 1150SOL    HW215087   2.289   0.794   2.821 -0.1227  0.2622  1.3822
 1151SOL     OW15088   1.533   1.612   0.089 -0.3370  0.0425  0.0999
 1151SOL    HW115089   1.572   1.596   0.003 -1.0462  2.0879 -0.6069
 1151SOL    HW215090   1.574   1.693   0.118  2.1258 -0.8803 -0.8036
 1152SOL     OW15091   4.197   4.632   1.741  0.1543  0.3904  0.2191
 1152SOL    HW115092   4.170   4.548   1.704  1.0202  1.0415 -1.8521
 1152SOL    HW215093   4.110   4.671   1.742  0.0916  0.2511  0.1463
 1153SOL     OW15094   0.250   2.014   4.169 -0.6897  0.4043  0.0750
 1153SOL    HW115095   0.163   1.990   4.201 -0.6891  0.1172 -0.1328
 1153SOL    HW215096   0.282   2.086   4.223  0.6361  0.2497 -0.5074
 1154SOL     OW15097   3.276   1.598   6.890  0.3403 -0.1327 -0.3125
 1154SOL    HW115098   3.336   1.672   6.908 -1.6333  0.8381  2.2121
 1154SOL    HW215099   3.292   1.594   6.796 -1.2212 -1.6913 -0.4934
 1155SOL     OW15100   0.487   2.459   3.068 -0.1256 -0.4569  0.1930
 1155SOL    HW115101   0.539   2.408   3.006  1.1819  1.3800 -0.2286
 1155SOL    HW215102   0.461   2.527   3.005 -0.7717 -0.2751  0.6506
 1156SOL     OW15103   0.945   2.773   6.605 -0.0777  0.0486  0.0299
 1156SOL    HW115104   0.870   2.769   6.665  1.5998 -0.4737  2.0960
 1156SOL    HW215105   1.004   2.710   6.647  1.5082  1.0771 -0.6731
 1157SOL     OW15106   2.589   0.221  13.625  0.1175  0.2178  0.0787
 1157SOL    HW115107   2.684   0.214  13.621  0.1936  0.7733  1.0164
 1157SOL    HW215108   2.552   0.180  13.546  1.9360 -2.9408  0.8938
 1158SOL     OW15109   2.972   1.534   3.082 -0.4720 -0.1237  0.5044
 1158SOL    HW115110   2.904   1.524   3.016 -0.1282  2.8198 -0.2769
 1158SOL    HW215111   3.004   1.616   3.045  1.8359 -0.7339  1.1472
 1159SOL     OW15112   2.826   1.672  11.704  0.6038  1.1122  0.4624
 1159SOL    HW115113   2.768   1.616  11.756  0.3598 -0.5430 -1.5928
 1159SOL    HW215114   2.907   1.670  11.755  0.1466  2.3603  1.2447
 1160SOL     OW15115   3.230   1.328   3.792  0.7224  0.2626 -0.4237
 1160SOL    HW115116   3.180   1.362   3.717 -0.0780 -0.8012 -0.3652
 1160SOL    HW215117   3.297   1.277   3.746  0.5191 -1.2096  0.9310
 1161SOL     OW15118   2.271   3.207   2.999 -0.6269  0.2293  0.3992
 1161SOL    HW115119   2.246   3.264   3.072  2.0026 -1.0996  2.3400
 1161SOL    HW215120   2.360   3.237   2.981 -0.3299 -0.5435  0.6007
 1162SOL     OW15121   0.457   3.649   1.894 -0.0558  0.1033 -0.0477
 1162SOL    HW115122   0.462   3.553   1.890  4.5706  0.3559 -1.0897
 1162SOL    HW215123   0.443   3.663   1.988 -0.3562 -0.3356 -0.0283
 1163SOL     OW15124   0.604   1.464  11.074 -0.0556  0.0940  0.0385
 1163SOL    HW115125   0.677   1.430  11.126 -1.9629 -2.2149  1.2244
 1163SOL    HW215126   0.545   1.481  11.148  0.4742 -1.3627  0.7930
 1164SOL     OW15127   2.892   0.515   6.663 -0.4134  0.1737  0.2974
 1164SOL    HW115128   2.911   0.469   6.581 -0.3788 -1.0020  0.9611
 1164SOL    HW215129   2.978   0.545   6.690 -0.1727  0.0121 -0.2853
 1165SOL     OW15130   2.108   2.584   5.430  0.0972 -0.1528  0.1608
 1165SOL    HW115131   2.028   2.596   5.481  0.2823  0.7610  0.2221
 1165SOL    HW215132   2.127   2.668   5.388  1.8296 -0.3157  0.5838
 1166SOL     OW15133   1.431   1.481   8.210 -0.1639 -0.0005 -0.0375
 1166SOL    HW115134   1.360   1.461   8.272 -0.2405  1.5238  0.3583
 1166SOL    HW215135   1.481   1.542   8.265  1.0189 -0.9705 -0.0327
 1167SOL     OW15136   4.386   2.992  16.677 -0.3890 -0.4593  0.7144
 1167SOL    HW115137   4.390   2.948  16.592  3.1349  0.2900  0.4865
 1167SOL    HW215138   4.386   3.083  16.646  1.6300 -0.3713  0.9851
 1168SOL     OW15139   2.678   1.961   6.160 -0.2403 -0.0364 -0.4485
 1168SOL    HW115140   2.697   1.923   6.245  2.0430 -1.9029 -1.8101
 1168SOL    HW215141   2.599   1.919   6.125 -1.1304 -0.2561  1.8394
 1169SOL     OW15142   2.702   1.203  15.295  0.0694  0.3063  0.0638
 1169SOL    HW115143   2.674   1.258  15.369  1.3584  1.9935 -0.7243
 1169SOL    HW215144   2.616   1.170  15.268 -2.0424  2.9938  3.3836
 1170SOL     OW15145   2.933   4.201   7.478 -0.3351  0.7430  0.6906
 1170SOL    HW115146   2.986   4.126   7.448 -1.4090  0.2838 -0.0880
 1170SOL    HW215147   2.894   4.165   7.557 -0.7907  0.4060  0.3137
 1171SOL     OW15148   1.418   1.422   5.318 -0.3959 -0.6577 -0.3937
 1171SOL    HW115149   1.428   1.330   5.292 -0.7476 -0.9272  0.3986
 1171SOL    HW215150   1.364   1.406   5.396 -0.8094 -0.7457 -0.6976
 1172SOL     OW15151   4.543   4.050  11.586 -0.0277 -0.0014  0.3030
 1172SOL    HW115152   4.506   4.087  11.506  0.3487 -0.8170 -0.2546
 1172SOL    HW215153   4.628   4.094  11.582 -0.0360  0.0162  0.3184
 1173SOL     OW15154   1.981   2.340   3.084  0.3524  0.1126 -0.3764
 1173SOL    HW115155   1.888   2.363   3.098  0.3932 -0.5946  1.1080
 1173SOL    HW215156   1.993   2.366   2.993 -2.0698  0.5676 -0.5651
 1174SOL     OW15157   4.106   1.151   4.160 -0.5756  0.3358  0.3862
 1174SOL    HW115158   4.184   1.206   4.165 -0.0216 -0.3582 -0.6558
 1174SOL    HW215159   4.079   1.129   4.250  0.4687 -1.3243  0.2937
 1175SOL     OW15160   1.510   1.786   2.114 -0.3901  0.2455  0.3111
 1175SOL    HW115161   1.528   1.779   2.020  0.5701  1.3800  0.4161
 1175SOL    HW215162   1.561   1.711   2.146 -0.2996 -0.7298 -2.1349
 1176SOL     OW15163   1.384   0.947  15.823 -0.3135 -0.6973 -0.0854
 1176SOL    HW115164   1.383   0.892  15.745  0.6271 -1.1930  0.2532
 1176SOL    HW215165   1.391   0.884  15.895 -0.2017 -0.6178 -0.0274
 1177SOL     OW15166   4.361   1.623   2.877  0.2117 -0.1912  0.6343
 1177SOL    HW115167   4.341   1.703   2.927 -1.1667  1.0457 -1.8996
 1177SOL    HW215168   4.456   1.624   2.864  0.2193 -2.2467  0.5986
 1178SOL     OW15169   0.847   4.217  13.080 -0.6877  0.6039 -0.4499
 1178SOL    HW115170   0.822   4.194  12.991  0.5089 -1.2761 -0.3082
 1178SOL    HW215171   0.859   4.129  13.117  0.5198  1.4279  1.1280
 1179SOL     OW15172   3.558   1.015  14.530 -0.1777  0.1045 -0.1705
 1179SOL    HW115173   3.572   1.022  14.435 -1.0457  3.9690 -0.0213
 1179SOL    HW215174   3.533   1.106  14.550 -1.7760 -0.2977 -0.3415
 1180SOL     OW15175   3.987   3.427   7.249 -0.7351 -0.1875 -0.4515
 1180SOL    HW115176   3.986   3.331   7.251  2.3949 -0.2420 -1.1727
 1180SOL    HW215177   3.900   3.453   7.280 -1.4924 -1.7646 -1.2522
 1181SOL     OW15178   3.221   0.279  10.256 -0.1227 -0.1989  0.0775
 1181SOL    HW115179   3.287   0.346  10.240 -2.0730  1.7035  0.0527
 1181SOL    HW215180   3.174   0.276  10.173 -1.7929  0.2997  1.0160
 1182SOL     OW15181   1.188   4.507   3.334  0.5476 -0.6263 -0.4004
 1182SOL    HW115182   1.114   4.541   3.385 -0.1331  0.5463 -2.1840
 1182SOL    HW215183   1.254   4.512   3.403 -0.4636  1.2990  0.4308
 1183SOL     OW15184   1.601   2.731   6.534  0.2658  0.2273  0.1271
 1183SOL    HW115185   1.535   2.704   6.599 -1.3319  1.7354 -0.8611
 1183SOL    HW215186   1.656   2.798   6.573  3.5926 -2.3194 -0.1966
 1184SOL     OW15187   0.440   0.057  16.246 -0.4292 -0.0506  0.0910
 1184SOL    HW115188   0.380   0.005  16.300 -0.2974 -1.0939 -0.7658
 1184SOL    HW215189   0.524   0.028  16.282  1.2446  2.6553 -1.7249
 1185SOL     OW15190   3.099   1.992  13.046  0.3844  0.4040  0.1931
 1185SOL    HW115191   3.146   2.065  13.006  3.5107 -1.3420  0.6392
 1185SOL    HW215192   3.092   1.931  12.972  0.0430  3.7793 -2.5202
 1186SOL     OW15193   2.631   2.196   4.756  0.0704 -0.3839  0.1283
 1186SOL    HW115194   2.700   2.202   4.822 -0.3571  0.5307  0.4923
 1186SOL    HW215195   2.550   2.216   4.803 -1.3044 -2.6770 -1.2370
 1187SOL     OW15196   0.927   1.708   7.906 -0.1089 -0.0856 -0.3471
 1187SOL    HW115197   0.969   1.729   7.823  1.1203  0.6043  0.4493
 1187SOL    HW215198   0.998   1.682   7.965 -0.5589 -0.8749 -0.1539
 1188SOL     OW15199   3.639   2.925   2.262  0.1751 -0.3956 -0.3925
 1188SOL    HW115200   3.676   3.004   2.302  0.4298 -0.2712 -0.8734
 1188SOL    HW215201   3.710   2.883   2.215 -0.1199 -1.7089  0.3345
 1189SOL     OW15202   3.557   1.008  14.273 -0.3221  0.0958  0.3763
 1189SOL    HW115203   3.595   1.068  14.209  0.7986  0.5462  1.4598
 1189SOL    HW215204   3.555   0.930  14.218 -0.4220  0.8024 -0.6166
 1190SOL     OW15205   3.451   3.085   7.320  0.4807  1.3320  0.0155
 1190SOL    HW115206   3.478   3.064   7.409 -2.6362 -1.0500  0.4117
 1190SOL    HW215207   3.532   3.073   7.270 -0.2231 -1.4399 -0.4786
 1191SOL     OW15208   4.170   2.576   6.187 -0.1067 -0.4191  0.6165
 1191SOL    HW115209   4.181   2.649   6.127  1.3768 -0.8211  0.3951
 1191SOL    HW215210   4.097   2.619   6.231  1.0487 -0.6532  2.7686
 1192SOL     OW15211   1.675   2.239   3.784 -0.5307 -0.2406 -0.7147
 1192SOL    HW115212   1.724   2.248   3.702  0.2916 -0.3845 -0.2382
 1192SOL    HW215213   1.602   2.180   3.765  0.2868 -1.5727  0.2202
 1193SOL     OW15214   1.133   2.089  10.243  0.3174 -0.3752  0.5402
 1193SOL    HW115215   1.158   2.094  10.335  2.8693  0.1870 -0.1883
 1193SOL    HW215216   1.038   2.076  10.242  0.5342 -1.8053 -0.7820
 1194SOL     OW15217   0.720   1.193   2.915  0.3480  0.8160 -0.2700
 1194SOL    HW115218   0.693   1.113   2.870  1.3048  0.9363 -1.0703
 1194SOL    HW215219   0.800   1.168   2.960 -0.1555  1.6911  1.1012
 1195SOL     OW15220   1.852   1.234   8.052 -0.2627  0.5968  0.5864
 1195SOL    HW115221   1.766   1.257   8.016  0.9128  0.3150 -2.4563
 1195SOL    HW215222   1.841   1.276   8.137  1.2538 -1.3971  1.7503
 1196SOL     OW15223   3.292   1.528  15.260 -0.2125  0.2880  0.2018
 1196SOL    HW115224   3.388   1.523  15.265 -0.1748 -0.2325 -1.0388
 1196SOL    HW215225   3.294   1.616  15.223  0.5832 -0.1077 -0.6941
 1197SOL     OW15226   3.290   3.171  13.351 -0.6117 -0.5556 -0.4230
 1197SOL    HW115227   3.321   3.247  13.302  2.2052 -1.3490  0.1075
 1197SOL    HW215228   3.278   3.119  13.272  1.4688 -0.8025 -0.5747
 1198SOL     OW15229   3.207   3.854   3.854 -0.3143 -0.8713  0.0670
 1198SOL    HW115230   3.185   3.771   3.812 -1.5555  0.8778 -2.6605
 1198SOL    HW215231   3.233   3.827   3.943 -0.0201 -0.8391 -0.0075
 1199SOL     OW15232   2.385   0.839   3.126 -0.3996 -0.3170  0.4454
 1199SOL    HW115233   2.465   0.805   3.166  1.1308 -1.0733 -3.2621
 1199SOL    HW215234   2.357   0.785   3.052  0.5262  1.2108 -1.0299
 1200SOL     OW15235   4.354   0.461  10.708  0.2143 -0.4644 -0.4478
 1200SOL    HW115236   4.374   0.447  10.616  0.4248  0.1595 -0.4966
 1200SOL    HW215237   4.357   0.557  10.715  0.9502 -0.5644  0.7240
 1201SOL     OW15238   4.224   3.534  13.842  0.2910  0.0858  0.1575
 1201SOL    HW115239   4.194   3.508  13.755 -0.9754 -2.2898  1.3028
 1201SOL    HW215240   4.161   3.484  13.894 -0.3021  0.6355 -0.0283
 1202SOL     OW15241   2.614   0.668   7.015 -0.1239 -0.4641  0.3365
 1202SOL    HW115242   2.549   0.597   7.017 -0.1533 -0.4407  0.2470
 1202SOL    HW215243   2.693   0.614   7.026 -1.8723 -3.2469 -0.5577
 1203SOL     OW15244   4.359   2.222   4.222  0.1137 -0.1951 -0.1343
 1203SOL    HW115245   4.275   2.180   4.205  1.4695 -3.1665  0.3791
 1203SOL    HW215246   4.422   2.151   4.238  1.3458  1.1001  0.8883
 1204SOL     OW15247   4.259   2.715   0.775  0.6551  0.8572  0.0968
 1204SOL    HW115248   4.316   2.639   0.775 -0.7703 -0.2078 -2.7990
 1204SOL    HW215249   4.175   2.686   0.809 -0.9301  0.8704 -3.7518
 1205SOL     OW15250   1.052   0.630   4.401  0.1144  0.2731 -0.0489
 1205SOL    HW115251   1.071   0.721   4.377  1.7067  0.0129  0.2470
 1205SOL    HW215252   1.041   0.631   4.496 -1.9056  1.7435 -0.2832
 1206SOL     OW15253   4.285   1.372   7.486  0.5519  0.0716  0.1237
 1206SOL    HW115254   4.246   1.352   7.571 -2.4317 -1.7800 -1.6740
 1206SOL    HW215255   4.375   1.398   7.505 -0.2401  2.5510  0.4604
 1207SOL     OW15256   1.655   4.138   6.138  0.1650 -0.0563 -0.4412
 1207SOL    HW115257   1.588   4.150   6.071  1.2679 -0.4540 -1.6109
 1207SOL    HW215258   1.686   4.227   6.155  1.5060 -0.3459 -1.3561
 1208SOL     OW15259   2.755   2.063  17.246  0.0225 -0.3117  0.5874
 1208SOL    HW115260   2.725   2.064  17.337 -3.0107  1.4659 -0.4324
 1208SOL    HW215261   2.670   2.069  17.203  0.8476 -1.6612 -1.2205
 1209SOL     OW15262   4.492   2.444  16.610  0.4561  0.1503 -0.5123
 1209SOL    HW115263   4.555   2.402  16.551  2.0550  2.4382 -0.4259
 1209SOL    HW215264   4.544   2.458  16.690 -0.9138  0.6964  0.2794
 1210SOL     OW15265   4.201   1.561   1.668 -0.1305  0.4652 -0.1738
 1210SOL    HW115266   4.289   1.583   1.638 -0.3586  1.0683 -0.4050
 1210SOL    HW215267   4.188   1.469   1.646 -1.6548  0.5024  0.6080
 1211SOL     OW15268   3.739   3.954   7.734  0.9133  0.3637  0.5364
 1211SOL    HW115269   3.684   3.973   7.811  0.0186  0.3089 -0.0850
 1211SOL    HW215270   3.754   3.860   7.740 -1.6308 -0.1621 -1.1984
 1212SOL     OW15271   4.717   3.641   7.293 -0.9143 -0.8210 -0.4284
 1212SOL    HW115272   0.021   3.621   7.379 -1.2279 -2.3482 -0.6555
 1212SOL    HW215273   4.637   3.590   7.284 -2.0336  0.8146  0.2644
 1213SOL     OW15274   3.469   2.747   2.134 -0.2094 -0.5740 -0.3814
 1213SOL    HW115275   3.528   2.674   2.154 -1.0429 -1.0520  0.3760
 1213SOL    HW215276   3.511   2.816   2.185  0.3769 -0.9386 -0.3707
 1214SOL     OW15277   0.678   4.361   1.640  0.0074  0.1151  0.1389
 1214SOL    HW115278   0.633   4.420   1.579 -1.0961 -3.3062 -2.3960
 1214SOL    HW215279   0.766   4.388   1.614 -0.8710  1.0132 -1.9012
 1215SOL     OW15280   1.445   2.352  10.660  0.3558  0.4239  0.1093
 1215SOL    HW115281   1.540   2.358  10.652  0.2845  0.3324 -0.9166
 1215SOL    HW215282   1.423   2.417  10.593 -2.9943 -0.5262  0.2760
 1216SOL     OW15283   0.510   1.279   5.418  0.1105  0.0178  0.2055
 1216SOL    HW115284   0.590   1.259   5.370  0.0636  0.2138  0.0462
 1216SOL    HW215285   0.434   1.226   5.392  0.5066 -0.7879  0.6925
 1217SOL     OW15286   0.085   0.045   2.554 -0.0861  0.3416 -0.4078
 1217SOL    HW115287   0.061   4.711   2.491  0.8534  1.2814 -1.7779
 1217SOL    HW215288   0.004   0.042   2.604  0.3805  0.9496  0.4012
 1218SOL     OW15289   0.692   2.601   2.353  0.1027 -0.2548  0.2427
 1218SOL    HW115290   0.661   2.624   2.441  1.4527  2.5770 -0.0225
 1218SOL    HW215291   0.634   2.650   2.294 -1.7500 -0.4561  1.8665
 1219SOL     OW15292   1.766   0.657   7.570 -0.2638  0.5142  0.1280
 1219SOL    HW115293   1.808   0.648   7.655 -0.0249 -1.1942 -0.1753
 1219SOL    HW215294   1.838   0.636   7.510 -0.1209  0.5752  0.2775
 1220SOL     OW15295   4.170   2.287   6.179  0.0392 -0.0664  0.5568
 1220SOL    HW115296   4.258   2.266   6.150 -0.0909  0.1988 -0.0250
 1220SOL    HW215297   4.167   2.383   6.183 -1.0842 -0.0205 -1.6111
 1221SOL     OW15298   1.221   4.107  14.609  0.1141 -0.1549  0.1978
 1221SOL    HW115299   1.290   4.159  14.568  1.3069 -1.1193  0.9961
 1221SOL    HW215300   1.210   4.050  14.533 -1.2766 -1.0436  1.0571
 1222SOL     OW15301   2.275   3.924   4.505  0.3086  0.2658 -0.3243
 1222SOL    HW115302   2.205   3.978   4.543  1.3439  0.5017  1.2750
 1222SOL    HW215303   2.294   3.858   4.571 -0.6190  0.4962  0.1719
 1223SOL     OW15304   0.779   3.810   7.509 -0.7479  0.1532 -0.1777
 1223SOL    HW115305   0.751   3.858   7.431 -0.2982  0.7787  0.0383
 1223SOL    HW215306   0.759   3.883   7.569 -0.3233 -0.7115  1.0174
 1224SOL     OW15307   3.899   1.841   1.149  0.1739 -0.5167 -0.0876
 1224SOL    HW115308   3.813   1.802   1.165 -0.1657  0.6411  0.8521
 1224SOL    HW215309   3.905   1.826   1.055 -0.6241 -0.0829 -0.2054
 1225SOL     OW15310   4.431   2.377   7.419  0.0924  0.4023 -0.1482
 1225SOL    HW115311   4.443   2.332   7.336  2.0232  1.7640 -0.5921
 1225SOL    HW215312   4.512   2.354   7.464  0.1018  1.2598  0.2738
 1226SOL     OW15313   3.671   0.413   5.518  0.2443  0.3049  0.3418
 1226SOL    HW115314   3.576   0.404   5.515  0.4277 -1.2359 -1.1638
 1226SOL    HW215315   3.684   0.388   5.609  3.1898 -1.9892 -0.7215
 1227SOL     OW15316   3.542   3.965   5.248 -0.4264 -0.6140  0.9032
 1227SOL    HW115317   3.554   3.905   5.175  2.3503 -1.4947  2.0855
 1227SOL    HW215318   3.460   3.927   5.280 -0.8464  0.8379  1.5497
 1228SOL     OW15319   2.734   1.930   8.660  0.5380  0.4738  0.5510
 1228SOL    HW115320   2.829   1.941   8.666  0.4970  0.6624  0.8629
 1228SOL    HW215321   2.704   1.966   8.744  2.3383  0.2402  1.3059
 1229SOL     OW15322   1.703   0.828   5.805 -0.0565  0.2554 -0.3370
 1229SOL    HW115323   1.783   0.812   5.753  0.9165  0.5604  1.0648
 1229SOL    HW215324   1.713   0.915   5.843  0.2845 -0.0713  0.3251
 1230SOL     OW15325   1.188   1.946  13.453 -0.0297 -0.1706  0.1094
 1230SOL    HW115326   1.282   1.930  13.454  0.0847  0.5482  0.3609
 1230SOL    HW215327   1.181   2.038  13.430 -0.2881 -0.3359 -0.4725
 1231SOL     OW15328   4.347   2.772  12.015 -0.2277  0.3186  0.3064
 1231SOL    HW115329   4.294   2.784  12.094 -0.8422  0.5557 -0.1428
 1231SOL    HW215330   4.419   2.835  12.019  0.8692 -0.8719 -0.7049
 1232SOL     OW15331   4.369   4.356   1.696  0.1649 -0.0023 -0.0204
 1232SOL    HW115332   4.330   4.375   1.611 -0.5191 -0.2462  0.2429
 1232SOL    HW215333   4.382   4.444   1.732  0.7507  0.0564 -0.3731
 1233SOL     OW15334   0.287   2.251   0.699 -0.0895  0.3349 -0.4153
 1233SOL    HW115335   0.282   2.250   0.603  1.2334 -0.8018 -0.4829
 1233SOL    HW215336   0.374   2.215   0.720 -0.8287 -0.6180  0.9926
 1234SOL     OW15337   2.362   0.451   7.595 -0.3173 -0.6947  0.4352
 1234SOL    HW115338   2.356   0.422   7.686 -0.1411 -1.5479  0.1745
 1234SOL    HW215339   2.268   0.437   7.579 -0.4149  1.3764 -0.8658
 1235SOL     OW15340   2.934   2.188   2.232  0.1056  0.4281  0.2383
 1235SOL    HW115341   2.934   2.110   2.287 -1.5276  0.7024  0.6233
 1235SOL    HW215342   2.890   2.145   2.159 -1.7676  0.0059  1.6323
 1236SOL     OW15343   4.039   1.006   5.452 -0.1887 -0.4340  0.5665
 1236SOL    HW115344   3.968   0.986   5.513 -0.8090 -0.7361 -0.2600
 1236SOL    HW215345   4.042   1.102   5.449  1.3669 -0.5421 -1.4183
 1237SOL     OW15346   1.927   0.631   8.053 -0.2556 -0.4334 -0.2690
 1237SOL    HW115347   1.874   0.555   8.031  0.9178 -0.4274 -3.0877
 1237SOL    HW215348   2.013   0.625   8.012  0.6921 -0.5839  1.7112
 1238SOL     OW15349   1.625   3.198   0.806 -0.4766  0.4901  0.2563
 1238SOL    HW115350   1.652   3.106   0.806 -0.7363  0.4110  0.6127
 1238SOL    HW215351   1.540   3.189   0.764  0.5772 -0.9981 -1.5743
 1239SOL     OW15352   3.194   4.554  10.604  0.5163  0.1974 -0.0117
 1239SOL    HW115353   3.201   4.646  10.579  2.1236 -0.9030 -3.7446
 1239SOL    HW215354   3.255   4.521  10.537 -0.7218 -0.8674 -0.6097
 1240SOL     OW15355   4.271   1.030   9.219 -0.0172  0.8143  0.5049
 1240SOL    HW115356   4.233   0.986   9.295 -1.3418 -0.9407 -1.1617
 1240SOL    HW215357   4.211   1.105   9.216  0.6784  1.3721  0.5666
 1241SOL     OW15358   2.879   0.728  11.201  0.4586  0.1565 -0.6779
 1241SOL    HW115359   2.809   0.718  11.136 -0.6052  1.6627  0.2375
 1241SOL    HW215360   2.947   0.673  11.164  1.3825  1.3114 -0.6924
 1242SOL     OW15361   0.694   2.179   5.552  0.4440 -0.6157  0.6151
 1242SOL    HW115362   0.708   2.118   5.479 -3.0806  0.7572 -1.2052
 1242SOL    HW215363   0.713   2.266   5.518  1.7496 -0.2690  2.2381
 1243SOL     OW15364   3.946   3.001   4.683 -0.9796  0.5915 -0.0325
 1243SOL    HW115365   3.993   3.072   4.640  3.4306 -1.2122  1.7807
 1243SOL    HW215366   3.866   2.994   4.630 -0.7250  0.4936 -0.3996
 1244SOL     OW15367   0.133   2.506   8.879 -0.5525 -0.2971 -0.2758
 1244SOL    HW115368   0.176   2.485   8.797  1.3742  1.7162  0.2105
 1244SOL    HW215369   0.196   2.488   8.949 -0.3534  1.9653  0.1502
 1245SOL     OW15370   0.909   3.422   4.075  0.5071  0.0344 -0.5597
 1245SOL    HW115371   0.995   3.388   4.049  0.8630  1.5355 -1.2976
 1245SOL    HW215372   0.903   3.366   4.152 -1.8672  1.9983  0.6821
 1246SOL     OW15373   2.761   2.382   2.099  0.3818  0.1659 -0.2178
 1246SOL    HW115374   2.827   2.335   2.151  0.7395  0.1620 -0.6704
 1246SOL    HW215375   2.709   2.413   2.173 -2.0024 -0.9889 -1.4254
 1247SOL     OW15376   2.498   1.833   2.680  0.0309  0.3809  0.3137
 1247SOL    HW115377   2.444   1.883   2.618 -1.0910 -2.5448 -1.0847
 1247SOL    HW215378   2.443   1.821   2.758  2.2021 -0.7038  1.6671
 1248SOL     OW15379   2.342   2.389  11.324 -0.1795 -0.7377 -0.5222
 1248SOL    HW115380   2.259   2.384  11.371 -1.6375  1.3693 -2.8259
 1248SOL    HW215381   2.349   2.296  11.302 -2.5885 -0.9034 -0.5462
 1249SOL     OW15382   3.625   2.927   8.286  0.4374 -0.3119  0.1337
 1249SOL    HW115383   3.553   2.916   8.224 -0.0761 -1.0298  0.8646
 1249SOL    HW215384   3.574   2.955   8.362  1.6132  0.2564  0.7147
 1250SOL     OW15385   0.056   1.463   6.620 -0.2497  0.3942  0.3276
 1250SOL    HW115386   0.116   1.479   6.692  1.4093  1.5655 -1.3282
 1250SOL    HW215387   4.703   1.469   6.660 -0.6091 -1.2224 -0.2043
 1251SOL     OW15388   2.243   0.300   1.450 -0.2218 -0.3970 -0.1789
 1251SOL    HW115389   2.276   0.234   1.389 -3.1167 -1.5862 -0.4580
 1251SOL    HW215390   2.206   0.360   1.386  0.7931 -0.9108 -1.2425
 1252SOL     OW15391   4.695   0.907   8.519  0.2306  0.0778  0.0339
 1252SOL    HW115392   0.053   0.935   8.519  0.0097  0.7821  2.6903
 1252SOL    HW215393   4.645   0.980   8.484 -1.2693 -0.3234  1.3707
 1253SOL     OW15394   2.741   1.997   2.687 -0.0767 -0.2096  0.4651
 1253SOL    HW115395   2.816   1.969   2.635  0.5420 -1.6053  2.1172
 1253SOL    HW215396   2.675   1.930   2.669  0.6129 -0.3862 -1.4059
 1254SOL     OW15397   1.848   1.535  17.518  0.3746 -0.1058  0.0951
 1254SOL    HW115398   1.782   1.537  17.449  2.0011 -2.4548 -1.5352
 1254SOL    HW215399   1.859   1.440  17.515 -0.8748 -0.2134 -1.4105
 1255SOL     OW15400   1.393   1.468   4.085  0.3990  0.0505  0.1010
 1255SOL    HW115401   1.439   1.550   4.070 -0.2474  0.4757  0.4534
 1255SOL    HW215402   1.466   1.407   4.070  0.4470  0.1825 -0.1922
 1256SOL     OW15403   1.831   1.145   9.089 -0.7100 -0.2991  0.4892
 1256SOL    HW115404   1.787   1.105   9.014  0.1115 -2.2016  1.0267
 1256SOL    HW215405   1.762   1.138   9.155 -0.0559  0.7233  1.2928
 1257SOL     OW15406   2.902   2.940   3.554 -0.3361  0.0207  0.6200
 1257SOL    HW115407   2.975   3.001   3.562 -0.5179  0.2317  0.6981
 1257SOL    HW215408   2.910   2.905   3.465 -2.5555  1.8294 -0.3123
 1258SOL     OW15409   2.691   3.011   3.906  0.3844  0.1004  0.2084
 1258SOL    HW115410   2.650   3.064   3.975 -0.8410  2.6518 -2.4847
 1258SOL    HW215411   2.642   3.047   3.832  0.9309 -1.1854 -0.7635
 1259SOL     OW15412   0.362   4.704   9.706  0.0828  0.2791  0.1563
 1259SOL    HW115413   0.302   4.647   9.658 -0.1418  0.9031 -0.3061
 1259SOL    HW215414   0.316   0.053   9.721 -1.8707 -0.6417 -0.7325
 1260SOL     OW15415   3.488   1.988   9.582 -0.0135 -0.4387  0.2514
 1260SOL    HW115416   3.526   1.916   9.530  0.7771  1.8596 -2.3552
 1260SOL    HW215417   3.571   2.035   9.590 -0.0425  0.3915 -3.9501
 1261SOL     OW15418   1.554   3.938   4.532  0.0364 -0.4187  0.5604
 1261SOL    HW115419   1.576   4.031   4.538 -1.7127  0.1488 -1.9942
 1261SOL    HW215420   1.487   3.937   4.463  0.2088 -2.7453  0.4321
 1262SOL     OW15421   4.623   0.095  13.588 -0.7764 -0.1187 -0.2155
 1262SOL    HW115422   4.715   0.097  13.616 -1.0200  1.9237  0.4670
 1262SOL    HW215423   4.628   0.163  13.520 -1.0976 -0.1448 -0.2625
 1263SOL     OW15424   4.434   4.126   5.486 -0.0437 -0.0471 -0.4049
 1263SOL    HW115425   4.413   4.220   5.490  2.9449  0.6241 -0.3572
 1263SOL    HW215426   4.465   4.110   5.576  0.2999  0.2160 -0.4774
 1264SOL     OW15427   0.415   2.433   1.928  0.2460 -0.3880 -0.1644
 1264SOL    HW115428   0.321   2.439   1.911  0.0394 -0.5274  0.9120
 1264SOL    HW215429   0.420   2.355   1.983  1.8074  1.1662  1.9019
 1265SOL     OW15430   2.535   2.147   6.554 -0.6261 -0.2754  0.3543
 1265SOL    HW115431   2.581   2.185   6.479  0.8988  2.5034  2.6882
 1265SOL    HW215432   2.521   2.230   6.601  1.7003  1.3463 -1.8251
 1266SOL     OW15433   1.196   4.407  12.562 -0.1915 -0.2471  0.5499
 1266SOL    HW115434   1.118   4.441  12.606  0.2452  0.1298  1.0293
 1266SOL    HW215435   1.263   4.476  12.563 -2.3706  1.8859 -0.0568
 1267SOL     OW15436   4.552   0.224   1.009  0.7653  0.4213 -0.2199
 1267SOL    HW115437   4.476   0.231   1.067  1.6897 -0.7932  1.1232
 1267SOL    HW215438   4.521   0.209   0.919  0.6483  1.5901 -0.3779
 1268SOL     OW15439   0.420   1.696   8.636  0.0202  0.0694  0.2677
 1268SOL    HW115440   0.340   1.749   8.635 -1.2643 -1.8475  1.3492
 1268SOL    HW215441   0.477   1.747   8.693  2.7927 -0.1862 -2.2985
 1269SOL     OW15442   0.427   3.052   6.137 -0.0900 -0.0994  0.2458
 1269SOL    HW115443   0.410   3.039   6.230  1.8571 -1.3797  0.4282
 1269SOL    HW215444   0.359   3.001   6.094  2.4465 -2.7657 -0.6289
 1270SOL     OW15445   2.989   2.376   6.862 -0.0566 -0.2006 -0.2345
 1270SOL    HW115446   3.050   2.448   6.877  2.2212 -1.7708 -1.9750
 1270SOL    HW215447   3.031   2.339   6.785 -2.2872 -1.9903 -0.5832
 1271SOL     OW15448   0.521   1.541   9.936  0.5285 -0.2977  0.5963
 1271SOL    HW115449   0.540   1.590  10.016 -0.9713 -1.1433  1.4725
 1271SOL    HW215450   0.607   1.518   9.900  0.6728 -2.2849  2.1718
 1272SOL     OW15451   4.542   2.947   4.170 -0.1765  0.0960 -0.0882
 1272SOL    HW115452   4.561   2.855   4.189  1.2008  0.6214  1.0707
 1272SOL    HW215453   4.632   2.973   4.150 -0.8020  0.1429 -2.8651
 1273SOL     OW15454   2.813   2.976   5.000 -0.3998  0.5710 -0.1489
 1273SOL    HW115455   2.824   2.915   5.073 -0.9351  0.9523  0.2560
 1273SOL    HW215456   2.901   2.987   4.964 -0.5989 -1.2352 -1.1791
 1274SOL     OW15457   0.885   3.948  13.128 -0.0991 -0.5458 -0.7515
 1274SOL    HW115458   0.976   3.924  13.113 -0.3706 -1.5556 -0.7910
 1274SOL    HW215459   0.843   3.863  13.119 -1.1998 -0.3161  2.2736
 1275SOL     OW15460   3.188   0.947   5.704  0.1274  0.2501  0.3886
 1275SOL    HW115461   3.121   0.972   5.767  0.0462  0.7734  0.0941
 1275SOL    HW215462   3.271   0.974   5.744  0.1505 -0.5953  0.8959
 1276SOL     OW15463   1.298   1.440   3.649 -0.0591 -0.5365  0.3905
 1276SOL    HW115464   1.371   1.425   3.589 -0.5264  1.8240 -0.7850
 1276SOL    HW215465   1.320   1.372   3.712 -1.2674  1.0521  2.5368
 1277SOL     OW15466   1.853   3.478   8.543  0.0451 -0.7461  0.4234
 1277SOL    HW115467   1.933   3.461   8.493 -0.5308  0.0573 -0.7629
 1277SOL    HW215468   1.858   3.573   8.528 -1.1033 -0.4946  1.6470
 1278SOL     OW15469   0.049   1.669   1.454 -0.2616 -0.0395  0.3316
 1278SOL    HW115470   4.707   1.611   1.447 -1.8233  1.9498  0.7527
 1278SOL    HW215471   0.053   1.664   1.549 -0.8808 -0.3462  0.3454
 1279SOL     OW15472   3.829   3.342   8.862  0.0678 -0.5926 -0.4626
 1279SOL    HW115473   3.921   3.358   8.885  0.1528 -0.7402 -0.6984
 1279SOL    HW215474   3.790   3.323   8.947 -0.4375  0.7335 -0.4016
 1280SOL     OW15475   3.122   3.258   0.707 -0.2742 -0.0725  0.1707
 1280SOL    HW115476   3.216   3.246   0.691 -0.6789 -0.4888 -1.8759
 1280SOL    HW215477   3.078   3.214   0.634  0.1032  0.2232 -0.2383
 1281SOL     OW15478   3.731   4.432   3.886 -0.4659  0.2367  0.1435
 1281SOL    HW115479   3.681   4.509   3.859 -1.3206 -1.0595 -2.0036
 1281SOL    HW215480   3.694   4.401   3.968 -1.2239  0.9549  0.0710
 1282SOL     OW15481   3.787   3.297  17.608 -0.0550 -0.1881  0.3085
 1282SOL    HW115482   3.788   3.315  17.514  1.8962 -3.0013 -0.2055
 1282SOL    HW215483   3.794   3.388  17.638 -2.9177  0.2443 -0.3097
 1283SOL     OW15484   0.453   2.370   8.480 -0.1526  0.4169 -0.0317
 1283SOL    HW115485   0.525   2.425   8.512  0.5377  0.0148 -0.9040
 1283SOL    HW215486   0.468   2.276   8.488 -0.1213  0.4864  0.6804
 1284SOL     OW15487   1.334   3.746   4.992 -0.0945  0.1703  0.1457
 1284SOL    HW115488   1.410   3.803   5.002 -1.6033  1.8718  1.9142
 1284SOL    HW215489   1.384   3.667   4.974  0.9330  0.9800 -0.5157
 1285SOL     OW15490   0.649   0.267  17.419  0.2893  0.1687  0.1662
 1285SOL    HW115491   0.708   0.236  17.351 -0.9109 -0.5488 -0.5395
 1285SOL    HW215492   0.708   0.253  17.493  0.0927 -2.4448 -0.1749
 1286SOL     OW15493   1.637   0.186   2.817 -0.0519  0.3539  0.0243
 1286SOL    HW115494   1.685   0.168   2.897  2.2157  2.1196 -0.9532
 1286SOL    HW215495   1.581   0.258   2.845  0.6472  1.0943 -0.5076
 1287SOL     OW15496   0.150   3.522   1.445  0.1581  0.6004 -0.4373
 1287SOL    HW115497   0.075   3.473   1.477 -0.3171  2.3990  1.2452
 1287SOL    HW215498   0.201   3.459   1.395  0.2910  1.2198 -1.0812
 1288SOL     OW15499   2.310   4.657   6.544 -0.1896 -0.1822 -0.6998
 1288SOL    HW115500   2.313   4.635   6.451  1.7115 -1.6524 -0.2674
 1288SOL    HW215501   2.401   4.682   6.557 -0.3531  1.0564 -1.9488
 1289SOL     OW15502   1.155   4.710   9.363  0.1316 -0.2057  0.2193
 1289SOL    HW115503   1.220   4.674   9.303  1.3685  0.7821  0.9580
 1289SOL    HW215504   1.104   4.634   9.391 -1.7848  1.1684  0.4283
 1290SOL     OW15505   3.287   4.640   8.934 -0.0191 -0.6674  0.2795
 1290SOL    HW115506   3.217   4.661   8.996 -0.0939  2.5808 -0.8979
 1290SOL    HW215507   3.266   4.547   8.929  0.5888 -0.7803 -0.2456
 1291SOL     OW15508   3.257   1.491   4.180  0.4154  0.0749  0.4562
 1291SOL    HW115509   3.164   1.508   4.188  0.6225  1.6264 -0.4203
 1291SOL    HW215510   3.293   1.522   4.263 -0.5902 -0.8272  1.2263
 1292SOL     OW15511   1.149   2.940  10.022 -0.0003 -0.1457  0.0304
 1292SOL    HW115512   1.110   2.857   9.997 -1.2892  0.3312  0.4932
 1292SOL    HW215513   1.197   2.964   9.942  0.2093 -0.3566  0.0905
 1293SOL     OW15514   1.377   3.071  14.453 -0.2762 -0.1252 -0.4352
 1293SOL    HW115515   1.282   3.076  14.464 -0.3106  2.1189 -1.6658
 1293SOL    HW215516   1.383   3.074  14.357 -4.3609  1.3928 -0.6384
 1294SOL     OW15517   2.885   2.619   7.860  0.1059 -0.1929 -0.0153
 1294SOL    HW115518   2.885   2.563   7.783 -0.1013  0.6054 -0.5945
 1294SOL    HW215519   2.970   2.605   7.902  0.5506  1.0203 -0.5122
 1295SOL     OW15520   1.875   0.491   9.588  0.6057  0.1019  0.3685
 1295SOL    HW115521   1.892   0.398   9.576 -0.6025 -0.1928  0.9538
 1295SOL    HW215522   1.923   0.533   9.516  0.5739 -1.0076 -0.3022
 1296SOL     OW15523   1.128   3.692   8.979  0.0424 -0.4425  1.0160
 1296SOL    HW115524   1.046   3.654   8.946  1.8686 -3.7222  0.2985
 1296SOL    HW215525   1.185   3.685   8.902 -0.5028 -1.6847  0.7315
 1297SOL     OW15526   0.519   2.161  11.685  0.2270 -0.3211 -0.1792
 1297SOL    HW115527   0.602   2.174  11.639 -0.2383  0.2659 -0.8674
 1297SOL    HW215528   0.544   2.135  11.774 -1.9917  3.3203  1.5261
 1298SOL     OW15529   4.123   2.892   2.755 -0.4883 -0.6177  0.4402
 1298SOL    HW115530   4.146   2.800   2.748 -0.8359 -0.4101 -3.7149
 1298SOL    HW215531   4.213   2.919   2.767 -1.0631  0.5971  2.0099
 1299SOL     OW15532   0.732   4.180   1.966  0.6478  0.1536 -0.3885
 1299SOL    HW115533   0.791   4.127   1.913  2.1970 -1.4472  2.9468
 1299SOL    HW215534   0.661   4.116   1.964 -1.3164  2.3193 -0.0144
 1300SOL     OW15535   4.101   4.435  13.601 -0.3998  0.1931  0.1740
 1300SOL    HW115536   4.117   4.503  13.667 -2.2680  0.3310  0.4874
 1300SOL    HW215537   4.171   4.445  13.537  1.6079 -2.8417  1.8842
 1301SOL     OW15538   0.140   3.031  12.909  0.2288  0.7393  0.0304
 1301SOL    HW115539   0.155   2.983  12.829  0.6000  0.9996 -0.0533
 1301SOL    HW215540   0.054   3.069  12.889  0.2014  0.5731 -0.1575
 1302SOL     OW15541   3.766   1.380   1.886  0.3405 -0.6406 -0.3913
 1302SOL    HW115542   3.753   1.373   1.792 -0.0679 -3.1242 -0.1577
 1302SOL    HW215543   3.850   1.339   1.905  1.2535  1.1570 -0.6016
 1303SOL     OW15544   3.441   3.334   2.679 -0.4858  0.3635 -0.0595
 1303SOL    HW115545   3.472   3.246   2.701  0.8765  1.1150  1.0723
 1303SOL    HW215546   3.436   3.372   2.767  3.4352  0.3847  0.1752
 1304SOL     OW15547   2.029   0.520  16.649  0.3056 -0.0607  0.4446
 1304SOL    HW115548   2.048   0.582  16.719  0.8200 -0.8710  1.0229
 1304SOL    HW215549   2.109   0.515  16.596 -2.8176 -1.9313 -4.0823
 1305SOL     OW15550   3.275   1.913  17.453  0.5801  0.1261 -0.5824
 1305SOL    HW115551   3.250   1.900  17.362 -0.5905  0.4178 -0.2988
 1305SOL    HW215552   3.363   1.874  17.458 -0.2837 -1.6511  0.6639
 1306SOL     OW15553   3.858   2.658   6.896  0.2994  0.5807 -0.4375
 1306SOL    HW115554   3.901   2.595   6.838 -4.0847  0.7456 -3.8722
 1306SOL    HW215555   3.928   2.718   6.923  0.9023 -0.2092 -0.2383
 1307SOL     OW15556   1.941   3.154   3.946  0.0753 -0.2990  0.2670
 1307SOL    HW115557   1.881   3.119   4.012  0.5842  0.5141  1.1508
 1307SOL    HW215558   2.020   3.173   3.997  0.8069 -0.1892 -0.9230
 1308SOL     OW15559   0.188   1.388   4.267 -0.3643  0.5734 -0.3451
 1308SOL    HW115560   0.173   1.377   4.173 -2.9058 -2.4564  0.3918
 1308SOL    HW215561   0.267   1.440   4.260 -0.3915  0.6215 -0.2915
 1309SOL     OW15562   4.404   4.146   9.408 -0.1303 -0.5152 -0.0977
 1309SOL    HW115563   4.427   4.066   9.454  1.3844  0.6786  1.2076
 1309SOL    HW215564   4.474   4.156   9.343  0.9967 -0.1406  1.1798
 1310SOL     OW15565   2.300   0.553   9.544 -0.4963 -0.1366  0.6274
 1310SOL    HW115566   2.329   0.544   9.453  0.8083 -0.9477  1.1110
 1310SOL    HW215567   2.379   0.536   9.595 -0.2639  2.8633  1.2329
 1311SOL     OW15568   3.435   4.298   9.031 -0.3514 -0.1157 -0.4224
 1311SOL    HW115569   3.513   4.248   9.055 -0.6457 -0.5991 -0.4762
 1311SOL    HW215570   3.388   4.278   9.111  1.2770 -1.5029  0.1792
 1312SOL     OW15571   3.541   2.955   8.569 -0.0881 -0.0424 -0.1470
 1312SOL    HW115572   3.615   2.961   8.630  1.0948 -0.2002 -1.5575
 1312SOL    HW215573   3.531   2.860   8.575 -0.5380 -0.0918 -1.6295
 1313SOL     OW15574   3.378   4.645   3.030  0.5938  0.0083 -0.1230
 1313SOL    HW115575   3.384   4.572   2.968 -2.3479  0.0020 -0.4069
 1313SOL    HW215576   3.367   4.600   3.114 -0.9716  0.0991 -0.2789
 1314SOL     OW15577   1.151   0.899   5.025  0.2646  0.2136 -0.2405
 1314SOL    HW115578   1.215   0.931   4.961 -1.4932  1.9855 -1.0858
 1314SOL    HW215579   1.147   0.981   5.074  1.2054  0.2755 -0.2682
 1315SOL     OW15580   0.896   1.723   8.936  0.1518 -0.1863 -0.1392
 1315SOL    HW115581   0.987   1.730   8.964  0.1564 -1.6337  0.2369
 1315SOL    HW215582   0.851   1.712   9.020 -0.3992  1.2435 -0.2470
 1316SOL     OW15583   1.603   1.865   5.388  0.1162 -0.9593 -0.0141
 1316SOL    HW115584   1.638   1.951   5.409  0.1182 -1.4902  2.1788
 1316SOL    HW215585   1.613   1.862   5.293  1.9279 -1.1257  0.1757
 1317SOL     OW15586   4.723   3.986   4.167  0.3990  0.4516  0.0813
 1317SOL    HW115587   0.064   4.019   4.217 -0.7152  0.6166  1.6293
 1317SOL    HW215588   0.028   3.940   4.092 -0.8288  0.8298 -0.7911
 1318SOL     OW15589   3.599   1.291  14.605  0.1035 -0.3730  0.3037
 1318SOL    HW115590   3.583   1.265  14.696  3.2968 -1.2453  0.6495
 1318SOL    HW215591   3.567   1.380  14.610  0.3662 -0.3449  1.4657
 1319SOL     OW15592   1.789   3.989   0.252  0.1462 -0.6034 -0.3296
 1319SOL    HW115593   1.779   3.923   0.320 -5.2916 -1.2029 -1.7165
 1319SOL    HW215594   1.833   3.946   0.178 -0.3606 -0.4281 -0.7269
 1320SOL     OW15595   2.083   0.709   2.015  0.1991  0.1796  0.1372
 1320SOL    HW115596   2.149   0.644   2.039 -1.0163 -0.6617  1.1766
 1320SOL    HW215597   2.009   0.655   2.043 -1.8087  1.6180 -2.3384
 1321SOL     OW15598   0.851   0.272   1.037 -0.4032  0.4700 -0.2846
 1321SOL    HW115599   0.861   0.246   0.945 -0.2927  3.0235 -0.9836
 1321SOL    HW215600   0.821   0.183   1.058 -0.1185 -0.4187 -3.5544
 1322SOL     OW15601   0.320   2.768   2.440 -1.0783  0.1964 -0.1978
 1322SOL    HW115602   0.319   2.848   2.492 -2.2448 -1.5547  2.4607
 1322SOL    HW215603   0.398   2.788   2.387 -0.8476 -1.3954 -0.4714
 1323SOL     OW15604   1.376   2.082   7.258  0.0159  0.3223  0.3933
 1323SOL    HW115605   1.317   2.068   7.331 -0.2211 -0.8437 -0.0227
 1323SOL    HW215606   1.330   2.152   7.212  0.1611 -0.0025 -0.2502
 1324SOL     OW15607   2.480   0.086  15.995 -0.1786 -0.2917  0.2245
 1324SOL    HW115608   2.561   0.076  16.046  0.3832  1.2057 -0.3498
 1324SOL    HW215609   2.422   0.083  16.071 -1.4814 -1.1049 -0.8194
 1325SOL     OW15610   3.002   0.815   1.520  1.0661  0.5554 -0.0624
 1325SOL    HW115611   2.986   0.829   1.613  1.5626 -3.0002  0.5533
 1325SOL    HW215612   3.004   0.720   1.524 -2.8293  0.3316 -2.2681
 1326SOL     OW15613   2.949   2.017   2.470 -0.1632 -0.2469 -0.7665
 1326SOL    HW115614   3.027   1.961   2.474 -1.5027 -1.7921  3.1631
 1326SOL    HW215615   2.964   2.096   2.521 -0.7484 -1.3987  1.1735
 1327SOL     OW15616   2.310   3.222  12.278  0.3354 -0.0750 -0.3230
 1327SOL    HW115617   2.232   3.260  12.237  0.7360  0.1511 -0.8702
 1327SOL    HW215618   2.306   3.132  12.247  1.2215  0.0352 -0.7760
 1328SOL     OW15619   1.009   3.749   2.168  0.0002 -0.5503  0.3034
 1328SOL    HW115620   0.954   3.691   2.116 -1.9151  0.2204  1.4707
 1328SOL    HW215621   1.009   3.707   2.254 -0.2601  0.1613  0.6518
 1329SOL     OW15622   2.369   3.247   2.336 -0.0058 -0.3757 -0.3229
 1329SOL    HW115623   2.360   3.197   2.417  0.5695 -0.4954 -0.3330
 1329SOL    HW215624   2.461   3.225   2.321 -0.6870 -3.2625 -0.2538
 1330SOL     OW15625   0.172   2.714   9.691 -0.1796 -0.2686  0.1073
 1330SOL    HW115626   0.178   2.627   9.651  1.9691 -0.6409  1.2628
 1330SOL    HW215627   0.079   2.731   9.705 -0.1464 -1.3210  1.6027
 1331SOL     OW15628   0.524   3.530   5.888 -1.0892 -0.5168  0.1962
 1331SOL    HW115629   0.550   3.570   5.971  0.0287  3.3387 -1.9923
 1331SOL    HW215630   0.527   3.437   5.911 -0.5625 -0.4477  0.4058
 1332SOL     OW15631   1.621   0.764   0.122 -0.0461 -0.1562 -0.0414
 1332SOL    HW115632   1.648   0.708   0.194  0.7594  0.0177 -0.2102
 1332SOL    HW215633   1.565   0.825   0.169  0.7510  2.2064 -2.1801
 1333SOL     OW15634   2.560   0.431   4.142  0.3893  0.1843 -0.0194
 1333SOL    HW115635   2.468   0.407   4.134  0.6293  0.2531 -2.7658
 1333SOL    HW215636   2.596   0.346   4.117  0.8407  0.6312 -0.8746
 1334SOL     OW15637   0.877   4.260   5.635 -0.4761 -0.1899 -0.5196
 1334SOL    HW115638   0.892   4.194   5.567 -3.7768 -2.9835  1.4864
 1334SOL    HW215639   0.967   4.292   5.645 -0.5124 -0.0014 -0.7998
 1335SOL     OW15640   2.007   0.895   2.979 -0.0195 -0.1538 -0.0177
 1335SOL    HW115641   2.059   0.941   2.913  0.8129 -0.0037  0.7294
 1335SOL    HW215642   1.985   0.819   2.926  0.5195 -0.2741 -0.0685
 1336SOL     OW15643   4.328   0.733   2.898 -0.2852 -0.0249  0.4529
 1336SOL    HW115644   4.250   0.679   2.885  0.5753 -1.1454 -0.1224
 1336SOL    HW215645   4.372   0.690   2.971  0.4586 -1.5185 -0.8663
 1337SOL     OW15646   0.895   2.755   1.661 -0.5633 -0.1486  0.8879
 1337SOL    HW115647   0.871   2.754   1.754 -0.9572 -1.4172  0.7667
 1337SOL    HW215648   0.852   2.674   1.634  2.1156 -1.3189  0.2228
 1338SOL     OW15649   3.298   4.025  14.652 -0.2469  0.4427 -0.4169
 1338SOL    HW115650   3.219   4.079  14.641  1.5600  3.2093  0.1634
 1338SOL    HW215651   3.296   4.002  14.744  0.5917  0.6037 -0.3586
 1339SOL     OW15652   2.498   4.384   6.639 -0.1078 -0.5826  0.2104
 1339SOL    HW115653   2.571   4.340   6.683  1.2717  1.7024  0.2058
 1339SOL    HW215654   2.466   4.447   6.703  2.4028  0.7945  0.0925
 1340SOL     OW15655   3.382   2.823   2.690  0.3579 -0.0896  0.3825
 1340SOL    HW115656   3.414   2.738   2.660  0.7923  0.7721 -1.6172
 1340SOL    HW215657   3.389   2.871   2.607 -0.0421 -2.7641 -1.1925
 1341SOL     OW15658   4.574   3.390   5.179 -0.1514 -0.1789 -0.4681
 1341SOL    HW115659   4.579   3.476   5.136 -0.9082 -1.9649 -4.0685
 1341SOL    HW215660   4.481   3.377   5.161  0.1224 -3.1832  0.4245
 1342SOL     OW15661   2.931   4.550   3.770  0.0420  0.1107  0.4683
 1342SOL    HW115662   2.975   4.634   3.759 -1.0536  0.3947 -1.7463
 1342SOL    HW215663   2.963   4.497   3.697  0.6049  1.7041 -0.4419
 1343SOL     OW15664   2.783   4.003   6.534 -0.2493 -0.0993 -0.2166
 1343SOL    HW115665   2.740   4.050   6.605 -1.2017 -0.6962 -0.3923
 1343SOL    HW215666   2.717   4.016   6.465 -0.6873 -2.0296 -0.1527
 1344SOL     OW15667   0.169   0.133  12.920 -0.2957  0.1250  0.5230
 1344SOL    HW115668   0.199   0.209  12.971 -2.9320  1.9630 -0.6506
 1344SOL    HW215669   0.235   0.078  12.963  0.7063  1.2445  0.4168
 1345SOL     OW15670   0.045   4.346   7.310 -0.4226  0.2933 -0.1204
 1345SOL    HW115671   0.077   4.432   7.337  0.0553 -0.0226  0.3198
 1345SOL    HW215672   0.108   4.296   7.361 -2.1558 -1.1017  0.6158
 1346SOL     OW15673   3.529   1.864   1.704 -0.2150  0.4980  0.2495
 1346SOL    HW115674   3.491   1.831   1.785 -1.1808 -0.7515 -0.7254
 1346SOL    HW215675   3.620   1.839   1.720  0.0528  1.8129  0.7652
 1347SOL     OW15676   4.141   0.990   7.193 -0.3230  0.1643  0.0370
 1347SOL    HW115677   4.200   0.922   7.162 -0.5506  0.2782 -0.6453
 1347SOL    HW215678   4.199   1.044   7.248  0.1299  1.9277 -2.1668
 1348SOL     OW15679   0.145   0.843   2.157  0.2344 -0.5546 -0.3617
 1348SOL    HW115680   0.079   0.801   2.101  0.6494 -0.4579 -0.9150
 1348SOL    HW215681   0.193   0.772   2.199  0.9448  0.4879  0.5882
 1349SOL     OW15682   2.560   0.154   3.482 -0.1517 -0.6637 -0.3825
 1349SOL    HW115683   2.577   0.177   3.390 -0.2079  2.0498  0.2745
 1349SOL    HW215684   2.469   0.127   3.467  0.1275 -1.6188 -0.3524
 1350SOL     OW15685   2.408   1.683  16.621  0.2252  0.5532  0.1180
 1350SOL    HW115686   2.413   1.733  16.702  0.4006  1.0896 -0.2156
 1350SOL    HW215687   2.362   1.601  16.638  0.6007 -0.1057 -2.0556
 1351SOL     OW15688   1.239   3.031   7.452  0.7494  0.0067 -0.4750
 1351SOL    HW115689   1.221   3.123   7.474  2.3326  0.0639  0.5596
 1351SOL    HW215690   1.251   3.034   7.357  2.6302  2.7788 -0.1649
 1352SOL     OW15691   1.554   3.465   7.802 -0.9314 -0.4358 -0.0003
 1352SOL    HW115692   1.610   3.407   7.854  1.4813 -1.6356 -3.9529
 1352SOL    HW215693   1.566   3.549   7.846  0.2696 -0.9316  0.6388
 1353SOL     OW15694   4.636   2.433   4.089  0.2999 -0.1740  0.8604
 1353SOL    HW115695   4.549   2.440   4.130 -0.0519 -4.2617  0.9034
 1353SOL    HW215696   4.655   2.340   4.105  1.7340 -0.2460 -1.3162
 1354SOL     OW15697   3.690   3.470   7.408 -0.1103  0.1657  0.8831
 1354SOL    HW115698   3.756   3.540   7.417 -3.1468  3.0990  0.5079
 1354SOL    HW215699   3.673   3.456   7.501 -0.8056  1.0290  0.8828
 1355SOL     OW15700   3.124   4.698   0.669 -0.0240 -0.2998  0.0790
 1355SOL    HW115701   3.046   0.009   0.635  0.4207 -0.8779 -1.7074
 1355SOL    HW215702   3.094   4.647   0.744 -0.9200  0.8461  0.4998
 1356SOL     OW15703   2.251   3.068  17.355 -0.1086 -0.1014  0.5722
 1356SOL    HW115704   2.323   3.130  17.344 -0.3125  0.2005  0.9261
 1356SOL    HW215705   2.213   3.097  17.438 -0.2361  0.4496  0.3151
 1357SOL     OW15706   2.740   1.998   8.405 -0.9108  0.1766  0.6545
 1357SOL    HW115707   2.737   1.997   8.500  1.8358  0.0025  0.7305
 1357SOL    HW215708   2.733   2.090   8.381  2.6496  0.1421 -0.4899
 1358SOL     OW15709   2.375   2.888  14.895 -0.3456 -0.1691  0.6090
 1358SOL    HW115710   2.430   2.962  14.921  0.6125 -1.0566  1.1452
 1358SOL    HW215711   2.347   2.915  14.808  0.1238  0.9516  0.8132
 1359SOL     OW15712   1.838   2.329   5.342  0.1778 -0.0602 -0.1552
 1359SOL    HW115713   1.760   2.280   5.318 -1.3642  0.7998  3.1656
 1359SOL    HW215714   1.828   2.407   5.287  1.3799  2.4468  3.2434
 1360SOL     OW15715   2.988   0.626   1.049  0.1445 -0.2777 -0.0597
 1360SOL    HW115716   3.053   0.631   0.979 -0.5508 -1.4268 -0.7770
 1360SOL    HW215717   3.042   0.581   1.114 -2.3066 -1.5380  1.1129
 1361SOL     OW15718   4.105   4.496   2.821  0.1428 -0.4540 -0.3054
 1361SOL    HW115719   4.123   4.402   2.834  3.0496 -0.0820 -1.4548
 1361SOL    HW215720   4.023   4.497   2.773 -0.7829 -0.3353  1.2976
 1362SOL     OW15721   1.007   1.178  13.535  0.0229 -0.4761  0.1800
 1362SOL    HW115722   0.940   1.111  13.516  0.4173 -0.8791  0.2145
 1362SOL    HW215723   1.083   1.136  13.494 -1.1058 -1.8270 -0.5469
 1363SOL     OW15724   1.268   0.329   0.458  0.1700  0.6820  0.0077
 1363SOL    HW115725   1.266   0.254   0.517  0.6832  1.0139  0.4558
 1363SOL    HW215726   1.307   0.400   0.510 -1.8006  1.1954  0.7633
 1364SOL     OW15727   3.798   3.434   7.014 -0.1478 -0.5284  0.4425
 1364SOL    HW115728   3.874   3.404   6.964  0.0153  0.8781 -0.1491
 1364SOL    HW215729   3.833   3.518   7.045  1.1030 -1.0691  0.4931
 1365SOL     OW15730   2.107   0.106  13.125 -0.0089 -0.3154 -0.0411
 1365SOL    HW115731   2.144   0.039  13.184  1.9153 -0.3540 -1.3090
 1365SOL    HW215732   2.137   0.085  13.037 -1.6297  0.5214 -0.7869
 1366SOL     OW15733   0.784   1.361   1.859  0.7058  0.5654 -0.3441
 1366SOL    HW115734   0.788   1.454   1.880 -1.4720  0.5943 -0.0839
 1366SOL    HW215735   0.701   1.366   1.812  1.6319  0.2120 -2.0337
 1367SOL     OW15736   2.023   4.671   5.821  0.2772 -0.4254  0.0536
 1367SOL    HW115737   2.037   4.668   5.726  0.5336  0.0692  0.0744
 1367SOL    HW215738   1.949   4.611   5.822 -0.1903  0.1222 -0.8619
 1368SOL     OW15739   2.294   1.917   4.844 -0.2476  0.2104  0.0929
 1368SOL    HW115740   2.215   1.923   4.790 -0.3502  1.5833  0.3979
 1368SOL    HW215741   2.263   1.926   4.934 -1.5270  1.8715 -0.5076
 1369SOL     OW15742   3.583   1.931   9.146  0.3688 -0.5177 -0.4187
 1369SOL    HW115743   3.579   2.024   9.127  0.1509 -0.4309  0.0625
 1369SOL    HW215744   3.496   1.906   9.116 -0.4355 -0.2781  1.7148
 1370SOL     OW15745   0.123   2.705   7.264 -0.6940 -0.2525  0.5688
 1370SOL    HW115746   0.217   2.710   7.283 -0.5460 -2.5817  0.4190
 1370SOL    HW215747   0.112   2.778   7.203 -1.2050  0.0794  1.0652
 1371SOL     OW15748   2.681   4.571   4.226 -0.8247 -0.1205  0.2196
 1371SOL    HW115749   2.649   4.480   4.229  0.8029 -0.5824  3.1086
 1371SOL    HW215750   2.701   4.581   4.133  2.4529 -0.8019  0.8458
 1372SOL     OW15751   1.891   2.581   6.306  0.1075  0.1227 -0.3717
 1372SOL    HW115752   1.886   2.542   6.218 -1.4886 -2.4307  0.8506
 1372SOL    HW215753   1.886   2.509   6.369 -2.4823  0.4284 -0.2209
 1373SOL     OW15754   0.569   2.183   3.206  0.1097  0.3457  0.0468
 1373SOL    HW115755   0.524   2.229   3.277 -1.4475 -4.0238  1.9010
 1373SOL    HW215756   0.618   2.261   3.179  1.1473 -0.4235 -0.2896
 1374SOL     OW15757   1.581   1.984   5.938  0.1715  0.2603 -0.2643
 1374SOL    HW115758   1.539   1.923   5.877  0.9108  1.0230 -1.5276
 1374SOL    HW215759   1.534   1.976   6.021  1.9402  1.3833  0.8396
 1375SOL     OW15760   0.386   1.030   4.185  0.1240  0.0704  0.0887
 1375SOL    HW115761   0.365   1.107   4.132  0.8436  0.9081  1.0179
 1375SOL    HW215762   0.476   1.050   4.211 -0.4599  0.9457  1.4426
 1376SOL     OW15763   0.853   4.497   6.468 -0.0619 -0.6015 -0.0635
 1376SOL    HW115764   0.871   4.450   6.387 -2.4266 -0.9791 -0.3815
 1376SOL    HW215765   0.831   4.582   6.429 -1.2121 -1.6045 -1.5921
 1377SOL     OW15766   0.296   2.033   6.462 -0.4490  0.0469 -0.4246
 1377SOL    HW115767   0.268   2.088   6.388 -0.1372 -0.9623 -1.2986
 1377SOL    HW215768   0.222   2.050   6.520  0.9421  0.0912  1.3109
 1378SOL     OW15769   4.533   0.211   9.425  0.4384 -0.1628 -0.6216
 1378SOL    HW115770   4.561   0.199   9.334  1.1687  1.5396 -0.6146
 1378SOL    HW215771   4.494   0.126   9.446 -1.4854  0.7161 -0.6367
 1379SOL     OW15772   0.665   4.058   3.690  0.2503 -0.1471 -0.3125
 1379SOL    HW115773   0.609   4.077   3.615 -1.3465 -1.9643  0.4150
 1379SOL    HW215774   0.748   4.105   3.684  0.3261 -0.2081  0.2363
 1380SOL     OW15775   4.250   1.221   0.726  0.2209  0.2373  0.3648
 1380SOL    HW115776   4.341   1.192   0.729  0.3560  0.8740  1.9282
 1380SOL    HW215777   4.201   1.148   0.765 -0.8196  0.9691  0.4318
 1381SOL     OW15778   1.819   3.610   9.651  0.1448  0.4851  0.4893
 1381SOL    HW115779   1.802   3.538   9.590 -0.9308  1.8445 -0.8021
 1381SOL    HW215780   1.736   3.603   9.699  0.9940 -0.8214  1.7809
 1382SOL     OW15781   2.475   4.401  11.651 -0.2079 -0.0972  0.4624
 1382SOL    HW115782   2.474   4.308  11.628 -0.6469  0.2360 -0.8410
 1382SOL    HW215783   2.492   4.397  11.745  2.8809 -0.3264 -0.0756
 1383SOL     OW15784   0.935   2.897  13.701 -0.9256  0.4522  0.2195
 1383SOL    HW115785   0.912   2.900  13.794  1.0151 -0.3668  0.7033
 1383SOL    HW215786   1.005   2.962  13.697 -0.7853  0.3851  1.4109
 1384SOL     OW15787   0.310   3.679   3.167  0.0692  0.8502  0.0856
 1384SOL    HW115788   0.268   3.649   3.086  1.4347  1.0077 -0.6724
 1384SOL    HW215789   0.390   3.628   3.154  0.1900  0.4742  2.3294
 1385SOL     OW15790   2.936   0.412  11.879  0.4692  0.1957 -0.5020
 1385SOL    HW115791   3.019   0.403  11.831  1.6218 -2.3886  1.9768
 1385SOL    HW215792   2.946   0.502  11.910  3.1213 -0.3228  0.1620
 1386SOL     OW15793   1.569   1.976   2.288 -0.4012  0.2618  0.1807
 1386SOL    HW115794   1.531   1.945   2.370 -0.2468 -1.1086 -0.2548
 1386SOL    HW215795   1.548   1.909   2.222  0.3154  0.6373 -0.4257
 1387SOL     OW15796   2.091   2.249   3.533 -0.5731 -0.0881  0.1120
 1387SOL    HW115797   2.146   2.287   3.465 -3.0415  5.3081  1.0981
 1387SOL    HW215798   2.115   2.309   3.603  1.1166 -0.9540  0.2657
 1388SOL     OW15799   3.679   2.835   9.310  0.4587  0.0850 -0.4764
 1388SOL    HW115800   3.617   2.773   9.348  1.9399 -0.7479  0.5625
 1388SOL    HW215801   3.762   2.790   9.324  1.0840  1.0216 -1.1793
 1389SOL     OW15802   3.418   2.024   7.107  0.4332 -0.7010  0.4408
 1389SOL    HW115803   3.434   2.048   7.015 -0.2158 -0.0474  0.4979
 1389SOL    HW215804   3.505   2.037   7.144 -1.2937  0.9191  3.9185
 1390SOL     OW15805   1.775   0.245   7.038 -0.0300 -0.3733 -0.0898
 1390SOL    HW115806   1.711   0.315   7.040  1.6714  1.2012 -0.5433
 1390SOL    HW215807   1.793   0.233   6.944 -1.1574 -0.0466 -0.3384
 1391SOL     OW15808   2.396   0.356   5.087  0.1655 -0.3832 -0.3536
 1391SOL    HW115809   2.344   0.304   5.148 -1.7630  0.2963 -1.4277
 1391SOL    HW215810   2.469   0.369   5.148  2.4687 -0.3633 -3.1222
 1392SOL     OW15811   1.901   3.481  13.657  0.3419 -0.3392 -0.1056
 1392SOL    HW115812   1.941   3.550  13.605  0.9487 -0.2564  0.4769
 1392SOL    HW215813   1.878   3.526  13.739 -0.3880 -0.9738  0.0387
 1393SOL     OW15814   3.728   3.875   1.938 -0.0098  0.1579 -0.4751
 1393SOL    HW115815   3.807   3.921   1.966  1.0520 -2.5733  1.0232
 1393SOL    HW215816   3.698   3.841   2.022  0.9054 -1.0723 -0.6560
 1394SOL     OW15817   4.315   2.942   9.247 -0.6260 -0.2499 -0.0193
 1394SOL    HW115818   4.279   3.016   9.295 -0.3584 -0.8819  1.1552
 1394SOL    HW215819   4.339   2.970   9.159  1.9230  1.4916  1.2558
 1395SOL     OW15820   1.590   0.211  15.111  0.0992 -0.5285  0.2634
 1395SOL    HW115821   1.669   0.164  15.084 -0.9998 -1.5462 -1.1834
 1395SOL    HW215822   1.626   0.251  15.190  2.5233 -1.1974 -0.5008
 1396SOL     OW15823   0.003   2.764   8.894  0.0624  0.3933  0.4092
 1396SOL    HW115824   4.645   2.752   8.870  0.4845 -0.7479 -0.6215
 1396SOL    HW215825   0.031   2.674   8.878  0.4128  0.5149  0.3314
 1397SOL     OW15826   1.400   2.047   7.884 -0.2104 -0.1256  0.3763
 1397SOL    HW115827   1.394   2.079   7.974 -1.4372 -1.3923  0.7563
 1397SOL    HW215828   1.483   2.073   7.845 -1.0050  0.7613 -0.7069
 1398SOL     OW15829   0.287   2.025  12.123  0.0646 -0.5895 -0.0399
 1398SOL    HW115830   0.209   2.029  12.178  0.8380 -2.7951  1.2398
 1398SOL    HW215831   0.243   2.046  12.041 -3.7561 -1.5931  1.7203
 1399SOL     OW15832   0.146   4.268   4.692 -0.4591 -0.1611 -0.1034
 1399SOL    HW115833   0.156   4.303   4.780 -2.5859  2.9576 -1.0736
 1399SOL    HW215834   0.226   4.296   4.647 -1.5583 -0.5854 -2.3405
 1400SOL     OW15835   3.883   0.905   7.385  0.1531  0.1360  0.0696
 1400SOL    HW115836   3.935   0.978   7.418  0.2155  0.2404 -0.2598
 1400SOL    HW215837   3.792   0.926   7.403 -0.0382 -1.0865  0.5341
 1401SOL     OW15838   2.827   0.867  11.649 -0.1448  0.1477  0.5159
 1401SOL    HW115839   2.744   0.818  11.652  0.8936 -1.6523 -0.5016
 1401SOL    HW215840   2.834   0.886  11.555  0.3155  0.3305  0.5866
 1402SOL     OW15841   3.986   3.191   6.336 -0.1872 -0.0199  0.5224
 1402SOL    HW115842   3.896   3.165   6.353  0.3438 -1.6420  0.8387
 1402SOL    HW215843   3.989   3.225   6.246 -2.5841 -0.8643  0.1223
 1403SOL     OW15844   2.302   0.919   4.122 -0.5267 -0.2734 -0.4725
 1403SOL    HW115845   2.313   0.856   4.051  0.9570  0.3602 -0.7983
 1403SOL    HW215846   2.389   0.958   4.126 -0.3418 -0.6344 -1.0937
 1404SOL     OW15847   4.171   4.322   8.767  0.1458  0.1507  0.3422
 1404SOL    HW115848   4.128   4.247   8.725  0.8434 -1.2074  2.0500
 1404SOL    HW215849   4.193   4.380   8.694 -1.7952  0.9795  0.4076
 1405SOL     OW15850   4.465   0.119   6.970 -0.3109 -0.9835  0.1749
 1405SOL    HW115851   4.412   0.048   7.006 -2.3110  0.6297  0.4384
 1405SOL    HW215852   4.457   0.097   6.877 -1.3696  0.3349 -0.0535
 1406SOL     OW15853   1.863   2.737   7.593 -0.1017 -0.5534 -0.4258
 1406SOL    HW115854   1.823   2.652   7.578  0.6823 -1.1687  0.9188
 1406SOL    HW215855   1.949   2.702   7.617 -0.2143  0.8125  2.0101
 1407SOL     OW15856   2.763   3.800  13.069 -0.3885  0.0839 -0.0874
 1407SOL    HW115857   2.806   3.879  13.102 -0.0598 -0.9906  2.0939
 1407SOL    HW215858   2.806   3.733  13.123 -1.2793  1.0891  1.8581
 1408SOL     OW15859   2.843   2.092   4.235  0.4139  0.6548 -0.3749
 1408SOL    HW115860   2.824   2.183   4.261  0.9864  0.0004  2.3055
 1408SOL    HW215861   2.788   2.088   4.157 -0.6152  1.0172  0.3366
 1409SOL     OW15862   0.676   3.521  11.782 -0.1058 -0.2345 -0.3236
 1409SOL    HW115863   0.691   3.463  11.856  2.4568 -0.5920 -1.1249
 1409SOL    HW215864   0.592   3.490  11.750 -0.2591  2.5098 -2.5491
 1410SOL     OW15865   2.916   0.742   2.812 -0.0778  0.1580  0.3016
 1410SOL    HW115866   3.008   0.761   2.833 -0.0606 -0.0978  0.4585
 1410SOL    HW215867   2.878   0.763   2.898 -0.9848 -0.9942  0.1795
 1411SOL     OW15868   3.982   3.992   9.959 -0.0806  0.3130  0.4953
 1411SOL    HW115869   3.916   3.959  10.020 -0.4511  0.0751 -0.0346
 1411SOL    HW215870   3.941   3.969   9.875 -0.2317  0.1488  0.6136
 1412SOL     OW15871   3.027   1.103  13.519 -0.0095  0.2891 -0.0206
 1412SOL    HW115872   3.019   1.183  13.570 -0.3761  1.5675 -2.0822
 1412SOL    HW215873   3.118   1.080  13.539 -0.1969 -0.0349  0.4604
 1413SOL     OW15874   0.050   4.712  16.382 -0.0394  0.3657  0.5511
 1413SOL    HW115875   0.010   0.022  16.457  0.3173  1.6885 -0.0415
 1413SOL    HW215876   0.049   4.622  16.416 -1.2844 -0.3702 -1.4888
 1414SOL     OW15877   1.191   4.696   8.987  0.5867  0.0893 -0.0445
 1414SOL    HW115878   1.104   4.660   9.006  0.5359  0.2820  0.0798
 1414SOL    HW215879   1.180   4.714   8.894  3.3946 -2.0075 -0.7570
 1415SOL     OW15880   1.841   4.044   7.760  0.2132  0.8752  0.2473
 1415SOL    HW115881   1.748   4.035   7.738 -0.0806  1.2809  1.3114
 1415SOL    HW215882   1.843   4.117   7.823 -0.4242  1.3088 -0.2361
 1416SOL     OW15883   2.430   4.490   6.901 -0.3585  0.0690  0.2045
 1416SOL    HW115884   2.513   4.523   6.934  0.0147 -1.2098  0.5626
 1416SOL    HW215885   2.366   4.516   6.968 -1.9714  0.5056 -1.5227
 1417SOL     OW15886   2.781   3.602   3.213 -0.2495 -0.5067  0.0198
 1417SOL    HW115887   2.778   3.681   3.158  0.9033 -2.4258 -2.8389
 1417SOL    HW215888   2.820   3.543   3.148  0.8667  0.5742 -0.3006
 1418SOL     OW15889   1.570   1.856  14.247  0.5542 -0.3608 -0.6940
 1418SOL    HW115890   1.584   1.769  14.210  0.2695  0.2501 -2.2090
 1418SOL    HW215891   1.479   1.885  14.246  0.5450 -0.3189  0.6402
 1419SOL     OW15892   3.780   3.891   9.784  0.3121  0.2927 -0.4981
 1419SOL    HW115893   3.693   3.926   9.764  0.1589 -0.0740 -0.4755
 1419SOL    HW215894   3.746   3.806   9.812 -0.8720  0.6746 -0.7575
 1420SOL     OW15895   4.648   1.095  10.994  0.2859  0.7569  0.2080
 1420SOL    HW115896   4.704   1.170  10.972  0.9468 -0.0896 -1.0372
 1420SOL    HW215897   4.709   1.020  10.998  1.0403  1.3412 -0.2305
 1421SOL     OW15898   4.668   0.717   2.432  0.8322  0.1912 -0.2854
 1421SOL    HW115899   4.604   0.711   2.502  2.4269  0.6638  1.2295
 1421SOL    HW215900   4.617   0.777   2.378 -1.7697  0.2426  2.2201
 1422SOL     OW15901   4.118   2.964   6.271 -0.0552 -0.1407 -0.1771
 1422SOL    HW115902   4.103   2.957   6.176  0.4622  0.1478 -0.2798
 1422SOL    HW215903   4.065   3.042   6.291  1.2308  0.4186  1.0131
 1423SOL     OW15904   4.198   3.698   8.280  0.0956 -0.3261 -0.3544
 1423SOL    HW115905   4.272   3.705   8.340 -0.0268  0.5168 -0.3013
 1423SOL    HW215906   4.202   3.603   8.268 -1.1900 -0.0001 -3.4539
 1424SOL     OW15907   2.023   2.304  15.005 -0.4585  0.4385  0.1454
 1424SOL    HW115908   1.989   2.371  15.064 -0.9322  2.1712 -2.1199
 1424SOL    HW215909   1.942   2.252  15.003  0.1524 -0.5385  0.6073
 1425SOL     OW15910   0.488   2.325   3.444 -0.0629  0.0326  0.3623
 1425SOL    HW115911   0.455   2.247   3.489 -0.9173 -0.6221 -1.3815
 1425SOL    HW215912   0.549   2.357   3.510  2.3446 -0.2504 -1.7330
 1426SOL     OW15913   4.515   1.504   7.566 -0.3576  0.0412  0.4940
 1426SOL    HW115914   4.563   1.426   7.593  0.1763 -0.0756 -0.8134
 1426SOL    HW215915   4.582   1.567   7.594  1.3597 -0.4000 -2.7007
 1427SOL     OW15916   0.755   0.690   5.580 -0.2064 -0.0065  0.2526
 1427SOL    HW115917   0.752   0.720   5.489  0.8346 -1.2657 -0.1982
 1427SOL    HW215918   0.681   0.629   5.581  0.2315 -0.6056 -2.9727
 1428SOL     OW15919   4.329   4.095  11.761 -0.1295 -0.1506 -0.2856
 1428SOL    HW115920   4.359   4.181  11.791  1.0096 -0.4745 -0.5057
 1428SOL    HW215921   4.412   4.066  11.725 -0.7002 -0.0786 -1.6357
 1429SOL     OW15922   3.974   0.171   1.988 -0.0420 -0.4432  0.1417
 1429SOL    HW115923   4.044   0.177   2.053 -1.1081  3.4431  0.9402
 1429SOL    HW215924   3.938   0.083   1.986 -0.8387 -0.0782 -1.8150
 1430SOL     OW15925   3.000   3.415   4.413 -0.1715  0.0804  0.0723
 1430SOL    HW115926   2.950   3.495   4.431 -0.7169  0.1409 -1.7400
 1430SOL    HW215927   2.941   3.363   4.359 -0.7110  1.7254 -0.9140
 1431SOL     OW15928   2.190   3.689  11.540  0.1980  0.0769 -0.4917
 1431SOL    HW115929   2.219   3.749  11.608 -1.3697 -0.9292  1.0605
 1431SOL    HW215930   2.145   3.625  11.595 -0.9150  0.6467 -0.7469
 1432SOL     OW15931   3.220   0.448  13.962  0.0356  0.0806 -0.3155
 1432SOL    HW115932   3.265   0.526  13.995 -0.4629  1.4826 -2.8375
 1432SOL    HW215933   3.130   0.479  13.949  0.2120  0.7223 -0.0068
 1433SOL     OW15934   0.705   0.717   8.138 -0.1536  0.2856  0.3226
 1433SOL    HW115935   0.740   0.638   8.180 -1.6199 -0.8427 -0.5740
 1433SOL    HW215936   0.781   0.751   8.090  0.6526 -1.1085  0.6014
 1434SOL     OW15937   4.036   3.485  16.349  0.5437  0.5132  0.0935
 1434SOL    HW115938   4.111   3.526  16.392  1.7640 -3.6840  1.9976
 1434SOL    HW215939   3.984   3.448  16.421 -0.8572 -1.7556 -2.0882
 1435SOL     OW15940   0.459   2.865   7.554  0.3470 -0.3437 -0.1692
 1435SOL    HW115941   0.506   2.791   7.594  2.6317  1.0023 -0.3888
 1435SOL    HW215942   0.412   2.895   7.631 -0.7498 -1.2326 -0.4916
 1436SOL     OW15943   0.422   3.942   6.864  0.0557 -0.2477  0.3023
 1436SOL    HW115944   0.351   3.999   6.890  0.0232 -0.2849  0.2950
 1436SOL    HW215945   0.472   3.994   6.800 -1.3899 -0.2298 -0.8237
 1437SOL     OW15946   4.556   4.259   7.601  0.0035 -0.1994 -0.5160
 1437SOL    HW115947   4.649   4.254   7.580 -0.2385 -0.2275 -1.5648
 1437SOL    HW215948   4.521   4.174   7.575  0.1424 -0.4395  0.0666
 1438SOL     OW15949   1.092   3.492  17.183  0.0409 -0.1785 -0.1114
 1438SOL    HW115950   1.001   3.507  17.159 -0.2778  1.5171  2.1145
 1438SOL    HW215951   1.128   3.440  17.111 -0.6786  1.0921 -1.3988
 1439SOL     OW15952   1.620   1.931   7.635  0.4774  0.1143  0.1161
 1439SOL    HW115953   1.706   1.960   7.666  0.4910 -0.3638  0.5329
 1439SOL    HW215954   1.620   1.844   7.676 -0.4195  0.1690  0.2371
 1440SOL     OW15955   1.911   3.007   0.483 -0.1679 -0.0150  0.4570
 1440SOL    HW115956   1.816   3.014   0.482 -0.3993 -3.3242 -0.6944
 1440SOL    HW215957   1.919   2.942   0.553  1.2154 -0.5986 -0.2464
 1441SOL     OW15958   4.618   0.487   7.698  0.4458  0.1500  0.5160
 1441SOL    HW115959   4.560   0.555   7.662  0.8993  0.0854 -0.3390
 1441SOL    HW215960   4.635   0.434   7.620  0.3728  0.1183  0.5210
 1442SOL     OW15961   3.330   1.295   6.262  0.0709  0.2712 -0.1696
 1442SOL    HW115962   3.412   1.278   6.216  0.1228 -2.5576  1.0092
 1442SOL    HW215963   3.324   1.220   6.320 -0.0038 -1.0378 -1.8828
 1443SOL     OW15964   1.606   3.169   4.327 -0.2654 -0.0614 -0.3415
 1443SOL    HW115965   1.648   3.138   4.408  1.4140  1.9304 -0.4533
 1443SOL    HW215966   1.519   3.180   4.366 -0.2824  0.5485 -0.5491
 1444SOL     OW15967   4.711   4.110   1.470 -0.1312 -0.3280  0.1102
 1444SOL    HW115968   0.048   4.066   1.518 -0.7630 -0.9245  0.5045
 1444SOL    HW215969   4.671   4.164   1.538 -1.0477 -0.6055 -0.2089
 1445SOL     OW15970   4.195   2.088   7.378  0.1001 -0.0496  0.7045
 1445SOL    HW115971   4.173   2.029   7.305 -3.4076  0.2695  1.5044
 1445SOL    HW215972   4.280   2.123   7.353 -1.3916  1.4114 -2.4115
 1446SOL     OW15973   0.882   1.794  17.165  0.0446 -0.2457  0.6521
 1446SOL    HW115974   0.848   1.833  17.084  1.8653 -1.0066 -0.4841
 1446SOL    HW215975   0.966   1.759  17.134 -0.5006  0.4885 -1.6964
 1447SOL     OW15976   0.269   3.165   4.477 -0.0778  0.3679  0.7119
 1447SOL    HW115977   0.195   3.201   4.429 -0.8555  1.3021  2.6301
 1447SOL    HW215978   0.228   3.133   4.558 -0.1150  2.2884  1.4458
 1448SOL     OW15979   0.884   0.924  16.916 -0.2615  0.0332  0.1842
 1448SOL    HW115980   0.844   0.873  16.845 -0.6889  1.0245 -0.2877
 1448SOL    HW215981   0.844   0.896  16.998  1.6694 -0.4088  0.9903
 1449SOL     OW15982   2.951   2.213   7.868  0.0609  0.4881 -0.2049
 1449SOL    HW115983   2.896   2.204   7.790 -1.6597  0.2378  1.0443
 1449SOL    HW215984   2.882   2.200   7.933  0.2966 -1.7664 -0.4254
 1450SOL     OW15985   0.716   1.341   6.728  0.0884  0.1669  0.1921
 1450SOL    HW115986   0.765   1.294   6.660 -1.7052 -0.1873 -0.8525
 1450SOL    HW215987   0.754   1.424   6.702  1.4667 -0.1703  1.0805
 1451SOL     OW15988   4.372   0.821  12.999 -0.1234  0.2620 -0.4357
 1451SOL    HW115989   4.394   0.884  13.067  2.6054 -0.6132 -0.4971
 1451SOL    HW215990   4.430   0.748  13.022 -0.7838 -0.3003 -0.5206
 1452SOL     OW15991   0.450   2.568   3.301  0.2671 -0.1213  0.4446
 1452SOL    HW115992   0.466   2.508   3.228 -1.6079 -1.6163  1.2492
 1452SOL    HW215993   0.424   2.495   3.358  1.2039  0.2064  1.3048
 1453SOL     OW15994   0.255   0.252   2.022  0.1572 -0.6555  0.3359
 1453SOL    HW115995   0.292   0.164   2.026  0.2585 -0.6228  0.0969
 1453SOL    HW215996   0.331   0.302   1.994  0.1737  0.0251  1.5865
 1454SOL     OW15997   4.235   1.562   5.211 -0.0765 -0.3457  0.7931
 1454SOL    HW115998   4.245   1.618   5.287 -1.5901 -1.0494  1.5038
 1454SOL    HW215999   4.216   1.622   5.139 -4.3099 -1.6060  0.8704
 1455SOL     OW16000   4.306   0.653   5.984 -0.6665 -0.0396 -0.5975
 1455SOL    HW116001   4.354   0.675   6.063 -1.3040 -2.2965  0.4227
 1455SOL    HW216002   4.222   0.628   6.022 -0.4605  1.4171  0.8031
 1456SOL     OW16003   1.044   0.789  10.315 -0.2094  0.6917 -0.1064
 1456SOL    HW116004   0.950   0.800  10.309 -0.5463 -1.5685  1.0467
 1456SOL    HW216005   1.047   0.693  10.317  0.9327  0.8295  4.5039
 1457SOL     OW16006   0.527   1.245   3.104 -0.4334 -0.0212 -0.2310
 1457SOL    HW116007   0.596   1.220   3.043  0.1129  1.8159 -0.3609
 1457SOL    HW216008   0.465   1.177   3.076 -1.2516  0.2037  1.0458
 1458SOL     OW16009   3.471   1.258   9.330 -0.2279 -0.1033 -0.1412
 1458SOL    HW116010   3.413   1.196   9.374  0.2939 -0.0747  0.5983
 1458SOL    HW216011   3.543   1.201   9.301  0.0133 -1.0689  2.2973
 1459SOL     OW16012   0.851   0.143   0.808  0.2368  0.1704  0.3461
 1459SOL    HW116013   0.863   0.153   0.714 -0.6843 -0.5530  0.1474
 1459SOL    HW216014   0.926   0.088   0.828  0.2154  0.4071  1.0656
 1460SOL     OW16015   4.371   0.487   6.864 -0.2926  0.1193  0.3698
 1460SOL    HW116016   4.422   0.554   6.910  1.1575  1.4968 -3.1987
 1460SOL    HW216017   4.357   0.421   6.932  0.7141  1.2351  1.6573
 1461SOL     OW16018   1.093   3.193  10.122 -0.6389  0.0002  0.6827
 1461SOL    HW116019   1.083   3.098  10.129 -1.9272 -0.0471 -2.1913
 1461SOL    HW216020   1.025   3.212  10.059 -0.7053 -2.5249 -0.0238
 1462SOL     OW16021   3.927   1.346   8.354 -0.3419  0.4049  0.3432
 1462SOL    HW116022   3.933   1.363   8.260 -2.1885  0.5801  0.2582
 1462SOL    HW216023   3.923   1.250   8.350 -1.1894  0.4263  0.8174
 1463SOL     OW16024   1.443   0.956   4.592  0.1360 -0.0003  0.1697
 1463SOL    HW116025   1.423   0.868   4.560  1.5113  0.2864 -1.4912
 1463SOL    HW216026   1.533   0.975   4.565 -0.0941 -0.1881 -0.7383
 1464SOL     OW16027   4.663   3.115   0.691  0.0913 -0.5130 -0.0980
 1464SOL    HW116028   4.679   3.100   0.784  0.5352  1.4858  0.1542
 1464SOL    HW216029   0.009   3.163   0.669 -0.4917  0.9261  0.9632
 1465SOL     OW16030   3.358   2.960   5.337  0.4038  0.4619 -0.0496
 1465SOL    HW116031   3.436   2.980   5.388  1.4209 -0.6124 -1.1705
 1465SOL    HW216032   3.385   2.879   5.293 -1.8148  0.2282 -0.9780
 1466SOL     OW16033   0.480   0.529   8.465  0.3378  0.1992  0.2692
 1466SOL    HW116034   0.530   0.497   8.540 -0.1405  0.4167  0.6793
 1466SOL    HW216035   0.408   0.577   8.506 -0.5526 -1.2247  0.3551
 1467SOL     OW16036   0.610   0.743   6.807 -0.3088 -0.7606  0.0248
 1467SOL    HW116037   0.561   0.825   6.812  2.9895  1.0179  2.9124
 1467SOL    HW216038   0.695   0.777   6.837 -0.4607 -0.0862 -0.3016
 1468SOL     OW16039   0.557   2.170   9.965 -0.1657  0.3442 -0.3265
 1468SOL    HW116040   0.525   2.095  10.015 -3.9498  0.6595 -2.3234
 1468SOL    HW216041   0.487   2.230   9.989 -0.5423  0.3044 -1.3138
 1469SOL     OW16042   3.107   3.149   3.487 -0.1913 -0.3808 -0.2158
 1469SOL    HW116043   3.078   3.147   3.396 -1.8290  0.4986  0.2787
 1469SOL    HW216044   3.106   3.244   3.504  0.2323 -0.4726  0.3360
 1470SOL     OW16045   3.200   0.723   4.840  0.2883  0.1290  0.4978
 1470SOL    HW116046   3.254   0.797   4.867  0.4875 -0.2718  1.1992
 1470SOL    HW216047   3.132   0.765   4.788  1.3941  1.0252 -0.2227
 1471SOL     OW16048   1.636   0.406  17.312 -0.3564  0.2802  0.4118
 1471SOL    HW116049   1.673   0.320  17.293  0.9832  0.6213  1.4339
 1471SOL    HW216050   1.563   0.385  17.369 -0.4184 -1.3717 -0.2769
 1472SOL     OW16051   4.730   3.640   7.932 -0.2541  0.1362 -0.2096
 1472SOL    HW116052   4.710   3.683   7.849 -1.5829  1.5338  0.8348
 1472SOL    HW216053   4.652   3.589   7.956 -1.3900  1.2339 -1.5748
 1473SOL     OW16054   1.585   0.401  10.950 -0.9168  0.4232  0.5088
 1473SOL    HW116055   1.557   0.427  10.862 -1.2813 -3.8624 -0.6430
 1473SOL    HW216056   1.652   0.465  10.973  1.1785 -1.5202 -0.2515
 1474SOL     OW16057   3.950   3.148   2.973 -0.2603 -0.3483  0.3895
 1474SOL    HW116058   3.975   3.207   2.902 -0.0009 -0.1594  0.6375
 1474SOL    HW216059   3.936   3.073   2.916  1.7395  1.0303 -1.9157
 1475SOL     OW16060   0.065   2.508   5.932 -0.0651  0.1645 -0.6305
 1475SOL    HW116061   0.131   2.440   5.917 -1.4909 -1.2509 -0.4704
 1475SOL    HW216062   0.025   2.520   5.846 -2.9852  0.2374  0.7454
 1476SOL     OW16063   2.045   0.584   9.401 -0.3027 -0.5910 -0.3128
 1476SOL    HW116064   2.126   0.584   9.451 -1.6747 -1.2310  1.9365
 1476SOL    HW216065   2.070   0.526   9.330  2.5454  0.8146 -0.4364
 1477SOL     OW16066   1.148   2.442   1.690  0.0534  0.1711 -0.7936
 1477SOL    HW116067   1.212   2.373   1.709  1.1833  1.1695 -0.9614
 1477SOL    HW216068   1.204   2.517   1.671  0.5579  0.7409  2.8819
 1478SOL     OW16069   1.161   1.822  16.584 -0.6855 -0.1379 -0.3765
 1478SOL    HW116070   1.078   1.862  16.560 -0.6893 -0.3728 -0.7495
 1478SOL    HW216071   1.154   1.736  16.544 -0.6792 -0.6943  0.8171
 1479SOL     OW16072   3.722   1.909   2.832  0.8485 -0.0406 -0.1590
 1479SOL    HW116073   3.810   1.940   2.852  2.5098 -2.6427 -3.5124
 1479SOL    HW216074   3.735   1.819   2.861  0.0840  0.5179  1.9162
 1480SOL     OW16075   2.957   0.332  10.402 -0.1575 -0.3113 -0.7805
 1480SOL    HW116076   3.037   0.358  10.356 -1.0370 -0.4027 -2.3342
 1480SOL    HW216077   2.941   0.248  10.359 -1.4233 -0.7124  0.4429
 1481SOL     OW16078   4.380   4.457   6.067  0.1199  0.3361 -0.6429
 1481SOL    HW116079   4.441   4.511   6.017  1.2185 -1.7521 -1.5521
 1481SOL    HW216080   4.403   4.370   6.035 -0.8834 -0.5430  1.0066
 1482SOL     OW16081   2.469   0.675  15.205 -0.2400 -0.2574  0.5234
 1482SOL    HW116082   2.395   0.634  15.161  0.4044 -1.8609  0.9356
 1482SOL    HW216083   2.521   0.595  15.208 -0.2863 -0.3268 -0.7095
 1483SOL     OW16084   1.021   0.938   5.872 -0.3899 -0.0105  0.3496
 1483SOL    HW116085   0.943   0.887   5.896  0.4087  0.1118  3.1724
 1483SOL    HW216086   1.008   1.009   5.934  0.8454  1.5133 -1.1416
 1484SOL     OW16087   1.774   0.816  13.705 -0.2094  0.2566 -0.2022
 1484SOL    HW116088   1.707   0.782  13.647  1.1340  0.0703 -1.6472
 1484SOL    HW216089   1.809   0.874  13.638  0.7456 -1.7415 -1.4410
 1485SOL     OW16090   3.008   1.717   6.237 -0.2250  0.1363 -0.0893
 1485SOL    HW116091   2.924   1.734   6.279 -0.3988  0.5241 -0.6020
 1485SOL    HW216092   3.052   1.676   6.312  1.7974  1.2638 -0.6592
 1486SOL     OW16093   2.192   0.470  15.502  0.0556 -0.5947  0.3123
 1486SOL    HW116094   2.253   0.402  15.475 -0.9563 -1.1112 -0.6907
 1486SOL    HW216095   2.236   0.554  15.510 -0.5075 -0.1501 -1.3353
 1487SOL     OW16096   4.357   2.531   4.450  0.3760 -0.4126  0.3267
 1487SOL    HW116097   4.269   2.500   4.474 -0.0143 -0.6563 -1.4354
 1487SOL    HW216098   4.353   2.627   4.453  1.0861 -0.3810  0.1030
 1488SOL     OW16099   4.565   3.794   8.923 -0.4888 -0.4409 -0.0174
 1488SOL    HW116100   4.556   3.878   8.968  1.2193 -0.0389 -0.4000
 1488SOL    HW216101   4.546   3.726   8.987  1.5052  0.9935  2.0933
 1489SOL     OW16102   4.061   2.438   6.792  0.1675 -0.5512 -0.3602
 1489SOL    HW116103   4.150   2.430   6.758  0.7761 -0.8745  1.3055
 1489SOL    HW216104   4.010   2.440   6.711 -0.7826 -0.6487  0.2481
 1490SOL     OW16105   0.735   1.403   9.857 -0.1103 -0.4245 -0.0249
 1490SOL    HW116106   0.811   1.458   9.841  0.7897 -1.3482  1.0525
 1490SOL    HW216107   0.713   1.372   9.769  0.8400  2.0060 -1.1215
 1491SOL     OW16108   3.579   3.817  14.706 -0.2366 -0.4613  0.3150
 1491SOL    HW116109   3.490   3.783  14.705  0.2750 -1.7988 -1.9324
 1491SOL    HW216110   3.577   3.899  14.657  1.3250 -0.5151  0.1585
 1492SOL     OW16111   3.149   0.378   9.328  0.0225 -0.0645 -0.4060
 1492SOL    HW116112   3.169   0.296   9.373  1.0857  0.1455 -0.4951
 1492SOL    HW216113   3.194   0.363   9.245  1.3436 -1.1092  0.5004
 1493SOL     OW16114   1.282   3.322   3.585 -0.2111 -0.6546 -0.0613
 1493SOL    HW116115   1.280   3.397   3.645  1.1270  0.5667 -1.5274
 1493SOL    HW216116   1.320   3.251   3.636 -3.8491 -2.1012  0.6213
 1494SOL     OW16117   2.201   3.501   5.025  0.0387 -0.2957  0.1178
 1494SOL    HW116118   2.296   3.508   5.015  0.2094  0.1592  1.9152
 1494SOL    HW216119   2.171   3.574   4.972 -2.5137 -0.2781  1.5955
 1495SOL     OW16120   3.710   4.391   2.508 -0.2398 -0.3339 -0.2551
 1495SOL    HW116121   3.763   4.338   2.448 -0.7387 -2.0995  0.8372
 1495SOL    HW216122   3.631   4.410   2.457 -0.9097 -0.1618  0.8514
 1496SOL     OW16123   3.398   2.438   9.901  0.3884  0.2534  0.0511
 1496SOL    HW116124   3.349   2.500   9.954 -2.3864 -1.8149 -0.0686
 1496SOL    HW216125   3.408   2.371   9.968  0.9641  1.2338  0.9363
 1497SOL     OW16126   1.770   0.897   5.217 -0.1654  0.5520  0.7850
 1497SOL    HW116127   1.785   0.973   5.160 -1.9040  0.8106  0.6798
 1497SOL    HW216128   1.856   0.856   5.229 -0.1804  0.6212  1.1174
 1498SOL     OW16129   1.241   4.554   8.292 -0.0726  0.9127 -0.4612
 1498SOL    HW116130   1.254   4.460   8.291  0.5160  1.0063 -1.3178
 1498SOL    HW216131   1.202   4.568   8.206 -0.5089 -1.3236 -0.6161
 1499SOL     OW16132   1.386   1.779   1.854 -0.1810  0.0195 -0.1341
 1499SOL    HW116133   1.420   1.823   1.776 -0.2696  1.2828  0.5489
 1499SOL    HW216134   1.380   1.847   1.921 -0.3536 -1.3676  1.2359
 1500SOL     OW16135   0.470   1.053   1.134 -0.5316 -0.8872 -0.0253
 1500SOL    HW116136   0.404   1.079   1.199 -1.4878  1.1229 -1.8011
 1500SOL    HW216137   0.504   1.136   1.098 -0.3218 -0.5604  0.9157
 1501SOL     OW16138   0.042   0.978  15.518 -0.7833  0.0080 -0.0470
 1501SOL    HW116139   0.100   1.054  15.512 -3.2041  1.9684  1.5552
 1501SOL    HW216140   4.689   1.011  15.540 -0.2386  0.4784  1.3291
 1502SOL     OW16141   4.192   3.638   1.393  0.1594 -0.2680  0.5556
 1502SOL    HW116142   4.129   3.596   1.335 -1.3676 -0.8117  2.6067
 1502SOL    HW216143   4.160   3.728   1.396  2.7726  0.5979  2.5129
 1503SOL     OW16144   2.788   1.750   5.557  0.3108  0.5791 -0.0849
 1503SOL    HW116145   2.791   1.845   5.570 -2.5879  0.9681 -2.1990
 1503SOL    HW216146   2.698   1.720   5.541  0.3962  1.7877 -2.9089
 1504SOL     OW16147   1.126   0.465  17.501  0.1635 -0.5591 -0.8194
 1504SOL    HW116148   1.052   0.454  17.441 -1.8611 -1.1353  1.8233
 1504SOL    HW216149   1.075   0.466  17.582  2.4381  0.0863  0.5926
 1505SOL     OW16150   3.965   0.216   3.102 -0.4013 -0.2354 -0.2280
 1505SOL    HW116151   3.980   0.302   3.142  0.4082  0.5960 -2.2655
 1505SOL    HW216152   3.927   0.245   3.019  0.0012  1.1882  0.0872
 1506SOL     OW16153   1.236   1.968   9.983 -0.7058 -0.6362  0.5806
 1506SOL    HW116154   1.194   1.989  10.066  0.6075  0.2016  1.0472
 1506SOL    HW216155   1.322   1.946  10.018  0.2491  1.3477 -0.4755
 1507SOL     OW16156   0.003   0.893   4.520 -0.2490  0.6933  0.3350
 1507SOL    HW116157   0.033   0.857   4.604  1.1877 -1.9558 -1.3253
 1507SOL    HW216158   0.037   0.982   4.527 -0.0960  0.5747  1.1271
 1508SOL     OW16159   3.602   2.707   6.784 -0.6288  0.0454 -0.0872
 1508SOL    HW116160   3.612   2.616   6.754  0.2643 -0.1935  0.9273
 1508SOL    HW216161   3.674   2.709   6.847 -0.0125  0.1439 -0.7978
 1509SOL     OW16162   1.654   3.458   5.750  0.1600  0.1504 -0.1960
 1509SOL    HW116163   1.700   3.519   5.807 -1.2686  1.5022 -0.4864
 1509SOL    HW216164   1.703   3.379   5.770  2.8866  1.7365 -0.6558
 1510SOL     OW16165   1.015   4.346   3.194  0.1922 -0.2984  0.0310
 1510SOL    HW116166   1.097   4.368   3.238  0.6144 -1.6430 -0.0806
 1510SOL    HW216167   0.961   4.423   3.213  0.0452 -0.4205  0.1025
 1511SOL     OW16168   0.403   3.157  13.300  0.0538 -0.6724 -0.3097
 1511SOL    HW116169   0.418   3.129  13.210  0.8462  0.0939 -0.4149
 1511SOL    HW216170   0.337   3.093  13.328 -2.2318  1.4544 -0.8997
 1512SOL     OW16171   1.256   3.729   7.949 -0.1922  0.3681  0.4369
 1512SOL    HW116172   1.322   3.729   8.018  0.0822  0.6331  0.1777
 1512SOL    HW216173   1.207   3.810   7.966 -1.3842 -0.2176 -0.2720
 1513SOL     OW16174   0.820   2.434   6.129 -0.1577 -0.2422  0.0294
 1513SOL    HW116175   0.794   2.421   6.038  1.0426 -2.9943  0.0739
 1513SOL    HW216176   0.846   2.344   6.150 -0.0781 -0.4803 -1.0586
 1514SOL     OW16177   0.764   1.922  16.960  0.0012 -0.0880 -0.2590
 1514SOL    HW116178   0.802   1.989  16.903  0.4252  1.1425  1.4802
 1514SOL    HW216179   0.674   1.912  16.927 -0.0722  1.0843 -0.4070
 1515SOL     OW16180   1.895   1.104   7.680 -0.7744  0.0893  0.0310
 1515SOL    HW116181   1.844   1.114   7.600  0.5961  1.8473 -0.6336
 1515SOL    HW216182   1.971   1.161   7.667 -2.6767  2.3203 -1.3520
 1516SOL     OW16183   1.811   2.279   3.565  0.3518 -0.3270  0.5564
 1516SOL    HW116184   1.906   2.292   3.562  0.4432 -0.8359  1.2554
 1516SOL    HW216185   1.787   2.318   3.481 -0.6341 -2.4317 -0.1484
 1517SOL     OW16186   1.613   4.722   0.182 -0.0195 -0.1993  0.2770
 1517SOL    HW116187   1.554   0.060   0.204  2.2303  2.1227 -1.3016
 1517SOL    HW216188   1.687   0.043   0.158 -0.7810  0.8048  0.2244
 1518SOL     OW16189   3.405   3.764   9.191 -0.1618  0.2952  0.8533
 1518SOL    HW116190   3.371   3.843   9.150  2.0377  1.4589  1.2819
 1518SOL    HW216191   3.329   3.724   9.234 -1.3013  0.4007 -1.0447
 1519SOL     OW16192   4.232   4.331  13.138 -0.3149  0.1643 -0.4661
 1519SOL    HW116193   4.308   4.331  13.080 -0.7563  1.4042 -1.0629
 1519SOL    HW216194   4.251   4.415  13.180 -0.4148 -1.0011  1.8581
 1520SOL     OW16195   1.237   1.735   6.359  0.7444 -0.1618 -0.4785
 1520SOL    HW116196   1.166   1.676   6.332 -0.6639  1.9695 -1.4347
 1520SOL    HW216197   1.198   1.819   6.335 -0.2527 -0.2965  0.6908
 1521SOL     OW16198   4.644   3.102   5.474  0.2704  0.9420  0.1451
 1521SOL    HW116199   4.627   3.152   5.554  0.7811  0.5413  0.5039
 1521SOL    HW216200   4.555   3.083   5.446  0.2461 -0.0412  0.8862
 1522SOL     OW16201   0.667   4.507   5.328 -0.9142 -0.2483  1.0658
 1522SOL    HW116202   0.697   4.416   5.327  0.0503  0.0813  0.3463
 1522SOL    HW216203   0.755   4.543   5.339 -1.7721  2.3495 -0.5791
 1523SOL     OW16204   4.332   3.809   2.569  0.3996 -0.1418 -0.1846
 1523SOL    HW116205   4.358   3.889   2.614  1.1364 -1.7213  2.1780
 1523SOL    HW216206   4.331   3.752   2.645  0.9105  0.8504  0.5662
 1524SOL     OW16207   4.696   1.696  11.388 -0.2802 -1.1023 -0.0898
 1524SOL    HW116208   0.023   1.769  11.397 -1.0979 -0.3518 -0.5395
 1524SOL    HW216209   4.712   1.661  11.301 -0.2240  4.1176 -2.1805
 1525SOL     OW16210   4.558   0.512   6.543  0.3514  0.3415  0.4249
 1525SOL    HW116211   4.614   0.528   6.468  1.8757 -2.0371  1.0782
 1525SOL    HW216212   4.625   0.479   6.603  2.0523  1.5287 -0.8478
 1526SOL     OW16213   3.066   4.729   7.715 -0.3299 -0.2093  0.3156
 1526SOL    HW116214   3.093   4.652   7.665  0.3728  1.0489 -1.2312
 1526SOL    HW216215   2.989   0.023   7.666  2.2962  2.2530 -2.3843
 1527SOL     OW16216   0.941   4.414   5.923 -0.3557 -0.2080  0.1501
 1527SOL    HW116217   0.882   4.408   5.848  0.4928  2.0839 -0.7062
 1527SOL    HW216218   0.920   4.331   5.965 -2.1403  1.3585  2.3599
 1528SOL     OW16219   3.616   2.210  12.126  0.1180 -0.4282  0.0661
 1528SOL    HW116220   3.564   2.215  12.206  1.9600  1.7094  1.1368
 1528SOL    HW216221   3.541   2.202  12.067 -0.4315  0.6960  0.6207
 1529SOL     OW16222   1.462   1.967   4.769 -0.6601  0.6422  0.1996
 1529SOL    HW116223   1.467   2.018   4.850 -2.1640 -0.4994  1.0182
 1529SOL    HW216224   1.367   1.969   4.756 -0.4691  2.5366 -0.7875
 1530SOL     OW16225   3.681   0.316   2.950 -0.1267  0.2653  0.4747
 1530SOL    HW116226   3.740   0.305   2.875 -1.1390  1.5984 -0.5232
 1530SOL    HW216227   3.626   0.239   2.934  0.8058 -1.0194  3.4617
 1531SOL     OW16228   2.272   4.404   1.993 -0.2903 -0.0290 -0.1680
 1531SOL    HW116229   2.307   4.336   2.051 -0.4531 -1.0697 -1.2919
 1531SOL    HW216230   2.345   4.463   1.975  0.7831 -1.5484 -0.7348
 1532SOL     OW16231   4.277   3.569   1.631  0.2236 -0.1886 -0.4633
 1532SOL    HW116232   4.228   3.595   1.552 -0.4748  1.6877  0.5982
 1532SOL    HW216233   4.261   3.641   1.691  1.9889 -0.5106  0.3992
 1533SOL     OW16234   2.839   0.596   4.643 -0.1721  0.5368  0.1532
 1533SOL    HW116235   2.821   0.518   4.590 -0.0326  0.1772  0.6361
 1533SOL    HW216236   2.777   0.582   4.714  0.3376 -2.4076  0.0141
 1534SOL     OW16237   0.145   3.001  17.321  0.0750  0.2626 -0.3791
 1534SOL    HW116238   0.143   2.994  17.416 -1.3661  2.2790 -0.2565
 1534SOL    HW216239   0.177   3.090  17.307 -1.5952  1.0041  0.4253
 1535SOL     OW16240   1.646   2.848   7.362 -0.2044  0.2653  0.2588
 1535SOL    HW116241   1.567   2.800   7.385  1.2349 -1.8580  0.7838
 1535SOL    HW216242   1.671   2.892   7.444 -0.6643  0.7948  0.1110
 1536SOL     OW16243   0.256   0.145   9.280 -0.0807  0.1574 -0.2754
 1536SOL    HW116244   0.281   0.182   9.365 -1.8511 -0.5183  0.5521
 1536SOL    HW216245   0.333   0.092   9.261 -1.5156 -2.0960  0.0821
 1537SOL     OW16246   4.031   2.754   6.644 -0.0012  0.0235  0.0777
 1537SOL    HW116247   4.048   2.833   6.696  0.4896 -0.5997  0.8595
 1537SOL    HW216248   4.118   2.715   6.649 -0.5774 -1.0692  1.4998
 1538SOL     OW16249   4.314   3.636   1.936 -0.2353  0.8260 -0.2705
 1538SOL    HW116250   4.399   3.623   1.893  0.5226 -3.6524  2.5475
 1538SOL    HW216251   4.328   3.591   2.020 -2.7369  0.7462  0.0907
 1539SOL     OW16252   4.010   1.237   1.970 -0.0401 -0.2102 -0.1113
 1539SOL    HW116253   4.101   1.214   1.955 -0.2152 -0.1401 -1.3190
 1539SOL    HW216254   4.010   1.269   2.060  1.8935 -0.1519 -0.1301
 1540SOL     OW16255   0.056   3.887   7.229  0.1432  0.0279 -0.5493
 1540SOL    HW116256   0.015   3.800   7.232 -1.0773  0.6801  1.5631
 1540SOL    HW216257   4.715   3.943   7.214 -1.0332 -1.4200 -0.0825
 1541SOL     OW16258   2.734   1.728   8.013  0.4335 -0.2590 -0.3582
 1541SOL    HW116259   2.760   1.738   8.104 -0.9513 -0.3399  0.0367
 1541SOL    HW216260   2.646   1.764   8.018  1.5930  2.6500 -0.8463
 1542SOL     OW16261   2.659   1.128   2.547  0.0091 -0.1240 -0.3108
 1542SOL    HW116262   2.731   1.101   2.604 -0.1348  1.6272  0.7293
 1542SOL    HW216263   2.699   1.101   2.465 -3.3489  0.5505 -2.1482
 1543SOL     OW16264   2.903   3.141   2.974 -0.1881 -0.2172  0.4567
 1543SOL    HW116265   2.867   3.141   2.886  0.6853  0.7597  0.0953
 1543SOL    HW216266   2.867   3.059   3.008  1.2101 -0.5026  1.2457
 1544SOL     OW16267   4.452   2.943   5.061  0.1684  0.1988 -0.0351
 1544SOL    HW116268   4.373   2.891   5.081  0.0065  0.7725  0.8282
 1544SOL    HW216269   4.524   2.881   5.069  0.4876  0.6212  0.3599
 1545SOL     OW16270   2.249   3.878   3.553 -0.3035 -0.2756 -0.5385
 1545SOL    HW116271   2.246   3.894   3.647 -1.3149 -0.9159 -0.4653
 1545SOL    HW216272   2.332   3.831   3.540  0.7416  2.6020 -4.4484
 1546SOL     OW16273   0.324   2.423  16.684 -0.0305  0.2059 -0.4553
 1546SOL    HW116274   0.348   2.515  16.673 -2.1717  0.8782  0.4623
 1546SOL    HW216275   0.385   2.378  16.626  0.2532 -0.2380  0.1875
 1547SOL     OW16276   1.406   2.109   6.957 -0.6512  0.0525 -0.9737
 1547SOL    HW116277   1.492   2.126   6.918 -0.3299 -0.3788 -0.4608
 1547SOL    HW216278   1.360   2.085   6.877 -0.5624 -0.8698 -0.7455
 1548SOL     OW16279   1.760   1.689  16.891 -0.1373 -0.4250  0.0028
 1548SOL    HW116280   1.692   1.624  16.910  1.2782 -2.5390 -2.3052
 1548SOL    HW216281   1.806   1.709  16.973 -0.3474  1.9108 -0.4386
 1549SOL     OW16282   4.442   4.403   4.391 -0.4047  0.3734  0.4500
 1549SOL    HW116283   4.514   4.371   4.445 -0.8978  0.8802  1.4030
 1549SOL    HW216284   4.479   4.445   4.313 -1.3915  0.6014  0.0962
 1550SOL     OW16285   1.395   1.318  15.222  0.3910  0.1166 -0.0528
 1550SOL    HW116286   1.398   1.278  15.309  0.8031  1.3008  0.4764
 1550SOL    HW216287   1.440   1.402  15.226 -0.3780  0.5570 -0.7237
 1551SOL     OW16288   2.619   1.758  13.865 -0.2808  0.2225  0.0841
 1551SOL    HW116289   2.621   1.828  13.929  0.0979 -0.7621  1.1460
 1551SOL    HW216290   2.556   1.789  13.799  0.8053 -0.0538 -1.0900
 1552SOL     OW16291   0.030   1.330  11.178 -0.2249  0.0976  0.4901
 1552SOL    HW116292   0.106   1.280  11.147 -0.7968  0.5348 -1.6459
 1552SOL    HW216293   0.008   1.281  11.257 -0.2824 -0.4736  0.1208
 1553SOL     OW16294   4.388   1.193   5.969 -0.1421  0.6494 -0.6847
 1553SOL    HW116295   4.483   1.205   5.969 -0.1195  0.4740 -0.7717
 1553SOL    HW216296   4.383   1.117   6.027 -1.4018  1.0718 -0.2371
 1554SOL     OW16297   0.393   4.615   7.099  0.5125  0.1990 -0.1522
 1554SOL    HW116298   0.314   4.670   7.093 -1.7702 -3.1349 -0.6116
 1554SOL    HW216299   0.432   4.657   7.176  0.9425  1.1097 -0.8706
 1555SOL     OW16300   3.223   4.416  13.017 -0.5263 -0.3791  0.5643
 1555SOL    HW116301   3.256   4.337  12.973  0.9651  1.2608 -1.2772
 1555SOL    HW216302   3.284   4.481  12.982 -1.1953  0.3190  0.7105
 1556SOL     OW16303   2.522   0.269   2.986  0.1136  0.0269  0.2428
 1556SOL    HW116304   2.582   0.194   2.990  2.8666  2.2878  1.2338
 1556SOL    HW216305   2.493   0.268   2.894 -0.9041 -0.5728  0.5803
 1557SOL     OW16306   1.308   4.272   2.934  0.1514 -0.0084  0.1762
 1557SOL    HW116307   1.361   4.305   2.861  0.4297  1.5666  1.0783
 1557SOL    HW216308   1.215   4.265   2.912  1.3768 -3.5535 -3.6906
 1558SOL     OW16309   4.694   2.515   6.196  0.1979  0.0655 -0.2081
 1558SOL    HW116310   4.725   2.508   6.105  1.3784 -1.5983  0.3336
 1558SOL    HW216311   0.048   2.521   6.232  0.1733  2.4768 -0.4991
 1559SOL     OW16312   0.870   3.569   7.229 -0.2993  0.7809 -0.6565
 1559SOL    HW116313   0.872   3.474   7.217  1.6141  0.3102  3.2314
 1559SOL    HW216314   0.813   3.587   7.304  2.5017  0.7425  1.5031
 1560SOL     OW16315   0.816   4.335   9.427 -0.6259 -0.2303  0.7542
 1560SOL    HW116316   0.844   4.262   9.482 -1.3095  0.0286  1.4409
 1560SOL    HW216317   0.737   4.291   9.395 -0.8723  0.2639  0.6814
 1561SOL     OW16318   3.177   3.549   2.057  0.4078  0.4213 -0.2547
 1561SOL    HW116319   3.148   3.528   1.968  0.5545  1.7560 -0.6223
 1561SOL    HW216320   3.237   3.478   2.078  0.1955  0.1606 -0.5171
 1562SOL     OW16321   2.959   0.841   1.249  0.6655 -0.3451  0.4010
 1562SOL    HW116322   2.951   0.794   1.333 -0.3570 -0.1116  0.4323
 1562SOL    HW216323   3.000   0.779   1.189  0.9656  0.2332  0.0147
 1563SOL     OW16324   1.295   1.015   2.362 -0.0282 -0.4976  0.9585
 1563SOL    HW116325   1.299   1.053   2.449  2.0890  2.6073 -0.4946
 1563SOL    HW216326   1.294   0.921   2.382  0.1749 -0.5609  0.6728
 1564SOL     OW16327   1.174   2.594   5.387  0.6707 -0.0244 -0.0628
 1564SOL    HW116328   1.179   2.633   5.300 -3.2106 -0.0953 -0.3014
 1564SOL    HW216329   1.118   2.652   5.439  2.3109  0.3357  1.2857
 1565SOL     OW16330   3.798   0.684   1.680 -0.2502  0.3667 -0.7360
 1565SOL    HW116331   3.869   0.652   1.734 -1.5462 -1.8015 -0.3246
 1565SOL    HW216332   3.842   0.768   1.667  2.5707 -0.8045  1.2839
 1566SOL     OW16333   0.443   2.012   0.254  0.0897 -0.5326 -0.2414
 1566SOL    HW116334   0.466   1.975   0.169 -0.0941  1.7938 -1.2977
 1566SOL    HW216335   0.480   2.100   0.257 -3.7989  1.0722  0.2166
 1567SOL     OW16336   2.268   0.196   2.012 -0.0604  0.1400 -0.1045
 1567SOL    HW116337   2.299   0.231   1.928  0.5939 -0.7641 -0.2484
 1567SOL    HW216338   2.354   0.173   2.047 -0.3591 -0.5079  0.1996
 1568SOL     OW16339   4.336   3.689   6.028  0.2739 -0.7223  0.4454
 1568SOL    HW116340   4.356   3.602   6.064  0.9984 -0.4829  0.6291
 1568SOL    HW216341   4.322   3.673   5.935 -2.8191 -0.0734  0.7970
 1569SOL     OW16342   2.928   4.220   3.397  0.0017  0.2083 -0.1847
 1569SOL    HW116343   2.962   4.291   3.342  0.0286 -1.8160 -2.7884
 1569SOL    HW216344   2.852   4.269   3.430 -0.1283  0.0394 -0.2365
 1570SOL     OW16345   4.568   0.738   3.223  0.2180 -0.7648  0.4054
 1570SOL    HW116346   4.662   0.748   3.238  0.2290  0.6128 -0.6720
 1570SOL    HW216347   4.568   0.678   3.148  0.5939  0.2598 -0.4102
 1571SOL     OW16348   0.021   3.405   9.397 -0.0622  0.1538  0.3668
 1571SOL    HW116349   0.018   3.432   9.489 -1.2581  0.6780  0.1741
 1571SOL    HW216350   0.115   3.414   9.378 -0.4579  0.3351 -1.4818
 1572SOL     OW16351   3.285   0.238   9.121 -0.8884 -0.1806  0.0145
 1572SOL    HW116352   3.293   0.217   9.028 -1.9253 -0.0545 -0.1028
 1572SOL    HW216353   3.332   0.167   9.164 -1.6511 -0.0342  1.0830
 1573SOL     OW16354   1.388   1.261   0.577 -0.0924  0.6980 -0.2548
 1573SOL    HW116355   1.309   1.215   0.606 -0.5161  1.4141 -0.2588
 1573SOL    HW216356   1.370   1.256   0.484 -0.1550 -0.8293 -0.1487
 1574SOL     OW16357   2.759   2.230   7.699  0.1165  0.0271 -0.0794
 1574SOL    HW116358   2.686   2.245   7.758  1.2618 -3.3535  2.1928
 1574SOL    HW216359   2.778   2.313   7.656 -0.6542  0.0327 -0.4185
 1575SOL     OW16360   2.767   0.324   5.043  0.7081 -0.1881  0.0900
 1575SOL    HW116361   2.798   0.263   5.110  1.6531  0.6245  0.3942
 1575SOL    HW216362   2.698   0.264   5.015  0.5493 -0.9442  2.1443
 1576SOL     OW16363   2.799   1.793   6.418 -0.3129  0.0677 -0.1565
 1576SOL    HW116364   2.806   1.827   6.508 -0.3170  1.5531 -0.7098
 1576SOL    HW216365   2.705   1.777   6.411 -0.2389 -0.7345  0.7237
 1577SOL     OW16366   2.404   1.432   7.951 -0.2886  0.0881 -0.4835
 1577SOL    HW116367   2.382   1.341   7.930  0.6302  0.2613 -2.1857
 1577SOL    HW216368   2.498   1.449   7.945  0.5982 -4.3637  1.1008
 1578SOL     OW16369   1.078   3.447   5.064  0.3549  0.1926 -0.0918
 1578SOL    HW116370   1.156   3.438   5.010  0.2516  0.9670 -0.3696
 1578SOL    HW216371   1.045   3.535   5.043 -1.5547 -0.6718 -0.6785
 1579SOL     OW16372   1.392   4.614   8.522 -0.7472 -0.1423 -0.9128
 1579SOL    HW116373   1.334   4.603   8.446 -1.5174  0.2676 -0.3790
 1579SOL    HW216374   1.405   4.528   8.562 -1.7107  0.9631  1.7217
 1580SOL     OW16375   2.782   4.586   0.419  0.1627  0.1403  0.5402
 1580SOL    HW116376   2.804   4.539   0.339 -0.5898 -1.8199  1.4884
 1580SOL    HW216377   2.748   4.514   0.473 -0.1630 -1.4319 -1.7436
 1581SOL     OW16378   4.394   0.983  14.960  0.1929 -0.3918  0.5502
 1581SOL    HW116379   4.437   0.897  14.961 -1.9917 -1.4977 -0.6961
 1581SOL    HW216380   4.461   1.034  14.914  1.2184 -1.6370  0.6578
 1582SOL     OW16381   4.590   0.711  17.448  0.1207  0.1009 -0.0895
 1582SOL    HW116382   4.524   0.689  17.382  0.2707 -2.1796  0.5382
 1582SOL    HW216383   4.526   0.703  17.518  0.7223  1.3258  0.6108
 1583SOL     OW16384   4.634   2.341   7.593  0.0472 -0.1892  0.0255
 1583SOL    HW116385   4.682   2.405   7.644 -0.8827  0.5249  0.0017
 1583SOL    HW216386   4.605   2.282   7.662  0.5089  1.6993  1.8269
 1584SOL     OW16387   3.029   2.681  14.054 -0.9433  0.1373  0.0903
 1584SOL    HW116388   2.990   2.712  13.972  0.8365 -0.9556 -1.1459
 1584SOL    HW216389   3.106   2.737  14.060  0.1320 -1.1508 -1.7340
 1585SOL     OW16390   4.034   2.783   8.790  0.3149  0.1197 -0.2235
 1585SOL    HW116391   4.039   2.748   8.879  2.8964 -3.7074 -1.8870
 1585SOL    HW216392   4.108   2.842   8.777  0.3799  0.0442 -0.1972
 1586SOL     OW16393   4.304   3.554   3.433  0.3367  0.2907  0.2234
 1586SOL    HW116394   4.263   3.532   3.517 -1.4106 -0.0879 -0.7341
 1586SOL    HW216395   4.223   3.567   3.384 -0.4802  0.5220  1.6444
 1587SOL     OW16396   2.802   3.552   2.793 -0.1425  0.5005 -0.0120
 1587SOL    HW116397   2.784   3.502   2.714 -1.6875 -0.4169  0.9356
 1587SOL    HW216398   2.808   3.641   2.757  0.8207  0.2418 -0.4864
 1588SOL     OW16399   3.725   4.170   2.302 -0.4239  0.0476  0.1434
 1588SOL    HW116400   3.672   4.091   2.316  0.2207 -0.2443  0.9272
 1588SOL    HW216401   3.693   4.198   2.216 -2.3178  1.2474  1.2506
 1589SOL     OW16402   3.500   3.430   0.509 -0.3029 -0.2224  0.6659
 1589SOL    HW116403   3.572   3.437   0.447  0.5941 -0.1154  1.7075
 1589SOL    HW216404   3.542   3.467   0.587 -1.7394 -1.6271  2.1080
 1590SOL     OW16405   3.780   2.840   9.699 -0.4411 -0.3589  0.0122
 1590SOL    HW116406   3.871   2.862   9.682 -0.8055  2.3411  1.4921
 1590SOL    HW216407   3.754   2.897   9.772 -0.0741  0.3850 -0.4376
 1591SOL     OW16408   2.089   3.903  11.354  0.3516 -0.0061  0.1918
 1591SOL    HW116409   2.124   3.828  11.403  0.7898 -0.6384 -1.0730
 1591SOL    HW216410   2.126   3.890  11.266 -0.7765  2.6396 -0.6474
 1592SOL     OW16411   3.753   4.539  14.982 -0.5289 -0.0673  0.2520
 1592SOL    HW116412   3.741   4.458  14.934  0.6236 -2.3294  3.7947
 1592SOL    HW216413   3.720   4.600  14.916 -0.4235 -0.1850  0.0897
 1593SOL     OW16414   3.886   3.170  10.248 -0.3917 -0.1204 -0.2286
 1593SOL    HW116415   3.887   3.151  10.154  1.1409  0.9969 -0.4463
 1593SOL    HW216416   3.794   3.186  10.268 -0.5503 -2.1835  0.6778
 1594SOL     OW16417   2.133   0.082   8.971  0.1859  0.1249 -1.0386
 1594SOL    HW116418   2.040   0.104   8.978  0.5817  1.2692  0.6536
 1594SOL    HW216419   2.144   0.004   9.025 -0.7810 -0.2146 -1.3320
 1595SOL     OW16420   1.795   2.118  15.233 -0.3197 -0.2167 -0.3697
 1595SOL    HW116421   1.784   2.147  15.142  1.1016 -4.1492 -1.8339
 1595SOL    HW216422   1.871   2.060  15.231  0.9204  1.4498 -2.1913
 1596SOL     OW16423   2.748   0.577   5.108  0.2492  0.5058  0.3253
 1596SOL    HW116424   2.826   0.631   5.096  1.8503 -1.8963 -0.1598
 1596SOL    HW216425   2.773   0.494   5.067 -0.0870  0.6111 -0.0906
 1597SOL     OW16426   3.654   1.795   1.297 -0.0580 -0.0560 -0.5606
 1597SOL    HW116427   3.634   1.703   1.316 -0.2177  0.1297  0.2033
 1597SOL    HW216428   3.561   1.812   1.283 -0.0510 -0.2665 -0.8555
 1598SOL     OW16429   2.879   3.484   7.598 -0.6989 -0.2392 -0.6133
 1598SOL    HW116430   2.924   3.536   7.531 -1.4736  0.9252 -0.2282
 1598SOL    HW216431   2.813   3.547   7.627 -0.4133 -0.3512  0.2851
 1599SOL     OW16432   4.304   0.299   7.111 -0.8033 -0.6550  0.0186
 1599SOL    HW116433   4.355   0.220   7.095  0.3824 -0.0002  0.6212
 1599SOL    HW216434   4.216   0.276   7.080 -0.2707  1.0451 -2.7698
 1600SOL     OW16435   3.476   3.539   8.894  0.5424 -0.3919 -0.0631
 1600SOL    HW116436   3.544   3.598   8.925 -3.7026  4.7959 -0.6840
 1600SOL    HW216437   3.397   3.591   8.909  0.6209 -0.2950  0.0114
 1601SOL     OW16438   3.499   0.279   3.517  0.3822  0.1877  0.2218
 1601SOL    HW116439   3.411   0.303   3.489 -0.5483 -0.3449  2.6532
 1601SOL    HW216440   3.514   0.193   3.477 -0.9081  0.3064 -0.5017
 1602SOL     OW16441   1.245   4.387   9.403 -0.2729  0.0422 -0.2225
 1602SOL    HW116442   1.340   4.377   9.404 -0.0604  2.0161 -1.2905
 1602SOL    HW216443   1.225   4.378   9.309 -0.6413  1.1372 -0.2421
 1603SOL     OW16444   0.394   4.455   7.428  0.3811  0.3082 -0.1669
 1603SOL    HW116445   0.402   4.486   7.519  1.7755  1.3760 -0.6661
 1603SOL    HW216446   0.319   4.506   7.398 -0.7964  0.3006  2.6869
 1604SOL     OW16447   4.014   2.466   2.627  0.4306 -0.1577  0.1163
 1604SOL    HW116448   4.063   2.386   2.642 -0.1956 -1.0008 -2.3683
 1604SOL    HW216449   4.073   2.512   2.566 -0.9475 -0.0367 -1.1174
 1605SOL     OW16450   3.871   1.619   3.382  0.3348 -0.1947  0.3679
 1605SOL    HW116451   3.840   1.710   3.376  0.2940 -0.4549 -3.2798
 1605SOL    HW216452   3.949   1.624   3.327  1.0500 -1.0689  1.3176
 1606SOL     OW16453   2.317   0.303  15.206  0.1068  0.7042  0.4155
 1606SOL    HW116454   2.327   0.250  15.285 -2.3892 -0.3490  0.0255
 1606SOL    HW216455   2.396   0.355  15.221  0.8059 -0.2244 -0.0877
 1607SOL     OW16456   4.540   3.678   6.931  0.2135 -0.1606  0.7155
 1607SOL    HW116457   4.635   3.687   6.929  0.2280 -0.1462  1.5883
 1607SOL    HW216458   4.527   3.588   6.959 -1.3382 -0.6320 -1.4937
 1608SOL     OW16459   1.973   3.530   7.350  0.2011 -0.0515  0.1642
 1608SOL    HW116460   1.960   3.624   7.364  1.6114 -0.1424  2.0708
 1608SOL    HW216461   2.044   3.504   7.409  0.1728 -0.2678  0.1020
 1609SOL     OW16462   1.265   0.871   8.535 -0.3384 -0.5115 -0.2144
 1609SOL    HW116463   1.210   0.916   8.472  2.7328  2.7132 -0.5361
 1609SOL    HW216464   1.352   0.897   8.504 -1.2379  2.8115  0.0577
 1610SOL     OW16465   3.648   2.089   7.262  0.2345  0.6720 -0.6645
 1610SOL    HW116466   3.742   2.110   7.260  0.3319  0.4636  1.9212
 1610SOL    HW216467   3.617   2.110   7.350  1.1755  0.9042 -0.3812
 1611SOL     OW16468   0.716   1.620  17.259  0.1991 -0.3620  0.2912
 1611SOL    HW116469   0.786   1.682  17.240 -0.0719 -0.5474 -1.3135
 1611SOL    HW216470   0.656   1.632  17.186  0.4913 -3.4931 -0.4982
 1612SOL     OW16471   4.525   2.100   8.124 -0.5649  0.2907  0.1366
 1612SOL    HW116472   4.491   2.108   8.213  0.7541 -0.3638  0.6952
 1612SOL    HW216473   4.555   2.191   8.116  0.3554  0.0131  0.4713
 1613SOL     OW16474   0.041   2.180   7.019 -0.4194  0.1748 -0.0890
 1613SOL    HW116475   0.128   2.214   6.998 -0.5089 -0.4973 -1.5710
 1613SOL    HW216476   0.067   2.099   7.062 -0.8214  0.3921  0.5697
 1614SOL     OW16477   4.289   1.582   4.559  0.1162  0.7309  0.4020
 1614SOL    HW116478   4.203   1.576   4.517 -0.7919 -0.4193  2.4879
 1614SOL    HW216479   4.348   1.549   4.491 -1.0392  1.0050 -0.7499
 1615SOL     OW16480   4.334   3.238   5.525 -0.0046 -0.7059 -0.2439
 1615SOL    HW116481   4.402   3.260   5.589 -0.0759  2.9953 -1.4275
 1615SOL    HW216482   4.299   3.155   5.557 -1.2531  0.4102  1.3053
 1616SOL     OW16483   1.642   3.045   5.113 -0.0517 -0.0324 -0.1245
 1616SOL    HW116484   1.576   2.977   5.129  0.3006 -1.2338 -3.7648
 1616SOL    HW216485   1.636   3.112   5.182  1.9706  0.1872 -0.1593
 1617SOL     OW16486   1.350   2.455   3.025 -0.3135 -0.7243  0.4986
 1617SOL    HW116487   1.324   2.388   3.088 -0.5834  2.3118  3.6198
 1617SOL    HW216488   1.285   2.450   2.955  3.7035  0.1093 -3.2827
 1618SOL     OW16489   2.488   0.241  13.895  0.1108  0.1603 -0.8377
 1618SOL    HW116490   2.563   0.291  13.928  1.4915 -0.6195 -2.8162
 1618SOL    HW216491   2.503   0.231  13.801  0.4220  0.0352 -0.7709
 1619SOL     OW16492   3.460   1.034   5.668  0.4128  0.4883 -0.6213
 1619SOL    HW116493   3.492   1.065   5.753 -0.4959  0.2589 -0.1896
 1619SOL    HW216494   3.482   1.114   5.621  0.8097  1.6069  1.4595
 1620SOL     OW16495   0.529   1.410   3.837 -0.4806  0.1914  0.1737
 1620SOL    HW116496   0.522   1.506   3.841 -2.7600  0.0988 -2.3567
 1620SOL    HW216497   0.625   1.400   3.838  0.0675  5.0993  0.4721
 1621SOL     OW16498   1.898   1.717   4.843 -0.2637 -0.0369 -0.2363
 1621SOL    HW116499   1.826   1.657   4.823 -1.2925  1.3702 -0.7772
 1621SOL    HW216500   1.853   1.793   4.880  0.7868  0.1018  0.7306
 1622SOL     OW16501   1.030   2.057   3.147 -0.0963 -0.4191 -0.5341
 1622SOL    HW116502   0.947   2.010   3.156 -0.9009  1.0008 -0.4692
 1622SOL    HW216503   1.046   2.083   3.056  0.6226  0.2019 -0.2312
 1623SOL     OW16504   1.373   4.123   7.538 -0.2279 -0.5435 -0.4985
 1623SOL    HW116505   1.366   4.212   7.503 -2.5693 -0.1148  1.0756
 1623SOL    HW216506   1.350   4.062   7.467 -0.0766  1.3477 -2.1754
 1624SOL     OW16507   3.292   2.023   1.012  0.0556  0.2363  0.4075
 1624SOL    HW116508   3.208   2.009   1.056 -0.8479 -1.3981 -1.8558
 1624SOL    HW216509   3.256   2.063   0.933  0.2909 -1.2029 -0.4332
 1625SOL     OW16510   2.854   3.295   7.976  0.4858  0.0901 -0.0519
 1625SOL    HW116511   2.908   3.290   7.898  1.6176 -2.8470  0.9366
 1625SOL    HW216512   2.882   3.385   7.993  0.7810  0.4647 -2.5597
 1626SOL     OW16513   1.644   0.865  14.181 -0.4511  0.2857 -0.1175
 1626SOL    HW116514   1.613   0.791  14.234  1.4141 -0.9229 -0.7152
 1626SOL    HW216515   1.620   0.841  14.092 -2.2314 -2.2210  1.0543
 1627SOL     OW16516   3.659   2.977   9.072  0.0720  0.1089 -0.2693
 1627SOL    HW116517   3.580   3.020   9.104  1.2882  1.3279  1.1133
 1627SOL    HW216518   3.668   2.913   9.143 -0.5298 -1.5014 -1.6495
 1628SOL     OW16519   2.225   2.038   8.145  0.2040 -0.6445 -0.0897
 1628SOL    HW116520   2.196   1.947   8.147  0.5526 -0.7204  2.1418
 1628SOL    HW216521   2.144   2.078   8.113  1.2484 -0.6228 -2.6487
 1629SOL     OW16522   2.834   3.419   7.198 -0.1461 -0.3739 -0.0851
 1629SOL    HW116523   2.811   3.464   7.117 -0.6164  0.2164  0.3806
 1629SOL    HW216524   2.756   3.367   7.218  0.2100 -0.5786  0.7651
 1630SOL     OW16525   0.758   4.361   8.060 -0.0157  0.1140 -0.3431
 1630SOL    HW116526   0.818   4.362   7.985 -0.8762  2.2685 -1.0089
 1630SOL    HW216527   0.674   4.359   8.015  0.5026  2.6551 -1.3951
 1631SOL     OW16528   0.708   3.316   8.973  0.0927 -0.3660  0.4135
 1631SOL    HW116529   0.687   3.277   9.058  3.1029 -1.5230  0.6145
 1631SOL    HW216530   0.802   3.329   8.977 -0.3849  2.9197  1.2493
 1632SOL     OW16531   0.739   2.768   3.812  0.2091 -0.3965 -0.2402
 1632SOL    HW116532   0.747   2.748   3.719  1.2959 -0.2978 -0.1688
 1632SOL    HW216533   0.810   2.718   3.852 -1.3306 -0.9388  1.8092
 1633SOL     OW16534   0.395   0.499   1.549  0.2928 -0.2394  0.1351
 1633SOL    HW116535   0.435   0.572   1.595 -0.8038 -0.3597  1.2622
 1633SOL    HW216536   0.431   0.517   1.462 -0.8270 -1.7484 -0.6427
 1634SOL     OW16537   2.461   2.299   2.843  0.1259  0.4706  0.1654
 1634SOL    HW116538   2.466   2.387   2.805  1.2304  0.0489 -0.6552
 1634SOL    HW216539   2.547   2.268   2.815  0.2385 -0.3062  1.3964
 1635SOL     OW16540   2.422   3.597   5.951 -0.2389  0.0451  0.4406
 1635SOL    HW116541   2.464   3.552   6.025 -2.1529  0.0267  1.5044
 1635SOL    HW216542   2.386   3.514   5.920 -0.0015  0.0833  0.0569
 1636SOL     OW16543   3.564   4.448   9.947  0.4167  0.0514 -0.5003
 1636SOL    HW116544   3.613   4.528   9.933  1.7192 -0.6400  0.1217
 1636SOL    HW216545   3.531   4.466  10.035  4.3357  4.0061  0.1311
 1637SOL     OW16546   1.779   3.005  12.733  0.0354  0.3925  0.2510
 1637SOL    HW116547   1.874   3.003  12.721 -0.4195 -1.3283 -2.9953
 1637SOL    HW216548   1.753   3.051  12.653  0.9600  0.6213  0.0876
 1638SOL     OW16549   3.010   2.495   1.460 -0.3082  0.1558 -0.1778
 1638SOL    HW116550   2.995   2.430   1.529  1.2602 -0.2378 -0.2068
 1638SOL    HW216551   3.102   2.511   1.481  0.0232  0.7558 -2.1507
 1639SOL     OW16552   1.142   1.079   6.242  0.5862  0.1332 -0.9190
 1639SOL    HW116553   1.189   0.997   6.257 -0.4599 -0.1855  0.6402
 1639SOL    HW216554   1.212   1.144   6.244  0.0456  0.6760  1.0678
 1640SOL     OW16555   2.124   1.671   8.860 -0.0522  0.3750  0.0763
 1640SOL    HW116556   2.199   1.727   8.840  0.4279 -0.8431 -1.5178
 1640SOL    HW216557   2.121   1.623   8.777 -2.4445 -0.7521  0.8233
 1641SOL     OW16558   0.075   3.348   5.031  0.2246  0.4834 -0.5677
 1641SOL    HW116559   0.009   3.368   5.097  1.0777 -0.5220  0.5811
 1641SOL    HW216560   0.125   3.429   5.041  0.5299  0.1510  0.5935
 1642SOL     OW16561   0.598   0.103   8.648  0.0652 -0.0430  0.2379
 1642SOL    HW116562   0.688   0.073   8.638  0.2472  0.3995  0.5605
 1642SOL    HW216563   0.609   0.196   8.667  0.1609 -0.1319  0.6206
 1643SOL     OW16564   1.715   0.203   2.554  0.2390 -0.2356 -0.0609
 1643SOL    HW116565   1.773   0.128   2.566  0.0237 -0.3245  0.4117
 1643SOL    HW216566   1.663   0.205   2.634  1.4163 -0.9663  0.7263
 1644SOL     OW16567   4.320   0.523   8.307  0.3020 -0.2637 -0.2774
 1644SOL    HW116568   4.372   0.594   8.346 -1.3616  1.1409 -0.6154
 1644SOL    HW216569   4.359   0.438   8.328 -0.3306 -0.3973  0.3342
 1645SOL     OW16570   2.852   3.173   6.257  0.0481 -0.0065  0.3102
 1645SOL    HW116571   2.924   3.229   6.285  0.6179  0.8395 -2.9486
 1645SOL    HW216572   2.791   3.189   6.329 -1.0060 -1.2982 -0.2915
 1646SOL     OW16573   1.429   0.757  17.256 -0.7303  0.3873 -0.2405
 1646SOL    HW116574   1.512   0.726  17.219 -0.7933 -0.2511  0.1453
 1646SOL    HW216575   1.380   0.678  17.278 -0.1681  0.0151 -0.3105
 1647SOL     OW16576   1.448   4.393   3.855 -0.4654 -0.3922 -0.4026
 1647SOL    HW116577   1.499   4.365   3.779 -1.5081 -0.6189 -1.0298
 1647SOL    HW216578   1.406   4.307   3.860 -0.4871 -0.4069 -0.8628
 1648SOL     OW16579   0.917   0.449   6.254  0.6482  0.0393  0.2924
 1648SOL    HW116580   0.996   0.395   6.252  0.3405 -0.4252  1.0241
 1648SOL    HW216581   0.933   0.530   6.302 -2.1857  1.7013 -1.5122
 1649SOL     OW16582   0.066   3.014   4.098 -0.1022 -0.1021  0.5243
 1649SOL    HW116583   0.158   3.037   4.089 -0.6282  2.1069  0.7080
 1649SOL    HW216584   0.025   3.084   4.048 -1.5380 -0.1206  1.6745
 1650SOL     OW16585   4.349   2.904   6.382  0.3411 -0.4502 -1.0217
 1650SOL    HW116586   4.268   2.914   6.332 -1.4526  0.3085  2.0886
 1650SOL    HW216587   4.380   2.990   6.354 -0.9601 -0.0358 -1.1787
 1651SOL     OW16588   1.202   0.607   7.752  0.1154 -0.2730  0.4024
 1651SOL    HW116589   1.237   0.518   7.745  0.7605  0.0904 -0.9835
 1651SOL    HW216590   1.272   0.648   7.803 -0.0347 -1.0317  1.2205
 1652SOL     OW16591   3.642   1.399   5.023 -0.2294 -0.0038  0.0521
 1652SOL    HW116592   3.661   1.327   4.962 -1.8837  2.1253 -2.9510
 1652SOL    HW216593   3.547   1.403   5.013 -0.4678 -1.7571  1.5079
 1653SOL     OW16594   1.179   2.356  17.448  0.3943 -0.4676 -0.8915
 1653SOL    HW116595   1.226   2.432  17.481  1.2936 -0.5311 -2.0135
 1653SOL    HW216596   1.227   2.290  17.498 -1.0276  0.2467  1.4148
 1654SOL     OW16597   0.069   0.833  10.806  0.0870  0.3716  0.3349
 1654SOL    HW116598   0.103   0.854  10.719 -1.1243 -0.8923 -0.4433
 1654SOL    HW216599   0.129   0.883  10.861  0.7138 -0.1810  0.1571
 1655SOL     OW16600   3.165   2.566   7.759  0.5033 -0.0401  0.1761
 1655SOL    HW116601   3.158   2.559   7.664 -0.0310 -0.5901  0.2543
 1655SOL    HW216602   3.174   2.474   7.784 -0.2228 -0.1829 -0.0872
 1656SOL     OW16603   3.685   0.444   0.450 -0.4652 -0.0122  0.6825
 1656SOL    HW116604   3.713   0.413   0.536  0.0706  0.6006  0.7301
 1656SOL    HW216605   3.761   0.494   0.420 -0.7854 -0.4978 -0.8843
 1657SOL     OW16606   2.281   2.231   6.295  0.0635 -0.0259 -0.3404
 1657SOL    HW116607   2.377   2.225   6.301  0.0811  1.3132  0.6780
 1657SOL    HW216608   2.263   2.305   6.353 -2.5306 -1.0786  0.1900
 1658SOL     OW16609   0.380   0.287   6.453 -0.2240 -0.3482 -0.7154
 1658SOL    HW116610   0.438   0.361   6.434  0.4834 -0.8715 -0.5889
 1658SOL    HW216611   0.424   0.214   6.409  1.5066 -0.7766  1.7527
 1659SOL     OW16612   1.388   0.348   7.294  0.0391 -0.4795  0.1986
 1659SOL    HW116613   1.463   0.360   7.352  0.4881 -1.0542 -0.2628
 1659SOL    HW216614   1.388   0.256   7.268  3.6845  0.0989 -1.9239
 1660SOL     OW16615   0.966   3.047   4.880 -0.2054 -0.4847  0.2364
 1660SOL    HW116616   0.961   3.114   4.949  2.0630  0.1503 -0.2033
 1660SOL    HW216617   0.875   3.033   4.856 -0.3222 -2.3041  1.7831
 1661SOL     OW16618   2.867   0.174   8.852 -0.2735  0.1898 -0.1600
 1661SOL    HW116619   2.947   0.138   8.812 -1.4627 -1.6248 -0.9119
 1661SOL    HW216620   2.899   0.264   8.844  2.2553 -0.5809  1.3801
 1662SOL     OW16621   3.552   0.277   4.777  0.2446  0.2134  0.8520
 1662SOL    HW116622   3.526   0.294   4.687 -0.4113 -0.5123  0.8990
 1662SOL    HW216623   3.630   0.224   4.763 -0.5020  0.0833 -2.6802
 1663SOL     OW16624   4.181   4.265   6.930  0.7375  0.7779  0.1197
 1663SOL    HW116625   4.211   4.221   6.850  2.8026  1.2995  0.6184
 1663SOL    HW216626   4.089   4.249   6.908  0.3829  1.2342  1.2919
 1664SOL     OW16627   1.637   1.559   2.271 -0.0159  0.4038 -0.5571
 1664SOL    HW116628   1.664   1.471   2.297  0.2175  0.9129  0.9196
 1664SOL    HW216629   1.599   1.580   2.356 -1.8400 -0.6756 -1.1028
 1665SOL     OW16630   4.303   0.385   9.362 -0.6105  0.2409  0.0475
 1665SOL    HW116631   4.389   0.354   9.389 -0.0374  0.2444 -1.7894
 1665SOL    HW216632   4.324   0.395   9.269  0.2229  3.1273  0.5566
 1666SOL     OW16633   0.653   0.933  15.919  0.3305 -0.1214  0.5353
 1666SOL    HW116634   0.582   0.936  15.854  1.1148  1.4740 -0.2448
 1666SOL    HW216635   0.635   0.856  15.973 -0.9947 -0.5620 -0.5195
 1667SOL     OW16636   3.792   3.085   1.708  0.3696 -0.0544 -0.0956
 1667SOL    HW116637   3.829   3.047   1.629 -3.7675  1.9103 -2.9450
 1667SOL    HW216638   3.732   3.152   1.676 -1.1617 -1.0090  0.7391
 1668SOL     OW16639   3.987   2.117   6.036 -0.1951  0.1409 -0.1146
 1668SOL    HW116640   4.020   2.122   5.946 -1.1184  2.6133 -0.3418
 1668SOL    HW216641   4.063   2.159   6.078  0.0984 -0.9780  0.4635
 1669SOL     OW16642   2.167   4.608   6.770  0.3836 -0.1297 -0.0884
 1669SOL    HW116643   2.210   4.649   6.694  1.0913 -0.2451  0.2513
 1669SOL    HW216644   2.223   4.631   6.844  2.1924 -1.1694 -1.1157
 1670SOL     OW16645   0.441   1.465  11.300  0.0574  0.3313 -0.3624
 1670SOL    HW116646   0.371   1.406  11.330 -3.2262  3.8979 -1.0311
 1670SOL    HW216647   0.426   1.551  11.340 -0.3982  0.2232 -0.2950
 1671SOL     OW16648   4.037   4.122   2.448 -0.2672 -0.4630 -0.4302
 1671SOL    HW116649   3.965   4.101   2.508  0.3293  1.0257  0.8038
 1671SOL    HW216650   4.074   4.035   2.433  1.1265  0.1636 -0.6191
 1672SOL     OW16651   4.294   1.703   3.660  0.4191  0.4975  0.6935
 1672SOL    HW116652   4.204   1.720   3.689 -0.7925 -3.2958 -0.8574
 1672SOL    HW216653   4.332   1.687   3.747 -1.3363  1.5422  1.6604
 1673SOL     OW16654   2.654   4.139  15.129  0.3733 -0.1550 -0.3454
 1673SOL    HW116655   2.623   4.108  15.044 -0.2969  1.1491 -0.5767
 1673SOL    HW216656   2.749   4.139  15.120  0.4342 -0.5958  0.3076
 1674SOL     OW16657   3.674   3.891   1.249 -0.0095  0.1039 -0.4309
 1674SOL    HW116658   3.606   3.841   1.294 -0.1362 -1.4725 -2.4025
 1674SOL    HW216659   3.751   3.836   1.263 -0.1833 -0.5954 -2.2790
 1675SOL     OW16660   3.446   3.982   8.872 -0.2660 -0.5921 -0.1938
 1675SOL    HW116661   3.390   3.955   8.946 -0.5004 -1.3430 -0.6442
 1675SOL    HW216662   3.375   4.004   8.811 -0.6819  0.1962  0.5670
 1676SOL     OW16663   4.182   4.307   9.502 -0.3498 -0.4579 -0.6284
 1676SOL    HW116664   4.263   4.255   9.508 -0.9352 -1.5455 -2.1092
 1676SOL    HW216665   4.123   4.273   9.568 -1.2417  0.7542 -0.8057
 1677SOL     OW16666   1.953   1.753   2.968  0.0145  0.2294 -0.3762
 1677SOL    HW116667   1.909   1.668   2.970  1.6480 -0.5769  1.3971
 1677SOL    HW216668   2.024   1.731   3.028  1.2369 -0.2807 -1.9792
 1678SOL     OW16669   4.648   2.795  15.871 -0.6193 -0.1189  0.0447
 1678SOL    HW116670   4.613   2.721  15.822  0.3380 -1.3056  1.1621
 1678SOL    HW216671   4.566   2.818  15.914 -0.5030  0.1266  0.1342
 1679SOL     OW16672   4.616   4.446  10.064  0.3135 -0.1404 -0.2428
 1679SOL    HW116673   4.692   4.475  10.013  1.8024 -2.0250  0.8868
 1679SOL    HW216674   4.568   4.412   9.988  1.0759  4.1123 -2.6300
 1680SOL     OW16675   3.539   0.084   5.349  0.5711  0.2142  0.1486
 1680SOL    HW116676   3.601   0.097   5.422  0.8844  0.8931 -0.2317
 1680SOL    HW216677   3.526   0.173   5.316 -0.2717  0.3779  0.9042
 1681SOL     OW16678   2.896   1.470   8.149 -0.2232 -0.1385  0.6353
 1681SOL    HW116679   2.965   1.477   8.216 -1.1976 -0.1991  1.6417
 1681SOL    HW216680   2.943   1.497   8.070 -0.3522 -2.5156 -0.2558
 1682SOL     OW16681   1.191   1.284   7.266  0.4139 -0.4825  0.5979
 1682SOL    HW116682   1.230   1.200   7.291  1.2536 -0.6195 -1.2203
 1682SOL    HW216683   1.258   1.347   7.290 -0.0434 -0.1797  1.0890
 1683SOL     OW16684   2.848   2.498   8.970  0.0510  0.0930  0.4052
 1683SOL    HW116685   2.936   2.517   8.939  0.1984 -0.2477  0.6205
 1683SOL    HW216686   2.822   2.433   8.904 -0.6888  1.1068 -0.3097
 1684SOL     OW16687   0.368   3.761   1.519 -0.7589 -0.2994 -0.6981
 1684SOL    HW116688   0.377   3.666   1.526 -0.5123 -0.1590  1.0164
 1684SOL    HW216689   0.276   3.786   1.528 -0.4140  0.8175 -0.3280
 1685SOL     OW16690   0.548   2.708   6.575 -0.4604 -0.3623  0.1547
 1685SOL    HW116691   0.575   2.797   6.597 -3.4159  0.5922 -0.1135
 1685SOL    HW216692   0.556   2.666   6.661  0.7677 -0.2125  0.1195
 1686SOL     OW16693   2.225   3.040   7.975  0.4851  0.1920 -0.1803
 1686SOL    HW116694   2.267   3.058   8.059 -0.2195 -0.8192  0.3921
 1686SOL    HW216695   2.263   3.121   7.941 -1.6088  1.4286  0.4260
 1687SOL     OW16696   0.540   1.285   7.393 -0.1359 -0.4901  0.9023
 1687SOL    HW116697   0.596   1.339   7.337  1.6995 -1.4788  1.8019
 1687SOL    HW216698   0.596   1.285   7.471  1.1661  2.7385 -0.0397
 1688SOL     OW16699   0.694   1.721   7.108 -0.0843 -0.6058  0.3993
 1688SOL    HW116700   0.673   1.768   7.189 -0.9560  0.5552 -0.5029
 1688SOL    HW216701   0.645   1.764   7.038  1.5996 -1.5545 -1.3585
 1689SOL     OW16702   3.609   3.702   7.249  0.3946 -0.3247  0.1019
 1689SOL    HW116703   3.646   3.617   7.272 -0.0947 -0.3471  0.8091
 1689SOL    HW216704   3.538   3.706   7.313  0.0283 -1.6832 -0.2118
 1690SOL     OW16705   4.597   0.374   8.495  0.4969 -0.3738 -0.2478
 1690SOL    HW116706   4.596   0.281   8.518  0.5590 -0.1969  0.4744
 1690SOL    HW216707   4.691   0.385   8.481  0.1903 -0.4042 -2.3126
 1691SOL     OW16708   4.656   0.033  15.514 -0.1474 -0.5728  0.8864
 1691SOL    HW116709   4.726   0.018  15.577  0.5279  1.9875  0.7116
 1691SOL    HW216710   4.632   0.123  15.532  0.8846  0.0999 -1.0849
 1692SOL     OW16711   4.728   4.019  10.135 -0.0123  0.2279  0.0651
 1692SOL    HW116712   0.030   4.107  10.123  1.3833 -0.2902  0.4645
 1692SOL    HW216713   4.677   4.047  10.210  0.0427 -0.0225  0.1966
 1693SOL     OW16714   0.878   3.001   7.962  0.3289 -0.1114 -0.0640
 1693SOL    HW116715   0.913   3.087   7.986 -0.8105  0.4786 -0.5390
 1693SOL    HW216716   0.815   2.985   8.032 -0.3595  3.5195  0.1505
 1694SOL     OW16717   3.017   0.956   9.405 -0.5175 -0.5069 -0.0536
 1694SOL    HW116718   2.939   0.910   9.373 -1.0279  1.3738 -1.5332
 1694SOL    HW216719   2.959   1.015   9.453  1.3610  1.7338 -0.5533
 1695SOL     OW16720   1.029   2.935   0.816  0.1209 -0.0509  0.2116
 1695SOL    HW116721   0.964   2.902   0.754  1.0313 -2.1453  0.3990
 1695SOL    HW216722   1.076   2.852   0.817  0.8676  0.3703 -0.0737
 1696SOL     OW16723   4.452   3.932   7.151  0.0683  0.1150 -0.1367
 1696SOL    HW116724   4.402   4.012   7.139  0.0563  0.5317  2.6869
 1696SOL    HW216725   4.398   3.857   7.125 -1.8417  1.3101  0.4180
 1697SOL     OW16726   1.685   0.190   3.397 -0.3068 -0.5115  0.1218
 1697SOL    HW116727   1.744   0.115   3.387 -1.0924 -0.8752 -2.0473
 1697SOL    HW216728   1.691   0.235   3.312 -0.1784 -0.1834  0.3049
 1698SOL     OW16729   0.674   2.217   9.544 -0.7804 -0.0595  0.4219
 1698SOL    HW116730   0.692   2.129   9.513  0.3329 -0.4258  2.0754
 1698SOL    HW216731   0.705   2.219   9.635  1.6339  0.2279 -0.4243
 1699SOL     OW16732   4.274   0.183   4.301 -0.0453  0.1706  0.5430
 1699SOL    HW116733   4.257   0.239   4.225  1.0905  1.9895  1.6293
 1699SOL    HW216734   4.196   0.127   4.298  0.4010 -0.4232  0.1843
 1700SOL     OW16735   4.543   0.179   9.917 -0.1148 -0.1789  0.5922
 1700SOL    HW116736   4.492   0.240   9.864  0.3871 -0.8144 -0.6238
 1700SOL    HW216737   4.473   0.120   9.945 -0.7457 -0.0889 -0.8258
 1701SOL     OW16738   1.548   4.225   1.035  0.2342 -0.3776  0.0249
 1701SOL    HW116739   1.623   4.239   1.094 -0.5526  0.9724  0.7206
 1701SOL    HW216740   1.557   4.131   1.022 -1.0178 -0.1521 -2.4134
 1702SOL     OW16741   4.074   0.626   7.109  0.1558  0.0071 -0.3850
 1702SOL    HW116742   4.070   0.638   7.014  1.3136  3.2814 -0.0308
 1702SOL    HW216743   4.158   0.669   7.124  0.1212  0.5686 -1.7825
 1703SOL     OW16744   0.491   3.966   4.998  0.6953  0.0597 -0.3412
 1703SOL    HW116745   0.580   3.997   5.011  1.2378 -1.7961  0.3729
 1703SOL    HW216746   0.509   3.874   4.979 -2.7192 -0.6999 -0.0678
 1704SOL     OW16747   4.542   3.496  12.555  0.0508  0.0251  0.3961
 1704SOL    HW116748   4.588   3.578  12.544  1.4667 -0.6794  1.1414
 1704SOL    HW216749   4.613   3.434  12.571 -0.3453 -0.5259  0.0523
 1705SOL     OW16750   1.882   0.432  13.822  0.1486  0.2284 -0.0966
 1705SOL    HW116751   1.806   0.405  13.873  0.7831  0.6438  1.0608
 1705SOL    HW216752   1.949   0.370  13.850 -1.5965 -1.2521  0.7992
 1706SOL     OW16753   1.329   4.404   1.641 -0.2698 -0.5959 -0.2136
 1706SOL    HW116754   1.412   4.451   1.648 -0.8976  0.1814  1.9895
 1706SOL    HW216755   1.358   4.324   1.598 -1.2439 -0.6239 -0.8180
 1707SOL     OW16756   1.463   0.733   8.721  0.1073 -0.3699  0.1777
 1707SOL    HW116757   1.511   0.683   8.656  1.1338 -0.1179  0.7437
 1707SOL    HW216758   1.413   0.663   8.764  2.1413  0.2043  3.4551
 1708SOL     OW16759   3.933   3.076  14.751 -0.3268  0.0320 -0.2442
 1708SOL    HW116760   3.921   2.982  14.763  0.4239 -0.0492 -0.0906
 1708SOL    HW216761   3.967   3.097  14.838 -2.2663 -1.9456  0.9690
 1709SOL     OW16762   1.638   0.804   8.103  0.5856  0.1791  0.9473
 1709SOL    HW116763   1.686   0.762   8.175  1.5796 -0.0156  0.1605
 1709SOL    HW216764   1.697   0.869   8.065  0.6678 -1.1238 -1.1591
 1710SOL     OW16765   1.822   0.138   0.083  0.3102  0.0533  0.3205
 1710SOL    HW116766   1.893   0.086   0.121  1.0326  1.3930  0.7773
 1710SOL    HW216767   1.884   0.177   0.021 -1.7685  3.4601  0.3892
 1711SOL     OW16768   3.066   1.956  12.611  0.0363 -0.1359 -0.5214
 1711SOL    HW116769   3.126   1.895  12.568 -1.7322 -1.4194 -1.1600
 1711SOL    HW216770   2.986   1.951  12.560 -0.3914 -1.8109  0.3379
 1712SOL     OW16771   4.713   2.871  12.437  0.7076  0.1469 -0.5037
 1712SOL    HW116772   4.631   2.873  12.389  0.2847 -0.4142  0.2052
 1712SOL    HW216773   0.031   2.940  12.395  3.2859 -2.3488 -1.4073
 1713SOL     OW16774   2.380   1.370   2.182 -0.1310 -0.0616 -0.3675
 1713SOL    HW116775   2.471   1.366   2.208 -0.8639 -2.1208  1.8555
 1713SOL    HW216776   2.395   1.364   2.087  2.6980  1.3205 -0.0052
 1714SOL     OW16777   4.451   1.127   2.535 -0.4556 -0.2485  0.7837
 1714SOL    HW116778   4.382   1.061   2.530  0.1159 -0.8431  0.7851
 1714SOL    HW216779   4.446   1.178   2.454 -2.4391 -1.6049  0.0454
 1715SOL     OW16780   0.500   1.958   9.095  0.0241 -0.0318 -0.4665
 1715SOL    HW116781   0.586   1.967   9.054  0.0883 -0.0539 -0.3353
 1715SOL    HW216782   0.505   2.028   9.160 -2.2952  0.6092 -0.9860
 1716SOL     OW16783   0.728   0.680  15.566  0.1222 -0.4887  0.3910
 1716SOL    HW116784   0.769   0.744  15.509  0.5782 -1.6664 -0.6129
 1716SOL    HW216785   0.777   0.683  15.648 -0.2385 -0.8445  0.6219
 1717SOL     OW16786   2.842   2.234   9.222  0.9173  0.1637 -0.2918
 1717SOL    HW116787   2.793   2.292   9.279 -1.2005 -0.9356 -0.9766
 1717SOL    HW216788   2.885   2.296   9.164  1.9650 -0.1184  0.1742
 1718SOL     OW16789   3.714   4.257  11.461  0.4293 -0.0207  0.6067
 1718SOL    HW116790   3.754   4.327  11.409  0.8693 -0.3794  0.4618
 1718SOL    HW216791   3.784   4.250  11.525 -0.1392 -1.2710  1.0928
 1719SOL     OW16792   2.095   2.294  11.423  0.5378  0.0600  0.9669
 1719SOL    HW116793   2.036   2.369  11.424 -1.2675 -1.3645 -0.3448
 1719SOL    HW216794   2.066   2.259  11.508 -0.0721  1.0957  1.1827
 1720SOL     OW16795   3.661   2.300   8.030 -0.1370 -0.1853  0.0596
 1720SOL    HW116796   3.591   2.275   7.970  0.5752  2.7113 -1.9904
 1720SOL    HW216797   3.615   2.365   8.083 -0.8982 -0.6030 -0.0790
 1721SOL     OW16798   1.584   2.249  13.884 -0.0914  0.1124 -0.3903
 1721SOL    HW116799   1.559   2.318  13.822 -1.7023  1.7622  2.0863
 1721SOL    HW216800   1.517   2.182  13.873  1.4970 -1.6141  0.3374
 1722SOL     OW16801   2.612   0.814   4.198 -0.2454 -0.4066 -0.5171
 1722SOL    HW116802   2.636   0.900   4.165  1.5152  0.0268  1.8745
 1722SOL    HW216803   2.602   0.764   4.117 -1.8046 -0.1491 -0.4823
 1723SOL     OW16804   1.915   4.137   8.487 -0.7159  0.7517 -0.3369
 1723SOL    HW116805   1.974   4.174   8.553 -1.6833  0.3562  0.7272
 1723SOL    HW216806   1.907   4.212   8.428 -1.1945  1.2175  0.3290
 1724SOL     OW16807   2.300   1.403  10.180 -0.0826 -0.8119  0.4910
 1724SOL    HW116808   2.299   1.341  10.253  1.5648  0.0277  1.2431
 1724SOL    HW216809   2.217   1.379  10.139 -1.7042  1.3596  2.4512
 1725SOL     OW16810   0.228   4.122   6.938  0.0921 -0.1946  0.2261
 1725SOL    HW116811   0.228   4.202   6.991  2.2185 -0.3273  0.4442
 1725SOL    HW216812   0.175   4.147   6.862 -0.3029  1.6074  1.0899
 1726SOL     OW16813   1.255   2.100  17.529 -0.4912  0.1753  0.4885
 1726SOL    HW116814   1.303   2.044  17.590  2.3641  0.4190 -1.5749
 1726SOL    HW216815   1.167   2.092  17.566 -0.2193 -0.8879  0.9083
 1727SOL     OW16816   4.558   3.014   1.900  0.4095 -0.5974 -0.1548
 1727SOL    HW116817   4.637   3.044   1.946 -1.9935  0.0760  3.5743
 1727SOL    HW216818   4.516   3.095   1.873  0.4240 -1.4636 -2.7208
 1728SOL     OW16819   1.494   0.454   1.888  0.2425 -0.8709  0.1579
 1728SOL    HW116820   1.436   0.520   1.850 -0.1379 -0.0468  2.1463
 1728SOL    HW216821   1.482   0.373   1.839  2.6578 -0.8012 -0.5547
 1729SOL     OW16822   3.400   4.499   2.049 -0.8202 -0.5468 -0.1643
 1729SOL    HW116823   3.487   4.503   2.010 -0.0440  0.0146  1.6093
 1729SOL    HW216824   3.361   4.418   2.017  1.0411 -1.0666 -1.1328
 1730SOL     OW16825   3.692   1.351   2.199  0.3997 -0.0988  0.2395
 1730SOL    HW116826   3.717   1.404   2.123 -0.7940  0.4555  0.2404
 1730SOL    HW216827   3.711   1.267   2.158  0.4098 -0.6156  1.3106
 1731SOL     OW16828   2.687   4.033  10.809 -0.1769  0.2093 -0.6833
 1731SOL    HW116829   2.746   4.101  10.841 -0.6346  0.3137 -0.0590
 1731SOL    HW216830   2.609   4.045  10.863 -1.2752 -0.8607 -2.0320
 1732SOL     OW16831   3.634   3.111  16.617 -0.1040 -0.1971 -0.1384
 1732SOL    HW116832   3.586   3.029  16.629  0.8213 -0.8185 -0.7555
 1732SOL    HW216833   3.581   3.168  16.673  0.7735  0.0429  0.4481
 1733SOL     OW16834   4.594   4.412   8.484 -0.4338 -0.0016  0.3963
 1733SOL    HW116835   4.678   4.421   8.529 -0.2476 -1.5973  0.3669
 1733SOL    HW216836   4.575   4.319   8.497  0.0719 -0.2948 -0.9533
 1734SOL     OW16837   0.894   4.174   6.069  0.0018  0.2665 -0.0438
 1734SOL    HW116838   0.850   4.172   6.154  0.6127  1.0324  0.2853
 1734SOL    HW216839   0.984   4.154   6.094  0.2345 -0.7096 -1.6445
 1735SOL     OW16840   1.215   0.762   5.842  0.0286  0.0455  0.1562
 1735SOL    HW116841   1.148   0.830   5.849  1.2121  1.3532 -0.9710
 1735SOL    HW216842   1.284   0.822   5.811 -1.9805  0.8880 -2.6343
 1736SOL     OW16843   3.981   2.088   6.514 -0.0113  0.0475  0.0502
 1736SOL    HW116844   3.923   2.061   6.443 -1.7791  1.9264  0.7786
 1736SOL    HW216845   3.931   2.080   6.594  2.4660  2.0370  1.8116
 1737SOL     OW16846   3.722   3.334   9.171 -0.2410  0.3586 -0.5005
 1737SOL    HW116847   3.652   3.334   9.237 -0.0370 -1.6549 -0.2697
 1737SOL    HW216848   3.803   3.354   9.218 -0.5971 -1.3292  0.8531
 1738SOL     OW16849   1.426   0.779   7.212 -0.0303 -0.0520 -0.6688
 1738SOL    HW116850   1.455   0.870   7.209  0.2598 -0.0899  1.3571
 1738SOL    HW216851   1.497   0.739   7.262 -0.2343  0.4957  0.0521
 1739SOL     OW16852   1.280   4.219   7.979  0.0906  0.4732 -0.5419
 1739SOL    HW116853   1.270   4.246   8.070  0.9177  0.6233 -0.4978
 1739SOL    HW216854   1.319   4.132   7.992 -0.5367  0.1017 -1.1443
 1740SOL     OW16855   4.317   3.301  16.532 -0.1182 -0.0968  0.6737
 1740SOL    HW116856   4.290   3.390  16.553  0.1990  0.2281 -0.2743
 1740SOL    HW216857   4.406   3.305  16.568  0.2741  0.8705 -0.3740
 1741SOL     OW16858   4.561   2.830   0.675  0.7444 -0.0696  0.0929
 1741SOL    HW116859   4.631   2.799   0.732  0.9621  1.0194  0.4153
 1741SOL    HW216860   4.567   2.924   0.692  1.5788 -0.2643  0.9092
 1742SOL     OW16861   1.519   4.320   8.493  0.8899  0.0843  0.1766
 1742SOL    HW116862   1.596   4.374   8.511 -0.3879  1.9388  0.0635
 1742SOL    HW216863   1.476   4.323   8.578  1.4729 -3.4049  0.5990
 1743SOL     OW16864   3.059   1.803   4.007  0.5211 -0.2443 -0.1926
 1743SOL    HW116865   3.078   1.745   3.933 -1.3614  0.6725 -1.3729
 1743SOL    HW216866   3.004   1.742   4.057  1.3230  0.6996  1.8203
 1744SOL     OW16867   4.609   1.528   8.011  0.4155  0.2873  0.5223
 1744SOL    HW116868   4.541   1.538   7.944 -0.3893 -1.4929  1.0705
 1744SOL    HW216869   4.671   1.587   7.968 -0.6768 -0.1520 -1.6237
 1745SOL     OW16870   1.547   0.488   5.415 -0.2273 -0.0892 -0.7559
 1745SOL    HW116871   1.591   0.572   5.399  0.3451 -0.0567  0.9060
 1745SOL    HW216872   1.618   0.427   5.394 -1.5621 -0.8187 -3.1288
 1746SOL     OW16873   4.627   0.071   7.174 -0.5664 -0.3246 -0.3360
 1746SOL    HW116874   4.562   0.074   7.104  0.2661  0.1778 -1.0775
 1746SOL    HW216875   4.569   0.047   7.246  0.1124 -0.3267  0.2078
 1747SOL     OW16876   1.634   0.069   4.181 -0.7185  0.0422 -0.2684
 1747SOL    HW116877   1.628   4.730   4.242 -1.2157  0.4389  0.1658
 1747SOL    HW216878   1.545   0.104   4.184 -0.1608  1.5386 -0.8907
 1748SOL     OW16879   2.046   0.981   0.928  0.1545 -0.2653  0.6918
 1748SOL    HW116880   2.141   0.981   0.939 -0.0553  0.5815  2.4652
 1748SOL    HW216881   2.034   1.063   0.975 -0.5201 -0.8178  1.4726
 1749SOL     OW16882   1.173   4.161   6.790  0.4673 -0.3812  0.0955
 1749SOL    HW116883   1.191   4.144   6.882 -1.2221 -0.7458  0.3479
 1749SOL    HW216884   1.119   4.084   6.775 -2.6036  1.9808 -0.9274
 1750SOL     OW16885   2.684   0.280   8.191 -0.0231  0.5354  0.3168
 1750SOL    HW116886   2.734   0.359   8.170  1.4947 -1.1405 -2.4140
 1750SOL    HW216887   2.693   0.280   8.286 -1.0313 -3.0229  0.4135
 1751SOL     OW16888   4.070   1.350   2.267  0.1750 -0.0108  0.3208
 1751SOL    HW116889   4.037   1.285   2.329  1.5710 -2.8556 -1.9069
 1751SOL    HW216890   4.040   1.430   2.309 -0.6529 -0.1117 -0.0828
 1752SOL     OW16891   1.963   2.443   7.032  0.0446 -0.0338  0.0573
 1752SOL    HW116892   1.918   2.362   7.011  0.8612 -0.6340  0.6454
 1752SOL    HW216893   2.042   2.437   6.979  0.2019 -0.2145  0.3105
 1753SOL     OW16894   1.814   2.732   4.617 -0.1108 -0.1003  0.4569
 1753SOL    HW116895   1.895   2.759   4.661 -0.0101 -0.7629  0.6864
 1753SOL    HW216896   1.813   2.638   4.638  1.6830  0.1934  1.8576
 1754SOL     OW16897   1.197   4.443  10.010  0.3775  0.6167 -0.6147
 1754SOL    HW116898   1.121   4.484  10.052  1.2490  0.9373  0.6460
 1754SOL    HW216899   1.231   4.378  10.071 -2.0048  0.1485  0.2095
 1755SOL     OW16900   0.994   4.704   7.160 -0.2969  0.2101 -0.0988
 1755SOL    HW116901   0.915   4.689   7.210 -0.4012  1.4608  0.0949
 1755SOL    HW216902   0.999   0.065   7.153 -1.8903  0.5700  3.9095
 1756SOL     OW16903   3.403   2.362  12.812  0.2553  0.3926  0.2223
 1756SOL    HW116904   3.340   2.303  12.774  0.7282 -2.0660  3.2326
 1756SOL    HW216905   3.476   2.300  12.817  0.7426  0.9081 -0.3985
 1757SOL     OW16906   1.202   4.139   3.388 -0.1894 -0.3011 -0.4173
 1757SOL    HW116907   1.262   4.174   3.321 -0.1564 -0.3258 -0.4008
 1757SOL    HW216908   1.160   4.076   3.330 -1.3380 -0.3821  0.5238
 1758SOL     OW16909   3.891   2.120   7.946  0.7637 -0.2882  0.4253
 1758SOL    HW116910   3.833   2.170   8.003  2.0412  2.4877 -0.7282
 1758SOL    HW216911   3.898   2.180   7.871  2.9424 -1.6783 -0.4873
 1759SOL     OW16912   3.704   3.989  12.833  0.0450 -0.3138  0.1398
 1759SOL    HW116913   3.616   3.954  12.849  0.6626 -2.3195 -0.8609
 1759SOL    HW216914   3.689   4.060  12.771  4.5214 -0.9416 -1.6400
 1760SOL     OW16915   4.055   4.454  12.482 -0.8661  0.1982 -0.1090
 1760SOL    HW116916   4.071   4.544  12.453  1.2360 -0.2819 -0.4532
 1760SOL    HW216917   4.118   4.394  12.441 -2.0311 -1.4369  0.4822
 1761SOL     OW16918   2.195   1.327   2.389  0.0223  0.2384  0.7455
 1761SOL    HW116919   2.205   1.235   2.366  0.0757  0.4852 -0.2048
 1761SOL    HW216920   2.261   1.370   2.335 -0.5927 -0.0007 -0.1871
 1762SOL     OW16921   2.198   1.309   4.032 -0.3329 -0.7115  0.4007
 1762SOL    HW116922   2.222   1.271   4.117  0.2689 -1.5795 -0.1561
 1762SOL    HW216923   2.162   1.389   4.072 -2.6823 -0.1234 -2.9078
 1763SOL     OW16924   0.104   0.642  17.540 -0.8509 -0.2602 -0.3552
 1763SOL    HW116925   0.091   0.553  17.506  0.4512 -0.1969 -1.0489
 1763SOL    HW216926   0.032   0.694  17.504 -0.2657  1.1352  0.5044
 1764SOL     OW16927   3.138   2.382   3.425 -0.2882 -0.5284 -0.2044
 1764SOL    HW116928   3.180   2.347   3.504  0.1219 -1.2251 -0.7347
 1764SOL    HW216929   3.197   2.456   3.408 -2.3350  0.8283 -1.4966
 1765SOL     OW16930   3.620   3.444  10.972 -0.4164  0.5377  0.4255
 1765SOL    HW116931   3.605   3.350  10.986 -0.4322  0.4627 -0.1097
 1765SOL    HW216932   3.601   3.470  11.062 -1.5382  2.0280 -0.2374
 1766SOL     OW16933   0.113   0.121   5.910  0.6780  1.2114  0.7422
 1766SOL    HW116934   0.184   0.184   5.905  2.5395 -0.8384  1.1272
 1766SOL    HW216935   0.100   0.110   6.005  0.1593  0.8443  0.6335
 1767SOL     OW16936   4.370   4.077   8.099  0.0920  0.1432  0.1980
 1767SOL    HW116937   4.331   4.151   8.145 -1.4820 -0.2649 -0.4996
 1767SOL    HW216938   4.394   4.117   8.015  0.5799  0.1042  0.3201
 1768SOL     OW16939   2.661   0.904   3.573 -0.2202 -0.7669 -0.2194
 1768SOL    HW116940   2.582   0.854   3.552 -0.5118 -0.5671  0.4205
 1768SOL    HW216941   2.620   0.991   3.576  1.0380 -0.0746 -2.8688
 1769SOL     OW16942   1.935   0.988  11.219 -0.0714 -0.1414 -0.1091
 1769SOL    HW116943   1.848   1.028  11.233 -0.2361 -0.4879 -0.1471
 1769SOL    HW216944   1.932   0.903  11.263  1.8364  0.6625  1.5572
 1770SOL     OW16945   2.889   1.715   1.901  0.7592  0.0280  0.1109
 1770SOL    HW116946   2.953   1.766   1.853 -2.0816  2.0857 -1.5094
 1770SOL    HW216947   2.934   1.631   1.901 -0.9919 -0.9177  1.7955
 1771SOL     OW16948   1.362   2.077   6.453  0.2945  0.2986  0.0038
 1771SOL    HW116949   1.409   2.147   6.407 -2.7616  1.7655 -0.8940
 1771SOL    HW216950   1.268   2.087   6.438  0.1554 -1.7795 -0.4484
 1772SOL     OW16951   1.602   0.292   0.030  0.1573 -0.3526 -0.0823
 1772SOL    HW116952   1.549   0.301   0.110  0.6997  1.4295  0.0758
 1772SOL    HW216953   1.672   0.233   0.060  1.0061 -1.3013 -3.9902
 1773SOL     OW16954   1.125   0.254   7.223  0.5462  0.6491  0.0736
 1773SOL    HW116955   1.119   0.308   7.144  2.6027 -1.3343 -1.4353
 1773SOL    HW216956   1.219   0.264   7.237  0.5802  0.2142  0.1299
 1774SOL     OW16957   1.888   0.502  11.419 -0.9939  0.7105 -0.1708
 1774SOL    HW116958   1.833   0.425  11.433 -0.3358  0.5212  1.3908
 1774SOL    HW216959   1.972   0.475  11.455 -0.9508 -0.9137 -1.4750
 1775SOL     OW16960   4.605   4.480   1.276  0.1463  0.1027  0.0683
 1775SOL    HW116961   4.673   4.473   1.344 -0.8274  1.7112  1.2291
 1775SOL    HW216962   4.550   4.549   1.313 -1.1820  0.8565 -3.3454
 1776SOL     OW16963   0.755   2.750   8.438  0.1530 -0.4463  0.3310
 1776SOL    HW116964   0.678   2.799   8.466  1.5808  1.8791  0.1533
 1776SOL    HW216965   0.814   2.755   8.513  0.0643  0.1165  0.3587
 1777SOL     OW16966   0.052   1.060   5.106 -0.4394  0.1402  0.3382
 1777SOL    HW116967   4.724   1.063   5.034 -0.3356 -2.2153  0.1554
 1777SOL    HW216968   0.004   1.033   5.185  0.8923  0.6591  1.3411
 1778SOL     OW16969   4.531   2.545  15.825  0.2534  0.1827  0.2892
 1778SOL    HW116970   4.448   2.581  15.855 -0.1139 -0.9819  0.6821
 1778SOL    HW216971   4.506   2.548  15.733 -0.8279  0.6061  0.6052
 1779SOL     OW16972   1.127   1.824  10.997  0.0763 -0.8020  0.0301
 1779SOL    HW116973   1.148   1.804  10.905 -0.1161 -0.7516 -0.0247
 1779SOL    HW216974   1.064   1.755  11.017 -0.5873 -0.1554  0.1642
 1780SOL     OW16975   2.519   2.171  10.005  0.0282 -0.1477 -0.2773
 1780SOL    HW116976   2.486   2.261   9.999  1.1802  0.2647 -0.4213
 1780SOL    HW216977   2.584   2.181  10.075 -0.2153 -2.0577  0.2063
 1781SOL     OW16978   1.449   0.177  13.096  0.2925  0.3614  0.1635
 1781SOL    HW116979   1.453   0.233  13.019 -0.6474 -1.4898 -1.2127
 1781SOL    HW216980   1.539   0.198  13.124  0.7950 -0.9905 -0.4575
 1782SOL     OW16981   0.030   1.396   5.566  0.3642  0.3598  0.3389
 1782SOL    HW116982   0.086   1.335   5.518  0.2285 -1.5361  2.6077
 1782SOL    HW216983   4.728   1.347   5.639 -0.8967 -0.7300 -0.9996
 1783SOL     OW16984   2.848   2.028   3.922  0.0212 -0.1231 -0.6458
 1783SOL    HW116985   2.862   1.943   3.965 -0.4785 -0.5537 -1.3395
 1783SOL    HW216986   2.927   2.043   3.870  0.3894  0.7022  0.1538
 1784SOL     OW16987   0.051   0.575   8.795  0.4425 -0.1367 -0.1394
 1784SOL    HW116988   0.071   0.613   8.880 -1.0773 -1.6520  0.8946
 1784SOL    HW216989   4.708   0.623   8.764  1.2876  0.5444 -1.1994
 1785SOL     OW16990   0.061   0.795   4.763  0.4758 -0.1097  0.1859
 1785SOL    HW116991   0.060   0.702   4.788  1.7433 -0.2888 -0.4229
 1785SOL    HW216992   0.104   0.835   4.838  0.0216  0.1651  0.3021
 1786SOL     OW16993   0.701   3.328  16.618  0.3448  0.3262 -0.4446
 1786SOL    HW116994   0.692   3.364  16.529 -0.5159  0.4290 -0.3187
 1786SOL    HW216995   0.737   3.395  16.675  1.4623 -1.5103  1.0207
 1787SOL     OW16996   1.789   1.261  11.548 -0.0246  1.2136 -0.0817
 1787SOL    HW116997   1.786   1.263  11.643 -1.0665 -1.1640 -0.0722
 1787SOL    HW216998   1.702   1.229  11.522  0.7028 -1.0326  0.2241
 1788SOL     OW16999   2.862   0.809   6.830  0.6216 -0.1215  0.3650
 1788SOL    HW117000   2.902   0.838   6.748 -0.2610  0.7147  0.2353
 1788SOL    HW217001   2.826   0.726   6.799 -1.0020  0.7622 -0.0690
 1789SOL     OW17002   0.562   4.362  10.077 -0.2942  0.2253 -0.4194
 1789SOL    HW117003   0.565   4.280  10.126  4.6158  2.1757  2.5874
 1789SOL    HW217004   0.473   4.394  10.091 -0.9505 -1.1365 -1.5070
 1790SOL     OW17005   2.287   1.888   1.957  0.1397 -0.1865 -0.2579
 1790SOL    HW117006   2.251   1.863   2.042  1.1433 -0.2868  0.1437
 1790SOL    HW217007   2.296   1.805   1.911 -0.1963 -0.4913  0.2261
 1791SOL     OW17008   2.944   0.800   4.759  0.3859  0.4019  0.1201
 1791SOL    HW117009   2.919   0.775   4.848  0.4456  0.4389  0.1469
 1791SOL    HW217010   2.904   0.735   4.701  3.3635 -2.6273  1.4118
 1792SOL     OW17011   2.610   0.057   4.352  0.5715 -0.0791 -0.2966
 1792SOL    HW117012   2.632   0.110   4.275 -3.6020 -0.0350 -1.4608
 1792SOL    HW217013   2.624   4.702   4.320  0.5320 -0.8440  1.7975
 1793SOL     OW17014   1.445   1.011  17.132  0.0112 -0.1781  0.1695
 1793SOL    HW117015   1.420   0.933  17.183 -2.9210 -0.2928 -1.4156
 1793SOL    HW217016   1.515   0.974  17.078  1.3903  3.3622 -0.4665
 1794SOL     OW17017   0.300   2.063  12.921  0.4826 -0.0373  0.7538
 1794SOL    HW117018   0.375   2.105  12.964 -0.8188  2.3819  0.6752
 1794SOL    HW217019   0.350   1.998  12.872  1.7951  1.7802 -0.3361
 1795SOL     OW17020   3.680   1.679   5.267  0.0130  0.2475 -0.3557
 1795SOL    HW117021   3.668   1.715   5.179 -0.2752 -1.6636 -1.1044
 1795SOL    HW217022   3.654   1.756   5.317  1.2672  1.0110 -0.8932
 1796SOL     OW17023   3.434   3.423   6.406 -0.2649  0.0966  0.0830
 1796SOL    HW117024   3.424   3.387   6.494  0.0827 -1.6526 -0.5929
 1796SOL    HW217025   3.528   3.439   6.404 -0.2344 -0.0059  0.7208
 1797SOL     OW17026   2.836   1.035   5.114  0.0243  0.0033 -0.5518
 1797SOL    HW117027   2.927   1.022   5.088 -0.1663 -2.0251 -0.2465
 1797SOL    HW217028   2.815   1.122   5.080  1.7290  0.6425  0.0275
 1798SOL     OW17029   3.745   1.002   6.146  0.0992 -0.2977 -0.4032
 1798SOL    HW117030   3.717   0.910   6.144  0.0252 -0.2497 -1.5684
 1798SOL    HW217031   3.837   0.977   6.147  0.2993  0.4420 -0.7948
 1799SOL     OW17032   1.615   2.150   8.623 -0.0315  0.3583 -0.0384
 1799SOL    HW117033   1.707   2.156   8.599 -0.1045 -1.1407 -0.6960
 1799SOL    HW217034   1.576   2.204   8.554  1.4253 -0.6862 -1.6421
 1800SOL     OW17035   2.446   3.924   0.913  0.1562 -0.1755 -0.2905
 1800SOL    HW117036   2.463   4.013   0.882 -0.2662 -0.0571 -0.1858
 1800SOL    HW217037   2.353   3.918   0.894  0.5242 -2.0407 -1.4153
 1801SOL     OW17038   4.156   1.597   4.156 -0.1939  0.0540 -0.0663
 1801SOL    HW117039   4.160   1.511   4.113 -2.8870 -0.5629  0.8931
 1801SOL    HW217040   4.068   1.617   4.125 -0.0867  0.6544  0.0270
 1802SOL     OW17041   4.015   2.114   8.811 -0.2012 -0.0144 -0.1308
 1802SOL    HW117042   3.948   2.074   8.756 -0.4563 -0.7396  0.6953
 1802SOL    HW217043   3.957   2.181   8.848  1.6622  1.9261 -0.7421
 1803SOL     OW17044   0.453   1.680  13.095  0.5235 -0.2276  0.1866
 1803SOL    HW117045   0.496   1.688  13.180 -1.0658  0.9726  0.8751
 1803SOL    HW217046   0.523   1.679  13.029  1.4174  0.4113  1.1331
 1804SOL     OW17047   1.849   4.084   3.293 -0.3430 -0.2845 -0.1775
 1804SOL    HW117048   1.881   4.059   3.380 -0.1212  1.0122  0.1151
 1804SOL    HW217049   1.932   4.092   3.246  1.5871  0.7617  3.4587
 1805SOL     OW17050   1.933   2.254   4.591  0.2847 -0.5491 -0.4796
 1805SOL    HW117051   2.026   2.250   4.616 -0.0713 -0.0800  0.9159
 1805SOL    HW217052   1.891   2.202   4.659 -1.5491  1.7393  0.1487
 1806SOL     OW17053   3.882   4.435   9.523 -0.0076 -0.3892 -0.1306
 1806SOL    HW117054   3.903   4.462   9.612  1.0506 -0.9235 -0.2118
 1806SOL    HW217055   3.955   4.380   9.492 -0.1153  0.3671 -1.7256
 1807SOL     OW17056   4.121   2.346   5.149  1.0937 -0.0190 -0.4775
 1807SOL    HW117057   4.114   2.270   5.208  1.0308 -0.9979 -1.7493
 1807SOL    HW217058   4.179   2.312   5.082  0.9262 -1.2745  0.0204
 1808SOL     OW17059   2.132   0.927   3.509  0.2793 -0.0117 -0.7515
 1808SOL    HW117060   2.136   0.932   3.413 -2.0300 -0.7965 -0.8866
 1808SOL    HW217061   2.040   0.939   3.530  0.2538 -1.5438  0.0217
 1809SOL     OW17062   0.311   0.135   4.703  0.1474  0.6021 -0.1778
 1809SOL    HW117063   0.391   0.088   4.729  1.0789  0.9864 -2.3301
 1809SOL    HW217064   0.255   0.058   4.695  0.8008  0.1267 -0.1765
 1810SOL     OW17065   2.523   0.740  11.837  0.6712  0.1182 -0.0670
 1810SOL    HW117066   2.505   0.668  11.897 -1.4315  1.5526  1.0306
 1810SOL    HW217067   2.549   0.809  11.898  1.4500  1.0945 -1.5022
 1811SOL     OW17068   0.722   3.340   4.330 -0.1040 -0.5307  0.0409
 1811SOL    HW117069   0.669   3.382   4.263  1.4030 -0.4456 -1.0967
 1811SOL    HW217070   0.652   3.312   4.389  0.9660  0.3741  1.7363
 1812SOL     OW17071   0.601   2.378   0.501  0.4423 -0.3896 -0.1257
 1812SOL    HW117072   0.596   2.322   0.423 -1.4118  0.2176 -0.4292
 1812SOL    HW217073   0.582   2.312   0.568  1.6528 -0.5537  0.0524
 1813SOL     OW17074   0.386   2.050   9.787  0.7649 -0.0841  0.6533
 1813SOL    HW117075   0.340   2.108   9.848  0.7688  1.3549 -0.6803
 1813SOL    HW217076   0.476   2.071   9.809  1.2505 -2.6078  0.9810
 1814SOL     OW17077   3.201   1.782  17.231  0.0629 -0.9488  0.6374
 1814SOL    HW117078   3.119   1.823  17.202  0.1119 -0.5354  1.0870
 1814SOL    HW217079   3.162   1.699  17.259 -0.5759 -0.6756  0.5543
 1815SOL     OW17080   1.023   2.792  14.245  0.1406  0.0474 -0.3270
 1815SOL    HW117081   0.985   2.841  14.318  0.7017 -1.3561  0.9072
 1815SOL    HW217082   1.089   2.733  14.282  0.5669  0.3488 -0.6116
 1816SOL     OW17083   3.754   3.286   5.588 -0.1831  0.1370 -0.4146
 1816SOL    HW117084   3.824   3.264   5.528  0.1545 -0.3834  0.1733
 1816SOL    HW217085   3.744   3.379   5.567 -2.6894  0.0300  0.3683
 1817SOL     OW17086   0.244   4.074   2.670 -0.9266  0.1326  0.9973
 1817SOL    HW117087   0.310   4.055   2.603 -0.7877 -0.2825  1.2478
 1817SOL    HW217088   0.301   4.112   2.736 -0.7061  2.1325 -0.3761
 1818SOL     OW17089   0.106   2.912   5.769 -0.7355  0.1180 -0.0143
 1818SOL    HW117090   0.154   2.829   5.762  1.6426  1.3699  1.7589
 1818SOL    HW217091   0.018   2.872   5.769 -0.5218 -0.3610 -0.1955
 1819SOL     OW17092   1.214   1.413   8.352 -0.4807  0.7130 -0.3542
 1819SOL    HW117093   1.203   1.362   8.272  0.3004 -0.6500  0.4164
 1819SOL    HW217094   1.129   1.456   8.345 -1.3886 -1.1508 -0.6009
 1820SOL     OW17095   3.025   3.044   2.349  0.0137 -0.1990 -0.3813
 1820SOL    HW117096   3.003   2.951   2.344 -0.4573  0.0134 -2.4296
 1820SOL    HW217097   3.114   3.025   2.319  0.2486  0.8474 -0.3586
 1821SOL     OW17098   2.142   1.466   2.081  0.1857 -0.4170  0.1008
 1821SOL    HW117099   2.094   1.533   2.129 -0.7454  0.1294 -1.5672
 1821SOL    HW217100   2.198   1.424   2.146  2.5037 -0.9723 -2.2539
 1822SOL     OW17101   1.395   1.668  17.283  0.0369 -0.4824  0.0731
 1822SOL    HW117102   1.370   1.626  17.366 -0.3756 -1.7967 -0.7125
 1822SOL    HW217103   1.351   1.753  17.292  0.2371 -0.3031 -0.6976
 1823SOL     OW17104   0.727   3.146   6.768 -0.1156 -0.0308  0.2607
 1823SOL    HW117105   0.822   3.135   6.770 -0.2612 -1.4878 -0.4122
 1823SOL    HW217106   0.718   3.219   6.828 -0.4058  0.5105 -0.4387
 1824SOL     OW17107   3.834   0.938   4.402 -0.2877  0.0420  0.1330
 1824SOL    HW117108   3.803   0.993   4.473  1.3468 -1.2917  1.8723
 1824SOL    HW217109   3.754   0.892   4.376 -0.0262 -0.1226 -0.3757
 1825SOL     OW17110   2.515   3.476   6.180  0.0141  0.1200 -0.0270
 1825SOL    HW117111   2.586   3.530   6.214  0.6546 -2.0180  1.9610
 1825SOL    HW217112   2.487   3.417   6.249 -2.1286  0.9781 -0.1277
 1826SOL     OW17113   2.878   2.725   4.430  0.0559 -0.0296 -0.0437
 1826SOL    HW117114   2.868   2.771   4.347 -0.9696  2.1456  1.2763
 1826SOL    HW217115   2.796   2.678   4.443 -0.8202  2.3060  2.8798
 1827SOL     OW17116   3.136   4.727   1.680 -0.0425  0.1046 -0.2604
 1827SOL    HW117117   3.224   4.697   1.659  0.5309  0.7326  1.2851
 1827SOL    HW217118   3.143   0.087   1.666  0.4759  0.3453  1.6469
 1828SOL     OW17119   0.078   1.268   6.860  0.3997  0.3399  0.3993
 1828SOL    HW117120   0.117   1.181   6.861 -1.0753 -0.3285  0.7560
 1828SOL    HW217121   4.732   1.252   6.809  1.2955 -0.3441 -0.7993
 1829SOL     OW17122   4.669   4.516   2.926 -0.0336 -0.3126  0.3163
 1829SOL    HW117123   4.666   4.489   2.834  0.3464  2.0198 -0.3638
 1829SOL    HW217124   4.727   4.454   2.970 -0.2957  0.6254  1.9521
 1830SOL     OW17125   1.756   1.249  11.822  0.4286  0.0040 -0.0358
 1830SOL    HW117126   1.727   1.194  11.895 -0.5602 -1.9302 -1.8910
 1830SOL    HW217127   1.840   1.271  11.862  0.6508 -2.5002  0.9051
 1831SOL     OW17128   4.237   0.554   4.493  0.2220  0.0458  0.2364
 1831SOL    HW117129   4.158   0.555   4.439  0.2312  0.2149  0.2281
 1831SOL    HW217130   4.222   0.638   4.535  0.7182  0.2460  0.0175
 1832SOL     OW17131   1.502   2.789   0.564 -0.3583 -0.2355 -0.9760
 1832SOL    HW117132   1.411   2.796   0.537 -1.8178 -2.3237  3.3759
 1832SOL    HW217133   1.489   2.746   0.649 -0.5960  0.5292 -0.6291
 1833SOL     OW17134   3.590   4.475   5.733 -0.0320 -0.1994 -0.0194
 1833SOL    HW117135   3.611   4.569   5.732 -2.0555  0.2594  0.9666
 1833SOL    HW217136   3.542   4.472   5.650  1.4395 -3.1677 -0.7498
 1834SOL     OW17137   2.445   3.671   3.451 -0.2555  0.5919  0.2296
 1834SOL    HW117138   2.534   3.696   3.477 -0.6931  1.8128  0.5381
 1834SOL    HW217139   2.469   3.593   3.401  0.5997  2.7133 -2.6455
 1835SOL     OW17140   1.274   2.687   6.199  0.0942  0.3292  0.2357
 1835SOL    HW117141   1.289   2.778   6.174  1.0266  0.6812  2.0176
 1835SOL    HW217142   1.223   2.692   6.280  1.7647 -2.4930  1.4747
 1836SOL     OW17143   0.060   2.947  15.431 -0.3270 -0.4267  0.8567
 1836SOL    HW117144   4.718   2.909  15.386  0.0496  0.0856 -0.2113
 1836SOL    HW217145   0.053   3.040  15.408 -0.8085 -1.1233 -1.7371
 1837SOL     OW17146   2.414   0.132  14.169 -0.0839 -0.0157 -0.0628
 1837SOL    HW117147   2.482   0.066  14.182 -0.3739  0.0632  1.8500
 1837SOL    HW217148   2.446   0.177  14.091  0.1376  1.7701  1.0510
 1838SOL     OW17149   1.802   1.395  17.120 -0.0798  0.0092  0.0148
 1838SOL    HW117150   1.752   1.461  17.168  0.0510 -0.4613  0.7871
 1838SOL    HW217151   1.752   1.316  17.140 -1.1295  1.0783  1.6781
 1839SOL     OW17152   0.402   2.502   7.600  0.0758  0.3043 -0.1673
 1839SOL    HW117153   0.480   2.556   7.608  1.2717 -1.2467 -1.3587
 1839SOL    HW217154   0.428   2.430   7.658  2.8593  0.4849 -1.1986
 1840SOL     OW17155   0.036   0.127   0.287 -0.4353 -0.2636 -0.2522
 1840SOL    HW117156   0.089   0.122   0.208 -1.3269 -0.1511 -0.8524
 1840SOL    HW217157   0.051   0.218   0.313  0.7029 -0.7683  0.8605
 1841SOL     OW17158   3.430   0.709   0.491 -0.1215  0.0050 -0.2661
 1841SOL    HW117159   3.356   0.658   0.457 -1.3674  1.0415  0.8584
 1841SOL    HW217160   3.393   0.744   0.572  1.7435  1.7418 -0.1774
 1842SOL     OW17161   0.581   1.606   6.718  0.1270 -0.3946 -0.3277
 1842SOL    HW117162   0.568   1.550   6.795 -0.9938  0.4229  0.0771
 1842SOL    HW217163   0.624   1.683   6.756  0.7499 -0.2925 -1.2333
 1843SOL     OW17164   3.591   1.478  16.042  0.1440 -0.0801 -0.0492
 1843SOL    HW117165   3.574   1.564  16.003  1.7467  0.7338  1.0717
 1843SOL    HW217166   3.514   1.426  16.017 -0.1115 -1.5497  3.7585
 1844SOL     OW17167   2.897   4.124   3.096 -0.3319  0.1237  0.6074
 1844SOL    HW117168   2.969   4.186   3.099  0.2872 -0.5040 -0.9476
 1844SOL    HW217169   2.907   4.064   3.170  0.6311 -1.4531 -0.7928
 1845SOL     OW17170   4.641   1.465   6.186  0.7155  0.2562  0.1748
 1845SOL    HW117171   4.663   1.532   6.251 -0.1855 -0.0698  0.8109
 1845SOL    HW217172   4.630   1.382   6.232  0.0285  0.0503 -0.3565
 1846SOL     OW17173   1.404   0.110   9.427  0.2372  0.3695 -0.1322
 1846SOL    HW117174   1.381   0.159   9.506  1.5459  2.3776 -1.0095
 1846SOL    HW217175   1.333   0.048   9.411 -0.7411  1.6114 -0.5839
 1847SOL     OW17176   3.317   0.235  15.369 -0.2468 -0.1736 -0.4875
 1847SOL    HW117177   3.394   0.264  15.320 -2.3764 -0.9784 -4.3131
 1847SOL    HW217178   3.269   0.173  15.313 -1.9527  0.4378  0.2854
 1848SOL     OW17179   3.183   0.847  17.198  1.0106 -0.1017 -0.6730
 1848SOL    HW117180   3.208   0.841  17.290  3.8943 -1.6660 -1.5510
 1848SOL    HW217181   3.175   0.753  17.181  1.1878 -0.0695 -0.9300
 1849SOL     OW17182   4.681   1.051   7.021 -0.0816  0.3978  0.3001
 1849SOL    HW117183   4.611   1.009   7.071 -0.3557  1.1998  0.6065
 1849SOL    HW217184   4.633   1.086   6.946 -1.0512 -0.0746  0.6997
 1850SOL     OW17185   2.667   2.284  16.428  0.5969  0.1193  0.2022
 1850SOL    HW117186   2.626   2.334  16.358 -0.6200 -0.4216  0.5302
 1850SOL    HW217187   2.651   2.195  16.397 -1.5279  0.3322  0.6914
 1851SOL     OW17188   3.854   4.405   1.448 -0.7318  0.3238  0.3338
 1851SOL    HW117189   3.802   4.327   1.469 -0.8351 -0.2224 -1.9135
 1851SOL    HW217190   3.828   4.418   1.357  1.1781 -0.5270 -0.3323
 1852SOL     OW17191   2.610   3.847   9.093  0.0549  0.1277  0.2330
 1852SOL    HW117192   2.645   3.924   9.049  1.5923 -0.6000  0.2104
 1852SOL    HW217193   2.663   3.779   9.051 -0.8371  0.1452 -0.9274
 1853SOL     OW17194   0.171   0.449  16.520 -0.0203  0.5157  0.0065
 1853SOL    HW117195   0.254   0.403  16.510 -0.5058 -0.1243 -1.0791
 1853SOL    HW217196   0.146   0.469  16.430 -1.1154 -0.6202  0.0540
 1854SOL     OW17197   2.595   0.611  13.011 -0.2538 -0.1922 -0.0894
 1854SOL    HW117198   2.625   0.647  13.094 -2.0719  0.3154  0.3404
 1854SOL    HW217199   2.513   0.571  13.040  2.0615 -2.7347  2.9861
 1855SOL     OW17200   1.702   0.570   5.162 -0.0586 -0.1449 -0.4467
 1855SOL    HW117201   1.630   0.633   5.167  0.1126 -0.1879  2.3355
 1855SOL    HW217202   1.761   0.602   5.229  0.9160 -0.1903 -1.2810
 1856SOL     OW17203   3.653   2.911   5.856  0.0680  0.1116 -0.3132
 1856SOL    HW117204   3.688   2.946   5.938  1.5437 -0.5568 -0.6697
 1856SOL    HW217205   3.726   2.887   5.799 -0.1967 -1.4372 -0.0111
 1857SOL     OW17206   0.386   2.634   4.794  0.0310  0.0892 -0.1424
 1857SOL    HW117207   0.451   2.564   4.788  0.2902  0.1221  2.1569
 1857SOL    HW217208   0.343   2.594   4.871 -1.7117 -1.5183 -1.9555
 1858SOL     OW17209   3.539   2.805   7.996  0.2225 -0.4074 -0.1516
 1858SOL    HW117210   3.515   2.787   7.905  2.9494  2.6165 -1.5007
 1858SOL    HW217211   3.533   2.901   7.987 -0.4622 -0.4209  0.1763
 1859SOL     OW17212   2.160   3.653  13.543  0.6830 -0.0994 -0.1322
 1859SOL    HW117213   2.188   3.639  13.453  1.4661 -0.8624  0.2321
 1859SOL    HW217214   2.111   3.735  13.543 -1.3986 -1.3420 -4.1367
 1860SOL     OW17215   0.673   1.119   5.228 -0.0180 -0.1992 -0.6912
 1860SOL    HW117216   0.632   1.051   5.281  0.7260 -2.0974 -2.5258
 1860SOL    HW217217   0.625   1.117   5.145  0.4261  1.1844 -0.9816
 1861SOL     OW17218   1.331   2.775   3.256 -0.1537  0.2193  0.0721
 1861SOL    HW117219   1.352   2.867   3.244 -2.6616  0.6814 -0.9093
 1861SOL    HW217220   1.244   2.779   3.216 -1.0756 -2.3702  1.8443
 1862SOL     OW17221   1.717   2.359  17.709  0.1741 -0.0114 -0.0389
 1862SOL    HW117222   1.751   2.449  17.715 -0.6699  0.2879  0.1880
 1862SOL    HW217223   1.792   2.309   0.006 -1.5608 -1.1422  2.2077
 1863SOL     OW17224   2.328   4.202  16.546  0.1776 -0.0791 -0.0591
 1863SOL    HW117225   2.319   4.247  16.630 -0.1375  1.3732 -0.8634
 1863SOL    HW217226   2.400   4.257  16.516 -1.0262  0.2352 -2.3792
 1864SOL     OW17227   0.014   1.864   8.124  0.4758 -0.1567 -0.1137
 1864SOL    HW117228   0.032   1.938   8.182 -1.0989  1.2548 -1.4025
 1864SOL    HW217229   0.053   1.797   8.180  0.0964 -0.3369 -0.0600
 1865SOL     OW17230   3.992   2.663   0.527  0.7042  0.4721  0.5762
 1865SOL    HW117231   4.047   2.589   0.553 -3.0962 -2.4421  0.4328
 1865SOL    HW217232   4.023   2.677   0.437 -0.4022  0.1172  0.1394
 1866SOL     OW17233   1.338   2.583  10.518  0.3561  0.5255 -0.0067
 1866SOL    HW117234   1.272   2.589  10.448  0.3190  1.5362  0.1159
 1866SOL    HW217235   1.406   2.643  10.489  0.6796 -0.3260 -1.0275
 1867SOL     OW17236   1.096   4.178  14.838  0.2247 -0.2339  0.1918
 1867SOL    HW117237   1.145   4.175  14.756 -1.4277 -0.3437 -0.7831
 1867SOL    HW217238   1.163   4.220  14.891  3.3908 -3.3524 -1.3665
 1868SOL     OW17239   2.345   2.497   8.035 -0.0480  0.0563  0.6886
 1868SOL    HW117240   2.432   2.480   8.069  0.7460 -1.0150 -1.8352
 1868SOL    HW217241   2.365   2.578   7.989  0.7068 -0.0033  0.9264
 1869SOL     OW17242   1.908   0.164   4.301  0.0901  0.5809  0.1001
 1869SOL    HW117243   1.930   0.173   4.394 -1.7488  0.9728  0.5006
 1869SOL    HW217244   1.875   0.253   4.286 -0.1518  0.3305 -0.8245
 1870SOL     OW17245   1.935   2.362   5.616 -0.4364  0.4739 -0.3234
 1870SOL    HW117246   1.938   2.356   5.521  1.2641  1.0229 -0.3034
 1870SOL    HW217247   1.970   2.279   5.649  0.7706  0.7164 -0.9871
 1871SOL     OW17248   0.868   4.699  10.417  0.2613 -0.1827 -0.3433
 1871SOL    HW117249   0.938   4.648  10.459 -0.7119 -0.2228  1.2437
 1871SOL    HW217250   0.835   0.017  10.491  3.2710  0.9732  0.2131
 1872SOL     OW17251   3.941   0.082   7.119  0.8037  0.2790  0.5770
 1872SOL    HW117252   4.028   0.049   7.095  0.1101 -1.6389  0.7432
 1872SOL    HW217253   3.955   0.176   7.110 -0.3772  0.3508 -0.5161
 1873SOL     OW17254   4.012   3.120  16.239  0.5517  0.0939 -0.1188
 1873SOL    HW117255   3.957   3.172  16.180 -1.1406 -0.7340  0.7562
 1873SOL    HW217256   3.954   3.109  16.314  1.7208  0.0022  0.7759
 1874SOL     OW17257   4.120   1.487   2.884  0.0233  0.0303 -0.1101
 1874SOL    HW117258   4.150   1.428   2.953 -0.9170  0.9633  1.0815
 1874SOL    HW217259   4.186   1.556   2.884  1.8895 -1.7537 -0.5574
 1875SOL     OW17260   1.572   2.066  17.281  0.5754  0.3336  0.3240
 1875SOL    HW117261   1.485   2.102  17.262  0.5132 -0.7265 -1.4304
 1875SOL    HW217262   1.573   1.997  17.214  0.1028 -1.1247  1.8219
 1876SOL     OW17263   1.997   3.717   3.730 -0.0702 -0.3377 -0.3383
 1876SOL    HW117264   1.911   3.754   3.710 -0.8796 -2.1719 -0.2343
 1876SOL    HW217265   2.040   3.779   3.790  0.7339 -0.2275 -1.0442
 1877SOL     OW17266   4.662   1.448   2.313  0.8781 -0.1384  0.3841
 1877SOL    HW117267   4.631   1.535   2.288 -3.6147 -1.9971 -0.3922
 1877SOL    HW217268   4.716   1.483   2.384 -0.2226  2.5975 -0.1441
 1878SOL     OW17269   3.240   4.279   2.022 -0.2605 -0.8196 -0.3113
 1878SOL    HW117270   3.262   4.240   1.938 -1.8683 -2.5943  0.1060
 1878SOL    HW217271   3.263   4.207   2.081  0.7130 -0.1534  0.1289
 1879SOL     OW17272   3.649   1.159  10.611 -0.0010 -0.1439 -0.3900
 1879SOL    HW117273   3.585   1.170  10.541  0.6378  1.4553 -0.7219
 1879SOL    HW217274   3.586   1.138  10.680 -0.0250 -0.1509 -0.4142
 1880SOL     OW17275   1.069   1.144   2.260 -0.2307 -0.5835 -0.1570
 1880SOL    HW117276   1.155   1.110   2.284 -0.0317 -0.0269 -0.0795
 1880SOL    HW217277   1.011   1.094   2.317  0.8677 -0.1098  1.3949
 1881SOL     OW17278   1.308   2.404   4.540  0.5829 -0.5309 -0.5387
 1881SOL    HW117279   1.325   2.339   4.471 -1.8826 -0.1878 -1.4971
 1881SOL    HW217280   1.223   2.372   4.571  0.5158  0.1342 -0.0370
 1882SOL     OW17281   4.056   3.183   4.522 -0.0740  0.1043  0.2257
 1882SOL    HW117282   4.126   3.130   4.483  1.5597  2.3218  0.1241
 1882SOL    HW217283   4.116   3.242   4.568  0.4500 -0.1283 -0.1549
 1883SOL     OW17284   1.505   1.365   5.641 -0.4497  0.7535  0.1817
 1883SOL    HW117285   1.490   1.329   5.728  3.5947  1.0518  0.9753
 1883SOL    HW217286   1.485   1.458   5.655  0.5729  1.0531 -0.3675
 1884SOL     OW17287   4.063   2.895   0.675 -0.0782 -0.2845  0.2868
 1884SOL    HW117288   4.131   2.866   0.736 -0.1895 -0.4137  0.3504
 1884SOL    HW217289   4.045   2.813   0.629  0.5309 -0.5770  0.5708
 1885SOL     OW17290   0.962   3.029   4.066  0.0084 -0.8159 -0.2074
 1885SOL    HW117291   0.903   3.009   3.994 -0.5714  0.4450 -0.0774
 1885SOL    HW217292   0.942   2.963   4.132 -2.6015 -0.2324 -0.4165
 1886SOL     OW17293   3.137   0.621   6.265 -0.1252  0.6127 -0.0226
 1886SOL    HW117294   3.144   0.580   6.352 -0.1675 -1.4261 -0.9756
 1886SOL    HW217295   3.195   0.568   6.210  1.6288 -0.6765  3.0705
 1887SOL     OW17296   3.475   1.787   6.879  0.0804  0.0171 -0.2963
 1887SOL    HW117297   3.552   1.765   6.826  0.8990 -1.5568  1.5801
 1887SOL    HW217298   3.515   1.804   6.964 -2.0186  0.2649  0.6438
 1888SOL     OW17299   4.473   3.644   9.141 -0.0638  0.6938  0.2534
 1888SOL    HW117300   4.503   3.691   9.219 -0.0096  0.9363  0.0861
 1888SOL    HW217301   4.380   3.639   9.163 -0.0001 -1.4441  0.0611
 1889SOL     OW17302   1.001   1.074  11.302  0.0547  0.0911 -0.0700
 1889SOL    HW117303   1.030   1.076  11.211  1.4473  1.9893  0.4117
 1889SOL    HW217304   1.082   1.051  11.347  0.7914  3.3854  0.2488
 1890SOL     OW17305   1.169   4.057  11.077 -0.3670 -0.2271  0.1288
 1890SOL    HW117306   1.088   4.054  11.026 -1.5869 -1.4884  2.1265
 1890SOL    HW217307   1.181   3.963  11.088  0.6352 -0.1355 -0.1839
 1891SOL     OW17308   2.420   0.749   6.726  0.1655  0.4264  0.2583
 1891SOL    HW117309   2.358   0.712   6.664  0.6901 -2.9560  1.7952
 1891SOL    HW217310   2.491   0.687   6.706  0.4959  1.2444 -1.1783
 1892SOL     OW17311   0.333   1.916   9.555  0.1413 -0.1749 -0.2473
 1892SOL    HW117312   0.288   1.840   9.593  1.0038 -0.2357  0.6329
 1892SOL    HW217313   0.329   1.969   9.634  1.3476 -0.0562 -0.2638
 1893SOL     OW17314   0.118   0.215   6.382  0.3155 -0.0681  0.3050
 1893SOL    HW117315   0.209   0.234   6.403  0.1048  1.0393  0.2634
 1893SOL    HW217316   0.089   0.177   6.465 -0.5249 -0.5007 -0.1893
 1894SOL     OW17317   0.782   2.932   8.211 -0.3723  0.0063 -0.1016
 1894SOL    HW117318   0.773   3.000   8.277  1.1013  1.5983 -1.5456
 1894SOL    HW217319   0.759   2.853   8.260 -1.6856  0.2978 -0.2561
 1895SOL     OW17320   0.104   4.088  14.957 -0.2426 -0.2771  0.3076
 1895SOL    HW117321   0.112   4.080  15.052 -2.8151 -1.4873  0.4460
 1895SOL    HW217322   0.194   4.104  14.931 -0.2651  0.9299  1.0002
 1896SOL     OW17323   3.591   1.178  14.851 -0.3065 -0.2388 -0.7198
 1896SOL    HW117324   3.537   1.177  14.930  0.0026  1.0298 -0.4853
 1896SOL    HW217325   3.677   1.164  14.892  0.0885  0.3367 -1.3522
 1897SOL     OW17326   4.235   1.851   0.131  0.1802 -0.1058  0.5306
 1897SOL    HW117327   4.328   1.848   0.106  0.8156 -1.0570  2.9560
 1897SOL    HW217328   4.229   1.943   0.158 -1.3852 -0.2957  0.8271
 1898SOL     OW17329   2.612   2.800   5.948  0.1436  0.0428 -0.0669
 1898SOL    HW117330   2.656   2.849   6.018  0.7430  0.4133 -0.7042
 1898SOL    HW217331   2.633   2.709   5.971 -0.4215 -0.1626 -0.3784
 1899SOL     OW17332   2.483   2.075   2.391 -0.4887  0.0827 -0.1973
 1899SOL    HW117333   2.427   2.042   2.461  1.6790  0.0694  1.5188
 1899SOL    HW217334   2.548   2.006   2.380  1.5041  1.7120  1.3879
 1900SOL     OW17335   2.680   4.614   3.914  0.4311 -0.0356  0.3816
 1900SOL    HW117336   2.756   4.561   3.891 -1.0000 -1.5168 -0.9456
 1900SOL    HW217337   2.685   4.679   3.843  1.4254  0.1716  0.6432
 1901SOL     OW17338   2.551   1.927   5.232 -0.1652 -0.4531  0.1890
 1901SOL    HW117339   2.529   1.954   5.143 -0.6878  2.8013  1.3278
 1901SOL    HW217340   2.633   1.973   5.250 -0.9866  1.3997 -0.8846
 1902SOL     OW17341   0.437   3.724   9.473  0.1077 -0.3296 -0.0305
 1902SOL    HW117342   0.525   3.759   9.479 -0.0994  0.0028  1.1254
 1902SOL    HW217343   0.407   3.721   9.564  0.4228  0.7039  0.1018
 1903SOL     OW17344   2.435   3.802  12.615 -0.3277  0.1447  0.3975
 1903SOL    HW117345   2.410   3.725  12.665  0.7881  1.4021  2.8805
 1903SOL    HW217346   2.371   3.870  12.635 -1.0036 -0.2024 -0.6017
 1904SOL     OW17347   0.259   1.176   5.348  0.2365  0.0810  0.2830
 1904SOL    HW117348   0.211   1.098   5.375  0.7608 -0.5990 -0.7479
 1904SOL    HW217349   0.194   1.243   5.329 -0.2610 -0.8338 -1.1843
 1905SOL     OW17350   3.715   0.600   2.013  0.2026 -0.6156 -0.1409
 1905SOL    HW117351   3.733   0.516   2.056  1.1323 -0.7344 -0.7572
 1905SOL    HW217352   3.721   0.665   2.082  0.1345 -0.6756 -0.0781
 1906SOL     OW17353   3.558   4.462   8.744 -0.5707 -0.0538 -0.1725
 1906SOL    HW117354   3.559   4.380   8.793 -0.5285  0.0261 -0.0414
 1906SOL    HW217355   3.477   4.457   8.693 -0.2222  2.3245 -0.9714
 1907SOL     OW17356   3.644   1.625   0.865  0.2905  0.3286 -0.1382
 1907SOL    HW117357   3.577   1.692   0.852  0.2257  0.2370 -0.2749
 1907SOL    HW217358   3.634   1.590   0.776  1.5037  1.9286 -0.8949
 1908SOL     OW17359   2.037   2.040   3.715  0.1463  0.3645  0.3923
 1908SOL    HW117360   2.091   1.990   3.653 -0.0522 -0.6157  1.0122
 1908SOL    HW217361   2.041   2.125   3.671  1.2871 -0.2131 -0.6565
 1909SOL     OW17362   1.736   1.982  16.368  0.0021 -0.4121  0.0454
 1909SOL    HW117363   1.719   1.890  16.384  2.0296 -0.7983  0.0617
 1909SOL    HW217364   1.759   2.017  16.454  2.3500  1.2915 -1.2390
 1910SOL     OW17365   3.575   1.517   0.644  0.0638  0.2583 -0.1781
 1910SOL    HW117366   3.500   1.547   0.593  0.5060 -0.4674 -1.2618
 1910SOL    HW217367   3.613   1.450   0.587  0.4013  1.3154 -1.1810
 1911SOL     OW17368   2.614   3.899   6.746 -0.5278  0.1103  0.2949
 1911SOL    HW117369   2.651   3.935   6.827  1.5248  0.9647 -1.0289
 1911SOL    HW217370   2.519   3.913   6.750 -0.8204 -1.1651 -2.1589
 1912SOL     OW17371   2.856   3.842   6.020 -0.2104 -0.2399  0.1538
 1912SOL    HW117372   2.761   3.833   6.012 -0.2882 -0.1803  1.0272
 1912SOL    HW217373   2.854   3.911   6.086 -0.5579 -0.2187  0.1208
 1913SOL     OW17374   1.169   0.550  16.112  0.5194 -0.7244  0.0840
 1913SOL    HW117375   1.171   0.572  16.205  1.2580 -0.4598 -0.0007
 1913SOL    HW217376   1.154   0.457  16.131 -1.0530 -0.2069  1.3624
 1914SOL     OW17377   4.246   1.619   2.399  0.0762 -0.6571  0.3581
 1914SOL    HW117378   4.256   1.548   2.462 -1.6180 -1.6507 -0.4933
 1914SOL    HW217379   4.151   1.614   2.395  0.2820 -2.7544 -1.5683
 1915SOL     OW17380   1.462   1.357   5.910  0.6593 -0.2867 -0.7463
 1915SOL    HW117381   1.451   1.279   5.965 -1.1778  1.1267  0.8791
 1915SOL    HW217382   1.489   1.431   5.964 -0.6287 -1.4381  1.4854
 1916SOL     OW17383   2.362   0.861   4.587 -0.3062 -0.2056 -0.3189
 1916SOL    HW117384   2.372   0.767   4.600 -2.1351 -0.2791  0.6412
 1916SOL    HW217385   2.446   0.898   4.615 -1.4974  1.1299  1.5463
 1917SOL     OW17386   1.708   3.242   7.852 -0.9302  0.2291 -0.1677
 1917SOL    HW117387   1.752   3.189   7.786  0.6379  0.1072  0.9942
 1917SOL    HW217388   1.749   3.218   7.934 -0.6553  0.4526 -0.2396
 1918SOL     OW17389   1.008   1.128   9.250 -0.1232  0.1832  0.3194
 1918SOL    HW117390   1.065   1.183   9.196  0.1097  1.2934  1.6930
 1918SOL    HW217391   1.058   1.124   9.332 -1.5107 -3.1060  0.9768
 1919SOL     OW17392   2.684   4.045  13.671 -0.2390  0.5226  0.2451
 1919SOL    HW117393   2.652   4.106  13.604  1.1165  0.5931 -0.3495
 1919SOL    HW217394   2.776   4.072  13.671 -0.1719  0.2734  0.9351
 1920SOL     OW17395   3.190   4.717   3.731  0.3421  0.0474 -0.5450
 1920SOL    HW117396   3.231   0.069   3.735 -0.4504  0.3123  1.4995
 1920SOL    HW217397   3.217   4.700   3.821  1.8845  1.8007 -0.6645
 1921SOL     OW17398   1.204   2.873   4.850  0.4485 -0.2936  0.7143
 1921SOL    HW117399   1.118   2.893   4.813  0.9671 -1.7213 -1.2552
 1921SOL    HW217400   1.211   2.949   4.908  0.5708 -0.1015  0.4486
 1922SOL     OW17401   1.828   0.159  12.099  0.1730 -0.6098 -0.2348
 1922SOL    HW117402   1.812   0.163  12.004  1.0117 -1.2672 -0.4028
 1922SOL    HW217403   1.888   0.233  12.111  1.1614 -0.9671 -2.9516
 1923SOL     OW17404   4.473   2.397  15.293  0.3423  0.1087 -0.1220
 1923SOL    HW117405   4.559   2.433  15.315 -0.1331  0.0130  1.8538
 1923SOL    HW217406   4.487   2.302  15.293  1.7435  0.3069 -2.3440
 1924SOL     OW17407   4.426   2.878   2.278 -0.1526 -0.2788  0.1576
 1924SOL    HW117408   4.521   2.871   2.267  0.2456  4.1364  0.8109
 1924SOL    HW217409   4.403   2.833   2.196  4.4197 -0.3532 -1.0947
 1925SOL     OW17410   4.499   4.488   7.940 -0.3387  0.1274 -0.6799
 1925SOL    HW117411   4.446   4.445   7.873 -2.1993 -0.0854  0.9295
 1925SOL    HW217412   4.444   4.520   8.011 -3.5162 -2.3604 -2.0538
 1926SOL     OW17413   2.338   0.012   4.365  0.0086  0.4173 -0.0123
 1926SOL    HW117414   2.424   0.044   4.392  0.4780 -0.7495 -0.1300
 1926SOL    HW217415   2.282   0.075   4.410  1.7923  2.0438 -0.0529
 1927SOL     OW17416   0.449   3.596  15.821 -0.0855  0.0199 -0.9660
 1927SOL    HW117417   0.524   3.544  15.848 -0.5519  0.2551  0.7857
 1927SOL    HW217418   0.384   3.558  15.881  0.0095  1.0254 -0.2283
 1928SOL     OW17419   2.211   3.654   9.498 -0.2762  0.2580  0.2326
 1928SOL    HW117420   2.279   3.673   9.562 -2.0013  0.7532  1.9206
 1928SOL    HW217421   2.136   3.697   9.540  0.8754  3.0773 -0.5700
 1929SOL     OW17422   4.684   0.371   9.591 -0.8202 -0.0864  0.0695
 1929SOL    HW117423   4.644   0.291   9.557  0.5665 -1.8178  2.4860
 1929SOL    HW217424   4.703   0.419   9.510 -0.4144 -0.0253  0.2030
 1930SOL     OW17425   1.456   1.952  11.118  0.5142 -0.2202 -0.5651
 1930SOL    HW117426   1.372   1.974  11.160  0.4794  0.0348 -0.7641
 1930SOL    HW217427   1.439   1.990  11.031  0.6000  2.5516  0.6423
 1931SOL     OW17428   3.871   3.353   9.812 -0.2505  0.1192  0.3560
 1931SOL    HW117429   3.855   3.302   9.732 -2.1591 -0.2697  0.9801
 1931SOL    HW217430   3.814   3.430   9.805 -0.5226 -0.0774  0.3996
 1932SOL     OW17431   1.769   4.261   5.544  0.2333  0.5185  0.0593
 1932SOL    HW117432   1.706   4.320   5.585  0.1360  0.3679  0.1253
 1932SOL    HW217433   1.704   4.215   5.490  0.6474 -2.5857  2.1720
 1933SOL     OW17434   0.929   0.956   2.822 -0.8319 -0.7712 -0.0279
 1933SOL    HW117435   0.993   0.975   2.891 -0.8657  1.8072 -0.7151
 1933SOL    HW217436   0.976   0.930   2.743 -2.1707 -2.7372 -0.1864
 1934SOL     OW17437   1.951   3.145  12.291  0.1302  0.4368 -0.6245
 1934SOL    HW117438   1.996   3.218  12.249  1.8847 -0.6682 -0.6535
 1934SOL    HW217439   1.994   3.070  12.252  0.0885 -0.7162  1.5188
 1935SOL     OW17440   1.182   4.686  15.110 -0.2031  0.2787 -0.4792
 1935SOL    HW117441   1.225   0.036  15.093  0.3801 -0.1392 -1.0503
 1935SOL    HW217442   1.111   4.717  15.166 -0.1025  1.3999 -0.9582
 1936SOL     OW17443   1.917   3.895  12.370  0.1792 -0.4721  0.3449
 1936SOL    HW117444   1.927   3.915  12.277 -0.3380 -2.9378 -0.2402
 1936SOL    HW217445   1.834   3.935  12.397  0.9278  0.7086  0.8728
 1937SOL     OW17446   0.495   2.913   5.464  1.1779  0.3221  0.5188
 1937SOL    HW117447   0.404   2.943   5.470  1.1190 -0.2836  2.5901
 1937SOL    HW217448   0.480   2.823   5.435 -2.9610  0.5666  1.9051
 1938SOL     OW17449   1.396   3.527   7.593 -0.3164 -0.0591 -0.0583
 1938SOL    HW117450   1.441   3.485   7.520  1.4815 -0.6547  1.3761
 1938SOL    HW217451   1.442   3.492   7.669  1.0431  2.4071  0.2613
 1939SOL     OW17452   1.294   3.789   5.876  0.0233  0.3826 -0.2581
 1939SOL    HW117453   1.302   3.835   5.960  0.8826  1.5583 -0.9701
 1939SOL    HW217454   1.268   3.704   5.910  1.3683  0.4560  0.9365
 1940SOL     OW17455   3.749   2.044  13.717  0.1306 -0.8741 -0.0801
 1940SOL    HW117456   3.655   2.059  13.721  0.5250  1.4183  0.4844
 1940SOL    HW217457   3.781   2.134  13.727  2.3328 -1.4721 -1.6965
 1941SOL     OW17458   3.049   0.559  10.012  0.0893 -0.0687 -0.4072
 1941SOL    HW117459   3.054   0.645   9.969  0.0242  1.2905  2.3450
 1941SOL    HW217460   2.980   0.582  10.075 -0.5377  0.7524 -1.3782
 1942SOL     OW17461   3.489   0.367  15.586  0.4211  0.5957 -0.5476
 1942SOL    HW117462   3.575   0.406  15.568 -0.3560  3.2287  1.4123
 1942SOL    HW217463   3.493   0.347  15.680  2.2981  0.8747 -0.5571
 1943SOL     OW17464   2.907   0.658  13.472  0.1787  0.3086  0.2220
 1943SOL    HW117465   2.839   0.647  13.406  0.6389  0.7524 -0.3197
 1943SOL    HW217466   2.972   0.698  13.415 -0.4671  1.4238  0.2760
 1944SOL     OW17467   1.035   2.281   7.669  0.7286 -0.3692 -0.5866
 1944SOL    HW117468   1.072   2.195   7.686 -0.8428 -0.5678  1.7543
 1944SOL    HW217469   1.060   2.326   7.750 -0.0710  0.2556 -0.6862
 1945SOL     OW17470   3.732   4.130   0.276  0.3170  0.0552  0.3906
 1945SOL    HW117471   3.682   4.053   0.305 -0.1465  0.0602 -0.3980
 1945SOL    HW217472   3.683   4.162   0.200 -0.2190 -0.7946  0.3751
 1946SOL     OW17473   1.289   3.866   2.753  0.3277  0.2325 -0.1938
 1946SOL    HW117474   1.331   3.822   2.679  2.1736 -0.6003  1.3259
 1946SOL    HW217475   1.349   3.940   2.759 -0.0436  0.5665 -0.6449
 1947SOL     OW17476   1.390   2.022   3.972  0.2604 -0.2432  0.1764
 1947SOL    HW117477   1.484   2.029   3.989  0.3417  1.2870 -0.9183
 1947SOL    HW217478   1.370   2.115   3.988 -0.0515 -0.2824  0.0214
 1948SOL     OW17479   0.064   0.686  11.752 -0.1582  0.7527  0.2152
 1948SOL    HW117480   0.073   0.744  11.676  0.6294  1.1709  0.6318
 1948SOL    HW217481   0.014   0.614  11.714  0.9453  0.4833 -0.7320
 1949SOL     OW17482   3.547   2.168  17.410 -0.2997 -0.3729  0.5576
 1949SOL    HW117483   3.549   2.077  17.439 -2.2146 -1.5112 -2.8588
 1949SOL    HW217484   3.464   2.195  17.448 -0.5259 -1.0048  0.5200
 1950SOL     OW17485   3.617   2.684   9.561  0.4901 -0.5192 -0.0565
 1950SOL    HW117486   3.672   2.721   9.630  1.1154  1.7378 -1.7811
 1950SOL    HW217487   3.541   2.737   9.585 -0.5400 -1.0732 -2.0958
 1951SOL     OW17488   2.002   1.130   9.944 -0.5832 -0.3093  0.2327
 1951SOL    HW117489   2.055   1.120   9.865  0.8481 -3.1053  1.5286
 1951SOL    HW217490   1.926   1.079   9.915 -0.3347  1.3766 -3.3327
 1952SOL     OW17491   2.409   0.529   9.278 -0.1326 -0.3417  0.2847
 1952SOL    HW117492   2.363   0.612   9.265  1.5266  0.5965  0.2515
 1952SOL    HW217493   2.486   0.537   9.221 -1.0123  1.0893 -0.7020
 1953SOL     OW17494   1.188   3.478   1.969 -0.2154  0.2170 -0.3000
 1953SOL    HW117495   1.178   3.491   1.875  0.5458 -1.2078 -0.5719
 1953SOL    HW217496   1.099   3.480   2.005 -0.5329  0.3428 -1.1044
 1954SOL     OW17497   1.775   3.838  17.474 -0.2444  0.0625  0.1351
 1954SOL    HW117498   1.703   3.823  17.535 -2.9252 -1.1244 -3.3121
 1954SOL    HW217499   1.728   3.896  17.413  0.3504  0.4311  0.0309
 1955SOL     OW17500   1.907   3.475   3.883  0.0987 -0.0791 -0.6811
 1955SOL    HW117501   1.831   3.532   3.874 -0.6031 -0.5662  2.0750
 1955SOL    HW217502   1.944   3.476   3.795 -1.2949  0.3302 -1.2721
 1956SOL     OW17503   4.037   3.231   0.215  0.2277  0.1954  0.1686
 1956SOL    HW117504   4.082   3.312   0.238  0.3792  0.1010  0.1986
 1956SOL    HW217505   4.001   3.215   0.302  0.9200 -1.1298  0.2112
 1957SOL     OW17506   4.368   1.542   7.853 -0.4189  0.0027 -0.5367
 1957SOL    HW117507   4.369   1.553   7.758  0.9458 -0.6527 -0.5934
 1957SOL    HW217508   4.296   1.599   7.878  2.2611  2.3593  1.9005
 1958SOL     OW17509   3.269   3.952  14.389 -0.6299  0.0155  0.3762
 1958SOL    HW117510   3.177   3.931  14.370  0.0059 -2.2926 -0.1430
 1958SOL    HW217511   3.254   3.978  14.480 -2.9371  2.0931 -0.5686
 1959SOL     OW17512   3.459   4.327   9.737 -0.9242  0.1646  0.6261
 1959SOL    HW117513   3.490   4.369   9.817  2.5495  1.6261 -1.5032
 1959SOL    HW217514   3.503   4.382   9.673  0.1382 -1.4793 -0.0779
 1960SOL     OW17515   1.169   1.049  11.024 -0.5605 -0.0878  0.5202
 1960SOL    HW117516   1.209   1.136  11.030 -2.2559  0.8340 -1.7178
 1960SOL    HW217517   1.232   0.987  11.062  0.2950  0.0553 -0.6363
 1961SOL     OW17518   1.421   2.227   8.100 -0.3421  0.2254  0.3901
 1961SOL    HW117519   1.412   2.289   8.027 -1.4801 -0.7689 -0.3108
 1961SOL    HW217520   1.330   2.214   8.123  0.3719 -2.1794  1.8732
 1962SOL     OW17521   4.357   0.952   3.231 -0.3541 -0.1079 -0.2891
 1962SOL    HW117522   4.408   1.030   3.254 -1.1174  0.9378 -2.1674
 1962SOL    HW217523   4.415   0.877   3.238 -0.3437 -0.0767 -0.0386
 1963SOL     OW17524   2.959   0.532  13.948  0.0237  0.4796  0.2334
 1963SOL    HW117525   2.969   0.616  13.903 -0.5906  0.5446  0.2182
 1963SOL    HW217526   2.900   0.498  13.881  0.6890  1.3285 -0.7775
 1964SOL     OW17527   2.569   3.379  16.049 -0.4791 -0.4012 -0.3804
 1964SOL    HW117528   2.609   3.465  16.060  1.1270 -1.1002 -0.7383
 1964SOL    HW217529   2.550   3.391  15.956  0.0424 -1.0176 -0.5617
 1965SOL     OW17530   1.515   0.775   2.227  0.2668  0.1114 -0.1491
 1965SOL    HW117531   1.419   0.771   2.231  0.1759  2.1482 -0.0249
 1965SOL    HW217532   1.525   0.757   2.134  2.6854  0.5839  0.0162
 1966SOL     OW17533   2.041   1.493   7.047 -0.2247  0.8642 -0.2458
 1966SOL    HW117534   1.956   1.456   7.024  0.0599  0.3077 -0.4052
 1966SOL    HW217535   2.096   1.453   6.979  1.3198  2.6357 -0.0371
 1967SOL     OW17536   1.984   0.440   9.173  0.1001  0.2007 -0.2759
 1967SOL    HW117537   1.962   0.349   9.193  0.2865  0.5665  1.5398
 1967SOL    HW217538   1.900   0.482   9.192  0.3054 -0.4737  2.1755
 1968SOL     OW17539   0.515   2.301   6.373  0.5311 -0.0273 -0.4593
 1968SOL    HW117540   0.425   2.283   6.346 -0.2998  1.9134  1.0795
 1968SOL    HW217541   0.527   2.379   6.319  0.6694  0.5951  0.4768
 1969SOL     OW17542   0.759   3.043   5.934  0.7771 -0.1513 -0.0555
 1969SOL    HW117543   0.712   2.969   5.895  1.0768 -1.1235  1.4201
 1969SOL    HW217544   0.806   3.002   6.007  2.7735  1.2733 -0.5419
 1970SOL     OW17545   3.100   4.559  11.883 -0.5643 -0.3921  0.2372
 1970SOL    HW117546   3.102   4.590  11.793  0.8043  0.0474  0.4159
 1970SOL    HW217547   3.175   4.609  11.915 -0.5191 -1.9245  2.5399
 1971SOL     OW17548   2.943   0.748   7.962  0.5242 -0.4653  0.2572
 1971SOL    HW117549   2.996   0.788   8.031 -0.8408 -0.8514  1.5195
 1971SOL    HW217550   2.988   0.664   7.956 -0.3394 -0.9496  0.7590
 1972SOL     OW17551   2.367   3.679  14.227 -0.1280 -0.4869  0.0836
 1972SOL    HW117552   2.284   3.707  14.264 -0.1397 -1.1425  0.5538
 1972SOL    HW217553   2.338   3.610  14.167 -2.3058  1.0044 -0.5878
 1973SOL     OW17554   4.499   4.045  14.629 -0.4388  0.2054 -0.3348
 1973SOL    HW117555   4.481   4.121  14.573 -1.7791 -1.7531 -2.5748
 1973SOL    HW217556   4.415   3.999  14.628  0.3530 -1.2681  0.4117
 1974SOL     OW17557   2.953   1.293   2.011  0.1797 -0.1205  0.1473
 1974SOL    HW117558   2.897   1.226   1.971 -2.5612  3.2960 -1.7555
 1974SOL    HW217559   2.938   1.275   2.104  1.8401  1.5547  0.7239
 1975SOL     OW17560   3.202   1.459   9.115  0.3792  0.4355  0.0540
 1975SOL    HW117561   3.184   1.520   9.187  0.8691 -0.5347  0.9874
 1975SOL    HW217562   3.144   1.385   9.133 -0.6063  1.0661 -0.5007
 1976SOL     OW17563   3.953   0.948  12.879  0.0641  0.3702  0.3558
 1976SOL    HW117564   3.971   1.015  12.945  0.5431  0.5438  0.0478
 1976SOL    HW217565   4.033   0.953  12.828  0.3705  1.3175  0.9211
 1977SOL     OW17566   3.141   3.877  13.595 -0.3945  0.8302 -0.0934
 1977SOL    HW117567   3.213   3.814  13.606  0.2303  1.5468 -0.1150
 1977SOL    HW217568   3.101   3.861  13.681  0.0017  0.0672 -0.0438
 1978SOL     OW17569   0.621   1.732   0.159  0.0822  0.1809  0.0297
 1978SOL    HW117570   0.567   1.657   0.135  0.3188  0.0407 -0.0609
 1978SOL    HW217571   0.646   1.769   0.075  2.1337  0.8691  0.9522
 1979SOL     OW17572   0.804   1.100   1.194  0.2003 -0.0386 -0.0778
 1979SOL    HW117573   0.762   1.015   1.180 -0.5351  0.7465 -2.6799
 1979SOL    HW217574   0.779   1.110   1.286  1.0626 -1.8992  0.3558
 1980SOL     OW17575   1.750   1.207   0.777  0.2044  0.5082  0.3145
 1980SOL    HW117576   1.741   1.278   0.714  0.1168 -0.2471 -0.5312
 1980SOL    HW217577   1.832   1.231   0.822  0.5943 -1.6691  0.7714
 1981SOL     OW17578   4.012   0.716   2.362 -0.3002 -0.0677  0.1824
 1981SOL    HW117579   4.053   0.701   2.448  0.5547  1.5528  0.0463
 1981SOL    HW217580   4.037   0.638   2.313  0.5234  1.2242 -1.4329
 1982SOL     OW17581   0.588   1.101  11.103  0.8007  0.6010  0.1962
 1982SOL    HW117582   0.608   1.011  11.129  1.2557  0.7262  0.2745
 1982SOL    HW217583   0.608   1.147  11.185  0.1993 -0.7528  1.1086
 1983SOL     OW17584   3.613   2.615   2.987 -0.1055  0.1546 -0.3458
 1983SOL    HW117585   3.669   2.584   3.058  0.3363  0.1881 -0.6792
 1983SOL    HW217586   3.674   2.615   2.912  0.9150 -2.3854  0.4970
 1984SOL     OW17587   1.897   0.935   4.176  0.3609 -0.0314 -0.3629
 1984SOL    HW117588   1.925   0.939   4.085 -1.0554  0.1239 -0.7847
 1984SOL    HW217589   1.884   1.029   4.190  0.4486  0.0163 -0.6026
 1985SOL     OW17590   0.176   4.389   5.805  0.2263  0.0863 -0.0254
 1985SOL    HW117591   0.271   4.387   5.791  0.1246  0.8201 -0.8523
 1985SOL    HW217592   0.152   4.381   5.713 -0.0551  1.3918 -0.0610
 1986SOL     OW17593   2.616   2.667  15.015 -0.4508 -0.6332  0.1077
 1986SOL    HW117594   2.573   2.746  14.984 -1.3420 -0.1713  2.5312
 1986SOL    HW217595   2.698   2.672  14.965 -1.1778 -0.9003 -1.1133
 1987SOL     OW17596   2.102   0.888   9.292  0.6931  0.2174  0.4564
 1987SOL    HW117597   2.142   0.899   9.378  0.7634 -1.8264  0.6743
 1987SOL    HW217598   2.026   0.832   9.309  0.9948 -0.1822  0.4860
 1988SOL     OW17599   1.773   2.130  16.628  0.4183  0.2245  0.6507
 1988SOL    HW117600   1.696   2.103  16.679  0.3131 -0.9126 -0.1051
 1988SOL    HW217601   1.847   2.117  16.688  1.9095 -0.7618 -1.4176
 1989SOL     OW17602   3.176   4.349  12.674 -0.2594  0.0450  0.0278
 1989SOL    HW117603   3.108   4.316  12.732 -0.3681  2.4228  1.2875
 1989SOL    HW217604   3.260   4.331  12.716 -0.9132 -0.8240  0.9351
 1990SOL     OW17605   2.305   1.246   5.284  0.4064  0.1964 -0.2829
 1990SOL    HW117606   2.395   1.217   5.270  0.9576  1.8644 -0.1410
 1990SOL    HW217607   2.257   1.167   5.257 -2.2346  2.5021 -2.2575
 1991SOL     OW17608   0.541   0.389   0.001  0.0619 -0.0736  0.3837
 1991SOL    HW117609   0.596   0.467  17.725 -0.6800  0.4031  0.0203
 1991SOL    HW217610   0.469   0.413  17.678  0.1111 -2.1698 -0.5077
 1992SOL     OW17611   4.099   1.924  12.819  0.5627 -0.3651 -0.0391
 1992SOL    HW117612   4.060   1.841  12.847  1.5263 -1.1574 -1.0503
 1992SOL    HW217613   4.150   1.951  12.896 -0.1902 -0.9827  0.6780
 1993SOL     OW17614   0.567   1.179   9.953  0.4237  0.1414  0.3566
 1993SOL    HW117615   0.611   1.264   9.958  0.1718  0.3982 -1.6118
 1993SOL    HW217616   0.496   1.186   9.890  0.7612  0.2674 -0.0135
 1994SOL     OW17617   0.487   0.257   9.088 -0.0383  0.4392  0.6994
 1994SOL    HW117618   0.548   0.326   9.064  0.9101 -0.3967  0.7349
 1994SOL    HW217619   0.527   0.218   9.166  0.9823  0.8011  0.3526
 1995SOL     OW17620   4.497   0.886   2.270 -0.4498 -0.7196 -0.0601
 1995SOL    HW117621   4.538   0.972   2.270  1.4604 -1.6341 -0.2057
 1995SOL    HW217622   4.412   0.909   2.307  0.9643  1.0778  2.0379
 1996SOL     OW17623   3.588   3.826   3.039 -0.5768  0.5296 -0.1568
 1996SOL    HW117624   3.678   3.852   3.059  0.2907 -1.7875 -1.0758
 1996SOL    HW217625   3.575   3.749   3.094 -2.4850 -0.5363 -2.1006
 1997SOL     OW17626   2.102   3.361   0.509 -0.1276  0.0503  0.1545
 1997SOL    HW117627   2.042   3.401   0.445  1.6343  0.5176 -1.2137
 1997SOL    HW217628   2.076   3.404   0.590  2.7511  0.7330  0.7269
 1998SOL     OW17629   0.792   0.798   5.906  1.0445  0.4598  0.7941
 1998SOL    HW117630   0.817   0.718   5.861  0.0845  0.1865  0.7525
 1998SOL    HW217631   0.716   0.765   5.955  1.0009 -1.3194 -0.4824
 1999SOL     OW17632   1.653   1.736  16.343 -0.4990  0.1037 -0.7156
 1999SOL    HW117633   1.570   1.748  16.295 -0.3628  0.7382 -0.7999
 1999SOL    HW217634   1.680   1.646  16.327  0.6447  0.1702  0.8651
 2000SOL     OW17635   1.440   3.589   1.008 -0.1295  0.2139 -0.0054
 2000SOL    HW117636   1.459   3.683   1.017  1.1321 -0.0080 -0.3045
 2000SOL    HW217637   1.442   3.573   0.913  3.1580  2.1431 -0.2707
 2001SOL     OW17638   0.076   0.693  13.458 -0.5384 -0.4027  0.0893
 2001SOL    HW117639   0.123   0.666  13.379  0.4112 -1.2143  0.9257
 2001SOL    HW217640   0.121   0.627  13.510 -0.3600  0.3587  0.9106
 2002SOL     OW17641   4.297   1.920   6.105 -0.1310 -0.1370 -0.2912
 2002SOL    HW117642   4.333   1.845   6.153 -0.7558 -0.7888 -0.8489
 2002SOL    HW217643   4.359   1.990   6.124  0.2818 -0.0164 -2.1005
 2003SOL     OW17644   2.673   4.350  16.776 -0.2964  0.0049  0.0216
 2003SOL    HW117645   2.618   4.332  16.852 -0.4706  0.1411 -0.0746
 2003SOL    HW217646   2.757   4.306  16.790  0.6823  1.5350 -1.0274
 2004SOL     OW17647   4.268   2.576   9.488 -0.0594  0.1215  0.6956
 2004SOL    HW117648   4.343   2.631   9.465  0.0158 -0.1318  0.3358
 2004SOL    HW217649   4.274   2.520   9.411 -1.0405 -0.3059  0.9320
 2005SOL     OW17650   4.155   1.292   3.506 -0.2142 -0.6519  0.1005
 2005SOL    HW117651   4.166   1.202   3.476  2.3692 -0.5897  0.9197
 2005SOL    HW217652   4.199   1.298   3.591 -0.7819  2.6451  0.1691
 2006SOL     OW17653   1.968   0.451   8.343  0.3095 -0.7723  0.0399
 2006SOL    HW117654   2.035   0.399   8.385  2.3592 -0.0054 -2.2555
 2006SOL    HW217655   1.971   0.415   8.254 -1.1416  0.6397 -0.5848
 2007SOL     OW17656   0.214   3.976   3.967 -0.1915 -0.0161 -0.4051
 2007SOL    HW117657   0.223   4.070   3.952  1.3969 -0.2717 -1.1309
 2007SOL    HW217658   0.184   3.955   3.879 -0.9423 -2.5347  0.4332
 2008SOL     OW17659   4.377   4.413   6.581 -0.6592 -0.1111  0.1457
 2008SOL    HW117660   4.285   4.432   6.601 -1.3845 -1.5354 -1.8768
 2008SOL    HW217661   4.385   4.430   6.487 -0.9979  0.2568  0.1811
 2009SOL     OW17662   0.363   4.669   1.516  0.2926 -0.0343  0.1549
 2009SOL    HW117663   0.272   4.696   1.504  0.6109 -0.7934 -3.7788
 2009SOL    HW217664   0.362   4.655   1.611 -0.5647 -0.0463  0.1391
 2010SOL     OW17665   1.841   2.510   9.533 -0.7496  0.1105 -0.2063
 2010SOL    HW117666   1.800   2.435   9.576  1.0510  0.4404  2.0437
 2010SOL    HW217667   1.847   2.472   9.445  0.4349  0.6409 -0.3546
 2011SOL     OW17668   3.055   1.110  11.526 -0.6151 -0.2574 -0.4493
 2011SOL    HW117669   3.003   1.190  11.518 -0.0325  0.0230 -1.3474
 2011SOL    HW217670   2.980   1.051  11.520 -0.0659 -1.3441  3.2270
 2012SOL     OW17671   2.511   3.592  13.370 -0.3665 -0.6428 -0.2013
 2012SOL    HW117672   2.420   3.621  13.360  1.0197  3.5750 -0.3268
 2012SOL    HW217673   2.515   3.530  13.297 -0.6588  0.3091 -1.0273
 2013SOL     OW17674   0.853   1.330  14.121 -0.3819  0.1967  0.3137
 2013SOL    HW117675   0.868   1.278  14.041 -1.1137 -2.4637  1.9063
 2013SOL    HW217676   0.803   1.267  14.173 -1.9402  1.2372  0.0587
 2014SOL     OW17677   2.899   3.763   7.036  0.2404  0.3900 -0.1908
 2014SOL    HW117678   2.861   3.676   7.019  0.4717 -0.2527  2.4771
 2014SOL    HW217679   2.986   3.757   6.998 -0.7681  2.7294 -2.8787
 2015SOL     OW17680   2.222   0.288   5.882  0.3706 -0.0808 -0.3114
 2015SOL    HW117681   2.183   0.229   5.946  2.4423  1.6049  2.4768
 2015SOL    HW217682   2.143   0.340   5.864 -0.1128 -1.1447 -1.2920
 2016SOL     OW17683   3.607   2.392  13.181 -0.1853 -0.7596  0.2111
 2016SOL    HW117684   3.565   2.337  13.248 -1.7590 -0.3444 -0.4315
 2016SOL    HW217685   3.687   2.415  13.227 -1.8333  1.3836  2.0247
 2017SOL     OW17686   2.776   1.981   1.503 -0.2276  0.3246  0.1064
 2017SOL    HW117687   2.702   2.022   1.457 -0.3664  2.4278  2.2436
 2017SOL    HW217688   2.783   1.895   1.462 -0.2814 -0.3946  1.6236
 2018SOL     OW17689   0.888   2.034   3.841  0.2386 -0.3597 -0.6591
 2018SOL    HW117690   0.975   2.003   3.866 -0.3952 -0.0113  2.0005
 2018SOL    HW217691   0.895   2.057   3.749 -0.7209  2.2674 -0.0830
 2019SOL     OW17692   1.137   3.225   2.578  0.1604 -0.5177 -0.0558
 2019SOL    HW117693   1.214   3.170   2.597  0.0873 -0.5276  0.2123
 2019SOL    HW217694   1.124   3.260   2.666 -3.4053  0.1002 -0.8235
 2020SOL     OW17695   1.483   0.444   4.266  0.1141  0.4964  0.3072
 2020SOL    HW117696   1.506   0.413   4.353  1.5669 -1.6441 -0.8484
 2020SOL    HW217697   1.401   0.399   4.249 -0.2394  1.0098  0.6323
 2021SOL     OW17698   3.501   1.630  17.393 -0.1504 -0.1495  0.6910
 2021SOL    HW117699   3.501   1.565  17.464 -1.9027 -0.3166  0.5395
 2021SOL    HW217700   3.577   1.597  17.344  0.2072 -0.1359  1.2276
 2022SOL     OW17701   4.247   4.447  11.766 -0.1269  0.1432  0.1110
 2022SOL    HW117702   4.274   4.524  11.716 -2.5232  1.7195  1.2673
 2022SOL    HW217703   4.327   4.408  11.801  0.9761 -1.6821 -4.5176
 2023SOL     OW17704   3.377   4.269   7.340 -0.6016  0.0181  0.1913
 2023SOL    HW117705   3.416   4.182   7.349  1.1148  0.7385 -0.0592
 2023SOL    HW217706   3.308   4.251   7.277 -0.7295  0.1863  0.2852
 2024SOL     OW17707   3.299   4.488   2.817  0.8308 -0.2651  0.3656
 2024SOL    HW117708   3.245   4.429   2.869  0.5443  0.3245  0.7236
 2024SOL    HW217709   3.369   4.433   2.781 -0.1068 -1.2593  0.0261
 2025SOL     OW17710   2.146   0.671   3.600  0.2804 -0.0798 -0.3368
 2025SOL    HW117711   2.128   0.657   3.508 -1.5108 -0.0698  0.0134
 2025SOL    HW217712   2.166   0.764   3.596 -1.2013  0.2003 -1.0314
 2026SOL     OW17713   3.995   4.036   1.954  0.4787 -0.0403 -0.2189
 2026SOL    HW117714   4.017   4.123   1.920  0.8987 -0.4118 -0.8866
 2026SOL    HW217715   4.078   3.991   1.968  0.5128  1.2170  3.6091
 2027SOL     OW17716   0.856   4.384  14.849  0.0845  0.1110 -0.1359
 2027SOL    HW117717   0.923   4.315  14.848 -0.2242 -0.1899 -0.3873
 2027SOL    HW217718   0.778   4.336  14.878  0.8944 -0.5751  0.9171
 2028SOL     OW17719   1.713   3.853   5.997 -0.1789  0.1032  0.3913
 2028SOL    HW117720   1.749   3.896   6.075 -1.0724 -1.8856  1.9004
 2028SOL    HW217721   1.694   3.928   5.941 -1.1493 -0.7656 -0.4485
 2029SOL     OW17722   2.304   0.186   8.781  0.4362  0.5897 -0.1944
 2029SOL    HW117723   2.271   0.145   8.861 -0.2740 -1.3571 -1.5077
 2029SOL    HW217724   2.253   0.152   8.708  0.9442 -2.0929  0.6936
 2030SOL     OW17725   2.378   1.853  13.721 -0.4578 -0.0466 -0.5400
 2030SOL    HW117726   2.327   1.844  13.641 -1.5698  1.4900 -0.0046
 2030SOL    HW217727   2.306   1.852  13.785 -1.1377  1.2535 -1.2978
 2031SOL     OW17728   1.668   3.350   3.220  0.2052  0.4276  0.0382
 2031SOL    HW117729   1.720   3.337   3.300 -1.2293  1.3370  1.1214
 2031SOL    HW217730   1.586   3.372   3.265 -0.0255  1.0746 -0.7110
 2032SOL     OW17731   4.083   1.134   8.620  0.2041 -0.6873  0.1813
 2032SOL    HW117732   4.080   1.039   8.625  3.3354 -0.9026 -1.8976
 2032SOL    HW217733   4.123   1.143   8.533 -1.0750 -1.7335 -0.5097
 2033SOL     OW17734   0.591   4.640  11.770 -0.1586 -0.1348  0.4863
 2033SOL    HW117735   0.596   4.628  11.675  0.3864  1.7686  0.2821
 2033SOL    HW217736   0.562   4.559  11.812 -2.3944  0.6808  0.5216
 2034SOL     OW17737   2.623   1.925   3.786 -0.1415  0.1217 -0.3421
 2034SOL    HW117738   2.650   1.958   3.700 -2.1724 -0.2847 -1.1318
 2034SOL    HW217739   2.691   1.975   3.832 -1.1653  0.9110  0.3157
 2035SOL     OW17740   3.469   2.125   4.875 -0.5321  0.2059  0.1579
 2035SOL    HW117741   3.388   2.084   4.844  0.6534 -1.6204 -0.5647
 2035SOL    HW217742   3.533   2.054   4.865 -1.2177 -0.0936 -2.0639
 2036SOL     OW17743   1.523   4.038   8.214  0.4043 -0.0350 -0.1593
 2036SOL    HW117744   1.591   3.977   8.242  2.2352  2.4055  0.6573
 2036SOL    HW217745   1.497   3.996   8.132  0.6503 -0.3321 -0.0838
 2037SOL     OW17746   0.985   2.711   5.577  0.2691 -0.2687  0.1950
 2037SOL    HW117747   0.904   2.740   5.533 -0.2538 -2.8293 -0.5156
 2037SOL    HW217748   0.990   2.779   5.644  0.5483  0.3799 -0.4723
 2038SOL     OW17749   0.862   2.971   6.192 -0.2840 -0.3696 -0.5218
 2038SOL    HW117750   0.863   2.878   6.212  1.7662 -0.0223  1.0175
 2038SOL    HW217751   0.929   3.000   6.254 -1.4542  0.6784  0.2588
 2039SOL     OW17752   3.974   4.484  11.684  0.2630 -0.4782 -0.2195
 2039SOL    HW117753   4.059   4.477  11.728 -0.3181 -1.5771  0.7137
 2039SOL    HW217754   3.976   4.421  11.612 -1.4921 -0.9175  0.1288
 2040SOL     OW17755   1.042   3.507   0.922 -0.1353 -0.2226 -0.5462
 2040SOL    HW117756   1.017   3.523   0.831 -1.6462 -0.7684 -0.2254
 2040SOL    HW217757   0.958   3.475   0.955 -0.5748  1.5198  0.0366
 2041SOL     OW17758   0.432   3.059   6.897 -0.5857 -0.4106 -0.0438
 2041SOL    HW117759   0.485   3.134   6.924 -1.2958 -0.8343  2.4911
 2041SOL    HW217760   0.488   3.019   6.830  0.0488 -0.8974  0.7710
 2042SOL     OW17761   3.036   3.319   3.804 -0.0030  0.0000 -0.4626
 2042SOL    HW117762   3.063   3.397   3.851 -1.6710  0.4117 -0.1963
 2042SOL    HW217763   3.006   3.351   3.719 -0.8593  0.4363  0.0017
 2043SOL     OW17764   2.597   1.184   6.471  0.0088 -0.2105  0.0189
 2043SOL    HW117765   2.605   1.117   6.538 -0.7919  0.8853  1.2183
 2043SOL    HW217766   2.691   1.193   6.454  0.1348 -1.9585 -0.2280
 2044SOL     OW17767   3.407   1.230   4.634 -0.1787  0.1112 -0.4963
 2044SOL    HW117768   3.371   1.176   4.564  2.7194 -2.2413 -0.1643
 2044SOL    HW217769   3.345   1.226   4.706  1.6889  1.7863  1.1887
 2045SOL     OW17770   3.292   3.027   6.209  0.0466  0.1134  0.2770
 2045SOL    HW117771   3.301   3.108   6.260  0.5954  0.4062 -0.2935
 2045SOL    HW217772   3.203   3.032   6.173 -0.5127  1.5471  1.8222
 2046SOL     OW17773   2.931   1.229  13.179  0.3367  0.2854  0.1414
 2046SOL    HW117774   2.980   1.277  13.245 -0.2181  2.1311 -0.7939
 2046SOL    HW217775   2.970   1.267  13.100  0.6507  1.7735  1.0208
 2047SOL     OW17776   2.072   4.481   1.812  0.0136  0.0319  0.0046
 2047SOL    HW117777   2.071   4.576   1.823  0.3481 -0.0304  0.5868
 2047SOL    HW217778   2.141   4.454   1.873  1.8673  1.4960 -1.4451
 2048SOL     OW17779   2.610   0.825   2.033 -0.4444 -0.5124 -0.3154
 2048SOL    HW117780   2.562   0.768   2.093 -0.9847 -1.1668 -1.3567
 2048SOL    HW217781   2.678   0.768   1.996 -0.6203 -0.3598 -0.8871
 2049SOL     OW17782   0.746   4.006   5.408 -0.2196  0.4745 -0.1478
 2049SOL    HW117783   0.830   3.959   5.403 -1.0102 -0.6835 -2.6651
 2049SOL    HW217784   0.695   3.942   5.358 -0.9734  1.2883 -0.4156
 2050SOL     OW17785   3.685   0.984   0.443  0.0121 -0.0893 -0.1839
 2050SOL    HW117786   3.683   0.911   0.506 -1.7862 -0.1867 -0.3606
 2050SOL    HW217787   3.591   0.998   0.459 -0.2500  0.7216 -2.4690
 2051SOL     OW17788   0.756   2.007  13.176 -0.2840 -0.3542  0.4348
 2051SOL    HW117789   0.723   1.975  13.260 -2.2391  0.5268 -0.0092
 2051SOL    HW217790   0.824   1.946  13.146 -0.1033  0.4750 -0.8353
 2052SOL     OW17791   3.153   2.384  11.853  0.1969  0.7653 -0.0884
 2052SOL    HW117792   3.091   2.329  11.806  0.1393 -0.9934  2.0492
 2052SOL    HW217793   3.191   2.320  11.913 -0.4374 -1.3074 -1.9424
 2053SOL     OW17794   4.454   0.904   4.425  0.4427  0.2175  0.2627
 2053SOL    HW117795   4.535   0.887   4.472  1.3316 -0.9836 -1.6938
 2053SOL    HW217796   4.400   0.947   4.491 -0.2079 -1.8521  1.0788
 2054SOL     OW17797   1.069   1.948   6.319  0.2467  0.1482  0.0259
 2054SOL    HW117798   1.036   1.911   6.237 -1.4708 -0.3858  0.9715
 2054SOL    HW217799   1.026   2.034   6.321  0.0403  0.1201 -2.4592
 2055SOL     OW17800   1.273   4.612  16.695 -0.6340 -0.4177  0.1933
 2055SOL    HW117801   1.241   4.530  16.657  1.7675 -0.8296 -0.9447
 2055SOL    HW217802   1.342   4.628  16.631 -1.7756  1.7526 -0.4552
 2056SOL     OW17803   1.275   3.689   4.237  0.0367  0.6303 -0.0936
 2056SOL    HW117804   1.268   3.768   4.289  1.6430  2.4881 -2.6948
 2056SOL    HW217805   1.209   3.704   4.169 -1.1570 -1.6882  0.5457
 2057SOL     OW17806   1.390   4.402   2.280  0.0755 -0.3140 -0.1361
 2057SOL    HW117807   1.345   4.423   2.362  0.6273 -0.4228  0.1940
 2057SOL    HW217808   1.327   4.353   2.227  0.2281  0.1952 -0.7930
 2058SOL     OW17809   3.094   0.905   8.137 -0.1787 -0.3970  0.1176
 2058SOL    HW117810   3.179   0.944   8.157  0.1058 -0.7974 -0.3009
 2058SOL    HW217811   3.053   0.978   8.089  0.6693  0.2534  0.3801
 2059SOL     OW17812   3.164   4.104   4.510  0.0467  0.3913 -0.2598
 2059SOL    HW117813   3.214   4.186   4.516 -0.2294  0.5302  0.2315
 2059SOL    HW217814   3.210   4.052   4.576  1.3759  1.6751 -0.1580
 2060SOL     OW17815   4.659   1.590   2.896  0.1643 -0.0315 -0.1597
 2060SOL    HW117816   4.718   1.569   2.824 -0.7000 -0.3572 -0.7771
 2060SOL    HW217817   4.689   1.526   2.959 -0.6151 -0.9583 -0.7273
 2061SOL     OW17818   3.025   2.361   3.822  0.2438  0.0798 -0.3308
 2061SOL    HW117819   2.963   2.301   3.864  1.7887 -0.2558  1.4739
 2061SOL    HW217820   2.965   2.406   3.762 -0.2034  0.9089  0.7303
 2062SOL     OW17821   2.833   1.496   6.320  0.2090 -0.6523  0.3970
 2062SOL    HW117822   2.851   1.565   6.384 -1.3506  0.8439 -0.7738
 2062SOL    HW217823   2.885   1.424   6.356  0.7710 -0.7578 -0.6259
 2063SOL     OW17824   1.833   1.721  16.625 -0.1498 -0.1424 -0.5186
 2063SOL    HW117825   1.761   1.730  16.563  0.8615  0.5446 -1.6127
 2063SOL    HW217826   1.791   1.703  16.709  1.7119 -0.8619  0.2581
 2064SOL     OW17827   3.193   3.067   7.216 -0.0114  0.5725  0.1990
 2064SOL    HW117828   3.162   3.044   7.303  2.3865 -0.6436  0.7497
 2064SOL    HW217829   3.288   3.070   7.230 -0.0650  0.4122  0.5722
 2065SOL     OW17830   1.071   0.200   6.681  0.3091  0.0715 -0.1261
 2065SOL    HW117831   1.142   0.202   6.617 -0.7994  0.0881 -1.3463
 2065SOL    HW217832   1.070   0.109   6.712  1.5501  0.2811  0.5271
 2066SOL     OW17833   3.312   4.086   5.804 -0.5272 -0.6389 -0.8056
 2066SOL    HW117834   3.302   4.136   5.885  0.6028  0.1303 -1.1251
 2066SOL    HW217835   3.298   3.995   5.829 -2.3090 -0.2121 -0.3100
 2067SOL     OW17836   3.388   3.067   7.638  0.0004 -0.8759  0.3375
 2067SOL    HW117837   3.397   2.972   7.641  0.2287 -0.8345  0.9552
 2067SOL    HW217838   3.294   3.082   7.638  0.1217 -0.0766 -0.9752
 2068SOL     OW17839   0.280   3.131   0.139  0.5536 -0.0679 -0.0658
 2068SOL    HW117840   0.239   3.062   0.087  1.2119 -1.0989  0.7757
 2068SOL    HW217841   0.370   3.104   0.156  0.2079 -0.6910  0.7639
 2069SOL     OW17842   3.363   1.599   7.931  0.6014 -0.2512 -0.2468
 2069SOL    HW117843   3.450   1.604   7.891  0.2921  1.9793 -0.6384
 2069SOL    HW217844   3.379   1.659   8.004 -0.4663  0.8062 -0.8911
 2070SOL     OW17845   3.732   4.093  13.083 -0.0797  0.4660  0.0244
 2070SOL    HW117846   3.730   4.067  12.991 -0.3617 -0.8673  0.4227
 2070SOL    HW217847   3.825   4.079  13.103  0.4787  1.8663 -1.5587
 2071SOL     OW17848   2.316   2.831   5.531 -0.0685  0.4235  0.1837
 2071SOL    HW117849   2.246   2.848   5.468  1.6236 -1.6027 -2.2535
 2071SOL    HW217850   2.322   2.911   5.584  2.1053 -0.1351  0.7839
 2072SOL     OW17851   1.459   3.635   8.870 -0.8160  0.2684 -0.4594
 2072SOL    HW117852   1.509   3.571   8.820  0.0079  2.0425 -1.8887
 2072SOL    HW217853   1.530   3.698   8.886  0.2210 -1.2590  0.8989
 2073SOL     OW17854   1.934   0.635   5.545 -0.0557 -0.4049 -0.2152
 2073SOL    HW117855   1.991   0.595   5.479 -1.7516 -1.8257 -0.8255
 2073SOL    HW217856   1.861   0.666   5.492 -0.1027  0.7931  0.5373
 2074SOL     OW17857   4.365   3.566   2.732 -0.2089 -0.2728 -0.1407
 2074SOL    HW117858   4.391   3.477   2.756 -3.9524 -1.7387 -1.4365
 2074SOL    HW217859   4.325   3.596   2.814 -0.1016 -0.7487  0.0871
 2075SOL     OW17860   2.963   4.092  13.607 -0.5558  0.2787  0.3051
 2075SOL    HW117861   3.017   4.021  13.572  0.1968  1.6867 -1.4154
 2075SOL    HW217862   3.017   4.163  13.571  1.4615 -0.6687  1.4692
 2076SOL     OW17863   3.023   4.258   8.993 -0.3167  0.5209 -0.4093
 2076SOL    HW117864   2.982   4.331   8.947  0.2538  0.0641 -1.6563
 2076SOL    HW217865   3.065   4.301   9.067 -0.3120  0.9899 -0.6868
 2077SOL     OW17866   1.561   2.646   5.356  0.1739 -0.3654 -0.1973
 2077SOL    HW117867   1.502   2.715   5.385 -0.1680 -1.5394  1.8745
 2077SOL    HW217868   1.525   2.581   5.416 -1.4371  1.0750  0.3903
 2078SOL     OW17869   4.593   3.423   1.734  0.4325 -0.2278  0.1194
 2078SOL    HW117870   4.538   3.368   1.790 -1.7710  0.8378 -1.0052
 2078SOL    HW217871   4.565   3.510   1.763 -1.4039 -1.6950  2.7688
 2079SOL     OW17872   3.413   0.577   4.514 -0.0733  0.5563  0.1155
 2079SOL    HW117873   3.371   0.525   4.582  0.5053  1.4080  1.1124
 2079SOL    HW217874   3.438   0.510   4.450 -0.8704 -1.2383  1.6698
 2080SOL     OW17875   1.834   2.498   2.513  0.7810  0.0083  0.3994
 2080SOL    HW117876   1.914   2.486   2.461  0.5045  0.1209 -0.0574
 2080SOL    HW217877   1.856   2.582   2.551 -0.0316  0.4890 -0.1842
 2081SOL     OW17878   3.885   0.996   7.043 -0.1570 -0.0016 -0.7777
 2081SOL    HW117879   3.972   1.031   7.063  0.8701 -1.8900 -1.9974
 2081SOL    HW217880   3.836   1.009   7.124  0.8650  0.3786 -0.2155
 2082SOL     OW17881   4.103   3.449   8.497 -0.1180  0.4726 -0.6157
 2082SOL    HW117882   4.145   3.460   8.412  2.5291  1.0608  0.7704
 2082SOL    HW217883   4.174   3.463   8.559  0.0936 -2.9306 -0.0794
 2083SOL     OW17884   0.995   0.522   3.179 -0.0654  0.2374 -0.0223
 2083SOL    HW117885   0.922   0.572   3.143  0.1431 -0.3320 -1.2274
 2083SOL    HW217886   1.063   0.577   3.142  0.1918 -0.0893 -0.0427
 2084SOL     OW17887   0.137   3.448   4.467 -0.2024 -0.6436 -0.3263
 2084SOL    HW117888   0.089   3.398   4.533  1.4074 -0.3019  1.0900
 2084SOL    HW217889   0.071   3.444   4.398  0.4427  1.2831 -1.0403
 2085SOL     OW17890   3.347   3.865   3.567 -0.7240  0.0842  0.3459
 2085SOL    HW117891   3.327   3.869   3.661  1.2882 -0.8123  0.8051
 2085SOL    HW217892   3.429   3.914   3.563  0.3558 -1.9495 -2.2340
 2086SOL     OW17893   0.690   0.946   5.674  0.5783  0.0902  0.3816
 2086SOL    HW117894   0.720   0.855   5.678 -1.7745 -0.7027  0.0445
 2086SOL    HW217895   0.698   0.961   5.768  0.4019  0.9486  0.2576
 2087SOL     OW17896   1.758   1.471   9.832  0.2499  0.3379  0.3490
 2087SOL    HW117897   1.738   1.558   9.798  2.2563  1.4314  1.9708
 2087SOL    HW217898   1.852   1.478   9.846  0.4715  2.1855 -2.0589
 2088SOL     OW17899   1.347   0.829   3.143 -0.1273 -1.0325 -0.2391
 2088SOL    HW117900   1.427   0.832   3.090 -0.9382  1.2921 -1.3132
 2088SOL    HW217901   1.338   0.922   3.162  0.8630 -0.6597 -1.5984
 2089SOL     OW17902   2.374   0.156  10.114  1.0831  0.3303  0.6865
 2089SOL    HW117903   2.298   0.171  10.058  3.2094  2.7763 -1.5357
 2089SOL    HW217904   2.384   0.245  10.148  0.8536 -0.0805  1.8141
 2090SOL     OW17905   3.475   2.479   4.216  0.2924  0.2086 -0.6195
 2090SOL    HW117906   3.424   2.476   4.298 -0.5020 -0.8976 -1.1544
 2090SOL    HW217907   3.418   2.462   4.142  0.4393 -2.3160 -0.1373
 2091SOL     OW17908   2.821   4.563  11.865 -0.0747 -0.0515  1.0376
 2091SOL    HW117909   2.909   4.549  11.900  0.9033  0.7678 -1.0945
 2091SOL    HW217910   2.774   4.496  11.914  0.1565 -2.0274 -1.4224
 2092SOL     OW17911   0.365   1.845   2.930 -0.3765 -0.2072 -0.8046
 2092SOL    HW117912   0.354   1.887   2.844  3.7464  1.1946 -0.6279
 2092SOL    HW217913   0.290   1.886   2.974  1.4387  1.3589  0.8066
 2093SOL     OW17914   3.647   2.865   5.197  0.2984 -0.3980  0.0642
 2093SOL    HW117915   3.562   2.825   5.177 -0.7532  1.9635 -0.1448
 2093SOL    HW217916   3.632   2.952   5.159  0.0410 -0.2361  0.5308
 2094SOL     OW17917   0.440   0.468  16.184 -0.2307 -0.2949  0.0706
 2094SOL    HW117918   0.346   0.476  16.171 -0.4648 -1.9240  0.6914
 2094SOL    HW217919   0.446   0.529  16.257 -2.4435 -0.9865  0.8414
 2095SOL     OW17920   0.046   1.005   0.021  0.0090 -0.1041 -0.2900
 2095SOL    HW117921   0.057   1.077   0.084  0.8500 -0.5191  0.0404
 2095SOL    HW217922   0.001   1.051  17.686 -0.1509 -0.7191 -0.5839
 2096SOL     OW17923   2.809   1.306   6.783  0.1497 -0.2519  0.1758
 2096SOL    HW117924   2.896   1.317   6.820  0.4551 -1.7273 -0.1128
 2096SOL    HW217925   2.784   1.219   6.813  0.7280 -1.2202 -2.1587
 2097SOL     OW17926   2.213   3.230  10.177 -0.2320  0.8560  0.0263
 2097SOL    HW117927   2.179   3.232  10.087  0.4895 -1.4972 -0.2990
 2097SOL    HW217928   2.136   3.199  10.225 -0.3176 -0.7824 -1.1692
 2098SOL     OW17929   0.959   2.725   5.902  0.6613  0.1338  0.1056
 2098SOL    HW117930   1.007   2.802   5.933  1.3960  0.3277 -1.5446
 2098SOL    HW217931   1.020   2.653   5.921  1.2450  0.5854 -0.0561
 2099SOL     OW17932   1.256   3.668   8.433 -0.1669  0.3757  0.0510
 2099SOL    HW117933   1.345   3.641   8.455 -0.1497  1.1009  0.8460
 2099SOL    HW217934   1.276   3.756   8.403 -1.5796  0.7769  0.2980
 2100SOL     OW17935   0.453   1.961   7.304  0.3305  0.1688  0.0085
 2100SOL    HW117936   0.457   1.865   7.296  0.9285  0.1349  0.7317
 2100SOL    HW217937   0.543   1.981   7.281  0.2538  1.1244  0.5506
 2101SOL     OW17938   2.684   0.695  11.035  0.6376  0.3941 -0.0106
 2101SOL    HW117939   2.644   0.654  11.111  1.0431  1.9919  1.0721
 2101SOL    HW217940   2.618   0.679  10.967 -1.3915 -0.3337  2.1184
 2102SOL     OW17941   2.024   1.943   5.966 -0.3734 -0.0859 -0.3358
 2102SOL    HW117942   2.016   2.030   6.006 -0.8848 -0.8572  1.2612
 2102SOL    HW217943   2.007   1.966   5.875  0.7305 -3.1449 -1.3218
 2103SOL     OW17944   1.214   3.526   1.157 -0.1021 -0.1188 -0.1314
 2103SOL    HW117945   1.293   3.543   1.105 -0.6283 -1.2627 -1.3031
 2103SOL    HW217946   1.157   3.492   1.089  0.0101 -0.7058  0.0675
 2104SOL     OW17947   4.407   2.461   6.808  0.2667 -0.1025 -0.5717
 2104SOL    HW117948   4.397   2.376   6.766 -1.3002 -0.3479  0.2854
 2104SOL    HW217949   4.492   2.458   6.852  0.0571 -1.6726 -0.2797
 2105SOL     OW17950   1.729   0.492  13.593 -0.3085 -0.0958 -0.6058
 2105SOL    HW117951   1.669   0.561  13.620  0.6444  0.2663  0.5445
 2105SOL    HW217952   1.769   0.477  13.678 -1.2135 -1.5490 -0.4339
 2106SOL     OW17953   1.405   3.388   3.326 -0.2891  0.0751 -0.1112
 2106SOL    HW117954   1.327   3.379   3.270  0.0180 -0.1667 -0.5011
 2106SOL    HW217955   1.375   3.346   3.406  3.5787 -0.3223  1.1374
 2107SOL     OW17956   2.690   0.673   3.337  0.2804  0.7176 -0.2091
 2107SOL    HW117957   2.664   0.595   3.386 -2.3022  2.2584  0.8480
 2107SOL    HW217958   2.614   0.724   3.363 -0.4083 -0.3352 -0.1730
 2108SOL     OW17959   4.046   1.629  17.543  0.0963 -0.7132 -0.0864
 2108SOL    HW117960   4.104   1.704  17.537 -1.2058  0.5041  2.2739
 2108SOL    HW217961   4.069   1.590  17.628  2.5347  1.4627  0.2517
 2109SOL     OW17962   4.580   0.746   4.019 -0.4950 -0.3013  0.1624
 2109SOL    HW117963   4.542   0.801   4.088  1.8750  1.0143  0.4304
 2109SOL    HW217964   4.645   0.700   4.071 -0.2462 -0.4724 -0.2986
 2110SOL     OW17965   4.362   3.015   2.736 -0.7325 -0.6400  1.0732
 2110SOL    HW117966   4.358   3.069   2.657 -0.4804 -1.2859  0.6219
 2110SOL    HW217967   4.447   3.034   2.775 -0.0632 -0.3889 -0.5400
 2111SOL     OW17968   1.047   4.376   6.954  0.2027  0.6381 -0.0788
 2111SOL    HW117969   1.057   4.466   6.923  0.7086  1.1825  1.7112
 2111SOL    HW217970   1.016   4.337   6.872  0.7290 -1.1854  0.5807
 2112SOL     OW17971   0.224   4.315   1.526 -0.0564  0.5338 -0.3038
 2112SOL    HW117972   0.203   4.242   1.584  0.9869 -0.7411 -1.5349
 2112SOL    HW217973   0.165   4.383   1.558 -0.9817  0.2908 -1.4708
 2113SOL     OW17974   2.906   0.998   5.376 -0.1396 -0.0024 -0.3203
 2113SOL    HW117975   2.885   1.085   5.410  2.2093  0.5693 -0.2899
 2113SOL    HW217976   2.863   1.014   5.292  1.0342  0.9171 -0.7439
 2114SOL     OW17977   3.686   2.088   7.673 -0.5939 -0.5430  0.1158
 2114SOL    HW117978   3.653   1.998   7.663 -3.0261  0.5805 -1.7884
 2114SOL    HW217979   3.606   2.140   7.683  2.0691  3.1776  1.7556
 2115SOL     OW17980   4.672   3.351   1.505 -0.0555 -0.4156 -0.5194
 2115SOL    HW117981   4.643   3.371   1.594 -1.3475 -1.6434 -0.6827
 2115SOL    HW217982   4.592   3.344   1.454  0.3680 -1.4277 -1.0440
 2116SOL     OW17983   2.715   3.690   8.300  0.0244 -0.7325  0.1890
 2116SOL    HW117984   2.734   3.626   8.368  3.1979  0.2806  0.2703
 2116SOL    HW217985   2.663   3.633   8.245  0.2674 -0.8255  0.0588
 2117SOL     OW17986   3.392   2.111  12.304  0.3568  0.2723 -0.1316
 2117SOL    HW117987   3.450   2.036  12.293  0.7710  0.3439  1.4378
 2117SOL    HW217988   3.319   2.087  12.248 -0.1555  1.8298 -0.1450
 2118SOL     OW17989   2.115   0.145   3.659  0.1378 -0.1741 -0.7902
 2118SOL    HW117990   2.023   0.117   3.659 -0.0406  0.4181  0.4933
 2118SOL    HW217991   2.105   0.240   3.663 -0.1531 -0.2249 -0.3318
 2119SOL     OW17992   4.098   0.310   6.505  0.4440 -0.1926 -0.1636
 2119SOL    HW117993   4.111   0.230   6.454  0.5839 -1.3113  1.6596
 2119SOL    HW217994   4.183   0.329   6.544  0.8251  0.8350 -1.4830
 2120SOL     OW17995   2.166   3.498   4.584  0.2595 -0.4376 -0.4500
 2120SOL    HW117996   2.189   3.566   4.647  0.6579 -0.2899 -0.7546
 2120SOL    HW217997   2.139   3.548   4.507  0.1222 -0.4459 -0.4079
 2121SOL     OW17998   1.975   2.789   5.781 -0.3327 -0.3601 -0.5120
 2121SOL    HW117999   2.069   2.787   5.766 -0.5267 -0.6363 -1.7133
 2121SOL    HW218000   1.952   2.710   5.733  2.5387 -0.5295 -1.6120
 2122SOL     OW18001   3.823   4.344   3.469 -0.2509 -0.2261  0.5204
 2122SOL    HW118002   3.873   4.407   3.416  1.9618  0.4337  3.3986
 2122SOL    HW218003   3.878   4.266   3.457 -1.4871 -1.2607  1.6574
 2123SOL     OW18004   3.318   1.951  16.926 -0.1452  0.1971  0.0997
 2123SOL    HW118005   3.281   2.039  16.918 -2.7216 -0.7810  1.1599
 2123SOL    HW218006   3.405   1.974  16.956  0.0867 -1.8921  1.0189
 2124SOL     OW18007   0.251   0.322  12.222  0.0767 -0.1060  0.1269
 2124SOL    HW118008   0.196   0.281  12.155  1.6550 -1.2333 -0.4615
 2124SOL    HW218009   0.312   0.250  12.229  1.6018  1.1675 -0.0384
 2125SOL     OW18010   1.564   0.439   9.437  0.5021 -0.2687  0.5142
 2125SOL    HW118011   1.619   0.363   9.417  0.3573 -0.9201  2.6548
 2125SOL    HW218012   1.542   0.432   9.530 -1.9866 -0.2789 -0.0661
 2126SOL     OW18013   0.801   2.079   9.290  0.3906 -0.4747  0.8220
 2126SOL    HW118014   0.736   2.149   9.299  0.7743 -0.1942  1.3850
 2126SOL    HW218015   0.749   2.004   9.320 -0.9224 -0.5491 -1.6483
 2127SOL     OW18016   0.387   4.129   8.104  0.1281 -0.2498  0.4432
 2127SOL    HW118017   0.348   4.198   8.050  0.9089  0.9813  1.4849
 2127SOL    HW218018   0.366   4.151   8.194  1.7198 -1.3628  1.0880
 2128SOL     OW18019   0.923   1.020   2.434  0.8193 -0.0739  0.2829
 2128SOL    HW118020   0.879   0.950   2.385 -0.4603  0.3834  0.7835
 2128SOL    HW218021   0.973   0.971   2.499 -0.0432 -1.1081  0.1723
 2129SOL     OW18022   4.197   1.955   3.876  0.9183  0.1172 -0.0809
 2129SOL    HW118023   4.156   1.869   3.878  0.3992  0.3796  0.7544
 2129SOL    HW218024   4.133   2.002   3.931  0.5659 -1.2585  0.6861
 2130SOL     OW18025   1.835   2.364   6.429  0.2195  0.3088 -0.0029
 2130SOL    HW118026   1.799   2.337   6.513 -2.4074  1.0803 -0.8969
 2130SOL    HW218027   1.870   2.279   6.402  2.5278  1.1378  0.3011
 2131SOL     OW18028   4.388   0.855   9.050  0.8379  0.3696 -0.2026
 2131SOL    HW118029   4.469   0.894   9.018  1.8372  0.1558  2.0745
 2131SOL    HW218030   4.349   0.920   9.108  0.0432  0.3811 -0.7487
 2132SOL     OW18031   3.357   4.353   8.596  0.0459 -0.5369 -0.3534
 2132SOL    HW118032   3.423   4.293   8.562  1.3343  0.7431 -0.0844
 2132SOL    HW218033   3.334   4.300   8.673 -1.8398 -0.9344 -1.1861
 2133SOL     OW18034   4.712   4.402   4.477  0.0615 -0.4439  0.0220
 2133SOL    HW118035   0.050   4.347   4.508 -1.4727 -1.4342  1.8161
 2133SOL    HW218036   0.001   4.483   4.520 -0.6665 -0.6827  0.8629
 2134SOL     OW18037   4.720   3.196   9.953  0.5750 -0.2053 -0.0270
 2134SOL    HW118038   4.625   3.205   9.955  0.7801  1.0844  3.2079
 2134SOL    HW218039   0.011   3.270  10.008  2.3978  0.2619 -1.4794
 2135SOL     OW18040   0.666   0.056   2.485  0.2764 -0.5917 -0.0568
 2135SOL    HW118041   0.634   4.714   2.436 -0.9619  0.6258 -1.1336
 2135SOL    HW218042   0.746   0.074   2.436 -0.8692  0.9574 -1.3664
 2136SOL     OW18043   1.550   2.903  12.852  0.0580  0.4776  0.3926
 2136SOL    HW118044   1.593   2.874  12.932 -0.5314 -1.1767  0.1226
 2136SOL    HW218045   1.624   2.943  12.806 -0.0199  2.3284  1.9117
 2137SOL     OW18046   0.317   2.512  11.275  0.4362  0.5125  0.0743
 2137SOL    HW118047   0.251   2.445  11.262 -0.0896  0.8541  1.0266
 2137SOL    HW218048   0.340   2.517  11.182 -0.9886 -0.5159 -0.3246
 2138SOL     OW18049   0.272   3.041   5.549  0.4933  0.1865  0.1844
 2138SOL    HW118050   0.256   2.990   5.628  0.6138 -0.9023 -0.4946
 2138SOL    HW218051   0.242   3.130   5.570  1.5138  0.9799 -1.7301
 2139SOL     OW18052   2.860   0.109   3.610  0.3724  0.1219 -0.1253
 2139SOL    HW118053   2.949   0.079   3.592  0.7259  0.5732  0.8557
 2139SOL    HW218054   2.848   0.171   3.538  1.5603  0.4093 -0.0760
 2140SOL     OW18055   1.251   1.245  12.815  0.1041 -0.0473  0.6274
 2140SOL    HW118056   1.212   1.178  12.872 -2.5531 -2.1013 -3.6133
 2140SOL    HW218057   1.176   1.294  12.781  0.1067  1.7922  3.2742
 2141SOL     OW18058   1.520   3.861   7.170  0.9840  0.1263  0.0691
 2141SOL    HW118059   1.585   3.910   7.221 -0.7633  1.7570  0.7512
 2141SOL    HW218060   1.495   3.936   7.116  1.1831 -0.8709 -1.3943
 2142SOL     OW18061   0.536   0.890   7.170 -0.1189  0.3095  0.2771
 2142SOL    HW118062   0.575   0.883   7.257 -1.7618 -1.6359  0.8528
 2142SOL    HW218063   0.589   0.956   7.126 -1.3085 -0.1086 -1.7799
 2143SOL     OW18064   2.097   0.261  10.372  0.2313 -0.3436 -0.1482
 2143SOL    HW118065   2.151   0.185  10.392  1.9277  1.1344  0.8783
 2143SOL    HW218066   2.049   0.222  10.299  0.3718 -2.0902  0.6931
 2144SOL     OW18067   0.006   3.333  16.427 -0.0757  0.1866  0.1501
 2144SOL    HW118068   0.096   3.301  16.420  0.1041  0.4343  1.2922
 2144SOL    HW218069   4.692   3.259  16.388  1.5419 -0.9944  0.4150
 2145SOL     OW18070   2.841   3.036   9.038  0.7012  0.0489 -0.5637
 2145SOL    HW118071   2.903   3.095   8.995  1.7918  0.7059  1.8745
 2145SOL    HW218072   2.907   3.006   9.101 -1.0632 -0.4955  1.0135
 2146SOL     OW18073   2.724   0.575   3.052  0.5535  0.4190 -0.5719
 2146SOL    HW118074   2.709   0.505   3.116  0.3301  1.4167  0.4763
 2146SOL    HW218075   2.733   0.651   3.110  0.2465  1.0350 -1.3412
 2147SOL     OW18076   1.046   2.769   4.574  0.1348 -0.2517 -0.5123
 2147SOL    HW118077   1.105   2.765   4.499 -0.0490  2.5363 -0.8013
 2147SOL    HW218078   0.984   2.837   4.548 -2.3383 -1.6064  1.8814
 2148SOL     OW18079   4.271   4.606   4.428  0.2461  0.1615 -0.1265
 2148SOL    HW118080   4.316   4.679   4.471 -0.5625  0.9851 -0.6710
 2148SOL    HW218081   4.338   4.538   4.433  0.0400 -0.0044  0.4073
 2149SOL     OW18082   2.618   1.629  10.859  0.0210 -0.0773 -0.6232
 2149SOL    HW118083   2.605   1.718  10.825  0.8035  0.3227  0.1077
 2149SOL    HW218084   2.545   1.615  10.919  1.8812 -2.7575  1.0131
 2150SOL     OW18085   2.986   4.099   1.023  0.0956  0.4811 -0.2210
 2150SOL    HW118086   3.016   4.176   1.072  3.3887 -0.0988 -1.3212
 2150SOL    HW218087   2.893   4.084   1.039  0.1183  0.5553 -0.0158
 2151SOL     OW18088   3.085   3.965   6.787  0.4049 -0.8872 -0.5939
 2151SOL    HW118089   2.995   3.998   6.781 -0.5284 -3.3819 -0.2418
 2151SOL    HW218090   3.107   4.032   6.853 -0.5118 -2.2023  1.0383
 2152SOL     OW18091   3.058   1.637   4.305 -0.3717  0.4050  0.5035
 2152SOL    HW118092   3.028   1.727   4.309  2.1878  1.2144  1.1617
 2152SOL    HW218093   3.127   1.648   4.371  0.5668 -0.0135 -0.4129
 2153SOL     OW18094   1.216   4.038   4.734 -0.5303 -0.3025  0.1942
 2153SOL    HW118095   1.257   4.122   4.715 -1.4617  0.5209  1.8208
 2153SOL    HW218096   1.279   3.982   4.780  0.8129 -0.1095 -1.4199
 2154SOL     OW18097   4.578   4.681   0.374 -0.3099  0.0872 -0.3218
 2154SOL    HW118098   4.581   4.608   0.311 -0.4346 -0.7527  0.6456
 2154SOL    HW218099   4.644   0.007   0.341 -0.3992 -0.3275 -1.2546
 2155SOL     OW18100   4.512   2.160  12.035 -0.1333  0.0290 -0.3624
 2155SOL    HW118101   4.531   2.246  12.074  1.4810 -0.9138  0.8977
 2155SOL    HW218102   4.457   2.189  11.962  0.6289 -0.6394 -1.2058
 2156SOL     OW18103   2.598   4.710   5.765 -0.0072  0.3360 -0.5453
 2156SOL    HW118104   2.504   4.709   5.782 -0.1250 -0.9530 -1.2971
 2156SOL    HW218105   2.621   4.617   5.766 -0.4775  0.2254  0.0781
 2157SOL     OW18106   3.681   4.711   7.636  0.2314 -0.5347 -0.0729
 2157SOL    HW118107   3.636   4.628   7.650 -0.0465 -0.9941 -3.6321
 2157SOL    HW218108   3.656   4.728   7.545 -2.1833  0.4097  0.7658
 2158SOL     OW18109   3.551   4.402  12.002  0.6033 -0.1499 -0.1299
 2158SOL    HW118110   3.643   4.387  11.979  0.7348 -1.1017  1.0262
 2158SOL    HW218111   3.542   4.493  11.972 -0.4626 -0.0911  0.3642
 2159SOL     OW18112   4.617   2.139   4.412 -0.8868 -0.1083 -0.0040
 2159SOL    HW118113   4.584   2.216   4.367  2.1997 -0.2876 -2.5917
 2159SOL    HW218114   4.594   2.150   4.504 -1.0450  0.7305 -0.1498
 2160SOL     OW18115   0.137   2.292   7.748 -0.2261 -0.0119 -0.0665
 2160SOL    HW118116   0.232   2.295   7.751 -0.2579  2.5644 -1.1198
 2160SOL    HW218117   0.120   2.270   7.657 -0.6646 -2.2996  0.5763
 2161SOL     OW18118   2.632   3.046   7.741 -0.4109  0.0785 -0.3100
 2161SOL    HW118119   2.676   3.129   7.724 -0.6411 -0.0411 -1.4400
 2161SOL    HW218120   2.707   2.995   7.773  0.3881  0.5370 -1.4506
 2162SOL     OW18121   3.550   0.298   8.710 -0.0159  0.2544 -0.0360
 2162SOL    HW118122   3.645   0.304   8.720  0.1463 -1.2617 -0.6326
 2162SOL    HW218123   3.540   0.292   8.615  0.6951 -1.0770 -0.0336
 2163SOL     OW18124   1.850   0.045   8.185 -0.1762  0.0391 -0.9732
 2163SOL    HW118125   1.816   4.701   8.140 -1.4026  0.2358 -0.4028
 2163SOL    HW218126   1.913   0.013   8.249 -3.6090  1.1111  2.9286
 2164SOL     OW18127   3.049   1.099   8.959 -0.3518  0.2383  0.1932
 2164SOL    HW118128   2.978   1.038   8.941 -1.1070  1.4071 -0.7830
 2164SOL    HW218129   3.125   1.044   8.977  0.0962  0.0581 -2.2974
 2165SOL     OW18130   3.890   1.725   8.682  0.2001  0.4790 -0.2143
 2165SOL    HW118131   3.962   1.679   8.726  0.8162 -0.1798 -1.8949
 2165SOL    HW218132   3.857   1.654   8.627  0.1836  1.0227 -0.9136
 2166SOL     OW18133   0.905   2.857   2.656  0.2940  0.1720 -0.0757
 2166SOL    HW118134   0.943   2.862   2.568  0.9708 -0.9544  0.1484
 2166SOL    HW218135   0.877   2.947   2.673  2.3436  0.7373  0.3158
 2167SOL     OW18136   1.483   3.313  16.449  0.5084  0.0591 -0.6137
 2167SOL    HW118137   1.532   3.374  16.504 -1.9180  0.7478  0.7420
 2167SOL    HW218138   1.479   3.365  16.369 -0.3688 -0.1752 -0.7214
 2168SOL     OW18139   4.039   3.136  17.693  0.0126 -0.0526 -0.1287
 2168SOL    HW118140   3.949   3.157  17.668  0.8958  2.2151 -1.3505
 2168SOL    HW218141   4.034   3.162   0.050 -0.0370  0.5129 -0.2936
 2169SOL     OW18142   2.832   0.124   3.903 -0.2397  0.2818 -0.5755
 2169SOL    HW118143   2.923   0.100   3.922 -0.0531  0.3790 -1.3200
 2169SOL    HW218144   2.841   0.150   3.811  4.3219  0.8090 -0.0131
 2170SOL     OW18145   0.777   0.773  11.436 -0.2212 -0.6268  0.6804
 2170SOL    HW118146   0.867   0.798  11.455 -0.4804 -0.7081  2.0228
 2170SOL    HW218147   0.750   0.764  11.527  1.5184  2.8120  1.5403
 2171SOL     OW18148   1.417   0.301   3.163  0.0412  0.6682  0.4937
 2171SOL    HW118149   1.413   0.214   3.204 -1.1091  0.3376 -0.3253
 2171SOL    HW218150   1.510   0.316   3.180 -0.2950  2.9703  0.2545
 2172SOL     OW18151   4.083   0.157   7.781 -0.5669  0.3251  0.0609
 2172SOL    HW118152   4.137   0.236   7.783 -0.7330  0.4667 -0.8194
 2172SOL    HW218153   4.037   0.169   7.864 -2.4492  0.3212 -0.9847
 2173SOL     OW18154   0.422   2.251   7.771  0.9718 -0.0047 -0.3539
 2173SOL    HW118155   0.493   2.194   7.742  1.1240 -0.1541  0.2946
 2173SOL    HW218156   0.461   2.281   7.854  0.1381 -0.3173  0.1507
 2174SOL     OW18157   1.959   0.947   5.776  0.4214 -0.0712 -0.5481
 2174SOL    HW118158   2.020   0.884   5.737  0.2967 -1.6372  1.7503
 2174SOL    HW218159   1.987   1.035   5.751  1.0226 -0.2357 -0.4483
 2175SOL     OW18160   1.154   4.063   6.055  0.5157  0.3493  0.2039
 2175SOL    HW118161   1.203   4.115   5.991  1.2997  0.5567  0.9702
 2175SOL    HW218162   1.098   4.003   6.005  0.1405 -0.3585  1.4926
 2176SOL     OW18163   1.119   3.021   3.709 -1.0805 -0.4942 -0.3223
 2176SOL    HW118164   1.039   3.072   3.726  0.5782  1.7689  0.6380
 2176SOL    HW218165   1.096   2.987   3.622 -1.9901  0.2684 -0.3872
 2177SOL     OW18166   3.972   0.859   3.067  0.4525  0.0203  0.2406
 2177SOL    HW118167   3.975   0.953   3.087  0.7053  0.5642 -2.3512
 2177SOL    HW218168   3.979   0.812   3.150 -0.8277 -0.4351  0.0932
 2178SOL     OW18169   1.669   3.744   4.739 -0.3341 -0.4607 -0.1268
 2178SOL    HW118170   1.619   3.818   4.704 -0.6866 -0.5191  0.2519
 2178SOL    HW218171   1.704   3.699   4.662  0.5271 -1.3305  0.7611
 2179SOL     OW18172   2.270   0.379   6.715 -0.2268 -0.7824 -0.6157
 2179SOL    HW118173   2.212   0.312   6.680 -0.3611  0.3255 -2.4866
 2179SOL    HW218174   2.313   0.328   6.784  1.9825 -0.8836 -2.0925
 2180SOL     OW18175   4.545   2.597  17.370 -0.5655  0.1761 -0.4393
 2180SOL    HW118176   4.607   2.647  17.317 -0.9784  0.9679 -0.1815
 2180SOL    HW218177   4.591   2.520  17.404  1.1129  1.3757 -0.0232
 2181SOL     OW18178   1.531   1.620   5.762 -0.2287 -0.5264 -0.2624
 2181SOL    HW118179   1.475   1.593   5.834 -0.1957  1.0804  0.3670
 2181SOL    HW218180   1.514   1.713   5.777  0.1741 -0.5224  0.1787
 2182SOL     OW18181   0.953   0.285   6.015  0.3970  0.0295  0.1575
 2182SOL    HW118182   0.982   0.373   6.040 -1.1556  0.7098 -0.4164
 2182SOL    HW218183   0.951   0.294   5.919  4.1213 -0.3602  0.0294
 2183SOL     OW18184   1.772   0.962  12.458  0.0388 -0.0462 -0.6033
 2183SOL    HW118185   1.814   1.045  12.479 -0.9489  0.3294 -0.1018
 2183SOL    HW218186   1.680   0.987  12.465  0.5855  1.8655 -0.3878
 2184SOL     OW18187   2.994   2.035   6.409  0.3864 -0.2273  0.2926
 2184SOL    HW118188   2.964   2.075   6.327  0.2277  0.6839  0.7930
 2184SOL    HW218189   2.916   1.981   6.424 -0.3772  0.2233 -1.9697
 2185SOL     OW18190   4.038   4.016   0.960  0.4194  0.0489 -0.2387
 2185SOL    HW118191   3.997   4.028   0.874  3.0283  0.6064 -1.4028
 2185SOL    HW218192   4.014   3.927   0.985 -2.3092  0.8135 -0.1003
 2186SOL     OW18193   2.292   4.517  17.040 -0.6635  0.0278 -0.5464
 2186SOL    HW118194   2.291   4.573  17.117 -0.4747 -0.1055 -0.4468
 2186SOL    HW218195   2.198   4.496  17.046 -0.5421 -0.7134 -1.1948
 2187SOL     OW18196   1.836   0.159   8.828  0.0185 -0.0176 -0.1122
 2187SOL    HW118197   1.859   0.173   8.737 -1.9804  2.1908 -0.2873
 2187SOL    HW218198   1.884   0.232   8.867  1.8899 -1.5381  0.4151
 2188SOL     OW18199   0.698   2.566   4.582 -0.6455  0.0752 -0.1597
 2188SOL    HW118200   0.644   2.524   4.649 -1.3480 -0.0752 -0.8165
 2188SOL    HW218201   0.698   2.492   4.520 -2.7395  0.9463 -1.2168
 2189SOL     OW18202   3.802   4.710   9.415 -0.0140 -0.1488  0.4066
 2189SOL    HW118203   3.840   0.017   9.492  2.0403  0.9130 -1.1515
 2189SOL    HW218204   3.849   4.626   9.413 -0.3025 -0.3095  0.3662
 2190SOL     OW18205   1.026   0.491  11.499  0.3777 -0.0116 -0.1827
 2190SOL    HW118206   1.117   0.467  11.483  1.1519 -0.0378  4.4890
 2190SOL    HW218207   1.035   0.578  11.538  0.2029  0.6195 -1.5277
 2191SOL     OW18208   2.656   2.482   8.218 -0.4257  0.1822 -0.1804
 2191SOL    HW118209   2.747   2.455   8.205 -0.3210  0.5758 -0.2687
 2191SOL    HW218210   2.668   2.542   8.292  0.5935  0.2323 -0.3805
 2192SOL     OW18211   3.532   1.963   2.116  0.2715  0.2258 -0.2528
 2192SOL    HW118212   3.500   2.043   2.075  0.0531  0.7996  1.0249
 2192SOL    HW218213   3.453   1.913   2.139 -0.5789  1.7743  0.1696
 2193SOL     OW18214   4.516   2.029   8.852 -0.0458 -0.2207 -0.2150
 2193SOL    HW118215   4.421   2.038   8.845 -0.1630  0.6746  2.6547
 2193SOL    HW218216   4.545   2.087   8.923  1.0585 -1.3642  0.2624
 2194SOL     OW18217   3.412   3.035  16.963  0.3079 -0.5728 -1.3007
 2194SOL    HW118218   3.390   3.107  17.022 -0.8190 -0.3138 -2.0320
 2194SOL    HW218219   3.429   3.084  16.882 -1.8918  2.1042 -0.1553
 2195SOL     OW18220   0.930   1.900   8.104  0.5702  0.0199 -0.1379
 2195SOL    HW118221   0.857   1.871   8.158  0.6435 -0.6491 -0.3938
 2195SOL    HW218222   0.937   1.842   8.027  1.0004 -0.8339  0.5472
 2196SOL     OW18223   2.312   3.876   8.287  0.3496 -0.5191  0.5080
 2196SOL    HW118224   2.353   3.815   8.348  1.4395 -0.0292  0.2607
 2196SOL    HW218225   2.235   3.894   8.341 -0.8083  0.0231 -1.3431
 2197SOL     OW18226   3.950   4.726   1.667  0.3131  0.0016  0.4800
 2197SOL    HW118227   3.954   0.087   1.656  1.5090  0.1937  2.6292
 2197SOL    HW218228   3.865   4.714   1.708 -0.8019  2.4946 -1.1112
 2198SOL     OW18229   0.931   1.966  12.380 -0.5761  0.2396  0.3477
 2198SOL    HW118230   0.945   2.025  12.454  2.1423 -0.4601  0.3640
 2198SOL    HW218231   1.017   1.949  12.344 -0.6973  0.2399  0.0590
 2199SOL     OW18232   4.677   2.773   5.122 -0.4851 -0.4370  0.3901
 2199SOL    HW118233   4.729   2.812   5.192 -2.0021  0.7177  0.8936
 2199SOL    HW218234   4.660   2.688   5.164 -1.1681  0.4897  1.9897
 2200SOL     OW18235   4.537   0.943   5.979 -0.7695 -0.5424 -0.1353
 2200SOL    HW118236   4.443   0.922   5.975 -0.7375 -0.6389 -0.3855
 2200SOL    HW218237   4.578   0.916   5.896 -0.1764 -0.1570  0.0372
 2201SOL     OW18238   3.831   1.466  15.213  0.2969  0.6030  0.5639
 2201SOL    HW118239   3.894   1.537  15.209  2.7112 -1.4824  1.2195
 2201SOL    HW218240   3.893   1.395  15.200 -0.3557 -0.4178  2.8986
 2202SOL     OW18241   1.928   4.375  13.673  0.5133  0.6462  0.3829
 2202SOL    HW118242   1.959   4.424  13.749  3.1063 -3.6731  2.1240
 2202SOL    HW218243   1.835   4.365  13.692  0.6687 -0.5890  0.4721
 2203SOL     OW18244   0.162   2.912   6.057  0.1787 -0.2274  0.2116
 2203SOL    HW118245   0.131   2.930   5.969 -0.9241 -0.8114  0.4749
 2203SOL    HW218246   0.200   2.827   6.036  0.8632 -0.1231  1.0290
 2204SOL     OW18247   3.809   1.298  12.162 -0.8290  0.1040  0.2411
 2204SOL    HW118248   3.809   1.286  12.257  2.3034 -3.1269 -0.1677
 2204SOL    HW218249   3.901   1.281  12.140 -0.7686 -0.0709  0.6202
 2205SOL     OW18250   2.681   0.105  11.447 -0.0199  0.7421 -1.0152
 2205SOL    HW118251   2.729   0.084  11.527  0.5053  1.6703 -1.0912
 2205SOL    HW218252   2.622   0.030  11.437 -0.3244  0.7750  0.5445
 2206SOL     OW18253   0.810   0.486  15.835 -0.1074 -0.3408  0.0379
 2206SOL    HW118254   0.796   0.580  15.848  0.3622 -0.0877 -1.2948
 2206SOL    HW218255   0.721   0.452  15.847 -0.5403  0.7237 -0.1150
 2207SOL     OW18256   2.910   0.131   5.206  0.4449  0.0651  0.5652
 2207SOL    HW118257   2.980   0.103   5.147  0.4160  0.7115  0.2280
 2207SOL    HW218258   2.950   0.101   5.288  2.0464  0.7840  0.0520
 2208SOL     OW18259   0.890   1.451   8.019  0.0803 -0.6651 -0.1635
 2208SOL    HW118260   0.862   1.528   7.971 -0.1556 -0.5676  0.1282
 2208SOL    HW218261   0.927   1.386   7.959  0.2018 -1.7617  1.0731
 2209SOL     OW18262   1.227   2.555   5.710 -0.6845 -0.1142 -0.2845
 2209SOL    HW118263   1.218   2.650   5.702  0.0281 -0.1264 -1.3682
 2209SOL    HW218264   1.214   2.543   5.804 -1.6735  1.0137 -0.2830
 2210SOL     OW18265   4.574   4.161   3.694 -0.0334  0.5898  0.6330
 2210SOL    HW118266   4.624   4.235   3.659  0.7974 -0.3772 -0.2399
 2210SOL    HW218267   4.502   4.150   3.631  0.5042 -0.3949  0.1856
 2211SOL     OW18268   2.026   3.876   7.606  0.4734 -0.3504  0.4049
 2211SOL    HW118269   1.994   3.913   7.688  0.0629 -1.1651  0.6098
 2211SOL    HW218270   1.953   3.866   7.545 -0.6055  2.8306  1.1640
 2212SOL     OW18271   3.370   1.858   8.968  0.1907 -0.0868 -0.3819
 2212SOL    HW118272   3.438   1.829   8.907 -0.4985 -0.0594 -1.1696
 2212SOL    HW218273   3.303   1.791   8.955  0.3474  0.0054 -1.6722
 2213SOL     OW18274   2.052   4.204  12.685  0.2201 -0.1198  0.1050
 2213SOL    HW118275   2.113   4.135  12.658 -2.4755 -2.5512  0.2494
 2213SOL    HW218276   1.987   4.147  12.726  0.0345  1.2123  1.6474
 2214SOL     OW18277   4.124   1.015   3.392  0.6169 -0.3969  0.0998
 2214SOL    HW118278   4.156   0.991   3.479  0.1056 -1.2164  0.0559
 2214SOL    HW218279   4.178   0.961   3.334 -2.4839 -1.7947 -1.5205
 2215SOL     OW18280   2.185   1.478  14.029  0.1936  0.8773 -0.4648
 2215SOL    HW118281   2.103   1.428  14.030  0.3353  0.6895  2.1601
 2215SOL    HW218282   2.178   1.548  14.095  0.4873  0.5014 -0.0374
 2216SOL     OW18283   0.802   1.020  13.484  0.1923 -0.2808 -0.4485
 2216SOL    HW118284   0.713   1.035  13.516  0.0961 -1.2797 -0.2214
 2216SOL    HW218285   0.792   0.966  13.406 -2.4027  0.6022 -0.7010
 2217SOL     OW18286   2.362   1.547   0.258  0.4251  0.0663  0.1467
 2217SOL    HW118287   2.299   1.476   0.240  0.8002 -0.6025  1.4952
 2217SOL    HW218288   2.359   1.601   0.179  0.1827 -0.2337 -0.0541
 2218SOL     OW18289   0.382   0.213   3.783  0.4754  0.2608 -0.1675
 2218SOL    HW118290   0.458   0.221   3.725  0.1825 -0.3535 -0.6396
 2218SOL    HW218291   0.344   0.130   3.752 -2.0191  1.4915 -0.3495
 2219SOL     OW18292   1.122   2.317  14.794  0.5929  0.6220  0.0116
 2219SOL    HW118293   1.188   2.258  14.830  2.2766  0.2169 -3.7301
 2219SOL    HW218294   1.101   2.278  14.709 -0.2757 -0.4795  0.7345
 2220SOL     OW18295   4.119   2.204   2.004  0.5260  0.0271  0.0218
 2220SOL    HW118296   4.211   2.203   2.030  0.3952  0.0796  0.4848
 2220SOL    HW218297   4.098   2.114   1.978  1.3557 -0.5406  1.3273
 2221SOL     OW18298   3.026   2.963   6.086  0.2502 -0.7715  0.0809
 2221SOL    HW118299   3.099   2.941   6.029 -1.4454 -0.8377 -2.0471
 2221SOL    HW218300   2.985   3.040   6.046 -0.3133 -0.5001  1.1605
 2222SOL     OW18301   2.511   1.347   8.606  0.1822  0.7422  0.0789
 2222SOL    HW118302   2.427   1.326   8.648 -1.2188  0.3101 -2.9500
 2222SOL    HW218303   2.515   1.441   8.623  0.0892  0.8009 -0.2296
 2223SOL     OW18304   1.452   4.032   8.805 -0.0439  0.2766 -0.2565
 2223SOL    HW118305   1.377   3.996   8.852  0.6099  2.0620  2.1126
 2223SOL    HW218306   1.498   3.952   8.779 -3.1825 -1.0523 -1.6663
 2224SOL     OW18307   2.732   2.956  10.124 -0.0428  0.7051  0.0820
 2224SOL    HW118308   2.643   2.955  10.088  0.1769  1.2105 -0.4726
 2224SOL    HW218309   2.780   2.955  10.041  0.8991  0.6797  0.6242
 2225SOL     OW18310   0.016   4.234   2.866  0.6540  0.2512 -0.0038
 2225SOL    HW118311   0.036   4.152   2.910 -0.0411  1.0233  1.7619
 2225SOL    HW218312   4.665   4.207   2.832  1.6731  0.7912 -2.9945
 2226SOL     OW18313   0.298   3.849   1.786  0.0078  0.1573 -0.9836
 2226SOL    HW118314   0.372   3.793   1.806  0.4419  1.1823  0.3004
 2226SOL    HW218315   0.244   3.793   1.731  0.2315 -2.1798  1.2033
 2227SOL     OW18316   2.659   3.466   8.493 -0.2353  0.9020  0.0045
 2227SOL    HW118317   2.588   3.403   8.484  0.2392  0.3084  0.3579
 2227SOL    HW218318   2.736   3.412   8.477 -1.8698 -1.1667 -0.8194
 2228SOL     OW18319   3.599   1.563   3.299 -0.3882  0.1561 -0.0811
 2228SOL    HW118320   3.575   1.538   3.389  2.8361 -1.4341  0.3289
 2228SOL    HW218321   3.694   1.563   3.304 -0.3595  0.7555 -0.6024
 2229SOL     OW18322   3.965   4.158   5.065  0.0259  0.7053 -0.3315
 2229SOL    HW118323   3.873   4.144   5.042  0.2698  0.4208 -1.1112
 2229SOL    HW218324   3.980   4.083   5.121 -1.1509 -0.4301 -1.5423
 2230SOL     OW18325   1.641   1.095   5.854 -0.1085 -0.0055  0.1006
 2230SOL    HW118326   1.607   1.126   5.938 -1.2694  1.9650 -1.1010
 2230SOL    HW218327   1.671   1.178   5.819 -0.8173  0.3747  0.3816
 2231SOL     OW18328   3.715   4.709   5.740  0.0411 -0.0918  0.1989
 2231SOL    HW118329   3.714   0.001   5.648 -1.1670  0.8481  0.4905
 2231SOL    HW218330   3.806   4.688   5.764  0.8239  0.9388 -1.8671
 2232SOL     OW18331   2.719   2.054   8.928 -0.2879 -0.6986 -0.3570
 2232SOL    HW118332   2.663   2.129   8.905  2.9756  1.9056  0.1512
 2232SOL    HW218333   2.711   2.051   9.023  2.3978 -0.5640 -0.1220
 2233SOL     OW18334   0.617   1.277  11.318 -0.0926 -0.2578 -0.3468
 2233SOL    HW118335   0.543   1.338  11.325 -0.0396 -0.4474  1.9384
 2233SOL    HW218336   0.686   1.333  11.282  2.5396 -3.6569 -0.5612
 2234SOL     OW18337   2.425   0.379   4.754  0.4651  0.0122  0.0008
 2234SOL    HW118338   2.354   0.372   4.818  0.6581 -2.7333 -0.0758
 2234SOL    HW218339   2.495   0.395   4.818  1.6948 -2.5844 -0.6643
 2235SOL     OW18340   3.893   1.755  16.590 -0.0600  0.1109  0.4920
 2235SOL    HW118341   3.961   1.794  16.535  1.2211  1.4961  3.0652
 2235SOL    HW218342   3.810   1.755  16.542 -0.3179 -2.1327  0.8986
 2236SOL     OW18343   2.585   3.973   3.624 -0.3316  0.3815 -0.1465
 2236SOL    HW118344   2.628   3.917   3.689  0.0642  1.8070  0.8133
 2236SOL    HW218345   2.551   4.042   3.681 -0.3829 -0.0724  0.3677
 2237SOL     OW18346   2.952   2.256   2.895 -0.5128  0.1315  0.1028
 2237SOL    HW118347   2.886   2.263   2.964  0.9729  1.1395  1.3882
 2237SOL    HW218348   3.025   2.296   2.942  0.4928 -0.6687 -0.7710
 2238SOL     OW18349   1.010   0.460   6.794  0.3309 -0.2434  0.3351
 2238SOL    HW118350   1.039   0.369   6.781  0.7032  0.1556 -1.6301
 2238SOL    HW218351   0.944   0.468   6.724 -0.9767 -1.3697  1.4295
 2239SOL     OW18352   0.348   3.600   5.699  0.1837  0.2495 -0.1118
 2239SOL    HW118353   0.423   3.576   5.754 -1.0502  0.2268  1.5457
 2239SOL    HW218354   0.319   3.512   5.676 -1.6109  0.3229  1.8620
 2240SOL     OW18355   2.176   0.602   3.855  0.4176 -0.3824 -0.3983
 2240SOL    HW118356   2.082   0.588   3.850  0.3532 -0.8372  2.1291
 2240SOL    HW218357   2.186   0.652   3.774  0.7522  0.7275  0.3269
 2241SOL     OW18358   3.511   4.480   5.431 -0.3524  0.5679 -0.3245
 2241SOL    HW118359   3.571   4.501   5.359  0.2779 -1.3208 -0.3581
 2241SOL    HW218360   3.500   4.387   5.411  3.0988  0.0660  0.1556
 2242SOL     OW18361   1.951   2.526   6.667  0.1212  0.3443  1.0185
 2242SOL    HW118362   2.009   2.538   6.742 -0.3120 -1.9626  1.7170
 2242SOL    HW218363   1.932   2.617   6.645  0.4560  0.4749  1.2721
 2243SOL     OW18364   4.595   2.147   9.097  0.4516 -0.5932  0.2192
 2243SOL    HW118365   4.645   2.082   9.147  0.8134 -0.3546  0.1717
 2243SOL    HW218366   4.507   2.145   9.135  0.7288  1.5750  0.9341
 2244SOL     OW18367   0.533   4.667   4.753  0.6360  0.0225 -0.3848
 2244SOL    HW118368   0.558   4.595   4.697 -1.3491  0.3304 -1.6857
 2244SOL    HW218369   0.613   4.711   4.780  0.8878 -1.1614  0.8015
 2245SOL     OW18370   1.175   0.334   3.018 -0.2114  0.4566  0.2104
 2245SOL    HW118371   1.117   0.374   3.083  0.1517 -2.0667  2.1020
 2245SOL    HW218372   1.254   0.320   3.071 -0.8422 -2.0364  0.4998
 2246SOL     OW18373   1.829   0.446   3.428 -0.1175  0.9162 -0.4888
 2246SOL    HW118374   1.810   0.352   3.420 -1.6641  1.4080 -2.4139
 2246SOL    HW218375   1.749   0.478   3.470 -0.2598  0.9574 -0.7899
 2247SOL     OW18376   0.298   2.612   6.505 -0.4815  0.4883 -0.3035
 2247SOL    HW118377   0.227   2.644   6.561  1.2931  0.2891  2.0694
 2247SOL    HW218378   0.375   2.637   6.556 -0.8196 -0.8958  0.8928
 2248SOL     OW18379   3.625   2.745   8.817  0.1880  0.6839  0.2581
 2248SOL    HW118380   3.562   2.691   8.864 -0.8230  2.2124  0.6591
 2248SOL    HW218381   3.670   2.790   8.889  2.5201 -2.5443  0.8022
 2249SOL     OW18382   2.877   1.074   1.140 -0.3918 -0.1820 -0.0739
 2249SOL    HW118383   2.871   1.025   1.058  0.7450  0.0652 -0.3126
 2249SOL    HW218384   2.922   1.000   1.181 -1.6766 -0.3562  1.0100
 2250SOL     OW18385   2.656   3.024   5.256 -0.3818  0.4295  0.6466
 2250SOL    HW118386   2.724   3.052   5.318  0.0822  0.6698  0.0331
 2250SOL    HW218387   2.666   3.096   5.194 -1.0467 -1.6271 -1.8361
 2251SOL     OW18388   1.171   0.518   3.924 -0.0951  0.2093 -0.6583
 2251SOL    HW118389   1.161   0.612   3.909 -0.6570  0.1714 -0.5447
 2251SOL    HW218390   1.084   0.483   3.902  0.5006  0.1276 -2.8413
 2252SOL     OW18391   0.533   1.005   3.794  0.4963  0.0545 -0.2249
 2252SOL    HW118392   0.484   0.999   3.712  0.2975  1.0286 -0.1748
 2252SOL    HW218393   0.473   1.058   3.846  0.5222 -0.5988  0.4632
 2253SOL     OW18394   0.804   4.088   9.530  0.4768  0.0777 -0.2522
 2253SOL    HW118395   0.878   4.054   9.580  0.4045  1.7709  1.0233
 2253SOL    HW218396   0.763   4.010   9.492  1.2616 -0.4301 -0.0543
 2254SOL     OW18397   0.970   2.567  11.229 -0.2733 -0.1141  0.1841
 2254SOL    HW118398   0.973   2.549  11.135 -0.7947  1.4531 -0.1170
 2254SOL    HW218399   1.013   2.490  11.268  2.8033  0.8977 -1.2372
 2255SOL     OW18400   3.225   2.299   5.613 -0.1415 -0.7470  0.7889
 2255SOL    HW118401   3.238   2.218   5.663 -0.6529 -1.5019 -0.3207
 2255SOL    HW218402   3.209   2.361   5.684  0.6058  0.5500 -0.1810
 2256SOL     OW18403   2.188   1.329   1.192  0.2643 -0.4960  0.2973
 2256SOL    HW118404   2.265   1.382   1.212 -0.5642  0.9911 -0.4989
 2256SOL    HW218405   2.229   1.243   1.183 -1.4431 -1.4010  1.0266
 2257SOL     OW18406   1.991   0.370   8.909 -0.3568 -0.5190 -0.1077
 2257SOL    HW118407   2.004   0.397   9.000 -0.6686 -0.1410 -0.1745
 2257SOL    HW218408   2.076   0.379   8.867 -0.2371  0.6298  0.3810
 2258SOL     OW18409   1.856   4.526   2.409 -0.0964  0.0051 -0.7119
 2258SOL    HW118410   1.932   4.469   2.400 -0.2776 -0.0880 -1.7080
 2258SOL    HW218411   1.808   4.501   2.330  2.1584 -2.5090 -1.2801
 2259SOL     OW18412   4.457   3.831   2.199  0.1392 -0.5811  0.2840
 2259SOL    HW118413   4.407   3.838   2.118  1.5830 -0.3062 -0.5763
 2259SOL    HW218414   4.547   3.833   2.167 -0.3170 -0.1796 -0.9519
 2260SOL     OW18415   0.934   2.445   5.599 -0.5223  0.4050 -0.1617
 2260SOL    HW118416   1.004   2.387   5.571 -0.4176 -0.2587  1.4945
 2260SOL    HW218417   0.974   2.532   5.602  0.7256 -0.1413 -1.1429
 2261SOL     OW18418   0.978   0.539   2.798  0.7987 -0.1435 -0.3205
 2261SOL    HW118419   1.028   0.606   2.845  0.4248  0.3887 -0.6863
 2261SOL    HW218420   0.989   0.553   2.704  0.4626  2.2079 -0.0016
 2262SOL     OW18421   3.575   3.778   6.241  0.4622  0.4749 -0.1589
 2262SOL    HW118422   3.530   3.845   6.292 -1.2594 -1.2468  0.5778
 2262SOL    HW218423   3.506   3.715   6.223  1.2199  0.2136 -2.1239
 2263SOL     OW18424   1.473   0.211   0.271  0.2651 -0.1265 -0.5613
 2263SOL    HW118425   1.510   0.239   0.355 -3.0284 -1.6504  1.4140
 2263SOL    HW218426   1.380   0.232   0.268  0.6911  2.1148  2.2737
 2264SOL     OW18427   0.461   1.411   5.131 -0.0560  0.0355  0.0524
 2264SOL    HW118428   0.428   1.341   5.188  0.1269  0.6906  0.9579
 2264SOL    HW218429   0.554   1.411   5.152 -0.2720 -1.5655  1.0631
 2265SOL     OW18430   1.089   1.788  11.451  0.1038 -0.2965  0.5422
 2265SOL    HW118431   1.123   1.840  11.378  2.8832  0.0996  2.1545
 2265SOL    HW218432   0.999   1.778  11.419  0.4859  1.8582 -1.2466
 2266SOL     OW18433   1.613   4.672   4.502 -0.1265  0.5336  0.2560
 2266SOL    HW118434   1.655   4.589   4.481 -1.1321  0.3459 -0.9750
 2266SOL    HW218435   1.520   4.654   4.514 -0.5304  2.0185 -0.5941
 2267SOL     OW18436   0.060   2.245   2.373  0.9117 -0.2027 -0.0012
 2267SOL    HW118437   0.014   2.326   2.397 -0.0106  0.3349 -3.4984
 2267SOL    HW218438   4.721   2.192   2.340  1.6911 -1.5898  0.5325
 2268SOL     OW18439   0.425   0.870   1.970  0.1905  0.2853  0.1078
 2268SOL    HW118440   0.387   0.783   1.954  1.4290  0.1099 -1.7869
 2268SOL    HW218441   0.439   0.875   2.065 -0.6689 -0.0998  0.2632
 2269SOL     OW18442   4.264   1.529   8.823 -0.0262 -0.1199  0.7453
 2269SOL    HW118443   4.191   1.485   8.781  1.7160 -1.0277 -1.3272
 2269SOL    HW218444   4.290   1.579   8.746  0.4911  1.3658  1.8808
 2270SOL     OW18445   3.381   3.338  11.144  0.1271 -0.1434 -0.3722
 2270SOL    HW118446   3.308   3.385  11.104 -0.8664  2.2217  4.2296
 2270SOL    HW218447   3.430   3.414  11.175  1.0825 -0.4071 -1.2223
 2271SOL     OW18448   0.956   2.915   2.391  0.9309  0.1234  0.6891
 2271SOL    HW118449   1.003   2.888   2.312 -0.3797  0.2934 -0.1400
 2271SOL    HW218450   0.875   2.961   2.369  2.3504  1.4008 -1.8829
 2272SOL     OW18451   3.439   1.494   2.785 -0.2866  0.4096  0.1780
 2272SOL    HW118452   3.508   1.547   2.824 -0.1198 -0.6588  1.3035
 2272SOL    HW218453   3.386   1.474   2.862  0.7141 -2.9970 -0.0144
 2273SOL     OW18454   4.196   3.708   9.862  0.1984 -0.4085  0.3801
 2273SOL    HW118455   4.114   3.687   9.907  0.0340  0.1794  0.3470
 2273SOL    HW218456   4.236   3.621   9.856 -0.1437 -0.4549 -1.3697
 2274SOL     OW18457   2.583   4.660  16.951  0.6811 -0.1917  0.3863
 2274SOL    HW118458   2.520   4.727  16.977 -0.1003 -0.5786 -0.5592
 2274SOL    HW218459   2.554   4.574  16.983  0.3789 -0.6591 -1.1823
 2275SOL     OW18460   1.316   3.898   8.321 -0.2607  0.1018  0.2713
 2275SOL    HW118461   1.393   3.949   8.296 -0.3298  1.3098  2.5261
 2275SOL    HW218462   1.249   3.959   8.291 -0.5753 -1.4809 -2.2464
 2276SOL     OW18463   2.968   0.489   0.327 -0.0269 -0.3281 -0.0057
 2276SOL    HW118464   3.050   0.530   0.298 -0.2582 -1.5474 -2.3882
 2276SOL    HW218465   2.991   0.398   0.348  2.2041 -0.0058 -1.0221
 2277SOL     OW18466   3.857   3.549   2.545  0.1963  0.5629  0.8392
 2277SOL    HW118467   3.942   3.572   2.507 -0.6230  0.9672 -0.7229
 2277SOL    HW218468   3.867   3.454   2.551 -1.5046  0.3565  0.3690
 2278SOL     OW18469   3.133   2.904   0.732 -0.0336 -0.2668 -0.4622
 2278SOL    HW118470   3.200   2.854   0.684 -0.6503 -1.2694 -0.2904
 2278SOL    HW218471   3.166   2.913   0.821  1.0173 -1.2206 -0.7508
 2279SOL     OW18472   0.914   0.795   5.190  0.0767 -0.4780  0.0817
 2279SOL    HW118473   0.980   0.772   5.123  1.8636  2.2533  0.9121
 2279SOL    HW218474   0.934   0.883   5.223 -1.0504 -0.7464  1.4269
 2280SOL     OW18475   0.358   2.600   5.257 -0.0595  0.0467  0.2477
 2280SOL    HW118476   0.278   2.615   5.308 -1.3611 -1.0377 -1.4554
 2280SOL    HW218477   0.410   2.561   5.327  1.1900  0.2048 -0.6041
 2281SOL     OW18478   4.341   1.377  15.182  0.6126 -0.1703 -0.2112
 2281SOL    HW118479   4.394   1.376  15.103 -0.6805 -0.0038 -1.0880
 2281SOL    HW218480   4.324   1.284  15.194  1.4664 -0.0594  1.8741
 2282SOL     OW18481   1.430   2.084  12.323 -0.2674 -0.2077 -0.0142
 2282SOL    HW118482   1.425   2.105  12.417  3.1526  1.9131 -0.2796
 2282SOL    HW218483   1.478   2.164  12.298  0.5684 -1.3854 -2.1281
 2283SOL     OW18484   3.336   2.650   6.364 -0.1172 -0.0873  0.2002
 2283SOL    HW118485   3.369   2.581   6.307 -1.2488  0.5517 -1.2380
 2283SOL    HW218486   3.412   2.707   6.351  0.1922 -0.5988 -0.2262
 2284SOL     OW18487   1.454   0.159   7.941 -0.4080  0.5797 -0.2753
 2284SOL    HW118488   1.424   0.077   7.980  2.1738  0.1133  0.7494
 2284SOL    HW218489   1.504   0.194   8.015  2.1731 -0.8725 -1.3383
 2285SOL     OW18490   1.416   1.672   5.480 -0.5761 -0.3231 -0.4328
 2285SOL    HW118491   1.439   1.626   5.400 -0.4671  0.5253 -0.8888
 2285SOL    HW218492   1.492   1.729   5.492  0.4494 -1.4706 -1.5641
 2286SOL     OW18493   3.142   1.771   3.556 -0.1887 -0.3729  0.1397
 2286SOL    HW118494   3.073   1.835   3.539  0.1039 -0.3615 -1.0075
 2286SOL    HW218495   3.125   1.717   3.478 -2.0338 -0.6215  0.7141
 2287SOL     OW18496   1.506   0.749   4.271  0.8712  0.8093  0.0490
 2287SOL    HW118497   1.522   0.659   4.242 -1.5028 -0.0371  1.4119
 2287SOL    HW218498   1.588   0.772   4.316  0.6921  0.7242  0.4196
 2288SOL     OW18499   0.724   1.196   5.782 -0.0154 -0.0159 -0.2820
 2288SOL    HW118500   0.635   1.230   5.777  0.4594  0.9748 -1.7533
 2288SOL    HW218501   0.727   1.137   5.707 -2.5356  1.1741 -1.3192
 2289SOL     OW18502   3.764   4.637  11.628  0.1373 -0.2768 -0.0402
 2289SOL    HW118503   3.840   4.608  11.679  0.0730  1.9430  1.3104
 2289SOL    HW218504   3.807   4.639  11.543  1.8222  0.7595  0.8228
 2290SOL     OW18505   2.435   2.628   3.248  0.2474  0.6319 -0.4337
 2290SOL    HW118506   2.510   2.680   3.279  0.5120 -0.2754  0.4536
 2290SOL    HW218507   2.367   2.693   3.232 -2.2701 -1.4559  1.7530
 2291SOL     OW18508   2.022   3.262   6.669 -0.5608 -0.2781 -0.9143
 2291SOL    HW118509   1.964   3.338   6.678  2.3037  1.6942  0.8617
 2291SOL    HW218510   2.090   3.296   6.611  0.6826  1.0337  1.3414
 2292SOL     OW18511   4.724   3.496   2.100  0.2952  0.0946  0.0716
 2292SOL    HW118512   4.676   3.441   2.161 -0.3420  0.1875 -0.3395
 2292SOL    HW218513   0.044   3.544   2.164  1.5231 -1.6481  0.3301
 2293SOL     OW18514   0.035   1.771   3.078  0.8349  0.2270 -0.1101
 2293SOL    HW118515   0.094   1.717   3.130 -2.5382 -2.0956  1.2368
 2293SOL    HW218516   4.731   1.710   3.014  2.7603 -1.3892  0.2740
 2294SOL     OW18517   2.027   4.105   3.064 -0.1865  0.0251 -0.2648
 2294SOL    HW118518   2.100   4.128   3.008 -0.4229 -0.7890 -0.9180
 2294SOL    HW218519   1.952   4.145   3.020 -0.8722  1.0473  1.8283
 2295SOL     OW18520   3.329   3.422   4.306 -0.7150 -0.1987  0.4715
 2295SOL    HW118521   3.398   3.358   4.322  2.1497  1.8744 -3.5915
 2295SOL    HW218522   3.265   3.393   4.371 -1.6142  0.3642 -0.1470
 2296SOL     OW18523   3.420   1.603   4.689  0.4722 -0.0659  0.1977
 2296SOL    HW118524   3.354   1.564   4.745  1.2756 -0.6687  0.7237
 2296SOL    HW218525   3.499   1.561   4.723  0.6930  1.4941  1.6280
 2297SOL     OW18526   1.580   0.336   5.091 -0.8895  0.1581 -0.0461
 2297SOL    HW118527   1.622   0.416   5.123 -0.5191 -0.5888  1.3432
 2297SOL    HW218528   1.652   0.273   5.096  0.1796  1.5666  2.4100
 2298SOL     OW18529   2.464   0.793   2.457 -0.0022 -0.0710  0.0962
 2298SOL    HW118530   2.560   0.792   2.457  0.0270  0.7844  2.5361
 2298SOL    HW218531   2.452   0.883   2.426 -2.1852 -0.7085 -0.8920
 2299SOL     OW18532   2.658   4.233   4.661 -0.4361 -0.2176  0.5907
 2299SOL    HW118533   2.751   4.241   4.638 -0.9218  1.0734 -0.9489
 2299SOL    HW218534   2.656   4.138   4.667 -0.0766 -0.2252  0.6082
 2300SOL     OW18535   1.008   4.567  10.159 -0.0388  0.2226  0.3808
 2300SOL    HW118536   1.076   4.561  10.227 -0.2120 -1.4642  0.4166
 2300SOL    HW218537   0.978   4.656  10.171 -2.8203 -0.4342 -1.9409
 2301SOL     OW18538   2.379   1.511  10.654 -0.7595 -0.1813 -0.2870
 2301SOL    HW118539   2.423   1.427  10.664  0.0468  0.0135 -2.2114
 2301SOL    HW218540   2.400   1.552  10.738  0.4554  0.3393 -0.8353
 2302SOL     OW18541   2.926   3.901  15.917 -0.2825  0.0982 -0.1682
 2302SOL    HW118542   2.832   3.900  15.895 -0.0803 -1.7650 -0.9015
 2302SOL    HW218543   2.931   3.986  15.962 -3.0543 -0.3923  1.1080
 2303SOL     OW18544   1.447   4.669   5.270 -0.0197 -0.2308  0.9048
 2303SOL    HW118545   1.475   4.675   5.179 -0.3135  3.5561  1.0706
 2303SOL    HW218546   1.484   0.011   5.315 -1.9216 -0.1329  2.3267
 2304SOL     OW18547   2.081   3.632  14.102  0.0598 -0.0842  0.1136
 2304SOL    HW118548   2.130   3.632  14.020  1.1540  2.8761  0.7478
 2304SOL    HW218549   2.042   3.546  14.090 -0.0607  0.1666 -1.3237
 2305SOL     OW18550   0.151   1.360   3.957 -0.5712 -0.7171 -0.0723
 2305SOL    HW118551   0.058   1.382   3.967 -0.2130  0.9488 -0.5544
 2305SOL    HW218552   0.169   1.385   3.866  1.7152  0.0870  0.6209
 2306SOL     OW18553   4.533   2.814   3.226  0.7151 -0.5152  0.1190
 2306SOL    HW118554   4.492   2.898   3.204 -0.1230 -0.4647  1.8675
 2306SOL    HW218555   4.568   2.843   3.311  0.3627  0.7723 -0.1715
 2307SOL     OW18556   1.858   1.471  15.291  0.7594 -0.4572 -0.1071
 2307SOL    HW118557   1.766   1.455  15.311  0.6258  0.1581 -0.2372
 2307SOL    HW218558   1.891   1.499  15.377 -2.1291  1.8334  0.2698
 2308SOL     OW18559   0.028   1.406   8.502 -0.7530 -0.0951  0.0327
 2308SOL    HW118560   0.001   1.498   8.498  3.5173  1.0854 -1.0236
 2308SOL    HW218561   0.097   1.410   8.435 -1.8674 -0.2667 -1.1303
 2309SOL     OW18562   1.238   2.526   9.867  0.1742 -0.3032 -0.2647
 2309SOL    HW118563   1.326   2.517   9.904  0.6733  1.2880 -1.0482
 2309SOL    HW218564   1.216   2.433   9.867 -0.1408 -0.2243 -0.7827
 2310SOL     OW18565   0.308   4.200   8.371 -0.7293  0.3507 -0.4149
 2310SOL    HW118566   0.242   4.264   8.398  0.1016  0.7051  0.8035
 2310SOL    HW218567   0.377   4.216   8.436  1.2197 -1.8112 -1.9468
 2311SOL     OW18568   0.700   4.023  16.790 -0.2969 -0.0480  0.5082
 2311SOL    HW118569   0.638   4.091  16.817  0.9432  1.5362 -0.5856
 2311SOL    HW218570   0.676   4.006  16.698 -3.0464  0.5243  1.1027
 2312SOL     OW18571   2.048   1.685   3.674 -0.1336 -0.2726 -0.3855
 2312SOL    HW118572   2.071   1.610   3.729  1.2679  1.3488  1.2299
 2312SOL    HW218573   2.116   1.748   3.698  0.2017 -0.8967  0.3015
 2313SOL     OW18574   2.011   2.431  16.355 -1.2799  0.0437 -0.1804
 2313SOL    HW118575   2.040   2.506  16.303 -0.7882  2.4422  3.5578
 2313SOL    HW218576   2.078   2.419  16.422 -1.8803 -4.1253 -0.3148
 2314SOL     OW18577   0.178   3.714  10.299 -0.3409  0.2885  0.0764
 2314SOL    HW118578   0.175   3.795  10.350 -0.1022 -0.2164  0.9027
 2314SOL    HW218579   0.093   3.715  10.255  0.2692  3.3062 -1.0501
 2315SOL     OW18580   4.244   3.745   8.836  0.2677 -0.3678 -0.5153
 2315SOL    HW118581   4.237   3.748   8.932 -1.1738 -0.2347 -0.6271
 2315SOL    HW218582   4.261   3.653   8.816 -1.3503 -0.5811 -0.8569
 2316SOL     OW18583   1.424   4.126  15.590 -0.2831 -0.0521  0.0621
 2316SOL    HW118584   1.454   4.068  15.660 -1.3104  0.5227  0.9693
 2316SOL    HW218585   1.496   4.115  15.528 -0.6130  1.0025 -0.5050
 2317SOL     OW18586   0.405   4.315   5.223 -0.0012 -0.1401  0.0246
 2317SOL    HW118587   0.497   4.339   5.231  0.0535 -0.8273  1.5141
 2317SOL    HW218588   0.367   4.403   5.227 -0.3117 -0.2698 -0.0529
 2318SOL     OW18589   3.426   0.689  16.040  0.2340 -0.4195 -0.0648
 2318SOL    HW118590   3.500   0.628  16.040  1.8942  1.6079 -4.3302
 2318SOL    HW218591   3.423   0.731  15.955 -0.4950 -1.2135 -0.4417
 2319SOL     OW18592   0.503   4.245  17.233  0.4203  0.8991  0.0178
 2319SOL    HW118593   0.598   4.247  17.235  0.4265  1.6885 -0.9097
 2319SOL    HW218594   0.483   4.191  17.309  0.0556 -0.4847 -1.0545
 2320SOL     OW18595   4.435   3.618   2.383  0.4900  0.2787  0.2194
 2320SOL    HW118596   4.448   3.696   2.329 -1.3649  1.9231  2.1542
 2320SOL    HW218597   4.426   3.654   2.471  2.4598  1.4838 -0.0826
 2321SOL     OW18598   0.030   3.309   5.336  0.4791  0.2878 -0.5426
 2321SOL    HW118599   4.725   3.228   5.369  1.2767 -0.8268 -2.3167
 2321SOL    HW218600   4.692   3.346   5.286 -1.6301 -1.4786  1.2000
 2322SOL     OW18601   1.260   3.165   5.855 -0.0273  0.6366 -0.0006
 2322SOL    HW118602   1.334   3.150   5.796  0.7839  1.7852  0.7051
 2322SOL    HW218603   1.205   3.224   5.802 -0.0431 -1.4473 -2.3103
 2323SOL     OW18604   3.017   2.981  15.255 -0.0230 -0.2587 -0.2986
 2323SOL    HW118605   3.058   3.032  15.325 -0.6349  2.5629 -2.0030
 2323SOL    HW218606   2.938   3.030  15.234  0.5815 -0.3004 -2.6476
 2324SOL     OW18607   3.410   1.669   7.629 -0.3477  0.3796  0.4484
 2324SOL    HW118608   3.326   1.647   7.668  0.8177 -0.2896  2.5931
 2324SOL    HW218609   3.383   1.717   7.551 -3.7434  2.5788  2.9933
 2325SOL     OW18610   4.415   3.692   0.810  0.2653  0.0284 -0.4881
 2325SOL    HW118611   4.484   3.755   0.789  0.1534  0.8834  1.6715
 2325SOL    HW218612   4.423   3.685   0.906 -1.2437  0.4099 -0.3340
 2326SOL     OW18613   0.807   1.678   4.946 -0.2042 -1.0627 -0.2400
 2326SOL    HW118614   0.802   1.692   5.041  0.4148  1.1379 -0.5253
 2326SOL    HW218615   0.723   1.718   4.925  0.8115  0.8054 -0.8362
 2327SOL     OW18616   1.014   0.935  17.325 -0.2896  0.5492 -0.5654
 2327SOL    HW118617   1.079   0.961  17.259 -3.1871  2.0157 -2.8298
 2327SOL    HW218618   1.007   0.841  17.309 -0.9040  0.4217  0.4945
 2328SOL     OW18619   0.595   0.297   5.174 -0.2151  0.1036  0.6083
 2328SOL    HW118620   0.577   0.208   5.204 -2.8783 -0.1592 -1.7130
 2328SOL    HW218621   0.621   0.285   5.083 -1.1135 -0.4655  0.4203
 2329SOL     OW18622   1.554   2.222  10.981 -0.0231  0.0952 -0.6518
 2329SOL    HW118623   1.554   2.294  10.918 -0.2162 -1.7204 -2.7309
 2329SOL    HW218624   1.595   2.266  11.056 -0.9943  1.3907 -0.8687
 2330SOL     OW18625   2.348   4.311   6.432 -0.1633 -0.1300  0.0986
 2330SOL    HW118626   2.417   4.304   6.366  0.6045 -0.8390  0.9873
 2330SOL    HW218627   2.392   4.367   6.495 -0.2926  0.0139  0.0613
 2331SOL     OW18628   1.116   0.379   0.101  0.0407 -0.0160  0.2524
 2331SOL    HW118629   1.063   0.450   0.064 -1.0141 -0.0522  1.7004
 2331SOL    HW218630   1.102   0.315   0.032  2.5881 -0.2246 -0.1031
 2332SOL     OW18631   3.785   0.136   4.729  0.1330 -0.0292  0.1961
 2332SOL    HW118632   3.778   0.090   4.646  0.4719  2.0894 -1.0054
 2332SOL    HW218633   3.844   0.204   4.698 -1.4291  0.7175 -1.1368
 2333SOL     OW18634   4.003   4.047   1.607 -0.0229 -0.6105 -0.2848
 2333SOL    HW118635   3.918   4.054   1.650  0.7971  2.5345  0.8293
 2333SOL    HW218636   4.053   4.081   1.681 -0.5973  0.1481 -0.2412
 2334SOL     OW18637   2.801   3.101  13.458 -0.6231 -0.1499  0.2585
 2334SOL    HW118638   2.847   3.017  13.456 -1.2717 -0.5141  0.5096
 2334SOL    HW218639   2.730   3.098  13.521 -1.9609  0.2519 -1.2262
 2335SOL     OW18640   2.021   2.799   6.665 -0.0283  0.3377  0.4216
 2335SOL    HW118641   2.000   2.830   6.753  1.2536 -0.9404  1.1705
 2335SOL    HW218642   2.011   2.876   6.609  0.7816  0.8963  1.0346
 2336SOL     OW18643   0.428   1.494   3.075 -0.1738  0.1251 -0.3803
 2336SOL    HW118644   0.457   1.485   2.985  1.4950  0.1669  0.1463
 2336SOL    HW218645   0.456   1.410   3.110  2.5145  1.3169  0.3024
 2337SOL     OW18646   4.153   3.216   0.902  0.1076  0.7922 -0.5900
 2337SOL    HW118647   4.124   3.297   0.859 -0.4307  2.2498  2.4961
 2337SOL    HW218648   4.195   3.175   0.827 -0.3225 -0.8394  0.0725
 2338SOL     OW18649   3.315   0.879   1.410 -0.2887  0.5920 -0.4091
 2338SOL    HW118650   3.274   0.797   1.439 -0.5033 -0.3111 -3.2829
 2338SOL    HW218651   3.362   0.852   1.331 -0.1905 -1.3662  0.3333
 2339SOL     OW18652   4.238   0.231  10.723 -0.0373 -0.4241 -0.0413
 2339SOL    HW118653   4.276   0.318  10.711 -0.7724  0.2806  2.7817
 2339SOL    HW218654   4.242   0.223  10.818 -1.1719  1.8819  0.1984
 2340SOL     OW18655   0.406   2.648   2.889  0.5356  0.3614  0.0575
 2340SOL    HW118656   0.459   2.725   2.866 -0.2160  0.8507 -0.0190
 2340SOL    HW218657   0.355   2.641   2.808 -0.8588  1.1462  0.8856
 2341SOL     OW18658   2.274   2.214   4.033  0.6003  0.4780 -0.0468
 2341SOL    HW118659   2.253   2.130   3.993 -0.1060 -0.5077  2.3849
 2341SOL    HW218660   2.310   2.187   4.117 -1.4605 -0.7967  0.4178
 2342SOL     OW18661   3.157   0.517  11.745  0.0360 -0.9787 -0.1582
 2342SOL    HW118662   3.180   0.524  11.653 -3.1433  2.8829 -0.6294
 2342SOL    HW218663   3.097   0.591  11.756  1.1705  0.2424 -2.1346
 2343SOL     OW18664   4.127   2.010   9.335 -0.1528 -0.2609 -0.1430
 2343SOL    HW118665   4.142   1.932   9.390 -1.1226 -0.9175 -0.8236
 2343SOL    HW218666   4.074   1.981   9.262 -0.7468 -2.0854  1.0021
 2344SOL     OW18667   2.164   1.802  11.302 -0.5317 -0.2929 -0.3056
 2344SOL    HW118668   2.252   1.782  11.333 -0.7798 -0.0026  0.5956
 2344SOL    HW218669   2.111   1.775  11.377  1.1728 -0.9753  0.6587
 2345SOL     OW18670   1.444   3.987   4.227  0.0673  0.1803  0.5073
 2345SOL    HW118671   1.482   4.021   4.146 -0.9471 -0.3580 -0.1971
 2345SOL    HW218672   1.453   4.066   4.281 -1.1235  0.4860  0.2583
 2346SOL     OW18673   1.478   0.429   4.550  0.1175 -1.3017  0.3069
 2346SOL    HW118674   1.506   0.341   4.524 -0.3621 -0.6232 -2.3949
 2346SOL    HW218675   1.511   0.440   4.640  0.6270  0.5167 -0.1125
 2347SOL     OW18676   2.935   0.972   3.577  0.2306 -0.3336 -0.3766
 2347SOL    HW118677   2.955   1.005   3.664  0.6260  1.5798 -1.1728
 2347SOL    HW218678   2.841   0.956   3.586  0.0601  2.6299  3.2163
 2348SOL     OW18679   1.456   4.469   6.278  0.2068 -0.7737  0.3278
 2348SOL    HW118680   1.470   4.516   6.196  1.5922  0.7865  1.4351
 2348SOL    HW218681   1.421   4.533   6.340  0.6697 -0.7704  0.5917
 2349SOL     OW18682   2.720   1.894   2.360  0.3310  0.0247 -0.3982
 2349SOL    HW118683   2.775   1.952   2.413  0.0131  0.4260 -0.5153
 2349SOL    HW218684   2.794   1.866   2.304  0.8010  0.5026 -0.0133
 2350SOL     OW18685   1.945   0.178   9.303  0.3324  0.3618  0.2956
 2350SOL    HW118686   1.950   0.088   9.271  1.9942  0.7728 -0.6036
 2350SOL    HW218687   2.012   0.173   9.371  1.7181  0.5219 -1.0704
 2351SOL     OW18688   1.094   2.116   2.772 -0.3073  0.1677 -0.4703
 2351SOL    HW118689   1.007   2.110   2.732 -0.2279  3.1382 -1.1566
 2351SOL    HW218690   1.140   2.161   2.701  1.2172  0.3981  0.6460
 2352SOL     OW18691   1.938   0.632   4.189  0.3206  0.2271  0.6444
 2352SOL    HW118692   1.971   0.640   4.100  0.4646 -1.5939  0.5356
 2352SOL    HW218693   1.927   0.725   4.209  0.8501  0.3667  0.2878
 2353SOL     OW18694   1.141   0.311   0.748 -0.3093 -0.2990  0.7709
 2353SOL    HW118695   1.191   0.231   0.730 -1.0064 -0.5901  0.1246
 2353SOL    HW218696   1.061   0.280   0.706  0.2594  1.1992 -1.3939
 2354SOL     OW18697   2.624   1.106   7.965  0.3743 -0.1877 -0.1063
 2354SOL    HW118698   2.537   1.087   8.001 -0.9801  1.2940 -2.5852
 2354SOL    HW218699   2.624   1.057   7.883 -0.0826 -0.7137  0.2037
 2355SOL     OW18700   2.927   2.784   9.182  0.0762 -0.4609  0.3910
 2355SOL    HW118701   2.881   2.712   9.140  1.5612 -1.4003  0.3516
 2355SOL    HW218702   3.016   2.749   9.190  1.1390  1.6620 -2.1430
 2356SOL     OW18703   4.232   3.581  11.236  0.3885  0.1568 -0.2624
 2356SOL    HW118704   4.291   3.595  11.310  2.0122  0.0741 -1.5361
 2356SOL    HW218705   4.285   3.591  11.157 -1.0828 -0.4112 -1.3176
 2357SOL     OW18706   0.757   3.794   8.514 -0.2006  0.2544 -0.2805
 2357SOL    HW118707   0.708   3.712   8.505 -0.4793  0.5584 -1.4866
 2357SOL    HW218708   0.694   3.839   8.458  1.4291  2.5091 -0.2954
 2358SOL     OW18709   4.104   2.928   7.658 -0.3452  0.2777  0.1250
 2358SOL    HW118710   4.031   2.926   7.720  2.6467  0.6424  3.6828
 2358SOL    HW218711   4.106   3.023   7.646 -2.1392  0.1142 -1.5509
 2359SOL     OW18712   2.380   4.001   3.359  0.3603 -0.0062  0.4552
 2359SOL    HW118713   2.330   3.975   3.436 -0.6541 -0.2516 -0.2852
 2359SOL    HW218714   2.425   4.079   3.393 -1.1462  0.9560  0.2628
 2360SOL     OW18715   2.617   0.793   7.261 -0.0603  0.6052 -0.0625
 2360SOL    HW118716   2.580   0.721   7.313 -0.0041 -0.7677 -1.9082
 2360SOL    HW218717   2.598   0.758   7.173  1.0022 -1.6359  0.5834
 2361SOL     OW18718   3.113   2.533   8.920  0.0612  0.5939 -0.2599
 2361SOL    HW118719   3.189   2.476   8.926  1.3477  2.3285  0.0979
 2361SOL    HW218720   3.145   2.607   8.972 -0.2974  1.9226 -1.9200
 2362SOL     OW18721   1.662   1.563   7.191 -0.1086  0.4581 -0.0967
 2362SOL    HW118722   1.715   1.631   7.149 -0.0431  0.8727  0.6615
 2362SOL    HW218723   1.583   1.568   7.138 -0.1084 -0.8040 -0.2097
 2363SOL     OW18724   0.057   3.838   8.103  0.4302 -0.0802  0.4653
 2363SOL    HW118725   0.031   3.767   8.044 -1.1291 -1.3022  2.6214
 2363SOL    HW218726   4.713   3.855   8.157  0.6060  0.7454  0.4665
 2364SOL     OW18727   4.167   0.726   5.581  0.5189 -0.4430  0.3808
 2364SOL    HW118728   4.142   0.810   5.542  1.2189 -0.3872  0.0448
 2364SOL    HW218729   4.224   0.693   5.511  0.1804  0.2099 -0.1990
 2365SOL     OW18730   4.216   4.197  13.610 -0.2235 -0.7325 -0.0441
 2365SOL    HW118731   4.241   4.269  13.553  0.3085 -1.1025 -0.2758
 2365SOL    HW218732   4.139   4.241  13.648  0.3683  1.1553 -1.0093
 2366SOL     OW18733   0.443   0.178   9.934 -0.0384 -0.5920 -0.3919
 2366SOL    HW118734   0.474   0.088   9.922  2.9944  0.3038  0.6248
 2366SOL    HW218735   0.465   0.218   9.850  0.1036 -0.9231 -0.5140
 2367SOL     OW18736   3.411   2.892   6.733  0.3446 -0.2723  0.5319
 2367SOL    HW118737   3.476   2.825   6.754  0.6313 -0.1565  0.0200
 2367SOL    HW218738   3.347   2.835   6.690  2.2534 -1.3528 -0.8323
 2368SOL     OW18739   3.884   2.389   0.719 -0.1920 -0.1681 -0.2698
 2368SOL    HW118740   3.918   2.327   0.784 -0.8028 -0.0526  0.1571
 2368SOL    HW218741   3.964   2.439   0.702 -0.8603  0.2471 -2.1474
 2369SOL     OW18742   2.104   3.161   2.769 -0.3051  0.5883  0.0348
 2369SOL    HW118743   2.139   3.198   2.850 -0.2026 -2.0733  1.2145
 2369SOL    HW218744   2.050   3.238   2.752 -2.2316 -0.8620 -0.4433
 2370SOL     OW18745   2.942   0.552  15.145  0.0846  0.0737 -0.6267
 2370SOL    HW118746   3.032   0.576  15.166 -0.0044 -0.0545 -0.0906
 2370SOL    HW218747   2.931   0.559  15.051  0.2122 -0.1739 -0.6593
 2371SOL     OW18748   0.391   2.932   0.811  0.0066 -0.1284  0.4061
 2371SOL    HW118749   0.461   2.890   0.863  0.2332 -0.0977  0.1249
 2371SOL    HW218750   0.361   2.867   0.748 -0.0165 -0.9858  1.2890
 2372SOL     OW18751   3.785   0.926   5.573 -0.2239 -0.3852 -0.2277
 2372SOL    HW118752   3.755   0.841   5.539 -0.8605 -0.2806  0.0681
 2372SOL    HW218753   3.798   0.904   5.665  1.5779  0.6708 -0.2431
 2373SOL     OW18754   2.143   1.589   9.716 -0.0813 -0.8408 -0.5602
 2373SOL    HW118755   2.218   1.557   9.666 -0.3744  1.4410 -2.4504
 2373SOL    HW218756   2.158   1.683   9.717 -0.8106 -0.7247 -0.9077
 2374SOL     OW18757   1.477   2.075   3.696 -0.2171  0.3926  0.2849
 2374SOL    HW118758   1.489   1.987   3.732 -0.0791 -0.2680 -1.3736
 2374SOL    HW218759   1.468   2.059   3.602  0.9799 -1.5314  0.4968
 2375SOL     OW18760   1.428   0.711   6.924 -0.1001 -0.3995 -0.3670
 2375SOL    HW118761   1.407   0.760   6.846 -1.2011 -1.1787 -0.5651
 2375SOL    HW218762   1.383   0.749   7.000  1.1591 -0.3980  0.3710
 2376SOL     OW18763   3.910   1.045   8.393 -0.2571 -0.0453 -0.0498
 2376SOL    HW118764   4.001   1.033   8.420 -0.0584  0.0636 -0.6811
 2376SOL    HW218765   3.881   0.961   8.428 -1.0611  1.2811  2.5034
 2377SOL     OW18766   0.122   3.197  17.516  0.4167 -0.2803  0.2648
 2377SOL    HW118767   0.040   3.236  17.547  0.4177  1.5471 -2.0930
 2377SOL    HW218768   0.155   3.263  17.455 -1.2151  1.2731  1.0666
 2378SOL     OW18769   1.494   1.482   3.342  0.3997 -0.1293  0.1005
 2378SOL    HW118770   1.553   1.408   3.359 -0.4461 -1.4966 -2.9482
 2378SOL    HW218771   1.555   1.555   3.354 -0.3556  0.7769 -1.6380
 2379SOL     OW18772   2.334   1.635   6.931  0.2461 -0.1788  0.4101
 2379SOL    HW118773   2.250   1.607   6.896  0.2201  0.5795 -0.1360
 2379SOL    HW218774   2.393   1.562   6.911  0.3733 -0.5849  2.2386
 2380SOL     OW18775   2.395   3.961   7.970 -0.4572 -0.2091 -0.6262
 2380SOL    HW118776   2.441   4.002   8.043 -0.1695 -0.7188 -0.5199
 2380SOL    HW218777   2.421   4.015   7.896 -0.0953  1.3183  0.6177
 2381SOL     OW18778   0.357   4.550   8.123 -0.5141 -0.1993 -0.8531
 2381SOL    HW118779   0.279   4.505   8.156 -1.4055  2.7796  1.0418
 2381SOL    HW218780   0.423   4.538   8.191 -0.8231  3.6991  0.1463
 2382SOL     OW18781   3.854   2.381  13.310 -0.3611 -0.1025 -0.0012
 2382SOL    HW118782   3.924   2.397  13.247 -0.5949 -0.7954 -0.4422
 2382SOL    HW218783   3.899   2.329  13.376  0.2873  0.2759 -0.1491
 2383SOL     OW18784   4.052   1.306  13.249 -0.1037  0.2338  0.5632
 2383SOL    HW118785   3.970   1.353  13.264 -0.2501  0.9695 -2.4447
 2383SOL    HW218786   4.114   1.378  13.260 -0.2482  0.3018  0.9381
 2384SOL     OW18787   3.343   0.882   7.432 -0.2744  0.5753 -0.0773
 2384SOL    HW118788   3.258   0.894   7.474 -0.1422  0.3036  0.2595
 2384SOL    HW218789   3.350   0.787   7.428 -2.0057  0.4787 -0.8806
 2385SOL     OW18790   1.768   1.137  17.239 -0.1053  0.4521 -0.0343
 2385SOL    HW118791   1.736   1.092  17.161 -1.5326  0.8230  0.3427
 2385SOL    HW218792   1.861   1.116  17.236 -0.2985 -0.0231 -2.2174
 2386SOL     OW18793   2.732   1.719   2.676  0.0635  0.3947 -0.0295
 2386SOL    HW118794   2.732   1.675   2.592  1.8768 -1.5075  0.9627
 2386SOL    HW218795   2.641   1.748   2.680 -1.0442 -2.8346 -2.3073
 2387SOL     OW18796   2.426   2.518   6.070 -0.4229  0.3234 -0.5016
 2387SOL    HW118797   2.476   2.513   5.989  1.0509  2.3588  0.2684
 2387SOL    HW218798   2.486   2.493   6.141 -0.3622 -1.1559 -1.0673
 2388SOL     OW18799   3.812   1.891   3.799  0.6359 -0.3363 -0.4980
 2388SOL    HW118800   3.803   1.955   3.869  0.3064 -1.4260  0.4434
 2388SOL    HW218801   3.781   1.940   3.723  0.3132  0.3523  0.0786
 2389SOL     OW18802   4.256   4.389  10.166 -0.4206  0.1009 -0.1221
 2389SOL    HW118803   4.244   4.308  10.117  1.6038 -1.5745  2.1543
 2389SOL    HW218804   4.202   4.375  10.244 -1.4444 -0.6965 -0.9884
 2390SOL     OW18805   2.173   2.852   4.022 -0.1131 -0.0483  1.1176
 2390SOL    HW118806   2.240   2.829   3.957 -1.3733 -0.3568 -0.0709
 2390SOL    HW218807   2.106   2.789   3.996  0.6821 -1.0048  1.4171
 2391SOL     OW18808   1.412   2.920   5.153  0.3977 -0.4597 -0.2709
 2391SOL    HW118809   1.341   2.954   5.098 -0.4115 -0.0641  1.0115
 2391SOL    HW218810   1.382   2.968   5.230  0.3043 -1.4311  0.3016
 2392SOL     OW18811   2.500   4.136   9.478 -0.5724 -0.2957  0.0879
 2392SOL    HW118812   2.450   4.169   9.403  0.4290 -0.6282 -0.7102
 2392SOL    HW218813   2.538   4.060   9.435 -3.5964 -0.9148 -1.4992
 2393SOL     OW18814   3.210   1.469   5.474 -0.3325  0.4789  0.3379
 2393SOL    HW118815   3.208   1.373   5.468 -2.9853  0.5850 -0.5078
 2393SOL    HW218816   3.286   1.478   5.531 -0.4475 -0.3233  0.6206
 2394SOL     OW18817   3.964   2.524   4.985  0.2755  0.0898  0.3173
 2394SOL    HW118818   4.024   2.471   5.037  1.1541 -0.6486 -1.4493
 2394SOL    HW218819   3.895   2.459   4.968 -0.7892  1.0538  0.9683
 2395SOL     OW18820   3.844   3.407   4.436  0.2589  0.5407  0.1679
 2395SOL    HW118821   3.918   3.347   4.444 -1.5147 -1.7029 -0.5905
 2395SOL    HW218822   3.879   3.479   4.383  0.3391 -0.1139 -0.6667
 2396SOL     OW18823   0.747   3.462   3.840  0.2995  0.0531 -0.0444
 2396SOL    HW118824   0.719   3.526   3.905 -0.2736  1.1245 -1.3446
 2396SOL    HW218825   0.794   3.395   3.889  0.7489 -0.2003 -0.8229
 2397SOL     OW18826   3.809   3.825  14.832 -0.2023 -0.1616 -0.3412
 2397SOL    HW118827   3.883   3.854  14.779  0.8424 -0.8410  0.7522
 2397SOL    HW218828   3.732   3.814  14.776 -0.0373  1.3190 -0.8507
 2398SOL     OW18829   3.682   2.042   4.229  0.4910 -0.1324 -0.7385
 2398SOL    HW118830   3.695   1.965   4.285 -2.0440 -1.1619 -1.5874
 2398SOL    HW218831   3.590   2.038   4.206  0.8449 -0.8521 -2.0552
 2399SOL     OW18832   4.222   2.938  15.932 -0.3154  0.2981 -0.2525
 2399SOL    HW118833   4.181   3.019  15.961  1.0938  0.9201  0.0291
 2399SOL    HW218834   4.152   2.874  15.922  1.6788 -1.8069 -0.9766
 2400SOL     OW18835   0.778   0.509   8.314 -0.2905  0.6185  0.4464
 2400SOL    HW118836   0.818   0.442   8.369 -1.9658  0.9252  2.0199
 2400SOL    HW218837   0.713   0.536   8.379  1.2671  1.7442  1.5713
 2401SOL     OW18838   1.711   1.381   0.488 -0.2403 -0.2615  0.6411
 2401SOL    HW118839   1.762   1.346   0.415  0.9407  0.5395  1.1045
 2401SOL    HW218840   1.637   1.421   0.441  1.7092  0.0435 -2.1124
 2402SOL     OW18841   3.362   2.943   4.760  0.2087 -0.1455 -0.4554
 2402SOL    HW118842   3.408   3.024   4.734  1.7161 -0.8674 -0.0666
 2402SOL    HW218843   3.389   2.916   4.847 -1.5526 -0.4584 -0.0255
 2403SOL     OW18844   3.117   1.915   5.303 -0.4081  0.0702  0.5046
 2403SOL    HW118845   3.030   1.906   5.340 -1.6707  1.7629 -2.0245
 2403SOL    HW218846   3.118   2.006   5.272 -0.3283  0.2700  1.0984
 2404SOL     OW18847   1.197   4.695   4.790 -0.2071 -0.6581 -0.1615
 2404SOL    HW118848   1.249   4.643   4.852 -1.2271 -0.9377  0.4600
 2404SOL    HW218849   1.211   0.050   4.822 -0.7590  0.0097 -1.7937
 2405SOL     OW18850   0.008   0.558   4.541  0.0448  0.6245 -0.3265
 2405SOL    HW118851   4.697   0.523   4.618  1.6429 -0.1773  0.2390
 2405SOL    HW218852   4.669   0.579   4.483 -0.0189  0.9831 -0.1192
 2406SOL     OW18853   2.157   0.083   7.077  0.2488  0.0432  0.0718
 2406SOL    HW118854   2.155   0.169   7.036  2.2045  0.3675  0.6260
 2406SOL    HW218855   2.073   0.053   7.043  1.1400 -2.5854  0.1045
 2407SOL     OW18856   2.169   4.329  15.811  0.4255 -0.1083 -0.0618
 2407SOL    HW118857   2.248   4.382  15.804 -0.4970  1.2102 -0.7024
 2407SOL    HW218858   2.168   4.329  15.907 -1.8037  1.7107 -0.0810
 2408SOL     OW18859   3.192   4.033   5.568  0.1296  0.0437 -0.3515
 2408SOL    HW118860   3.221   4.089   5.641 -0.7568  0.6969 -0.5064
 2408SOL    HW218861   3.213   3.948   5.607  0.9500  0.3500 -0.1107
 2409SOL     OW18862   0.556   4.643   9.919  1.3985 -0.2133 -0.5837
 2409SOL    HW118863   0.479   4.634   9.863  0.4463 -1.2186  0.8784
 2409SOL    HW218864   0.530   4.613  10.007 -0.3865 -0.6245 -1.2463
 2410SOL     OW18865   3.347   1.581   8.716 -0.1816  0.0059 -0.6314
 2410SOL    HW118866   3.418   1.644   8.705  0.0851 -0.3812 -1.1369
 2410SOL    HW218867   3.273   1.635   8.745 -1.3972 -1.1269 -1.6289
 2411SOL     OW18868   0.398   0.344  13.535  0.3673 -0.1724 -0.2989
 2411SOL    HW118869   0.379   0.289  13.611 -1.7448 -0.8329 -1.2959
 2411SOL    HW218870   0.374   0.285  13.464 -2.0403 -0.3237  0.6382
 2412SOL     OW18871   3.460   2.533   5.007  0.2580 -0.4596  0.3021
 2412SOL    HW118872   3.546   2.574   5.002 -1.2305  2.6393  0.3079
 2412SOL    HW218873   3.457   2.475   4.931 -0.2500  1.3488 -1.0547
 2413SOL     OW18874   4.164   0.806   0.551  0.0718  0.0676  0.5271
 2413SOL    HW118875   4.125   0.872   0.608  2.3903  0.7724  1.2794
 2413SOL    HW218876   4.237   0.791   0.610 -0.1871  0.6569  0.9932
 2414SOL     OW18877   2.795   3.357   4.246  0.1662 -0.1822 -0.4119
 2414SOL    HW118878   2.746   3.289   4.201 -1.5361  0.6417  0.1993
 2414SOL    HW218879   2.807   3.420   4.175  1.0699  2.1200  1.7533
 2415SOL     OW18880   1.778   3.737   2.796 -0.9211  0.0192  0.3875
 2415SOL    HW118881   1.861   3.781   2.814  0.1608 -1.3744 -1.2507
 2415SOL    HW218882   1.802   3.673   2.728 -2.4001  1.9421 -1.9333
 2416SOL     OW18883   0.499   2.056  13.113  0.3937 -0.3539  0.3154
 2416SOL    HW118884   0.587   2.020  13.111  0.4814 -0.1782  1.1081
 2416SOL    HW218885   0.445   1.986  13.076  0.3272 -0.4835  0.6622
 2417SOL     OW18886   2.419   1.669   5.798  0.4530 -0.3755 -0.1443
 2417SOL    HW118887   2.513   1.650   5.806  0.6330  0.0515 -1.2265
 2417SOL    HW218888   2.377   1.600   5.848 -1.4268 -0.1708 -1.4630
 2418SOL     OW18889   2.338   2.273   7.638 -0.6714  0.0864 -0.2970
 2418SOL    HW118890   2.406   2.208   7.622 -0.0804  0.9338 -1.1448
 2418SOL    HW218891   2.338   2.279   7.734  0.7657 -0.9765 -0.2305
 2419SOL     OW18892   2.188   1.517   8.579 -0.3109 -0.4130 -0.0135
 2419SOL    HW118893   2.096   1.496   8.559 -0.8133 -1.2684  3.1369
 2419SOL    HW218894   2.213   1.448   8.641 -1.6276  0.9152  1.9724
 2420SOL     OW18895   0.977   1.813   3.551  0.3469 -0.5265 -0.2883
 2420SOL    HW118896   0.900   1.757   3.562 -0.0732  0.5131  2.2840
 2420SOL    HW218897   1.053   1.762   3.580  0.0494 -0.4226  0.6880
 2421SOL     OW18898   2.699   0.338   6.382 -0.6574  0.3809  1.0179
 2421SOL    HW118899   2.720   0.428   6.359 -0.9667  0.0341 -0.6076
 2421SOL    HW218900   2.685   0.299   6.296 -0.0020 -0.1277  1.1463
 2422SOL     OW18901   2.644   2.328   6.912 -0.2507 -0.2429  0.1576
 2422SOL    HW118902   2.688   2.333   6.827 -0.6781 -0.4087 -0.0746
 2422SOL    HW218903   2.662   2.238   6.937 -2.1623 -0.8014 -0.4876
 2423SOL     OW18904   3.234   1.982   4.783 -0.3987 -0.5056 -0.4789
 2423SOL    HW118905   3.178   1.927   4.837 -1.5221  2.2311  1.1380
 2423SOL    HW218906   3.224   1.960   4.690 -1.0474  1.4989 -0.8890
 2424SOL     OW18907   3.584   0.069   4.233  0.5731 -0.8381  0.3494
 2424SOL    HW118908   3.615   4.725   4.278  1.2911 -0.0597  1.2060
 2424SOL    HW218909   3.663   0.097   4.187 -0.5397  3.3324  0.9880
 2425SOL     OW18910   3.486   4.191   0.100 -0.3793  0.1001  0.0924
 2425SOL    HW118911   3.411   4.180   0.042 -0.3323 -2.0406  0.4673
 2425SOL    HW218912   3.479   4.285   0.117 -0.3450  0.0328  0.4902
 2426SOL     OW18913   2.854   0.806  12.055  0.0749 -0.2330  0.3440
 2426SOL    HW118914   2.822   0.716  12.059 -1.1858  0.1492 -1.5288
 2426SOL    HW218915   2.766   0.840  12.045  0.2592 -0.2274 -1.1309
 2427SOL     OW18916   2.066   0.161   4.551  0.0532  0.4027 -0.2624
 2427SOL    HW118917   2.156   0.178   4.523  0.2418  1.8606  1.2669
 2427SOL    HW218918   2.060   0.199   4.639  0.0696  0.4485 -0.2807
 2428SOL     OW18919   4.322   2.123   8.651 -0.4505  0.4773  0.3374
 2428SOL    HW118920   4.258   2.084   8.709  1.0321 -0.2629  1.4868
 2428SOL    HW218921   4.296   2.086   8.567  2.2169 -0.1085 -0.2445
 2429SOL     OW18922   4.402   1.488   6.348 -0.5084 -0.2094  0.2207
 2429SOL    HW118923   4.361   1.421   6.402 -2.0081  0.2502 -0.3515
 2429SOL    HW218924   4.461   1.433   6.297  0.1322  0.1285  0.5885
 2430SOL     OW18925   2.208   2.493  11.866  1.0814 -0.3699  0.3937
 2430SOL    HW118926   2.207   2.564  11.802  1.3726 -0.5798  0.1603
 2430SOL    HW218927   2.210   2.415  11.811  0.1983 -0.8439  1.0346
 2431SOL     OW18928   1.164   1.548   3.891  0.1212 -0.2547 -0.0837
 2431SOL    HW118929   1.242   1.571   3.942  1.6600 -0.9797 -2.1314
 2431SOL    HW218930   1.195   1.495   3.817 -1.0823  1.3381 -1.7178
 2432SOL     OW18931   4.284   3.418   6.293 -0.0864 -0.3647  0.9738
 2432SOL    HW118932   4.302   3.399   6.385  1.9879  0.9336  0.8468
 2432SOL    HW218933   4.209   3.474   6.311 -1.8148 -2.2217 -0.4847
 2433SOL     OW18934   1.201   2.495   4.256 -0.1056  0.4426 -0.3880
 2433SOL    HW118935   1.242   2.417   4.292 -0.1570 -0.0124 -1.3227
 2433SOL    HW218936   1.247   2.518   4.175 -1.9461 -0.8631 -1.7868
 2434SOL     OW18937   0.059   3.451  16.160  0.3362  0.0816  0.7573
 2434SOL    HW118938   4.713   3.473  16.207 -0.2698  0.5502 -0.5078
 2434SOL    HW218939   0.036   3.364  16.127 -1.0001  0.3786  0.9160
 2435SOL     OW18940   2.862   3.598  15.906  0.1369 -0.2620 -0.0934
 2435SOL    HW118941   2.922   3.664  15.870  1.5809 -2.0123 -0.8525
 2435SOL    HW218942   2.878   3.519  15.855 -0.6273 -0.3462 -0.2124
 2436SOL     OW18943   0.536   3.708   7.995  0.0584  0.3246 -1.1352
 2436SOL    HW118944   0.452   3.726   7.952  0.3043  2.0444 -0.8745
 2436SOL    HW218945   0.565   3.796   8.016 -1.7986  0.9584 -1.1913
 2437SOL     OW18946   4.004   0.277   8.028  0.3341  0.0301 -0.1357
 2437SOL    HW118947   3.935   0.340   8.050  0.1780 -0.4347  0.7407
 2437SOL    HW218948   4.085   0.321   8.052  1.7495 -2.6274 -0.0414
 2438SOL     OW18949   2.441   3.264   1.793  0.3134  0.0033 -0.0001
 2438SOL    HW118950   2.511   3.198   1.793 -0.1719 -0.5067 -0.3139
 2438SOL    HW218951   2.414   3.254   1.702  1.7980  1.4097 -0.5963
 2439SOL     OW18952   3.587   2.247  13.459  0.0139 -0.2486  0.1676
 2439SOL    HW118953   3.665   2.300  13.474 -0.9062  0.9868  0.5140
 2439SOL    HW218954   3.552   2.244  13.548  1.5932 -2.2009  0.7350
 2440SOL     OW18955   4.667   2.096   0.978  1.0266  0.1348 -0.2434
 2440SOL    HW118956   0.014   2.085   0.928 -0.1553 -1.8768 -1.7080
 2440SOL    HW218957   4.706   2.127   1.059  1.3417  0.4388 -0.5094
 2441SOL     OW18958   2.099   2.612   9.300  0.4896 -0.6279  0.1578
 2441SOL    HW118959   2.014   2.656   9.296  1.2172  0.6843 -0.7206
 2441SOL    HW218960   2.068   2.521   9.300  1.0335 -0.7994 -2.3030
 2442SOL     OW18961   1.042   1.533  16.986  0.7393 -0.0524 -0.5045
 2442SOL    HW118962   1.087   1.533  17.071 -0.8059 -0.5613  0.3238
 2442SOL    HW218963   1.102   1.471  16.945  0.0830 -0.3039 -1.0768
 2443SOL     OW18964   4.442   3.919   1.756  0.0450  0.0260 -0.8976
 2443SOL    HW118965   4.470   4.010   1.739 -0.6359  0.7910  2.0415
 2443SOL    HW218966   4.522   3.869   1.741  0.0269 -0.3585  0.3047
 2444SOL     OW18967   0.264   2.673   6.021 -0.3938  0.5379 -0.2252
 2444SOL    HW118968   0.348   2.638   5.992  0.2535  1.2936  0.7659
 2444SOL    HW218969   0.196   2.610   5.996 -1.1668  1.2185  0.1803
 2445SOL     OW18970   1.093   1.506   0.315 -0.3812 -0.3332 -0.4193
 2445SOL    HW118971   1.171   1.561   0.329 -0.3313  0.3066 -3.1079
 2445SOL    HW218972   1.055   1.547   0.238  0.5610  3.0798  0.9261
 2446SOL     OW18973   1.853   3.828   7.935  0.3146  0.1164 -0.0506
 2446SOL    HW118974   1.828   3.890   7.866  1.5511  0.1890 -0.4173
 2446SOL    HW218975   1.948   3.829   7.939  0.3274  1.1154 -0.7645
 2447SOL     OW18976   1.931   1.091   6.464 -0.5936 -0.1916 -0.4735
 2447SOL    HW118977   1.961   1.114   6.376 -1.0375  0.6089 -0.4136
 2447SOL    HW218978   1.906   0.998   6.461 -1.0988 -0.1108  1.1913
 2448SOL     OW18979   1.833   2.472  16.618  0.7314  0.3912  0.1391
 2448SOL    HW118980   1.792   2.418  16.551  1.0154 -1.4940  1.5041
 2448SOL    HW218981   1.886   2.405  16.661  2.3078  1.9208  0.5921
 2449SOL     OW18982   3.716   3.431   1.935 -0.6263 -0.3065 -0.2674
 2449SOL    HW118983   3.784   3.433   2.003 -1.2367 -0.0098  0.3416
 2449SOL    HW218984   3.649   3.392   1.992 -1.6665  3.9805  1.4486
 2450SOL     OW18985   3.675   2.199   4.545  0.1959  0.0015 -0.1871
 2450SOL    HW118986   3.630   2.279   4.573  0.7091  0.5728 -0.9896
 2450SOL    HW218987   3.617   2.160   4.480  0.2225 -1.6865  0.8065
 2451SOL     OW18988   3.273   4.114   3.807  0.1421  0.0020  0.0211
 2451SOL    HW118989   3.255   4.022   3.827  2.3490 -0.5166 -0.4646
 2451SOL    HW218990   3.189   4.139   3.769  0.1555 -0.7207 -0.4842
 2452SOL     OW18991   0.198   2.785   8.608  0.4647 -0.3261 -0.0329
 2452SOL    HW118992   0.230   2.739   8.685  2.1976  1.7797  0.4874
 2452SOL    HW218993   0.230   2.720   8.545  1.1561 -0.4409  0.4326
 2453SOL     OW18994   2.996   1.772   5.832  0.4569 -0.0392  1.0136
 2453SOL    HW118995   3.043   1.836   5.885  1.3617 -0.4582  0.7254
 2453SOL    HW218996   2.914   1.820   5.825  0.5094  0.2082  2.1171
 2454SOL     OW18997   3.381   0.859   0.770 -0.5842 -0.2415 -0.3039
 2454SOL    HW118998   3.340   0.933   0.815  1.6054 -0.0342  1.3019
 2454SOL    HW218999   3.452   0.832   0.828  1.3804  2.8366 -1.2396
 2455SOL     OW19000   0.967   0.730   7.742 -0.1785  0.3962 -0.1435
 2455SOL    HW119001   1.037   0.690   7.795 -1.8984  0.2998  2.0544
 2455SOL    HW219002   1.006   0.711   7.657 -3.0565 -1.2014 -1.0749
 2456SOL     OW19003   3.005   4.411   3.999 -0.4206 -0.3596  0.2121
 2456SOL    HW119004   3.015   4.505   4.015 -0.3650 -0.0982 -1.3883
 2456SOL    HW219005   2.987   4.405   3.905  2.7035 -2.2761 -0.2594
 2457SOL     OW19006   1.500   3.808  15.422 -0.0958  0.0965  0.1204
 2457SOL    HW119007   1.455   3.746  15.364  1.1076  0.4885 -1.2329
 2457SOL    HW219008   1.441   3.823  15.496  1.5522 -0.6102  1.5464
 2458SOL     OW19009   4.217   2.252   8.006 -0.4706 -0.9562 -0.1453
 2458SOL    HW119010   4.183   2.163   7.996 -0.9040 -0.4189 -3.3223
 2458SOL    HW219011   4.195   2.274   8.097 -3.1207  1.4075 -1.3613
 2459SOL     OW19012   2.953   0.767   3.385  0.1186 -0.6585 -0.2459
 2459SOL    HW119013   2.959   0.817   3.466  1.2474 -3.2071  1.2250
 2459SOL    HW219014   2.859   0.750   3.377  0.0241 -0.1539 -0.2615
 2460SOL     OW19015   4.606   3.697   5.311 -0.1615  0.6324  0.0498
 2460SOL    HW119016   4.528   3.664   5.266 -0.4707  0.7483  0.5121
 2460SOL    HW219017   4.600   3.792   5.308 -1.4554  0.5269 -0.8711
 2461SOL     OW19018   1.653   4.711   7.121 -0.4308 -0.2147 -0.4507
 2461SOL    HW119019   1.702   0.022   7.052  1.3448  0.4899  1.2947
 2461SOL    HW219020   1.593   0.050   7.137  0.8030  0.5152  0.8360
 2462SOL     OW19021   4.306   0.706   5.335 -0.0735  0.1694  0.1910
 2462SOL    HW119022   4.297   0.701   5.240 -1.1726  0.5993  0.2731
 2462SOL    HW219023   4.371   0.639   5.359 -0.6916 -0.7113 -0.5891
 2463SOL     OW19024   2.766   0.425   2.182 -0.1581 -0.3010  0.2017
 2463SOL    HW119025   2.731   0.350   2.230 -0.0343 -0.3265  0.2523
 2463SOL    HW219026   2.688   0.443   2.128  0.2724 -2.1452 -1.0488
 2464SOL     OW19027   3.805   1.326   1.620 -0.8134  0.0139  0.1204
 2464SOL    HW119028   3.781   1.412   1.585 -0.7611  0.9317  2.3483
 2464SOL    HW219029   3.901   1.327   1.614 -1.0376  0.5405 -3.4711
 2465SOL     OW19030   1.637   1.825   1.211  0.2996  0.0655  0.2793
 2465SOL    HW119031   1.708   1.782   1.163 -0.9046 -0.8070 -0.7114
 2465SOL    HW219032   1.681   1.908   1.228 -0.7963  0.3337  1.7717
 2466SOL     OW19033   0.713   4.704   4.454 -0.4037 -0.3049  0.0904
 2466SOL    HW119034   0.757   0.019   4.385  0.6261  1.7979  2.2521
 2466SOL    HW219035   0.765   4.725   4.532 -0.9122  0.8518  0.1189
 2467SOL     OW19036   0.087   0.187   4.423 -0.5067  0.1868  0.2723
 2467SOL    HW119037   4.732   0.222   4.420 -0.4667  0.2282 -0.4402
 2467SOL    HW219038   0.144   0.262   4.412  0.5283 -0.2981  2.3087
 2468SOL     OW19039   3.778   1.274   5.308  0.2482 -0.0019 -0.3308
 2468SOL    HW119040   3.722   1.347   5.333 -2.0688 -2.0925  0.6482
 2468SOL    HW219041   3.862   1.319   5.302  0.9354 -1.1016  1.0518
 2469SOL     OW19042   1.625   3.970  13.370  0.2021 -0.9549  0.0360
 2469SOL    HW119043   1.636   4.064  13.382  0.4927 -0.9868  0.0126
 2469SOL    HW219044   1.614   3.946  13.462  4.6273 -2.2718  0.2309
 2470SOL     OW19045   2.510   4.668  11.581 -0.1412  0.2957  0.8509
 2470SOL    HW119046   2.504   4.582  11.622 -0.2575 -0.8933 -1.6639
 2470SOL    HW219047   2.584   4.697  11.635 -0.4922  1.3647  0.7609
 2471SOL     OW19048   2.287   0.253   9.215  0.2718  0.2555  0.1176
 2471SOL    HW119049   2.210   0.255   9.160 -0.7669  1.2485  1.6063
 2471SOL    HW219050   2.341   0.320   9.172  0.5166 -1.7211 -2.6220
 2472SOL     OW19051   2.076   4.725  15.133 -0.2707 -0.4172  0.2218
 2472SOL    HW119052   2.167   0.020  15.129  0.1160 -1.6836 -0.2124
 2472SOL    HW219053   2.089   4.637  15.169  1.1832 -0.6879 -0.9768
 2473SOL     OW19054   3.915   1.868   8.284 -0.3557 -0.0867  0.0522
 2473SOL    HW119055   3.924   1.777   8.256 -0.5480 -0.0803 -0.0286
 2473SOL    HW219056   3.997   1.879   8.333 -0.9839  2.3387  0.5706
 2474SOL     OW19057   4.585   2.299  11.122 -0.1548  0.0099 -0.0228
 2474SOL    HW119058   4.490   2.299  11.135 -0.0792  1.5115  0.5361
 2474SOL    HW219059   4.593   2.234  11.053  0.0575  1.0141 -0.9460
 2475SOL     OW19060   3.623   3.609   5.225 -0.1371 -0.1841 -0.3106
 2475SOL    HW119061   3.555   3.621   5.291  1.8971  0.1980  1.7089
 2475SOL    HW219062   3.591   3.663   5.152 -0.4854  2.1498  1.5811
 2476SOL     OW19063   0.203   0.834   7.553 -0.2006 -0.0262 -0.9352
 2476SOL    HW119064   0.282   0.882   7.580 -1.6956  0.8615  1.8994
 2476SOL    HW219065   0.248   0.760   7.513  1.4297 -0.0988  1.0116
 2477SOL     OW19066   2.519   1.748  11.123 -0.9054  0.0488  0.2669
 2477SOL    HW119067   2.439   1.775  11.077  0.4218  1.2771 -1.3090
 2477SOL    HW219068   2.569   1.829  11.118  0.0796 -0.3779  3.0749
 2478SOL     OW19069   1.115   1.157   5.119  0.2669  0.1474 -0.1156
 2478SOL    HW119070   1.031   1.154   5.164  0.4762  1.7110  0.3811
 2478SOL    HW219071   1.116   1.252   5.127 -0.6751  0.3727 -2.5529
 2479SOL     OW19072   0.988   3.726   6.269 -0.2762 -0.3064 -0.7857
 2479SOL    HW119073   1.008   3.640   6.306  0.4588 -0.8498 -2.4714
 2479SOL    HW219074   0.934   3.761   6.340  0.7598 -1.7753  0.7313
 2480SOL     OW19075   4.287   1.432   2.114 -0.0673 -0.2388  0.3558
 2480SOL    HW119076   4.211   1.383   2.143  0.5630 -2.7573 -2.2596
 2480SOL    HW219077   4.309   1.467   2.200 -0.2932  1.5697 -0.3177
 2481SOL     OW19078   3.303   0.929   8.596  0.2537 -0.1298 -0.1409
 2481SOL    HW119079   3.285   1.006   8.542 -1.9233  0.1143  0.9257
 2481SOL    HW219080   3.398   0.933   8.586  0.4338 -1.0011  1.1989
 2482SOL     OW19081   0.345   3.384   7.396 -0.1582  0.4725  0.7451
 2482SOL    HW119082   0.291   3.457   7.426 -0.7333  0.6044 -0.6039
 2482SOL    HW219083   0.377   3.414   7.311 -0.0153 -1.1465  0.2264
 2483SOL     OW19084   0.925   1.961  16.525  0.1142 -0.2759  0.6410
 2483SOL    HW119085   0.915   2.041  16.475  1.3747 -1.2728 -1.2225
 2483SOL    HW219086   0.861   1.908  16.477 -0.2080 -0.3574  1.1571
 2484SOL     OW19087   0.162   1.693   4.446  0.2860  0.1391 -0.5594
 2484SOL    HW119088   0.152   1.784   4.477  1.6817  0.3177 -0.6722
 2484SOL    HW219089   0.232   1.668   4.506 -1.7744 -2.9256  0.5818
 2485SOL     OW19090   0.003   0.842   7.725 -0.0933 -0.2237 -0.5132
 2485SOL    HW119091   0.078   0.863   7.669  2.0542 -0.8462  2.0981
 2485SOL    HW219092   4.656   0.864   7.680  0.7487  0.5296 -1.6413
 2486SOL     OW19093   0.731   3.600   4.654 -0.0214  0.6493  0.4731
 2486SOL    HW119094   0.797   3.530   4.646 -1.8805 -1.1137  0.5509
 2486SOL    HW219095   0.689   3.566   4.733 -1.1616  1.9103  0.4040
 2487SOL     OW19096   0.977   2.079  16.777 -0.3422  0.2445  0.0001
 2487SOL    HW119097   0.975   2.172  16.757 -1.5120  0.1168 -0.4600
 2487SOL    HW219098   0.953   2.046  16.691 -2.2415 -1.3272  1.1301
 2488SOL     OW19099   3.668   3.911   6.653 -0.1181 -0.2498 -0.2388
 2488SOL    HW119100   3.575   3.910   6.678  0.4704  0.8414  1.9727
 2488SOL    HW219101   3.687   4.001   6.681 -1.8541 -0.2043  0.7682
 2489SOL     OW19102   4.709   3.475   6.453 -0.2228 -0.6955 -0.0310
 2489SOL    HW119103   4.661   3.558   6.459  1.3789  0.0705  2.3078
 2489SOL    HW219104   4.691   3.438   6.539 -0.2159 -1.9384 -0.5761
 2490SOL     OW19105   2.857   0.236   4.309  0.7193 -0.3841  0.0298
 2490SOL    HW119106   2.847   0.142   4.324  1.0840 -0.3804  0.2907
 2490SOL    HW219107   2.869   0.245   4.214  0.3760 -1.4012 -0.1129
 2491SOL     OW19108   3.718   2.343   3.071  0.5959  0.2735  0.4600
 2491SOL    HW119109   3.772   2.354   2.993 -2.2025  1.0628 -1.3700
 2491SOL    HW219110   3.758   2.413   3.122 -1.2335 -0.1610  2.4805
 2492SOL     OW19111   2.506   1.046   8.348 -0.5969  0.0214  0.7146
 2492SOL    HW119112   2.482   0.965   8.393 -1.4510 -0.7838 -1.2262
 2492SOL    HW219113   2.421   1.072   8.314  0.8985  1.5198 -1.8804
 2493SOL     OW19114   2.670   4.351   8.980  0.6745 -0.5535  0.3875
 2493SOL    HW119115   2.589   4.403   8.980  1.7588  1.1328 -0.1889
 2493SOL    HW219116   2.731   4.386   8.914  0.2457 -0.1192  0.2149
 2494SOL     OW19117   2.630   4.029   7.345 -0.4992  0.0674  0.2568
 2494SOL    HW119118   2.688   3.954   7.355  0.3670  0.4225 -1.9196
 2494SOL    HW219119   2.600   4.019   7.254  0.2793 -0.8278  0.1038
 2495SOL     OW19120   1.929   3.494   0.308  0.4017  0.3967  0.6031
 2495SOL    HW119121   1.908   3.587   0.294 -2.1396 -0.2408  0.3017
 2495SOL    HW219122   1.859   3.452   0.259  0.5496 -0.2398  0.9473
 2496SOL     OW19123   4.296   2.958   2.998 -0.6779 -0.3397  0.0005
 2496SOL    HW119124   4.299   3.029   2.933 -0.5991 -0.2822  0.0654
 2496SOL    HW219125   4.320   3.004   3.079 -0.6620  0.1828 -0.3028
 2497SOL     OW19126   4.322   2.399   5.453  0.8714 -0.1819 -0.2113
 2497SOL    HW119127   4.227   2.384   5.448  0.7710 -0.1065  1.3085
 2497SOL    HW219128   4.355   2.319   5.413  0.3100 -0.8183  0.5971
 2498SOL     OW19129   3.498   1.938   5.279 -0.5237  0.7120 -0.2496
 2498SOL    HW119130   3.487   2.032   5.266  0.1676  0.9381  0.8177
 2498SOL    HW219131   3.424   1.909   5.226 -0.2395  0.5754 -0.5737
 2499SOL     OW19132   4.361   4.722   9.375  0.3831  0.1963 -0.4675
 2499SOL    HW119133   4.294   4.721   9.307  0.1580 -0.2633 -0.2420
 2499SOL    HW219134   4.387   4.631   9.391 -2.2579 -0.5844 -0.6040
 2500SOL     OW19135   4.591   0.288  15.621  0.1197 -0.1558 -0.4153
 2500SOL    HW119136   4.618   0.305  15.711 -2.0905  1.4912 -0.0707
 2500SOL    HW219137   4.637   0.355  15.570 -0.2633 -0.0764 -0.6498
 2501SOL     OW19138   0.980   3.998  16.650  0.0605 -0.7239 -0.3915
 2501SOL    HW119139   0.890   4.026  16.665  0.7495  1.1411  0.3562
 2501SOL    HW219140   1.012   3.990  16.740 -2.3514 -0.0086  0.5076
 2502SOL     OW19141   0.277   1.016   3.249  0.4110 -0.1078  0.3736
 2502SOL    HW119142   0.322   1.038   3.330  0.1358  0.6929  0.3117
 2502SOL    HW219143   0.330   1.043   3.173 -1.1121 -0.7259 -0.9114
 2503SOL     OW19144   3.860   0.828   8.511  0.4771  0.2515 -0.0774
 2503SOL    HW119145   3.818   0.782   8.584 -1.3229  0.6176 -0.8924
 2503SOL    HW219146   3.951   0.822   8.541  0.8795  0.7902 -1.2029
 2504SOL     OW19147   1.580   2.583   1.427  0.4516 -0.2430  0.1070
 2504SOL    HW119148   1.658   2.569   1.375 -1.3901 -2.6096 -2.0130
 2504SOL    HW219149   1.552   2.492   1.436 -0.9423  0.1780  0.0616
 2505SOL     OW19150   0.249   0.408   2.352  0.3555 -0.2740  0.2141
 2505SOL    HW119151   0.184   0.404   2.282  0.6210 -2.5919  0.1179
 2505SOL    HW219152   0.273   0.501   2.346 -0.0357 -0.2638 -1.0410
 2506SOL     OW19153   2.754   0.285   8.442 -0.4503  0.1558 -0.6706
 2506SOL    HW119154   2.808   0.346   8.492 -0.6533 -0.7811  0.6840
 2506SOL    HW219155   2.817   0.213   8.435 -0.7416 -0.2160  0.4095
 2507SOL     OW19156   2.249   2.853   4.282 -0.0895  0.4798  0.4379
 2507SOL    HW119157   2.241   2.821   4.192 -0.5669 -0.7007  0.8950
 2507SOL    HW219158   2.163   2.880   4.315  0.3700  2.7164 -0.2308
 2508SOL     OW19159   1.052   3.821   7.404  0.1839  0.4731 -0.5377
 2508SOL    HW119160   1.084   3.867   7.482 -1.4176 -1.2414  1.1448
 2508SOL    HW219161   0.961   3.827   7.430  1.0362  2.6770  1.9496
 2509SOL     OW19162   3.614   1.125   1.601  0.7056  0.0968  0.2693
 2509SOL    HW119163   3.604   1.153   1.510 -0.5102 -0.1024  0.3400
 2509SOL    HW219164   3.691   1.176   1.626  1.9016 -0.7627 -1.6212
 2510SOL     OW19165   2.407   4.616   5.159 -0.1791  0.6630  0.0068
 2510SOL    HW119166   2.496   4.638   5.133 -0.0685  0.3560  0.1276
 2510SOL    HW219167   2.357   4.676   5.104  1.4239  1.9891 -0.0031
 2511SOL     OW19168   0.819   1.160  11.500  0.0900 -0.1505 -0.2491
 2511SOL    HW119169   0.737   1.169  11.451 -1.5581 -0.5771  2.4111
 2511SOL    HW219170   0.876   1.139  11.426  1.8574 -0.5228  1.2149
 2512SOL     OW19171   0.773   1.301   9.617 -0.0298  0.4163  0.0182
 2512SOL    HW119172   0.843   1.325   9.555 -0.2099 -0.4165 -0.5070
 2512SOL    HW219173   0.732   1.234   9.563 -2.3021  0.4134  1.7687
 2513SOL     OW19174   1.358   2.124  16.117 -0.2340 -0.5405 -0.7743
 2513SOL    HW119175   1.381   2.116  16.210 -0.8483 -3.4767 -0.8886
 2513SOL    HW219176   1.301   2.048  16.110  1.6404 -1.7206 -2.9840
 2514SOL     OW19177   2.059   2.548  11.531  0.0275 -0.5571 -0.3270
 2514SOL    HW119178   1.996   2.611  11.497 -0.1374  0.7992  2.5164
 2514SOL    HW219179   2.133   2.601  11.559 -0.2761 -1.7145  2.6568
 2515SOL     OW19180   1.009   0.044  12.056  0.1102 -0.0398  0.2646
 2515SOL    HW119181   0.928   0.052  12.006 -0.2437 -0.4493  0.7670
 2515SOL    HW219182   1.060   0.120  12.027  0.0735 -0.0213  0.2485
 2516SOL     OW19183   1.226   0.983  11.389  0.1900  0.1207 -0.0582
 2516SOL    HW119184   1.269   0.977  11.303  1.2527  1.6084  0.3752
 2516SOL    HW219185   1.274   0.914  11.435 -1.2267  0.2053  1.5410
 2517SOL     OW19186   2.400   2.144   4.282  0.7179  0.3222  0.0660
 2517SOL    HW119187   2.475   2.176   4.332  1.4941 -0.6697 -0.4517
 2517SOL    HW219188   2.395   2.050   4.303  2.9321 -0.1604 -1.5358
 2518SOL     OW19189   2.438   0.774   3.417 -0.1910 -1.0741 -0.8364
 2518SOL    HW119190   2.365   0.834   3.401  0.7417  0.1217 -0.5616
 2518SOL    HW219191   2.396   0.690   3.398 -0.0753 -1.3296  0.0552
 2519SOL     OW19192   1.608   1.152   7.885 -0.0545  0.0420 -0.4324
 2519SOL    HW119193   1.519   1.157   7.850  0.1345 -1.6896 -1.1200
 2519SOL    HW219194   1.653   1.091   7.828 -1.0745 -0.9595 -0.1674
 2520SOL     OW19195   1.141   4.620   2.810  0.8396  0.2061 -0.0200
 2520SOL    HW119196   1.220   4.670   2.789  0.0210  0.7881 -1.7606
 2520SOL    HW219197   1.146   4.622   2.906 -1.0301  0.0492  0.0749
 2521SOL     OW19198   2.196   4.356   3.498  0.2911  0.0154 -0.4931
 2521SOL    HW119199   2.219   4.448   3.487  0.0494  0.6298  4.3119
 2521SOL    HW219200   2.196   4.325   3.407  1.4266 -1.6556  0.0615
 2522SOL     OW19201   0.486   1.677   7.316 -0.2577  0.1990  0.3361
 2522SOL    HW119202   0.511   1.682   7.408  3.8032  0.8365 -0.8326
 2522SOL    HW219203   0.538   1.604   7.281  1.4439  1.6910 -0.2161
 2523SOL     OW19204   1.630   4.577   3.734  0.3035 -0.0381  0.2538
 2523SOL    HW119205   1.557   4.578   3.797 -0.1088 -0.0717 -0.2229
 2523SOL    HW219206   1.707   4.571   3.790  0.8007 -2.3437 -0.6744
 2524SOL     OW19207   0.814   0.200   7.027 -0.2633 -0.1874  0.5600
 2524SOL    HW119208   0.801   0.183   6.934  4.8936 -0.0807 -0.1325
 2524SOL    HW219209   0.722   0.187   7.050 -1.1573 -0.3098 -3.0875
 2525SOL     OW19210   3.177   3.100  14.039  0.0758 -0.5401 -0.4826
 2525SOL    HW119211   3.238   3.154  14.090 -1.0770 -0.5206  0.8746
 2525SOL    HW219212   3.136   3.048  14.108 -0.3787  0.5131  0.0423
 2526SOL     OW19213   0.905   1.297   1.002  0.3847  0.1516  0.8255
 2526SOL    HW119214   0.875   1.222   1.053  1.5896 -1.2814 -0.6063
 2526SOL    HW219215   0.880   1.271   0.914 -0.4320  0.3188  1.0085
 2527SOL     OW19216   1.307   0.200  15.093  0.1072 -0.2907  0.4777
 2527SOL    HW119217   1.292   0.181  15.000  0.6847  0.2764  0.2665
 2527SOL    HW219218   1.401   0.185  15.102  0.4514  2.1930  0.9659
 2528SOL     OW19219   4.333   4.640  15.341  0.0936 -0.1885  0.2327
 2528SOL    HW119220   4.343   4.720  15.393  1.0455 -1.3309  1.8076
 2528SOL    HW219221   4.286   4.665  15.262 -0.0865 -1.4109 -0.0484
 2529SOL     OW19222   0.588   2.111   3.707  0.2943  0.7655 -0.7008
 2529SOL    HW119223   0.583   2.017   3.692  0.8529  0.6787 -0.3543
 2529SOL    HW219224   0.680   2.125   3.684  0.1089 -0.5695 -2.2051
 2530SOL     OW19225   2.044   3.249   3.281 -0.3713  0.4969 -0.0800
 2530SOL    HW119226   2.035   3.167   3.233  1.3047 -0.5062  1.3259
 2530SOL    HW219227   1.982   3.237   3.354  0.8360  1.5509  1.1272
 2531SOL     OW19228   2.078   0.635   8.719  0.8071 -0.0264 -0.8382
 2531SOL    HW119229   2.105   0.605   8.632 -1.6304 -1.3407 -1.1344
 2531SOL    HW219230   2.144   0.590   8.773 -0.6400 -0.6753  0.3902
 2532SOL     OW19231   1.419   4.415   5.428  0.5972  0.7045 -0.6811
 2532SOL    HW119232   1.410   4.357   5.352  0.7968 -0.1849 -0.0280
 2532SOL    HW219233   1.443   4.496   5.384  2.9338 -0.5418 -1.7020
 2533SOL     OW19234   3.053   4.700   4.034  0.4487 -0.5470  0.4478
 2533SOL    HW119235   3.008   4.716   4.117  0.3020  1.0879  0.0498
 2533SOL    HW219236   3.122   0.032   4.043  0.2140 -0.2952  0.4165
 2534SOL     OW19237   0.541   3.531   8.209  0.0487 -0.8530 -0.2492
 2534SOL    HW119238   0.485   3.455   8.194  0.9156 -1.4169 -0.5896
 2534SOL    HW219239   0.536   3.585   8.130  2.6155 -0.0872  0.1298
 2535SOL     OW19240   3.658   4.649   2.993  0.3545  0.1199  0.5382
 2535SOL    HW119241   3.626   4.559   2.991 -0.4201  0.4363 -1.2721
 2535SOL    HW219242   3.571   4.684   3.014 -0.0307 -0.7117  0.3373
 2536SOL     OW19243   3.541   4.324   7.130  0.9646  0.3291 -0.5378
 2536SOL    HW119244   3.618   4.332   7.187 -0.1608  1.9670  0.7371
 2536SOL    HW219245   3.480   4.298   7.199 -1.4572  1.7185 -2.2030
 2537SOL     OW19246   2.450   4.666   3.327 -0.1298 -0.3024 -0.1014
 2537SOL    HW119247   2.485   4.686   3.240  0.8876  2.2685  0.8663
 2537SOL    HW219248   2.358   4.687   3.309 -0.3617 -1.8167 -0.6107
 2538SOL     OW19249   0.207   0.041   3.429 -0.4095  0.0760 -0.3766
 2538SOL    HW119250   0.165   0.128   3.429 -0.1708  0.1836 -3.1643
 2538SOL    HW219251   0.172   0.002   3.350  1.7027  0.1105 -1.3212
 2539SOL     OW19252   3.982   2.055   2.860 -0.4933  0.2406  0.0043
 2539SOL    HW119253   4.025   2.134   2.893  0.0614  0.7282 -1.9020
 2539SOL    HW219254   3.965   2.091   2.773  2.0318  0.3095 -0.4598
 2540SOL     OW19255   0.693   3.189   5.003  0.1060  0.1521 -0.1485
 2540SOL    HW119256   0.651   3.104   5.015 -0.0989  0.3665  0.6546
 2540SOL    HW219257   0.760   3.167   5.068  0.1696  2.1426  0.4580
 2541SOL     OW19258   1.879   1.007  17.493  0.2303  0.2067 -0.0398
 2541SOL    HW119259   1.814   0.964  17.437  0.2687 -0.4484  0.4243
 2541SOL    HW219260   1.864   0.964  17.577 -1.6221  1.9821  0.5577
 2542SOL     OW19261   1.136   1.967   2.481 -0.0439 -0.0484  0.2602
 2542SOL    HW119262   1.059   1.915   2.460 -0.5689  1.7839 -2.4209
 2542SOL    HW219263   1.142   2.027   2.407  0.0300  1.3804  1.4127
 2543SOL     OW19264   0.779   1.366   4.361  0.3271 -0.0751  0.7573
 2543SOL    HW119265   0.720   1.388   4.289  3.4177  0.1129 -1.7170
 2543SOL    HW219266   0.862   1.396   4.325  0.8229  0.2218  2.1822
 2544SOL     OW19267   4.208   2.779   4.414  0.4668  0.0510  0.1778
 2544SOL    HW119268   4.141   2.781   4.482  0.8501  0.4475  0.5498
 2544SOL    HW219269   4.168   2.735   4.340 -0.6560 -2.8920  2.5263
 2545SOL     OW19270   3.946   4.537   9.818 -0.0902 -0.0137  0.0040
 2545SOL    HW119271   3.963   4.514   9.910 -2.0108 -2.6078 -0.3186
 2545SOL    HW219272   3.874   4.599   9.831  1.9968  2.3128  0.5242
 2546SOL     OW19273   2.633   2.668   8.994  0.4465 -0.1772 -0.0077
 2546SOL    HW119274   2.611   2.677   8.902 -0.0205  0.7450  0.1821
 2546SOL    HW219275   2.715   2.620   8.985  1.3679  1.3638  0.1769
 2547SOL     OW19276   2.666   3.647  14.336 -0.6514 -0.0588 -0.1044
 2547SOL    HW119277   2.576   3.676  14.322 -1.3722 -2.2615  0.0392
 2547SOL    HW219278   2.687   3.608  14.251 -0.0825 -0.7922  0.3736
 2548SOL     OW19279   3.988   1.689   7.289 -0.7329  0.1063 -0.7275
 2548SOL    HW119280   4.045   1.613   7.279  0.8770  1.1455  0.4513
 2548SOL    HW219281   4.027   1.733   7.365 -1.0603 -0.0372 -0.4727
 2549SOL     OW19282   4.644   3.656   4.992 -0.0758  0.0345 -0.4160
 2549SOL    HW119283   4.610   3.596   4.925  0.0473  0.0055 -0.4516
 2549SOL    HW219284   4.563   3.676   5.040  0.1904  2.3470 -0.9357
 2550SOL     OW19285   0.237   3.127   5.183 -0.2484  0.2251 -0.5824
 2550SOL    HW119286   0.176   3.169   5.122 -1.0281  1.5470  1.1232
 2550SOL    HW219287   0.302   3.121   5.112  0.3796 -0.1976  0.0373
 2551SOL     OW19288   3.281   3.232   5.311  0.1317 -0.3438  0.0186
 2551SOL    HW119289   3.190   3.249   5.332  0.3020  0.2886  0.2456
 2551SOL    HW219290   3.289   3.137   5.326  0.2168 -0.2013  0.8755
 2552SOL     OW19291   2.365   1.076   8.010  0.2710 -0.7855 -0.5588
 2552SOL    HW119292   2.324   1.060   7.925 -1.7197  0.3810  0.1654
 2552SOL    HW219293   2.300   1.131   8.054  1.1094 -0.6686  0.5139
 2553SOL     OW19294   3.156   2.618   6.916  0.0348 -0.5252  0.4871
 2553SOL    HW119295   3.153   2.711   6.937  2.4358 -0.8444  2.2235
 2553SOL    HW219296   3.181   2.627   6.824 -0.5064  1.8686  0.5762
 2554SOL     OW19297   1.983   1.531  12.491  0.0801  0.2111  0.2596
 2554SOL    HW119298   1.979   1.435  12.486  0.4971  0.2249 -0.3498
 2554SOL    HW219299   2.002   1.547  12.399 -1.1863  1.1145  0.1657
 2555SOL     OW19300   2.137   3.603   7.163 -0.0260 -0.4063  0.3317
 2555SOL    HW119301   2.187   3.521   7.159 -0.0970 -0.4873  1.1071
 2555SOL    HW219302   2.072   3.580   7.230 -0.8449  1.1605  0.0829
 2556SOL     OW19303   1.839   3.170   5.899 -0.0820  0.3481 -0.1981
 2556SOL    HW119304   1.843   3.096   5.959  0.3850  0.2174 -0.3907
 2556SOL    HW219305   1.831   3.241   5.964  0.2834 -2.0656  2.4852
 2557SOL     OW19306   4.315   3.450   9.913 -0.0289  0.5527 -0.2384
 2557SOL    HW119307   4.323   3.404   9.829  0.5473  1.6371 -0.7707
 2557SOL    HW219308   4.354   3.382   9.969  2.3399  2.0316 -0.1128
 2558SOL     OW19309   3.155   2.076  17.664 -0.6695  0.2925  0.2807
 2558SOL    HW119310   3.210   2.013  17.617  1.7666  2.8801 -0.3882
 2558SOL    HW219311   3.216   2.077   0.003  0.4580 -0.3603 -0.6314
 2559SOL     OW19312   0.907   4.359   6.707 -0.5688  0.1746  0.6149
 2559SOL    HW119313   0.826   4.345   6.757 -1.4642 -1.8883 -1.4311
 2559SOL    HW219314   0.875   4.411   6.633 -1.1546  0.5615  1.1275
 2560SOL     OW19315   3.479   2.254   4.359 -0.1013 -0.2174  0.2404
 2560SOL    HW119316   3.479   2.255   4.264 -1.2631 -0.3897  0.2386
 2560SOL    HW219317   3.544   2.321   4.379  1.4044 -1.1458 -1.6472
 2561SOL     OW19318   4.264   1.962  14.356  0.2926 -0.1043  0.0580
 2561SOL    HW119319   4.336   2.014  14.321 -0.0697  0.7918  0.6292
 2561SOL    HW219320   4.296   1.925  14.438  0.7572  1.1831  0.4524
 2562SOL     OW19321   0.823   3.720   6.033  0.2737  0.0696  0.1952
 2562SOL    HW119322   0.861   3.744   6.117 -0.1813  3.0639 -0.4424
 2562SOL    HW219323   0.876   3.642   6.018 -0.9118 -0.5020 -1.0414
 2563SOL     OW19324   3.014   1.758   1.360 -0.2032  0.1973 -0.0287
 2563SOL    HW119325   2.920   1.744   1.368 -0.3364 -0.3348 -2.3067
 2563SOL    HW219326   3.038   1.672   1.324  3.5626  0.8112  0.9580
 2564SOL     OW19327   0.131   3.277   2.629  0.1593  0.5003 -0.1362
 2564SOL    HW119328   0.179   3.257   2.710  0.3990  2.3626  0.1910
 2564SOL    HW219329   0.084   3.356   2.657  0.4912  1.6120 -2.7807
 2565SOL     OW19330   4.217   4.573  13.271  0.2247 -0.3763 -0.5071
 2565SOL    HW119331   4.289   4.604  13.216 -0.6636  0.9670 -0.8939
 2565SOL    HW219332   4.181   4.654  13.306  1.8061  0.7184 -1.4211
 2566SOL     OW19333   4.460   4.544  10.240  0.6923  0.0183  0.1228
 2566SOL    HW119334   4.515   4.541  10.161  0.0662  1.0788 -0.3590
 2566SOL    HW219335   4.387   4.490  10.210 -1.5666  1.8928  2.2789
 2567SOL     OW19336   1.087   2.168   7.316 -0.1683 -0.1348 -0.7136
 2567SOL    HW119337   1.112   2.183   7.225 -3.0133 -0.7587 -1.5775
 2567SOL    HW219338   1.123   2.241   7.367  0.2735 -1.5034  0.9315
 2568SOL     OW19339   3.304   0.249   4.896  0.2467  0.3256 -0.2803
 2568SOL    HW119340   3.384   0.250   4.843 -0.5540 -2.3452 -1.5448
 2568SOL    HW219341   3.273   0.335   4.868  1.1556  0.8790  0.4297
 2569SOL     OW19342   4.608   3.894   0.856 -0.2315  0.3964  0.0634
 2569SOL    HW119343   4.569   3.961   0.799 -2.6852 -2.4601 -1.5707
 2569SOL    HW219344   4.575   3.926   0.940 -1.4436 -2.2484  0.5975
 2570SOL     OW19345   0.933   2.198   6.362  0.1124  0.4767 -0.1225
 2570SOL    HW119346   0.873   2.197   6.438 -0.9628  3.0670 -0.9434
 2570SOL    HW219347   0.861   2.170   6.305 -1.5058  2.2387  1.0444
 2571SOL     OW19348   2.416   0.401  14.764 -0.0253  0.1314 -0.4320
 2571SOL    HW119349   2.419   0.470  14.830  1.7533  0.7302 -1.1627
 2571SOL    HW219350   2.493   0.353  14.795  0.9106  1.3821 -0.8704
 2572SOL     OW19351   0.003   4.140   2.590 -0.0547 -0.3964 -0.0325
 2572SOL    HW119352   0.097   4.139   2.609 -0.0669  0.2201  0.0838
 2572SOL    HW219353   4.728   4.176   2.502 -1.0097  4.3321  1.9937
 2573SOL     OW19354   1.690   0.316  11.474  0.1852  0.7864 -0.0371
 2573SOL    HW119355   1.598   0.299  11.492 -0.0841  1.1070 -1.1479
 2573SOL    HW219356   1.692   0.275  11.387  0.3026  0.0785  0.2947
 2574SOL     OW19357   3.459   1.779  17.113  0.1422 -0.2080  0.2540
 2574SOL    HW119358   3.369   1.802  17.091  0.0538 -2.8109 -1.9956
 2574SOL    HW219359   3.444   1.772  17.207 -2.5145 -2.5227 -0.3604
 2575SOL     OW19360   4.444   1.790   7.075 -0.1051 -0.0787  0.8237
 2575SOL    HW119361   4.530   1.753   7.054  0.6168  1.9289  0.2732
 2575SOL    HW219362   4.476   1.869   7.119 -2.3868  1.3270 -0.0819
 2576SOL     OW19363   0.915   1.911   0.059 -0.0214 -1.2022  0.5417
 2576SOL    HW119364   0.857   1.942   0.129 -0.7691 -2.0510  0.2895
 2576SOL    HW219365   0.930   1.989   0.005  1.4319 -0.6862  1.6917
 2577SOL     OW19366   0.954   1.215  17.697  0.3774 -0.4544  0.0390
 2577SOL    HW119367   0.980   1.235  17.607  0.2592  1.3277  0.3900
 2577SOL    HW219368   0.908   1.133  17.686  0.3957  0.1202 -4.3298
 2578SOL     OW19369   0.940   2.274  17.565  0.3083 -0.4691 -0.5078
 2578SOL    HW119370   1.014   2.318  17.523 -0.6056  2.0036  0.4953
 2578SOL    HW219371   0.972   2.273  17.656  0.2138  0.7085 -0.4646
 2579SOL     OW19372   2.358   0.756   5.793 -0.1354  0.0601 -0.3839
 2579SOL    HW119373   2.319   0.835   5.757  1.4917  0.3567 -1.5004
 2579SOL    HW219374   2.447   0.784   5.815 -0.3010 -0.9180  1.5570
 2580SOL     OW19375   3.207   3.845   3.329 -0.0146  0.3450 -0.1347
 2580SOL    HW119376   3.118   3.881   3.333 -0.5002 -0.9251  0.3070
 2580SOL    HW219377   3.246   3.852   3.416 -0.0057  3.8186 -0.4073
 2581SOL     OW19378   4.155   1.408   6.682  0.3646 -0.2980  0.4844
 2581SOL    HW119379   4.125   1.354   6.755  0.3678  1.7127  1.9497
 2581SOL    HW219380   4.092   1.480   6.681  1.8571  1.0252  2.6789
 2582SOL     OW19381   0.268   3.369  15.676  0.6806  0.1676 -0.1274
 2582SOL    HW119382   0.318   3.288  15.680  0.5694 -0.0125 -2.4575
 2582SOL    HW219383   0.256   3.378  15.770  1.1134  1.4433 -0.1946
 2583SOL     OW19384   2.976   4.069  16.265 -0.0542 -0.0981  0.2568
 2583SOL    HW119385   2.976   4.144  16.206 -1.9450 -0.3798 -0.0938
 2583SOL    HW219386   2.882   4.050  16.275 -0.4020  2.3918  1.6662
 2584SOL     OW19387   4.535   4.059   7.408 -0.4581 -0.0238 -0.4630
 2584SOL    HW119388   4.519   4.020   7.322 -0.0585  0.7109 -0.8670
 2584SOL    HW219389   4.482   3.999   7.461  0.2898 -1.1750 -1.0172
 2585SOL     OW19390   3.745   1.029   9.029 -0.4412 -0.2800  0.5098
 2585SOL    HW119391   3.773   1.116   9.000  0.6422 -0.8559 -0.1783
 2585SOL    HW219392   3.677   1.011   8.964 -1.2801 -0.0912  1.3476
 2586SOL     OW19393   4.223   2.984   9.838 -0.0134  0.3391 -0.1334
 2586SOL    HW119394   4.317   2.990   9.822  0.1179  0.2424  0.5897
 2586SOL    HW219395   4.219   2.949   9.928 -1.5431  0.7878 -0.0258
 2587SOL     OW19396   2.477   4.484  10.049  0.8681 -0.0430 -0.1557
 2587SOL    HW119397   2.460   4.557  10.109 -2.1291 -0.7025 -0.2014
 2587SOL    HW219398   2.560   4.463  10.091  0.5168  0.6609  0.9005
 2588SOL     OW19399   3.650   1.398   4.729  0.0587 -0.1948 -0.2232
 2588SOL    HW119400   3.690   1.325   4.776 -0.5654 -0.0103  0.6171
 2588SOL    HW219401   3.584   1.347   4.681  1.4974 -0.3403 -2.0296
 2589SOL     OW19402   0.868   2.694   6.244 -0.2461  0.5258  0.1288
 2589SOL    HW119403   0.925   2.657   6.312 -2.4476  0.1524  1.7778
 2589SOL    HW219404   0.869   2.632   6.171 -0.7158 -0.3872  0.8842
 2590SOL     OW19405   1.959   0.321  16.815 -0.0750 -0.1902  0.6883
 2590SOL    HW119406   2.021   0.374  16.766  0.5684 -1.9187 -0.3575
 2590SOL    HW219407   2.022   0.267  16.862  1.0580 -1.3877 -2.2005
 2591SOL     OW19408   4.201   2.045  11.740 -0.4316 -0.6073  0.2727
 2591SOL    HW119409   4.107   2.064  11.746 -0.6408 -1.6004  0.0747
 2591SOL    HW219410   4.239   2.110  11.799 -0.2301 -0.5459  0.0727
 2592SOL     OW19411   3.323   0.373   3.088 -0.0057 -0.0891  0.0799
 2592SOL    HW119412   3.373   0.321   3.151  1.9444 -1.9156 -2.9892
 2592SOL    HW219413   3.385   0.445   3.075 -0.1225  0.1040  0.5696
 2593SOL     OW19414   3.633   2.415  14.986  0.1808 -0.1565  0.0469
 2593SOL    HW119415   3.589   2.480  14.931  0.8557  1.6609  1.6141
 2593SOL    HW219416   3.704   2.393  14.927 -0.2508 -2.0083  0.2116
 2594SOL     OW19417   3.616   4.531   9.552  0.2647 -0.8873  0.5537
 2594SOL    HW119418   3.613   4.516   9.457 -0.1536 -1.4094  0.6495
 2594SOL    HW219419   3.709   4.516   9.566  0.6280 -0.2907 -1.1153
 2595SOL     OW19420   4.042   2.487  13.614  0.1743  0.2958 -0.0262
 2595SOL    HW119421   4.035   2.559  13.677 -2.1502  0.3020 -0.2698
 2595SOL    HW219422   3.988   2.516  13.540 -1.1055 -2.5323 -0.1817
 2596SOL     OW19423   4.036   2.364   3.688 -0.0414  0.1570  0.0720
 2596SOL    HW119424   4.123   2.399   3.670 -0.3914  1.0985  0.2061
 2596SOL    HW219425   4.022   2.314   3.607  0.6918 -0.5859  0.4103
 2597SOL     OW19426   1.717   0.890   4.842 -0.3224  0.1390  0.4831
 2597SOL    HW119427   1.797   0.875   4.791  1.1705  2.3575  2.1948
 2597SOL    HW219428   1.740   0.964   4.897 -1.2859  0.8072 -0.0126
 2598SOL     OW19429   2.676   1.886  16.100  0.2423 -0.1990 -0.4859
 2598SOL    HW119430   2.630   1.828  16.160  0.5399 -0.0573 -0.1199
 2598SOL    HW219431   2.608   1.947  16.070  3.0933  2.8238 -0.8270
 2599SOL     OW19432   4.184   2.912   0.000  0.6886 -0.3631  0.3547
 2599SOL    HW119433   4.145   2.999   0.003  0.3211 -0.4966 -0.4719
 2599SOL    HW219434   4.232   2.907   0.083 -0.8796  0.0677  1.2782
 2600SOL     OW19435   2.268   3.083   1.884  0.1347  0.0607 -0.1143
 2600SOL    HW119436   2.344   3.141   1.875  1.2429 -1.3311  0.2502
 2600SOL    HW219437   2.289   3.020   1.815 -1.8145 -0.2364 -0.4384
 2601SOL     OW19438   0.674   3.821   2.162 -0.1933  0.1754 -0.0899
 2601SOL    HW119439   0.691   3.755   2.230  1.6014  0.9932  0.2541
 2601SOL    HW219440   0.606   3.871   2.207 -0.7807  0.6244 -1.5011
 2602SOL     OW19441   4.305   3.868  14.733 -0.1391 -0.3187  0.2799
 2602SOL    HW119442   4.213   3.850  14.716 -0.7527  2.8546  0.0991
 2602SOL    HW219443   4.294   3.921  14.812 -1.1445  0.4480 -0.3824
 2603SOL     OW19444   1.617   3.147   1.864  0.7489  0.1561 -0.3333
 2603SOL    HW119445   1.575   3.202   1.798  1.1376 -1.8342 -2.2217
 2603SOL    HW219446   1.678   3.104   1.805  2.3332  0.2440  1.2279
 2604SOL     OW19447   0.663   4.484  10.473 -0.1246 -0.9263 -0.1970
 2604SOL    HW119448   0.745   4.457  10.513  0.8827  0.6656 -1.2130
 2604SOL    HW219449   0.696   4.559  10.424 -0.6148 -1.0014 -0.6404
 2605SOL     OW19450   1.637   2.176   4.292 -0.4508 -0.4507 -0.3742
 2605SOL    HW119451   1.688   2.165   4.212 -1.3517 -3.6480 -0.5200
 2605SOL    HW219452   1.668   2.259   4.327  1.0511 -1.2194  0.0993
 2606SOL     OW19453   1.662   1.853  15.333  0.0403  0.0486  0.2319
 2606SOL    HW119454   1.690   1.944  15.346  0.1929  0.2493 -1.5079
 2606SOL    HW219455   1.705   1.821  15.255  3.3751  0.5900  1.8670
 2607SOL     OW19456   4.084   4.725   4.003  0.2709  0.1621 -0.3493
 2607SOL    HW119457   4.174   0.015   3.981 -0.3006  1.2358 -1.4907
 2607SOL    HW219458   4.080   4.644   4.054 -0.4527  1.0506  0.9786
 2608SOL     OW19459   1.724   3.526   0.018 -0.4315  0.0915 -0.2111
 2608SOL    HW119460   1.712   3.485  17.668 -1.7788  0.0838 -0.0217
 2608SOL    HW219461   1.808   3.571   0.013  0.6143 -1.9120 -0.5146
 2609SOL     OW19462   1.378   1.269   8.519  0.1684 -0.0635 -0.0546
 2609SOL    HW119463   1.296   1.312   8.496  0.2327 -0.2345 -0.6031
 2609SOL    HW219464   1.363   1.267   8.613  0.0777  0.5721 -0.0537
 2610SOL     OW19465   0.051   1.903   4.635  0.1428 -0.7968 -0.8952
 2610SOL    HW119466   0.068   1.883   4.727 -0.2463 -0.1104 -0.6761
 2610SOL    HW219467   0.076   1.996   4.637  0.5189 -0.9482  1.4232
 2611SOL     OW19468   0.101   3.376   1.890  0.1151  0.1248 -0.5596
 2611SOL    HW119469   0.093   3.425   1.972 -1.2741  1.3832 -1.4402
 2611SOL    HW219470   0.035   3.425   1.840  0.0195 -0.5814 -1.1241
 2612SOL     OW19471   2.290   4.553   3.707  0.9781  0.4724 -0.0050
 2612SOL    HW119472   2.275   4.590   3.620 -0.8546  0.5732  0.3420
 2612SOL    HW219473   2.292   4.463   3.674 -0.7967  0.3715  0.1543
 2613SOL     OW19474   2.274   3.350   2.077  0.9528  0.0392 -0.0480
 2613SOL    HW119475   2.297   3.339   2.169 -1.8100  1.9951  0.8738
 2613SOL    HW219476   2.269   3.259   2.046 -0.9444 -1.4099  4.4622
 2614SOL     OW19477   2.923   2.948   5.453  0.2156 -0.0121  0.3694
 2614SOL    HW119478   2.906   2.889   5.526  0.2214 -0.9813 -0.4139
 2614SOL    HW219479   2.873   3.021   5.490  0.5284  0.4258 -0.0637
 2615SOL     OW19480   0.936   4.018   4.281  0.1665  0.2874  0.0786
 2615SOL    HW119481   1.028   4.015   4.307  0.3513  1.8813 -0.3833
 2615SOL    HW219482   0.923   4.112   4.297 -0.0194 -0.1606  2.5625
 2616SOL     OW19483   0.324   1.115   5.656  0.1550  0.2725 -0.2287
 2616SOL    HW119484   0.332   1.030   5.614 -2.1410 -1.1707  2.2604
 2616SOL    HW219485   0.272   1.160   5.589 -0.2404 -1.3226 -0.9966
 2617SOL     OW19486   0.548   2.553   6.839 -0.2966 -0.1482 -0.7667
 2617SOL    HW119487   0.497   2.473   6.857 -0.9801  0.0814 -1.6739
 2617SOL    HW219488   0.540   2.604   6.919  1.2236 -1.2919  0.1088
 2618SOL     OW19489   1.344   4.258  11.202 -0.0558 -0.0471  0.1799
 2618SOL    HW119490   1.293   4.198  11.148  2.3700 -0.4188 -1.7246
 2618SOL    HW219491   1.354   4.333  11.143  0.4958  0.8270  1.3836
 2619SOL     OW19492   0.391   4.607   2.792 -0.3261  0.6977  0.3952
 2619SOL    HW119493   0.446   4.534   2.764  2.2240  1.9389  2.1188
 2619SOL    HW219494   0.309   4.558   2.797  0.7657 -1.3631 -2.1630
 2620SOL     OW19495   2.815   3.040   8.034 -0.2645  0.0057 -0.6254
 2620SOL    HW119496   2.804   3.132   8.010 -0.0525  0.9530  2.9883
 2620SOL    HW219497   2.840   3.004   7.949 -1.6161  0.6401 -1.2964
 2621SOL     OW19498   1.814   1.060   3.065 -0.1934 -0.1173  0.3868
 2621SOL    HW119499   1.841   1.132   3.009  2.7257 -2.2155 -0.9172
 2621SOL    HW219500   1.872   0.996   3.024 -0.2481  0.6171 -0.8371
 2622SOL     OW19501   0.071   3.379   7.544 -0.1461 -0.1187  0.0886
 2622SOL    HW119502   0.037   3.469   7.545 -1.2338 -0.5395  1.0542
 2622SOL    HW219503   0.046   3.349   7.631 -0.6416 -2.1373 -0.7490
 2623SOL     OW19504   1.303   2.680   7.689  0.3541 -0.4608  0.0346
 2623SOL    HW119505   1.397   2.674   7.702  0.1896 -1.6028  0.6570
 2623SOL    HW219506   1.282   2.771   7.712 -0.8408 -0.7183 -0.0206
 2624SOL     OW19507   0.115   4.679  15.679  0.0302 -0.1916  0.1342
 2624SOL    HW119508   0.155   4.669  15.765  2.1198  2.4814 -0.5429
 2624SOL    HW219509   0.108   4.589  15.649  4.0915 -1.2028  2.2189
 2625SOL     OW19510   2.258   1.058   6.530 -0.9675 -0.5902  0.6013
 2625SOL    HW119511   2.265   1.135   6.474  0.8445  0.6925  2.6185
 2625SOL    HW219512   2.235   1.093   6.616  0.1263  0.4748  0.4488
 2626SOL     OW19513   0.711   2.663   9.094 -0.3473 -0.0211  0.5258
 2626SOL    HW119514   0.691   2.737   9.152 -0.1881 -1.0233  1.8570
 2626SOL    HW219515   0.735   2.701   9.009  3.0401 -0.9932  1.0598
 2627SOL     OW19516   4.688   1.209  11.416  0.3140 -0.2573 -0.3913
 2627SOL    HW119517   4.717   1.144  11.479  1.5536  0.1447 -0.5530
 2627SOL    HW219518   4.653   1.284  11.465  0.8149  0.1386 -0.6403
 2628SOL     OW19519   3.708   2.323   2.344 -0.2173 -0.0622 -0.0813
 2628SOL    HW119520   3.733   2.312   2.435 -1.0196 -1.1114  0.0002
 2628SOL    HW219521   3.758   2.248   2.311  0.6756  0.9380 -1.0446
 2629SOL     OW19522   2.651   4.283   2.294  0.0769  0.5373 -0.1266
 2629SOL    HW119523   2.722   4.219   2.306 -1.1755 -0.9368 -0.5041
 2629SOL    HW219524   2.665   4.299   2.200  0.2967 -0.8467 -0.3379
 2630SOL     OW19525   3.518   4.385   6.863  0.3560  0.0709 -0.0870
 2630SOL    HW119526   3.537   4.388   6.957  0.4722 -2.1424 -0.0225
 2630SOL    HW219527   3.598   4.413   6.820 -0.0407 -0.0005 -0.8782
 2631SOL     OW19528   1.727   0.251  15.357  0.0017  0.0029  0.2849
 2631SOL    HW119529   1.736   0.194  15.434  0.9730 -1.6503 -1.0467
 2631SOL    HW219530   1.812   0.246  15.312  0.5047 -0.5860  1.2868
 2632SOL     OW19531   3.136   1.713   8.936  0.2484 -0.1819 -0.3791
 2632SOL    HW119532   3.077   1.638   8.935  0.2738 -0.2112  0.1221
 2632SOL    HW219533   3.078   1.788   8.951  0.8902  0.1641  0.3816
 2633SOL     OW19534   1.420   2.104   8.357  0.4591  0.1701 -0.8464
 2633SOL    HW119535   1.338   2.054   8.365  0.6426  0.3434  2.0828
 2633SOL    HW219536   1.433   2.132   8.266  0.4664 -1.1352 -1.2473
 2634SOL     OW19537   0.630   2.880   9.373  0.2264  0.2350 -0.2306
 2634SOL    HW119538   0.561   2.813   9.366 -2.3039  2.8264 -0.1953
 2634SOL    HW219539   0.673   2.869   9.458  1.3505 -2.9384 -1.1898
 2635SOL     OW19540   1.107   0.892  17.572 -0.5468  0.0394  0.1682
 2635SOL    HW119541   1.071   0.905  17.484 -1.8359 -0.1609  0.6644
 2635SOL    HW219542   1.037   0.934  17.621 -1.7329 -2.0049  0.2535
 2636SOL     OW19543   1.230   2.638  15.368 -0.6496  0.0075 -0.0782
 2636SOL    HW119544   1.172   2.705  15.404  0.0459  0.3792  0.3570
 2636SOL    HW219545   1.304   2.694  15.345 -0.0215 -1.3259 -1.2870
 2637SOL     OW19546   4.405   2.082   2.006 -0.0516  0.1227 -0.2775
 2637SOL    HW119547   4.344   2.054   2.074 -2.1150 -0.9869 -2.5728
 2637SOL    HW219548   4.413   2.004   1.951  1.2004 -1.3178  1.9906
 2638SOL     OW19549   4.490   0.862   5.490 -0.6001 -0.3822  0.2588
 2638SOL    HW119550   4.442   0.836   5.412  0.4462 -0.5224 -0.3374
 2638SOL    HW219551   4.559   0.796   5.485 -2.0982 -2.0364  1.5717
 2639SOL     OW19552   4.289   1.498   2.629 -0.0446 -0.5789 -0.4196
 2639SOL    HW119553   4.335   1.562   2.683 -0.4594 -0.7540  0.1471
 2639SOL    HW219554   4.262   1.425   2.685 -0.6395  0.5041  0.6947
 2640SOL     OW19555   0.786   0.133  10.630  0.1152 -0.1343 -0.0684
 2640SOL    HW119556   0.722   0.198  10.600 -0.4267  0.2105  1.8733
 2640SOL    HW219557   0.726   0.092  10.693 -0.7771 -0.3962 -1.0789
 2641SOL     OW19558   1.100   4.080   8.743  0.7505 -0.1404  0.4076
 2641SOL    HW119559   1.084   4.003   8.689  1.7156 -0.1095  0.0801
 2641SOL    HW219560   1.135   4.036   8.821  0.5459 -2.6993 -0.9306
 2642SOL     OW19561   4.591   3.211   5.712 -0.1088  0.5017  0.0850
 2642SOL    HW119562   4.538   3.185   5.787  0.2685  2.2148  0.9334
 2642SOL    HW219563   4.625   3.288   5.757  1.6348  1.1874 -2.3932
 2643SOL     OW19564   2.825   1.842   5.091  0.2003  0.0303 -0.4537
 2643SOL    HW119565   2.898   1.787   5.118 -1.4930 -1.9425  0.0810
 2643SOL    HW219566   2.809   1.889   5.172 -1.6599  2.7220 -2.3756
 2644SOL     OW19567   2.136   1.673   6.554 -0.4278 -0.3314 -0.4233
 2644SOL    HW119568   2.180   1.686   6.470 -0.6167  0.8000 -0.3459
 2644SOL    HW219569   2.046   1.676   6.522 -0.9426 -2.2076  0.8433
 2645SOL     OW19570   1.903   0.677  14.030 -0.0712  0.5682  0.5309
 2645SOL    HW119571   1.814   0.709  14.014  0.4675  1.6111 -0.3905
 2645SOL    HW219572   1.901   0.607  13.964 -0.3348 -0.5000  1.6681
 2646SOL     OW19573   2.892   1.834   7.819 -0.4282 -0.0171 -0.1568
 2646SOL    HW119574   2.952   1.887   7.871 -0.8378 -1.8091  2.1596
 2646SOL    HW219575   2.828   1.797   7.880 -1.7022  0.5843 -1.1099
 2647SOL     OW19576   3.057   1.938   8.640  1.0770  0.0426  0.4032
 2647SOL    HW119577   3.129   1.991   8.606  0.4991  0.7928  0.3527
 2647SOL    HW219578   3.048   1.978   8.726  0.9192 -0.2959  0.5457
 2648SOL     OW19579   4.297   2.332   9.278  0.0513  0.1727 -0.8358
 2648SOL    HW119580   4.349   2.252   9.269  2.6741  1.6354  1.1802
 2648SOL    HW219581   4.213   2.287   9.279  1.0295 -1.6312  0.5846
 2649SOL     OW19582   2.386   1.546  10.963 -0.5006 -0.0269 -0.1567
 2649SOL    HW119583   2.395   1.456  10.996 -2.9887 -0.9325 -1.9703
 2649SOL    HW219584   2.320   1.588  11.017  1.4085  1.7800  0.7911
 2650SOL     OW19585   4.515   3.694   9.672  0.2559  0.2686 -0.1301
 2650SOL    HW119586   4.590   3.636   9.659 -0.4589 -0.9116  0.9587
 2650SOL    HW219587   4.559   3.764   9.719  1.0833 -0.4794  0.2099
 2651SOL     OW19588   1.703   2.879   1.210 -0.4359 -0.7546 -0.8878
 2651SOL    HW119589   1.711   2.785   1.224  0.4469 -0.7702 -1.5397
 2651SOL    HW219590   1.635   2.898   1.275  0.1883  0.2427 -0.5269
 2652SOL     OW19591   2.787   2.345   5.607 -0.2139  0.0332  0.1572
 2652SOL    HW119592   2.806   2.436   5.584 -0.8772  0.0786 -0.2096
 2652SOL    HW219593   2.803   2.352   5.701 -1.9847 -1.3364  0.5539
 2653SOL     OW19594   2.825   1.670  17.017  0.2380  0.0535  0.0884
 2653SOL    HW119595   2.831   1.751  16.966 -2.1003  0.3444  0.2453
 2653SOL    HW219596   2.900   1.623  16.981 -1.2986 -1.5853 -1.0137
 2654SOL     OW19597   1.495   1.104   4.094 -0.2440  0.1811  0.2592
 2654SOL    HW119598   1.563   1.168   4.115 -2.8307  2.8883  0.2509
 2654SOL    HW219599   1.429   1.132   4.157  0.4265  2.5665 -0.1009
 2655SOL     OW19600   0.064   2.890   4.880  0.4549 -0.2152 -0.5169
 2655SOL    HW119601   0.044   2.865   4.970  0.0757 -0.8893 -0.7859
 2655SOL    HW219602   4.727   2.842   4.837  2.1238 -1.6037 -1.7150
 2656SOL     OW19603   2.898   1.208   6.436 -0.5712 -0.3107  0.0597
 2656SOL    HW119604   2.977   1.157   6.450 -0.3212 -0.2842 -1.3042
 2656SOL    HW219605   2.867   1.178   6.351  4.2316 -1.0704 -1.3848
 2657SOL     OW19606   0.980   2.748   8.644 -0.0670 -0.3948 -0.0443
 2657SOL    HW119607   1.055   2.806   8.631 -0.3272 -0.4675 -1.9217
 2657SOL    HW219608   1.002   2.668   8.595 -1.1554 -1.0443  0.5070
 2658SOL     OW19609   3.953   3.814  12.132  0.5570  0.0275  0.0785
 2658SOL    HW119610   4.029   3.868  12.111  0.2163  1.5395  2.7887
 2658SOL    HW219611   3.919   3.874  12.199  1.3090  1.0460 -0.4456
 2659SOL     OW19612   4.551   2.531   6.496  0.2171  0.4065  0.6987
 2659SOL    HW119613   4.589   2.606   6.543  0.5898  0.8596 -0.3254
 2659SOL    HW219614   4.577   2.452   6.544  1.1135  1.8209  2.5604
 2660SOL     OW19615   2.412   0.497   2.493  0.2930  0.1157 -0.0507
 2660SOL    HW119616   2.391   0.590   2.489  1.0966  0.2406 -1.3925
 2660SOL    HW219617   2.474   0.507   2.565  0.1007 -0.3681  0.1847
 2661SOL     OW19618   4.073   0.414   5.520  0.0038  0.0047 -0.1882
 2661SOL    HW119619   4.081   0.455   5.434  1.4439  1.4518  0.6404
 2661SOL    HW219620   4.157   0.371   5.535 -1.6464 -3.7779 -1.5994
 2662SOL     OW19621   2.219   3.800  11.144  0.1313  0.4653 -0.5183
 2662SOL    HW119622   2.236   3.706  11.140  1.4840  0.7433 -1.0287
 2662SOL    HW219623   2.157   3.811  11.072 -1.1483  0.6522  0.5997
 2663SOL     OW19624   3.026   2.683   5.950  0.2212 -0.3769 -0.7974
 2663SOL    HW119625   3.100   2.732   5.986 -0.1563 -0.7427  0.4746
 2663SOL    HW219626   3.063   2.676   5.862  1.6800 -0.7141 -0.1736
 2664SOL     OW19627   1.290   3.725   5.297 -0.0565 -0.2515  0.5193
 2664SOL    HW119628   1.293   3.660   5.368  1.5224 -0.2551  0.4459
 2664SOL    HW219629   1.289   3.661   5.225 -3.7568  1.7129 -1.1799
 2665SOL     OW19630   3.661   0.846  11.396  0.3139 -0.4363 -0.1738
 2665SOL    HW119631   3.742   0.894  11.412 -0.1838  0.5729 -0.7381
 2665SOL    HW219632   3.605   0.903  11.448 -0.1535 -0.5661 -0.5413
 2666SOL     OW19633   0.427   3.548   3.918 -0.8824  0.3702 -0.0520
 2666SOL    HW119634   0.433   3.529   3.824  0.7665 -1.9728  0.5036
 2666SOL    HW219635   0.445   3.642   3.913  3.9934 -0.5735 -1.0967
 2667SOL     OW19636   4.186   2.708   4.851 -0.5323 -0.7378  0.2061
 2667SOL    HW119637   4.205   2.738   4.763 -3.6672  0.2444 -0.1263
 2667SOL    HW219638   4.120   2.642   4.831  0.1327 -1.9589  2.0071
 2668SOL     OW19639   0.707   1.556   8.204  0.4201  0.5639 -0.0244
 2668SOL    HW119640   0.785   1.511   8.170  0.1825 -0.1943  0.4641
 2668SOL    HW219641   0.729   1.580   8.294  0.5425  1.1926 -0.2172
 2669SOL     OW19642   2.964   3.723   9.990  0.1299 -0.4843  0.3581
 2669SOL    HW119643   3.060   3.728   9.985  0.1613 -0.9412  0.5416
 2669SOL    HW219644   2.957   3.665  10.066  3.3865 -0.5408  0.6050
 2670SOL     OW19645   2.837   2.372   4.299 -0.4008 -0.0805 -0.0814
 2670SOL    HW119646   2.782   2.417   4.364 -1.6445 -0.8733 -0.5938
 2670SOL    HW219647   2.910   2.354   4.359  1.9781 -0.8623 -3.2014
 2671SOL     OW19648   0.621   1.857   7.633  0.4942  0.8351 -0.1525
 2671SOL    HW119649   0.531   1.888   7.634  0.6455  1.3696 -3.2315
 2671SOL    HW219650   0.649   1.918   7.701 -2.6545  0.9558  1.0348
 2672SOL     OW19651   2.955   0.767   8.515  0.0849  0.0551 -0.3593
 2672SOL    HW119652   2.879   0.824   8.524 -0.8677 -1.4506  1.1067
 2672SOL    HW219653   3.010   0.837   8.481 -1.5304  0.9276 -1.1595
 2673SOL     OW19654   4.238   0.545   4.933 -0.7793 -0.3543 -0.2619
 2673SOL    HW119655   4.187   0.593   4.998  1.5283  0.3535  1.0114
 2673SOL    HW219656   4.185   0.466   4.919  0.7246 -1.0686 -1.9596
 2674SOL     OW19657   3.590   0.834   2.398 -0.1279  0.4827 -0.3034
 2674SOL    HW119658   3.573   0.903   2.462 -0.5453 -0.8556  1.0444
 2674SOL    HW219659   3.672   0.869   2.364 -0.1218  0.2541 -0.5314
 2675SOL     OW19660   0.517   0.464   9.408  0.2549  0.6514  0.2209
 2675SOL    HW119661   0.590   0.479   9.468  0.8211 -0.4695 -0.1949
 2675SOL    HW219662   0.539   0.380   9.369  0.4901 -0.1178  2.0079
 2676SOL     OW19663   4.113   3.704   3.331  0.0814  0.1385 -0.6785
 2676SOL    HW119664   4.047   3.738   3.391  2.1614  1.4095  0.8860
 2676SOL    HW219665   4.163   3.773   3.288  2.3398 -0.6266  0.7044
 2677SOL     OW19666   3.317   2.673   3.942 -0.0847 -0.7421 -0.0263
 2677SOL    HW119667   3.313   2.729   4.020 -0.4054 -0.1970 -0.4376
 2677SOL    HW219668   3.401   2.697   3.901  0.0323 -0.4147  0.4007
 2678SOL     OW19669   0.736   0.025   3.592 -0.2347  0.0932  0.3040
 2678SOL    HW119670   0.646   0.014   3.562 -0.5463 -0.9752  1.6386
 2678SOL    HW219671   0.762   0.118   3.594  0.1037  0.0090 -0.2568
 2679SOL     OW19672   3.446   4.463   6.411  0.1400  0.3403 -0.1416
 2679SOL    HW119673   3.521   4.521   6.417 -0.4991  1.2536 -1.0341
 2679SOL    HW219674   3.427   4.446   6.503 -0.5141 -0.3475 -0.3961
 2680SOL     OW19675   1.773   2.142  14.039 -0.2496  0.3641 -0.6578
 2680SOL    HW119676   1.708   2.185  13.982  0.3990 -1.5127 -2.8065
 2680SOL    HW219677   1.855   2.175  14.004 -0.1670  0.1485 -0.6648
 2681SOL     OW19678   4.170   0.111   5.614 -0.3032  0.8978  0.1093
 2681SOL    HW119679   4.217   0.189   5.584  0.8039 -0.4494 -1.6568
 2681SOL    HW219680   4.085   0.144   5.642 -0.9702 -0.0104 -0.8168
 2682SOL     OW19681   0.103   0.641   7.255  0.3547 -0.4203  0.5518
 2682SOL    HW119682   0.163   0.630   7.329 -0.2157  0.3530  1.1306
 2682SOL    HW219683   0.153   0.706   7.206  1.1041  0.4997  2.5523
 2683SOL     OW19684   3.240   0.108   2.855  0.1898 -0.2702 -0.4884
 2683SOL    HW119685   3.274   0.027   2.894  0.9034 -0.6043 -1.8214
 2683SOL    HW219686   3.317   0.146   2.814 -1.1219  3.4903  0.5547
 2684SOL     OW19687   0.085   3.058   2.492  0.0627 -0.0596 -0.6760
 2684SOL    HW119688   0.072   3.133   2.550  0.0697 -0.4900 -0.1157
 2684SOL    HW219689   0.169   3.040   2.534  0.2735  1.6799 -0.3222
 2685SOL     OW19690   3.032   3.991   6.369 -0.2062  0.2659 -0.1343
 2685SOL    HW119691   3.063   3.911   6.412  0.5575  0.1704 -0.8338
 2685SOL    HW219692   2.947   4.001   6.409  0.5349  0.4254  1.3769
 2686SOL     OW19693   0.173   3.378  15.253  0.6133  0.2025 -0.4685
 2686SOL    HW119694   0.080   3.398  15.241  0.8741  0.6009 -1.7470
 2686SOL    HW219695   0.187   3.290  15.218 -0.6486 -0.5178  0.8429
 2687SOL     OW19696   1.477   2.979   1.058 -0.2129 -0.0506 -0.6268
 2687SOL    HW119697   1.440   2.894   1.079  0.6690 -0.5275 -1.0302
 2687SOL    HW219698   1.556   2.980   1.111  0.2977  0.3699 -1.3965
 2688SOL     OW19699   2.130   3.730  12.475  0.0530 -0.0452 -0.0105
 2688SOL    HW119700   2.187   3.683  12.414  1.0832  0.5377  0.4938
 2688SOL    HW219701   2.070   3.773  12.415  0.6456  1.3216  0.3667
 2689SOL     OW19702   4.330   2.912   0.925 -0.2648 -0.7035 -0.5612
 2689SOL    HW119703   4.353   2.970   0.852 -0.7362  0.1557 -0.0332
 2689SOL    HW219704   4.309   2.834   0.874 -1.3130 -0.1975 -0.8975
 2690SOL     OW19705   4.364   1.305   6.560  0.3388  0.4373 -0.1296
 2690SOL    HW119706   4.289   1.340   6.608  0.6682  0.2089  0.5642
 2690SOL    HW219707   4.352   1.211   6.578 -3.2146  1.1056  1.0255
 2691SOL     OW19708   3.716   0.762   8.749  0.3158 -0.3809  0.2657
 2691SOL    HW119709   3.653   0.803   8.807 -1.1395 -2.0603 -0.1354
 2691SOL    HW219710   3.762   0.703   8.809  0.1325  0.9294  1.6950
 2692SOL     OW19711   4.621   3.743   4.550  0.9102 -0.0677  0.0570
 2692SOL    HW119712   4.616   3.824   4.498 -2.0415 -1.3553 -1.6100
 2692SOL    HW219713   4.717   3.739   4.559  0.6933 -0.7510  2.1441
 2693SOL     OW19714   0.996   3.556   5.653  0.0832  0.7743 -0.0444
 2693SOL    HW119715   0.901   3.567   5.660  0.0548  1.2872 -1.2315
 2693SOL    HW219716   1.012   3.648   5.675 -2.3582  0.6159  2.4614
 2694SOL     OW19717   0.507   3.551   7.067 -0.0850 -0.5204  0.3507
 2694SOL    HW119718   0.440   3.610   7.100  0.1416  0.5432 -1.0830
 2694SOL    HW219719   0.574   3.618   7.048  0.2736 -1.8426 -3.1706
 2695SOL     OW19720   0.476   2.701   7.052  0.0167 -0.3505  0.6674
 2695SOL    HW119721   0.441   2.641   7.117  0.6776 -1.9837 -0.5048
 2695SOL    HW219722   0.450   2.788   7.083  3.4478  0.3531  1.5620
 2696SOL     OW19723   4.319   1.878   1.023 -0.7206 -0.2786 -0.0821
 2696SOL    HW119724   4.262   1.817   0.978  0.7117  0.1348 -2.4950
 2696SOL    HW219725   4.251   1.935   1.058 -1.4631 -0.7129 -0.8263
 2697SOL     OW19726   2.359   3.814  14.530  0.1889  0.1740 -0.4270
 2697SOL    HW119727   2.381   3.723  14.554  0.9631  0.2295 -0.9224
 2697SOL    HW219728   2.289   3.796  14.467 -0.0614 -0.1814 -0.0483
 2698SOL     OW19729   1.940   0.937   2.162  0.2545  0.5428 -0.1383
 2698SOL    HW119730   1.916   1.001   2.095  2.2023 -0.0587 -1.3941
 2698SOL    HW219731   1.924   0.852   2.119  0.8792 -0.0257  0.7500
 2699SOL     OW19732   4.213   1.966   2.545  0.1408 -0.6126  0.4397
 2699SOL    HW119733   4.239   1.963   2.453  0.6356 -2.7522  0.6441
 2699SOL    HW219734   4.289   1.931   2.591  1.7336 -1.5174 -2.8806
 2700SOL     OW19735   3.169   0.242   7.415 -0.5328  0.4052  0.1338
 2700SOL    HW119736   3.105   0.215   7.349 -0.1029  0.3385 -0.2544
 2700SOL    HW219737   3.115   0.301   7.467 -1.6774 -0.1697 -0.4120
 2701SOL     OW19738   2.871   0.167  11.269 -0.1984  0.1435  0.1096
 2701SOL    HW119739   2.794   0.148  11.322 -0.2601 -0.0344 -0.0420
 2701SOL    HW219740   2.926   0.215  11.332 -0.4017  0.3082  0.1620
 2702SOL     OW19741   4.153   2.272   2.900  0.4151 -0.2356 -0.2142
 2702SOL    HW119742   4.218   2.204   2.919 -0.1938 -1.2594 -1.7693
 2702SOL    HW219743   4.207   2.349   2.882 -0.3310  0.2491 -0.3846
 2703SOL     OW19744   4.690   1.117   5.713  0.2819  1.1433  0.0754
 2703SOL    HW119745   4.665   1.151   5.799 -0.2075  1.5048 -0.2082
 2703SOL    HW219746   4.677   1.023   5.723 -2.5645  1.5679  0.3069
 2704SOL     OW19747   0.006   4.420  16.409 -0.0184 -0.5128  0.0836
 2704SOL    HW119748   4.655   4.378  16.394 -0.8547  0.8331  1.0704
 2704SOL    HW219749   0.022   4.409  16.503 -0.5440  1.3186  0.3778
 2705SOL     OW19750   0.154   3.749  15.360  0.4693 -0.6060  0.0346
 2705SOL    HW119751   0.201   3.674  15.395  1.0173  0.0928  0.8132
 2705SOL    HW219752   0.076   3.759  15.414  2.5773  1.5062  2.6814
 2706SOL     OW19753   2.556   1.018  10.761 -0.0675 -0.0412 -0.6811
 2706SOL    HW119754   2.649   1.010  10.784  0.4266  0.7992 -2.4074
 2706SOL    HW219755   2.521   0.951  10.820 -1.6092  1.2826 -0.0921
 2707SOL     OW19756   1.091   1.842   6.741 -0.4279 -0.2794 -0.3384
 2707SOL    HW119757   1.006   1.881   6.721 -1.0425 -0.9443  0.9271
 2707SOL    HW219758   1.153   1.913   6.724 -0.5506 -0.1455 -0.2271
 2708SOL     OW19759   3.009   3.779  16.513 -0.3102  0.1594  0.0477
 2708SOL    HW119760   2.947   3.839  16.472 -1.2678  0.9786  2.6692
 2708SOL    HW219761   2.956   3.699  16.510  1.2507 -0.8240 -1.2858
 2709SOL     OW19762   3.706   4.204   9.929 -0.2147 -0.5362 -0.0080
 2709SOL    HW119763   3.795   4.216   9.962 -0.1832 -0.0606 -0.2734
 2709SOL    HW219764   3.668   4.290   9.944  0.3415 -0.1257 -1.0169
 2710SOL     OW19765   1.699   2.069   4.678 -0.0010  0.1305  0.3215
 2710SOL    HW119766   1.630   2.017   4.719  0.4479  1.4075  2.6936
 2710SOL    HW219767   1.651   2.152   4.678 -2.1271 -1.0904  1.3106
 2711SOL     OW19768   3.481   2.141   1.698 -0.4251  0.1967 -0.5147
 2711SOL    HW119769   3.395   2.178   1.679  0.3306  1.3674 -1.6838
 2711SOL    HW219770   3.485   2.056   1.653 -0.0377  0.5590 -1.1695
 2712SOL     OW19771   1.747   1.856  13.961  0.0282  0.6777  0.5733
 2712SOL    HW119772   1.740   1.939  14.008 -2.4963 -0.0649  1.4931
 2712SOL    HW219773   1.685   1.871  13.890 -0.7619  1.9333  1.5327
 2713SOL     OW19774   4.579   4.168   2.119  0.1471  0.3918 -0.1036
 2713SOL    HW119775   4.550   4.189   2.208 -1.6775 -0.9724 -0.3601
 2713SOL    HW219776   4.593   4.257   2.086  1.0222  0.2491 -0.1138
 2714SOL     OW19777   4.274   3.308   4.114  0.1537 -0.2793  0.7757
 2714SOL    HW119778   4.280   3.403   4.111 -1.1683 -0.2358 -0.5740
 2714SOL    HW219779   4.328   3.285   4.039 -0.6212 -0.9613  0.4177
 2715SOL     OW19780   2.107   2.868   0.215  0.0749  0.6372  0.3172
 2715SOL    HW119781   2.100   2.947   0.268 -0.7417  1.4083 -0.9431
 2715SOL    HW219782   2.102   2.893   0.123  1.3754  0.7464  0.2819
 2716SOL     OW19783   1.887   1.577   4.192  0.0339  0.1132  0.1375
 2716SOL    HW119784   1.850   1.660   4.161  0.1111  0.8048  1.8943
 2716SOL    HW219785   1.885   1.592   4.287 -0.8204 -2.4250  0.5251
 2717SOL     OW19786   0.136   3.050   8.562  0.4362 -0.5834 -0.2350
 2717SOL    HW119787   0.062   3.053   8.502  1.0352  1.2152 -0.9017
 2717SOL    HW219788   0.159   2.958   8.556  0.7881 -0.4624 -0.8112
 2718SOL     OW19789   0.148   1.585   3.654 -0.4939 -0.0459 -0.5003
 2718SOL    HW119790   0.088   1.521   3.616 -0.4318 -0.1419 -0.4366
 2718SOL    HW219791   0.160   1.649   3.583 -1.4675 -2.0190 -2.4652
 2719SOL     OW19792   3.389   0.331   5.588  0.5386 -0.4765  0.4009
 2719SOL    HW119793   3.336   0.411   5.588  1.0966 -0.1035 -2.5174
 2719SOL    HW219794   3.336   0.265   5.631 -2.7141  1.2137 -1.0187
 2720SOL     OW19795   2.217   2.092   5.644 -0.0922 -0.4789  0.2247
 2720SOL    HW119796   2.225   2.179   5.683 -0.4013 -0.9117  1.2423
 2720SOL    HW219797   2.123   2.074   5.647 -0.7494  2.4306 -2.8838
 2721SOL     OW19798   0.464   1.610  17.713 -0.9786  0.2516 -0.3253
 2721SOL    HW119799   0.530   1.580  17.650 -0.2902 -2.5383  1.7022
 2721SOL    HW219800   0.389   1.566  17.674 -0.1948 -1.4860  0.0874
 2722SOL     OW19801   3.789   0.449  14.857 -0.0365 -0.6584 -0.0397
 2722SOL    HW119802   3.791   0.497  14.940 -0.1624 -0.3386 -0.2234
 2722SOL    HW219803   3.792   0.522  14.795 -0.6970  0.1197  0.8412
 2723SOL     OW19804   1.344   2.376  17.109  0.0381 -0.4186 -0.3732
 2723SOL    HW119805   1.333   2.290  17.149  0.4928  0.2735  1.2325
 2723SOL    HW219806   1.271   2.425  17.147  0.3402  0.3258 -0.7386
 2724SOL     OW19807   4.248   0.251   3.606  0.0520 -0.3815 -0.2877
 2724SOL    HW119808   4.154   0.268   3.599 -0.2631 -2.1983 -0.4940
 2724SOL    HW219809   4.260   0.173   3.552 -0.4246 -0.8599  0.3009
 2725SOL     OW19810   1.532   3.622  15.188 -0.4067  0.2693 -1.1790
 2725SOL    HW119811   1.597   3.692  15.192  0.0661 -0.1395 -1.7779
 2725SOL    HW219812   1.589   3.553  15.219  0.1972  0.3007 -2.2084
 2726SOL     OW19813   1.815   1.697   7.997 -0.0824 -0.0368 -0.0585
 2726SOL    HW119814   1.859   1.670   7.917 -1.4349  0.1208 -0.8400
 2726SOL    HW219815   1.894   1.723   8.046 -0.8129  0.2583  0.9618
 2727SOL     OW19816   3.057   1.993  15.402 -0.0216 -0.2692 -0.1217
 2727SOL    HW119817   3.098   2.079  15.412  0.1721 -0.3283 -0.4242
 2727SOL    HW219818   2.980   1.998  15.459 -0.6734 -2.0626 -0.8647
 2728SOL     OW19819   3.163   1.416  12.612 -0.2602  0.3751  0.0064
 2728SOL    HW119820   3.227   1.355  12.574 -0.6234 -1.0021  1.6068
 2728SOL    HW219821   3.126   1.367  12.685 -0.2960  0.4911  0.0655
 2729SOL     OW19822   0.732   3.003  11.983 -0.0921 -0.6354 -0.0411
 2729SOL    HW119823   0.734   2.975  12.075 -0.5971  0.6044  0.3438
 2729SOL    HW219824   0.729   2.918  11.938 -3.4300  1.2666 -3.4122
 2730SOL     OW19825   2.038   0.864   8.127 -0.9043 -0.3294 -0.1508
 2730SOL    HW119826   1.985   0.786   8.138 -3.9360  1.6875 -0.4132
 2730SOL    HW219827   1.995   0.894   8.047 -1.8434 -0.8893  0.1489
 2731SOL     OW19828   0.251   0.612   6.443 -0.3960 -0.2389  0.0508
 2731SOL    HW119829   0.330   0.569   6.408 -2.1109 -2.1925 -1.4561
 2731SOL    HW219830   0.221   0.652   6.361  0.9188  0.9967  0.1693
 2732SOL     OW19831   2.306   0.620   1.840 -0.1785 -0.5333 -0.3964
 2732SOL    HW119832   2.254   0.575   1.773 -0.5911 -1.8316  0.7772
 2732SOL    HW219833   2.240   0.680   1.874  1.1715 -0.9741  3.0137
 2733SOL     OW19834   1.680   2.817  10.055  0.0826 -0.2006  0.6956
 2733SOL    HW119835   1.635   2.738  10.028 -0.0483 -0.0267  0.4060
 2733SOL    HW219836   1.618   2.871  10.105 -0.7878 -1.6603  1.1707
 2734SOL     OW19837   1.157   1.041   1.617 -0.3179  0.3153 -0.9498
 2734SOL    HW119838   1.211   1.120   1.625 -2.1471  1.4833  0.0607
 2734SOL    HW219839   1.075   1.078   1.584 -0.9118  0.7637  0.9790
 2735SOL     OW19840   2.955   0.095   8.393 -0.6102 -0.4223  0.2005
 2735SOL    HW119841   3.019   0.054   8.336  0.6476  0.5611  0.9128
 2735SOL    HW219842   2.902   0.023   8.427 -1.3449 -1.5358 -3.3765
 2736SOL     OW19843   3.144   2.174   0.545  0.2310  0.1371 -0.1303
 2736SOL    HW119844   3.108   2.251   0.500 -0.1832 -0.1237 -0.2493
 2736SOL    HW219845   3.116   2.098   0.494 -3.2745 -0.3278  2.4841
 2737SOL     OW19846   3.220   1.113   3.959  0.4940 -0.5093  0.3430
 2737SOL    HW119847   3.221   1.203   3.926 -1.3312 -1.1252 -1.4686
 2737SOL    HW219848   3.186   1.125   4.048 -2.4362  2.7333 -1.2142
 2738SOL     OW19849   3.621   4.650   8.539  0.0323 -0.2371 -0.1617
 2738SOL    HW119850   3.582   4.721   8.591  0.8891  0.5388 -0.5829
 2738SOL    HW219851   3.631   4.579   8.603 -1.7931  0.3554  0.7824
 2739SOL     OW19852   4.091   1.410   4.837 -0.4643 -0.3893  0.3623
 2739SOL    HW119853   4.074   1.455   4.919  0.0358 -0.2489  0.3897
 2739SOL    HW219854   4.019   1.455   4.793 -0.1100 -0.0927  0.0830
 2740SOL     OW19855   1.289   4.285   8.314 -0.1715  0.1659  0.4211
 2740SOL    HW119856   1.351   4.292   8.386 -0.5692  0.5752  0.7252
 2740SOL    HW219857   1.248   4.198   8.313  1.6854 -0.7001 -0.1030
 2741SOL     OW19858   1.801   1.989   6.679 -0.5894  0.1633  0.8823
 2741SOL    HW119859   1.798   2.083   6.662 -0.7360 -0.1696 -0.9383
 2741SOL    HW219860   1.711   1.956   6.678  0.0638 -1.5427 -0.6290
 2742SOL     OW19861   4.122   2.675   0.290 -0.1452 -0.2982 -0.2476
 2742SOL    HW119862   4.183   2.602   0.297  0.9971  0.4750 -2.0069
 2742SOL    HW219863   4.183   2.749   0.293  1.6470 -1.8557  1.7219
 2743SOL     OW19864   4.378   4.471   4.750  0.3281  0.4991 -0.7982
 2743SOL    HW119865   4.405   4.438   4.836 -1.2179 -1.3885 -1.0218
 2743SOL    HW219866   4.370   4.389   4.702  1.9135 -0.6794  0.9483
 2744SOL     OW19867   3.570   3.762   5.015  1.1044 -0.4163 -1.1684
 2744SOL    HW119868   3.482   3.790   4.989 -0.4033 -2.0586  2.2376
 2744SOL    HW219869   3.591   3.692   4.954  1.6447 -1.8611  0.6821
 2745SOL     OW19870   1.658   3.556   6.468 -0.0071  0.2654 -0.0042
 2745SOL    HW119871   1.619   3.610   6.399 -2.1178 -2.5323 -1.0167
 2745SOL    HW219872   1.678   3.612   6.543 -1.6957  2.6885 -1.3752
 2746SOL     OW19873   3.961   0.486  15.953  0.4295  0.4129 -0.3879
 2746SOL    HW119874   3.955   0.523  16.041  1.3940  2.1935 -1.0691
 2746SOL    HW219875   3.928   0.556  15.897  1.6466 -0.7472 -2.5684
 2747SOL     OW19876   3.294   2.164  15.221 -0.0408  0.3206 -0.3936
 2747SOL    HW119877   3.349   2.134  15.149 -0.1625  1.1393 -0.8246
 2747SOL    HW219878   3.212   2.178  15.173  1.5671  2.0577 -2.6202
 2748SOL     OW19879   0.939   3.709   3.797  0.0827  0.0613 -0.1911
 2748SOL    HW119880   0.968   3.792   3.758 -1.1759  0.7848  0.4204
 2748SOL    HW219881   0.914   3.650   3.725 -1.6673  0.1106  0.3695
 2749SOL     OW19882   3.542   4.706   2.568  0.3721  0.1317  0.3921
 2749SOL    HW119883   3.572   4.622   2.535 -1.0645  0.2208 -1.1388
 2749SOL    HW219884   3.469   4.714   2.506 -0.0178  0.5009  0.9027
 2750SOL     OW19885   2.955   3.592   5.954 -0.1724 -0.0237 -0.5450
 2750SOL    HW119886   2.919   3.679   5.973  1.8431  0.9944 -1.3432
 2750SOL    HW219887   2.960   3.564   6.045  1.4421  2.6848  0.2341
 2751SOL     OW19888   2.443   3.810  12.337  0.2085 -0.0976  0.1531
 2751SOL    HW119889   2.436   3.821  12.432 -1.3137 -0.3784  0.0776
 2751SOL    HW219890   2.400   3.726  12.320 -0.7279  0.4330 -0.1613
 2752SOL     OW19891   0.400   2.618   9.387 -0.0201 -0.1669  0.0796
 2752SOL    HW119892   0.473   2.556   9.388  0.1073 -0.0017  1.0291
 2752SOL    HW219893   0.325   2.570   9.421 -1.1201  0.9103 -0.8052
 2753SOL     OW19894   1.842   3.936   9.667 -0.0727 -0.3178 -0.3904
 2753SOL    HW119895   1.845   3.840   9.674  0.2869 -0.3882 -1.5581
 2753SOL    HW219896   1.918   3.941   9.609  0.8223 -1.8330  0.6685
 2754SOL     OW19897   4.586   0.259   9.152  0.3330 -0.4551  0.1730
 2754SOL    HW119898   4.500   0.301   9.143 -0.5086 -2.2549 -0.0708
 2754SOL    HW219899   4.578   0.193   9.084 -1.4373 -0.0900  0.0202
 2755SOL     OW19900   2.781   0.654   5.378  0.2122 -0.2989 -0.6118
 2755SOL    HW119901   2.743   0.664   5.291 -0.1972 -1.1077 -0.5289
 2755SOL    HW219902   2.827   0.738   5.385  1.4304 -1.1753  2.0939
 2756SOL     OW19903   1.196   1.422   4.801 -0.2528 -0.3368  0.1066
 2756SOL    HW119904   1.242   1.504   4.819 -0.0892 -0.5683  0.7433
 2756SOL    HW219905   1.170   1.392   4.888 -1.2851  0.7140  0.1571
 2757SOL     OW19906   4.334   4.385  13.450  0.0916 -0.3439  0.1426
 2757SOL    HW119907   4.418   4.378  13.405 -0.0768  2.3789 -0.6299
 2757SOL    HW219908   4.291   4.447  13.391 -1.2574 -0.1905  1.2945
 2758SOL     OW19909   1.903   1.260   3.567 -0.4492  0.2160 -0.4359
 2758SOL    HW119910   1.925   1.285   3.657 -1.8966 -0.0891  0.0182
 2758SOL    HW219911   1.928   1.168   3.571 -0.1667  0.3662  1.5707
 2759SOL     OW19912   3.728   3.454   8.636 -0.5913  0.3129  0.1038
 2759SOL    HW119913   3.737   3.433   8.729 -0.8146 -1.1416 -0.2046
 2759SOL    HW219914   3.801   3.511   8.610 -1.4907  1.3405 -0.1945
 2760SOL     OW19915   4.239   3.640   4.385 -0.4081 -0.0024  0.3165
 2760SOL    HW119916   4.246   3.734   4.368  0.4058 -0.2606 -0.7635
 2760SOL    HW219917   4.144   3.627   4.389 -0.5937  0.9934 -0.8647
 2761SOL     OW19918   2.554   3.985   2.474 -0.0276  0.4076 -0.2576
 2761SOL    HW119919   2.571   3.940   2.391  2.6145  0.2624  0.3551
 2761SOL    HW219920   2.634   3.990   2.526  0.2086  0.5083 -0.6300
 2762SOL     OW19921   0.412   0.947  14.555 -0.3166  0.7630  0.0000
 2762SOL    HW119922   0.427   0.976  14.465  0.7907 -2.4119 -0.8415
 2762SOL    HW219923   0.352   1.009  14.597  0.1099  0.0354  1.7179
 2763SOL     OW19924   2.197   2.236   0.076 -0.0063 -0.2422  0.2550
 2763SOL    HW119925   2.224   2.284   0.154 -0.3791 -1.9097  1.4239
 2763SOL    HW219926   2.267   2.173   0.062  0.9520  0.6457  1.0918
 2764SOL     OW19927   1.706   3.063   3.162  0.0902 -0.5379 -0.2330
 2764SOL    HW119928   1.693   3.156   3.182  0.8593 -0.6420  0.7994
 2764SOL    HW219929   1.635   3.046   3.100 -1.1922  1.0122  0.8014
 2765SOL     OW19930   2.187   1.149   6.785  0.4867 -0.2865 -0.2804
 2765SOL    HW119931   2.195   1.179   6.876  0.5315 -2.0845  0.2975
 2765SOL    HW219932   2.136   1.069   6.794 -0.9758  0.1950 -4.1968
 2766SOL     OW19933   2.792   0.956   2.708  0.0016  0.0001 -0.2417
 2766SOL    HW119934   2.827   0.866   2.706  0.5353  0.1662  1.9648
 2766SOL    HW219935   2.716   0.951   2.765  0.5531 -0.8313  0.4238
 2767SOL     OW19936   2.818   3.723   6.676  0.1246 -0.1670  0.0978
 2767SOL    HW119937   2.867   3.795   6.636  0.2455 -0.8965 -1.0632
 2767SOL    HW219938   2.749   3.767   6.726 -2.5502 -2.2242 -1.7604
 2768SOL     OW19939   3.455   3.342   3.215  0.1055  0.0620  0.1082
 2768SOL    HW119940   3.433   3.271   3.275 -0.0357 -0.5956 -0.7153
 2768SOL    HW219941   3.523   3.291   3.170  0.3209 -0.3982  0.9571
 2769SOL     OW19942   1.020   3.940   2.948  0.1843 -0.0470 -0.0732
 2769SOL    HW119943   1.102   3.925   2.996 -1.1075 -1.7030  1.6521
 2769SOL    HW219944   1.009   4.034   2.958  1.2374  0.0776 -0.0477
 2770SOL     OW19945   4.403   0.517   3.609  0.3528 -0.8342 -0.0329
 2770SOL    HW119946   4.336   0.567   3.656  0.4530 -0.3461 -0.4097
 2770SOL    HW219947   4.398   0.434   3.655  0.6945  0.8137  2.9684
 2771SOL     OW19948   0.984   4.131   4.918  0.2919 -0.3901 -0.5767
 2771SOL    HW119949   1.052   4.080   4.874  0.4376 -2.1467  1.6539
 2771SOL    HW219950   1.003   4.221   4.891  1.0393  0.0554  1.4313
 2772SOL     OW19951   1.506   1.250   8.806  0.0923  0.5702 -0.0367
 2772SOL    HW119952   1.482   1.157   8.803 -1.7739  1.0502 -0.1375
 2772SOL    HW219953   1.427   1.284   8.849 -0.1956 -0.7670  0.5091
 2773SOL     OW19954   2.261   1.259   8.697 -0.3119 -0.1371 -0.1438
 2773SOL    HW119955   2.257   1.175   8.743  1.3775 -0.6132 -0.8670
 2773SOL    HW219956   2.189   1.253   8.635  0.0254 -1.4185 -0.4014
 2774SOL     OW19957   1.767   2.189   5.879 -0.0622 -0.3437 -0.0953
 2774SOL    HW119958   1.699   2.122   5.884 -0.1876 -0.5126 -3.6377
 2774SOL    HW219959   1.719   2.258   5.832 -0.3472 -1.0551 -0.8598
 2775SOL     OW19960   4.140   0.856   4.108  0.3066 -0.7714 -0.0423
 2775SOL    HW119961   4.073   0.916   4.076  1.2344  0.1345 -0.3048
 2775SOL    HW219962   4.187   0.918   4.163  2.0508 -1.0973 -1.1619
 2776SOL     OW19963   0.806   4.398   9.133  0.1695  0.0067 -0.1558
 2776SOL    HW119964   0.822   4.405   9.227 -1.6941  1.2325  0.0548
 2776SOL    HW219965   0.864   4.325   9.111  1.9961  0.3817  3.3817
 2777SOL     OW19966   3.872   1.105   6.515  0.7798  0.0624  0.4830
 2777SOL    HW119967   3.946   1.120   6.456  1.4971 -1.0306  1.0894
 2777SOL    HW219968   3.904   1.086   6.603  0.3651  0.0324  0.6234
 2778SOL     OW19969   4.149   2.165  10.967  0.1122 -0.5861 -0.2666
 2778SOL    HW119970   4.161   2.087  11.020 -0.1946  0.4402  1.3333
 2778SOL    HW219971   4.121   2.235  11.027  0.7427  1.5809 -2.4762
 2779SOL     OW19972   0.638   0.841  14.460  0.3095 -0.6337 -0.3483
 2779SOL    HW119973   0.693   0.862  14.536 -0.6593  2.9805 -0.6305
 2779SOL    HW219974   0.550   0.843  14.498  1.0866  1.0643  1.3512
 2780SOL     OW19975   0.219   2.663  16.853 -0.7538 -0.0421  0.6954
 2780SOL    HW119976   0.256   2.712  16.780  0.5642 -1.5228  0.3781
 2780SOL    HW219977   0.293   2.659  16.914  0.8903 -0.3975 -1.3334
 2781SOL     OW19978   2.680   2.017  16.387  0.0286 -0.1019  0.1795
 2781SOL    HW119979   2.743   1.982  16.324  0.2038  0.2576  0.1529
 2781SOL    HW219980   2.652   1.933  16.422  0.0503 -1.2638 -2.6104
 2782SOL     OW19981   1.397   4.055   3.600 -0.2348  0.0940 -0.0799
 2782SOL    HW119982   1.394   4.048   3.505  1.4287 -1.1526 -0.0459
 2782SOL    HW219983   1.334   3.987   3.621  0.0100 -0.2070 -0.3129
 2783SOL     OW19984   2.620   4.220   0.178  0.2156  0.4982 -0.0336
 2783SOL    HW119985   2.671   4.139   0.187  2.4119  2.1708  2.5353
 2783SOL    HW219986   2.533   4.180   0.187 -0.2620  1.6335  0.4538
 2784SOL     OW19987   3.807   2.768  16.785 -0.6087 -0.5535  0.0143
 2784SOL    HW119988   3.825   2.674  16.790 -0.5758 -0.5630 -0.3079
 2784SOL    HW219989   3.840   2.784  16.874 -1.4432  2.6418 -0.2456
 2785SOL     OW19990   4.584   1.409  11.571  0.0195  0.3228  0.6664
 2785SOL    HW119991   4.503   1.451  11.601  1.2676  2.0658  1.6273
 2785SOL    HW219992   4.649   1.443  11.632 -1.2955  0.7746  1.8411
 2786SOL     OW19993   3.914   3.604   0.238 -0.2014 -0.1557  0.2903
 2786SOL    HW119994   3.868   3.658   0.174 -2.8067 -0.4722  1.9520
 2786SOL    HW219995   3.914   3.674   0.303  0.0872 -0.4657  0.6251
 2787SOL     OW19996   3.941   2.552   1.422 -0.2125  0.0670 -0.1238
 2787SOL    HW119997   3.866   2.605   1.446 -0.3071 -0.4897  0.8167
 2787SOL    HW219998   3.987   2.613   1.363 -0.6393 -0.4395 -0.9852
 2788SOL     OW19999   2.061   0.403  14.978 -0.2537  0.1045  0.6496
 2788SOL    HW120000   2.131   0.338  14.988 -1.5781 -1.8933 -3.0808
 2788SOL    HW220001   1.999   0.363  14.917 -0.8532  0.8913  0.7305
 2789SOL     OW20002   0.603   3.815   5.274  0.1925 -0.0532  0.5377
 2789SOL    HW120003   0.559   3.758   5.336  2.3743 -3.7787 -1.3466
 2789SOL    HW220004   0.549   3.803   5.196  1.2970 -0.4481 -0.1797
 2790SOL     OW20005   4.006   4.431   5.170  0.3262 -0.2962 -0.2528
 2790SOL    HW120006   3.982   4.351   5.124 -4.6170  2.3694 -2.2255
 2790SOL    HW220007   3.972   4.409   5.257  0.3782  4.1562  0.8936
 2791SOL     OW20008   1.621   0.610   7.333  0.6144  0.3756  0.6334
 2791SOL    HW120009   1.580   0.526   7.357 -0.5973  1.8690  3.7143
 2791SOL    HW220010   1.663   0.631   7.416 -0.6597  0.7730  1.1695
 2792SOL     OW20011   3.945   2.871  17.580 -0.5708 -0.2526  0.0131
 2792SOL    HW120012   3.930   2.866  17.674 -1.8759  0.3566 -0.1670
 2792SOL    HW220013   4.041   2.875  17.579 -0.3787 -4.5819  1.5655
 2793SOL     OW20014   0.269   1.572   6.778 -0.8849 -0.1441  0.5068
 2793SOL    HW120015   0.213   1.641   6.812 -1.3664 -0.9159  1.2915
 2793SOL    HW220016   0.314   1.615   6.706 -1.4137 -2.0027 -0.9390
 2794SOL     OW20017   0.742   3.888  17.049 -0.1815  0.3173  0.4523
 2794SOL    HW120018   0.656   3.921  17.077 -1.0858  1.7309 -3.9061
 2794SOL    HW220019   0.737   3.917  16.958  0.9616  0.5017  0.4479
 2795SOL     OW20020   1.513   2.979   3.001 -0.1509 -0.2700  0.3550
 2795SOL    HW120021   1.512   2.883   2.996  2.2625 -0.2816 -0.2654
 2795SOL    HW220022   1.478   3.004   2.915 -2.8715 -0.4332  1.4255
 2796SOL     OW20023   2.323   4.688   6.262 -0.2146 -0.3505  0.0380
 2796SOL    HW120024   2.336   0.048   6.271  0.1222 -0.3159 -0.8213
 2796SOL    HW220025   2.406   4.669   6.220  0.2449 -3.1554  2.2025
 2797SOL     OW20026   3.546   1.418   5.335 -0.2012 -0.4838  0.3875
 2797SOL    HW120027   3.527   1.380   5.249  2.0876 -0.8254  0.0336
 2797SOL    HW220028   3.567   1.508   5.311 -3.1196  0.5413  1.6339
 2798SOL     OW20029   1.852   3.087   2.029  0.0162  0.0402  0.0209
 2798SOL    HW120030   1.824   3.141   1.955  1.1913  1.5578  0.6607
 2798SOL    HW220031   1.781   3.104   2.091 -0.7104  0.3840 -0.9091
 2799SOL     OW20032   2.469   1.577   7.544  0.4875  0.4407  0.4614
 2799SOL    HW120033   2.416   1.499   7.526 -1.2178  1.7224 -0.1215
 2799SOL    HW220034   2.555   1.536   7.552  0.2869 -0.0516  0.1114
 2800SOL     OW20035   2.184   1.735   6.063  0.5610  0.3857  0.1058
 2800SOL    HW120036   2.118   1.802   6.049 -1.4919 -1.8515 -0.9211
 2800SOL    HW220037   2.170   1.686   5.982 -0.6599  0.3145  0.3640
 2801SOL     OW20038   3.058   0.199  11.475  0.1976 -0.2254 -0.2034
 2801SOL    HW120039   3.118   0.131  11.506 -0.8647 -0.0064  2.3086
 2801SOL    HW220040   3.019   0.226  11.558 -2.4104  1.6111 -2.0546
 2802SOL     OW20041   2.079   1.549   4.485  0.0109 -0.2192 -0.5708
 2802SOL    HW120042   2.129   1.629   4.471  1.1451 -0.4554  2.1700
 2802SOL    HW220043   1.996   1.593   4.502  0.3764  0.2154  0.1261
 2803SOL     OW20044   0.895   0.054   3.341 -0.1492  0.3174 -0.1592
 2803SOL    HW120045   0.817   0.010   3.375 -0.1968 -1.0802 -2.0720
 2803SOL    HW220046   0.961   0.009   3.394  1.4612 -0.8528 -3.1088
 2804SOL     OW20047   0.509   4.461   9.178 -0.4400 -0.1229 -0.0293
 2804SOL    HW120048   0.593   4.422   9.155 -0.4063  0.2597 -0.5441
 2804SOL    HW220049   0.482   4.394   9.241  1.3127 -1.2290 -0.4669
 2805SOL     OW20050   0.687   0.219   6.063  0.0924 -0.3222 -0.3461
 2805SOL    HW120051   0.780   0.235   6.048  0.0451 -1.5146 -2.0061
 2805SOL    HW220052   0.660   0.139   6.017 -0.7703 -0.6040  0.6361
 2806SOL     OW20053   1.368   4.662   9.174  0.4313  0.1803  0.3315
 2806SOL    HW120054   1.333   4.683   9.087  2.0079  2.1675  0.1890
 2806SOL    HW220055   1.439   4.725   9.168  0.3916 -0.0245 -2.3387
 2807SOL     OW20056   4.412   3.612   5.147 -0.4185  0.2162  0.3851
 2807SOL    HW120057   4.335   3.592   5.200  0.1609 -0.8557  0.8194
 2807SOL    HW220058   4.387   3.597   5.056  0.7504 -0.5210  0.1910
 2808SOL     OW20059   0.784   2.316   7.560  0.6725 -0.1263  0.0753
 2808SOL    HW120060   0.774   2.265   7.640  0.2140 -1.2715 -0.7098
 2808SOL    HW220061   0.878   2.335   7.559  0.5505  0.4709 -0.0164
 2809SOL     OW20062   3.093   3.977   7.550  0.0362 -0.1894  0.1303
 2809SOL    HW120063   3.129   3.931   7.474  1.9974 -0.2239  1.0775
 2809SOL    HW220064   3.148   3.951   7.624  1.5081  0.7875 -0.6299
 2810SOL     OW20065   1.862   1.249  12.511 -0.0367 -0.1027  0.2801
 2810SOL    HW120066   1.924   1.206  12.570 -0.1714 -1.1429 -0.3291
 2810SOL    HW220067   1.798   1.270  12.580 -0.4132  1.1173 -0.4392
 2811SOL     OW20068   1.261   3.228  15.238 -0.1192 -0.0468  0.0784
 2811SOL    HW120069   1.275   3.312  15.194 -1.3766  0.3044  0.3298
 2811SOL    HW220070   1.283   3.258  15.327  0.2032  2.2839 -0.7792
 2812SOL     OW20071   2.369   1.873   2.917  0.1958 -0.6113 -0.1525
 2812SOL    HW120072   2.408   1.792   2.949 -0.8294 -0.9869  0.1248
 2812SOL    HW220073   2.378   1.928   2.994 -0.1730 -1.2226  0.3245
 2813SOL     OW20074   2.790   4.032   6.942  0.2231 -0.9281  0.2615
 2813SOL    HW120075   2.845   3.957   6.966  1.0829 -0.2162  0.5200
 2813SOL    HW220076   2.726   4.032   7.013 -0.0729  0.1080 -0.0113
 2814SOL     OW20077   2.690   0.235   6.142  0.6401  0.3954  0.1816
 2814SOL    HW120078   2.687   0.237   6.047  2.2086 -0.4550  0.1080
 2814SOL    HW220079   2.785   0.237   6.154  1.2911 -1.3855 -4.7435
 2815SOL     OW20080   2.284   0.445   7.200  0.1447  1.1238  0.5042
 2815SOL    HW120081   2.317   0.356   7.209  0.8615  1.4929  1.6067
 2815SOL    HW220082   2.189   0.435   7.209 -0.0556  0.9329 -1.8991
 2816SOL     OW20083   0.426   2.316   9.612 -0.6402 -0.4024 -0.2373
 2816SOL    HW120084   0.516   2.300   9.586 -0.4518 -1.5763  1.1620
 2816SOL    HW220085   0.403   2.231   9.649 -0.1818  0.9659  3.1406
 2817SOL     OW20086   1.377   3.275  11.812 -0.0257  0.5739  0.1692
 2817SOL    HW120087   1.385   3.181  11.796  0.9389  0.2549  2.5938
 2817SOL    HW220088   1.387   3.273  11.907 -0.6515 -1.0130  0.2017
 2818SOL     OW20089   3.981   1.342  16.324 -0.5900  0.0376 -0.2744
 2818SOL    HW120090   4.037   1.418  16.308  0.2159 -0.4721  0.1107
 2818SOL    HW220091   3.936   1.364  16.406 -0.5124 -1.1692  0.0890
 2819SOL     OW20092   2.394   0.163   7.197 -0.3780 -0.0254 -0.1655
 2819SOL    HW120093   2.333   0.089   7.200 -0.2807 -0.0018  2.4330
 2819SOL    HW220094   2.475   0.119   7.222 -0.2304  1.3667  1.8585
 2820SOL     OW20095   1.635   3.479   8.698  0.1298 -0.4947 -0.3338
 2820SOL    HW120096   1.705   3.471   8.633  0.1337 -1.0534 -0.2642
 2820SOL    HW220097   1.693   3.479   8.774 -0.4271  2.6705  0.1057
 2821SOL     OW20098   3.075   1.952   0.384  0.4142 -0.6523  0.0473
 2821SOL    HW120099   2.984   1.925   0.399  1.3396 -4.1908 -0.7872
 2821SOL    HW220100   3.072   1.942   0.289 -3.5107 -0.4479  0.1484
 2822SOL     OW20101   1.747   3.774  15.202 -0.9318 -0.2202  0.6288
 2822SOL    HW120102   1.753   3.867  15.223 -0.0082 -0.0341 -0.4607
 2822SOL    HW220103   1.835   3.744  15.225 -0.6919  2.6626  3.2987
 2823SOL     OW20104   1.711   1.663   3.872 -0.0601 -0.2414  0.0396
 2823SOL    HW120105   1.774   1.592   3.879 -1.1984 -1.4331 -1.8274
 2823SOL    HW220106   1.756   1.727   3.817 -1.3856  1.6299  1.1032
 2824SOL     OW20107   0.312   3.854   7.702  0.0213  0.1107  0.3042
 2824SOL    HW120108   0.242   3.917   7.684  1.4174  1.2593 -1.1002
 2824SOL    HW220109   0.327   3.874   7.794 -1.3570  2.1173  0.0930
 2825SOL     OW20110   0.055   2.034   2.553 -0.3716  0.1108  0.2048
 2825SOL    HW120111   0.146   2.006   2.544 -0.0800  0.7954  1.0213
 2825SOL    HW220112   0.060   2.124   2.521  0.1902  0.5693  1.6132
 2826SOL     OW20113   3.143   0.390   8.293  0.3624 -0.2573  0.2743
 2826SOL    HW120114   3.158   0.473   8.249 -1.3865  0.0396  0.2079
 2826SOL    HW220115   3.125   0.340   8.214 -1.5945  1.8027 -0.5988
 2827SOL     OW20116   1.078   2.251   6.070 -0.6685  0.7490 -0.3668
 2827SOL    HW120117   1.044   2.250   6.160 -0.4587  1.0030 -0.2810
 2827SOL    HW220118   1.065   2.163   6.035  1.3434 -0.3369  1.6192
 2828SOL     OW20119   4.132   4.083  11.557 -0.0788 -0.3189  0.5281
 2828SOL    HW120120   4.183   4.130  11.491 -0.6130 -0.2140  0.1973
 2828SOL    HW220121   4.197   4.076  11.628  1.5942  0.0528 -0.9512
 2829SOL     OW20122   3.967   4.305   2.129  0.2847 -0.1696  0.2787
 2829SOL    HW120123   3.897   4.246   2.154  0.9403 -1.7869 -1.6325
 2829SOL    HW220124   4.043   4.252   2.155  0.1572  0.7764  2.5541
 2830SOL     OW20125   0.057   2.139   7.384 -0.2738 -0.2385  0.0023
 2830SOL    HW120126   0.050   2.226   7.423  0.2231 -0.5527  0.7874
 2830SOL    HW220127   0.151   2.122   7.395  0.0503  1.2976 -0.4044
 2831SOL     OW20128   2.384   0.096  16.997 -0.3452  0.0105 -0.0392
 2831SOL    HW120129   2.320   0.160  16.965 -0.5955 -1.1539 -1.8643
 2831SOL    HW220130   2.332   0.023  17.029 -0.3677  1.2362  2.7858
 2832SOL     OW20131   4.697   4.005   8.774 -0.4491 -0.2805 -0.3607
 2832SOL    HW120132   4.602   4.017   8.782 -0.4087 -1.4438  1.8830
 2832SOL    HW220133   4.706   3.910   8.763  2.9280 -0.2333  1.9426
 2833SOL     OW20134   3.798   2.651   2.704  0.0682 -0.1937  0.3174
 2833SOL    HW120135   3.881   2.605   2.710 -1.2207 -2.7622 -1.3142
 2833SOL    HW220136   3.779   2.656   2.610  1.6293  1.5640  0.1070
 2834SOL     OW20137   1.215   3.498   5.892  0.1514 -0.5669 -0.0233
 2834SOL    HW120138   1.264   3.479   5.812  0.1011  0.6435 -0.3444
 2834SOL    HW220139   1.253   3.442   5.959  2.1341 -0.4307 -1.0253
 2835SOL     OW20140   2.661   2.323   3.454  0.3772  0.3921  0.3418
 2835SOL    HW120141   2.592   2.329   3.389 -0.5827  1.6848  1.4676
 2835SOL    HW220142   2.655   2.410   3.494  0.6870  0.2057  0.7920
 2836SOL     OW20143   1.295   4.532   4.979  0.2597  0.2507 -0.0799
 2836SOL    HW120144   1.351   4.471   4.931 -1.3714 -0.9556 -0.4197
 2836SOL    HW220145   1.360   4.596   5.009 -0.1782  2.2149 -3.3002
 2837SOL     OW20146   3.080   3.533   0.603  0.3637  0.0311 -0.5294
 2837SOL    HW120147   3.097   3.455   0.655 -0.3207 -0.5381 -1.1537
 2837SOL    HW220148   2.985   3.541   0.609  0.3849  0.1667 -0.3784
 2838SOL     OW20149   1.314   4.214   6.353 -0.4764  0.1862  0.5199
 2838SOL    HW120150   1.339   4.210   6.446 -0.2223 -3.0075  0.3034
 2838SOL    HW220151   1.374   4.277   6.313 -0.2844 -0.2995  0.0402
 2839SOL     OW20152   1.564   0.970   9.132  0.4350  0.1546  0.0500
 2839SOL    HW120153   1.557   0.914   9.055 -1.4448  0.1588  0.2128
 2839SOL    HW220154   1.642   0.937   9.175 -0.3142 -3.0770 -1.0970
 2840SOL     OW20155   3.548   1.018   9.235  0.3344 -0.3384 -0.3901
 2840SOL    HW120156   3.607   1.053   9.168  0.2411  1.5338  0.5240
 2840SOL    HW220157   3.470   1.020   9.181 -0.4268 -0.7934  0.6927
 2841SOL     OW20158   3.490   3.156  15.677 -0.0728 -0.6038  0.0784
 2841SOL    HW120159   3.407   3.111  15.663 -0.7410  0.2618  1.3038
 2841SOL    HW220160   3.541   3.085  15.716 -0.3976 -1.6812 -1.4385
 2842SOL     OW20161   1.961   0.651  14.594 -0.5362 -0.0086  0.1970
 2842SOL    HW120162   1.984   0.714  14.525  0.3284  0.9023  1.3046
 2842SOL    HW220163   2.042   0.601  14.603  0.0804  1.1493  1.1586
 2843SOL     OW20164   4.247   0.915   5.970  0.0056 -0.4945  0.2975
 2843SOL    HW120165   4.238   0.820   5.959 -0.3901 -0.6898  2.2339
 2843SOL    HW220166   4.264   0.947   5.882 -0.2957 -1.3506 -0.0677
 2844SOL     OW20167   3.301   3.787   4.117  0.5249 -0.1075  0.3713
 2844SOL    HW120168   3.264   3.873   4.136  0.1875 -0.6960  2.4261
 2844SOL    HW220169   3.274   3.737   4.195  1.1773  0.2675  0.8421
 2845SOL     OW20170   1.753   1.391   7.388 -0.3935 -0.4106  0.2211
 2845SOL    HW120171   1.833   1.427   7.427  0.2527  1.1025 -2.4950
 2845SOL    HW220172   1.732   1.449   7.315  0.4407 -1.7545 -1.0699
 2846SOL     OW20173   3.608   3.603  16.116  0.3935  0.1550  0.2834
 2846SOL    HW120174   3.673   3.672  16.103  0.0299  0.5783  0.7297
 2846SOL    HW220175   3.599   3.610  16.211 -1.6164 -1.9788  0.2652
 2847SOL     OW20176   1.352   3.001  10.404  0.7826 -0.4076 -0.6407
 2847SOL    HW120177   1.386   3.083  10.441  1.1326 -1.0254  0.4128
 2847SOL    HW220178   1.310   2.960  10.479 -0.0079  3.6145  1.0967
 2848SOL     OW20179   3.246   3.961   9.080 -0.2142 -0.4596 -0.0943
 2848SOL    HW120180   3.203   4.045   9.095  0.4332 -0.2468  0.5518
 2848SOL    HW220181   3.177   3.899   9.104  0.7548 -1.2543  0.6359
 2849SOL     OW20182   0.191   1.956   8.548 -0.2044 -0.2129  0.0040
 2849SOL    HW120183   0.170   1.918   8.463  0.9061 -1.3177  0.2261
 2849SOL    HW220184   0.174   1.898   8.623  0.2265  0.4281  0.6036
 2850SOL     OW20185   3.048   0.758  10.884  0.2605  0.1801 -0.1072
 2850SOL    HW120186   3.010   0.728  10.802  2.2002  1.9234 -1.6501
 2850SOL    HW220187   3.064   0.678  10.935 -1.5990  0.6725  1.2314
 2851SOL     OW20188   2.868   2.020   1.750  0.1831 -0.6094 -0.1482
 2851SOL    HW120189   2.926   1.944   1.748  1.8396  0.6063  1.5273
 2851SOL    HW220190   2.816   2.008   1.671 -1.0772  0.6749  0.4830
 2852SOL     OW20191   1.666   0.503   5.803  0.2614  0.6308 -0.4124
 2852SOL    HW120192   1.634   0.505   5.713 -0.4495 -2.5935 -0.2272
 2852SOL    HW220193   1.748   0.551   5.799  0.8767 -0.3642  0.3787
 2853SOL     OW20194   1.808   3.261   3.439 -0.0892  0.4153  0.0859
 2853SOL    HW120195   1.777   3.196   3.502 -0.0838  0.8767  0.5632
 2853SOL    HW220196   1.871   3.303   3.497 -0.9722 -0.1232  1.4400
 2854SOL     OW20197   0.424   0.070  15.946 -0.2477 -0.2273 -0.1462
 2854SOL    HW120198   0.405   0.094  16.037  3.1129  0.0227  0.4850
 2854SOL    HW220199   0.348   0.012  15.941 -0.9022  0.5136  1.0261
 2855SOL     OW20200   0.950   0.076   8.786  0.8123 -0.3182 -1.0140
 2855SOL    HW120201   0.950   4.716   8.805  1.2312 -0.6466 -2.6456
 2855SOL    HW220202   0.906   0.074   8.701  1.8226 -0.6138 -1.5324
 2856SOL     OW20203   1.431   0.690   7.975 -0.5468  0.0321 -0.2157
 2856SOL    HW120204   1.509   0.726   8.017  0.8425 -2.1146 -1.0010
 2856SOL    HW220205   1.473   0.667   7.893 -3.0935 -3.9272 -0.4137
 2857SOL     OW20206   1.194   0.009   1.774  0.1022 -0.5753  0.0761
 2857SOL    HW120207   1.247   0.038   1.700 -1.0228 -0.5603 -0.7235
 2857SOL    HW220208   1.114   4.723   1.725  0.0304 -0.3656  0.1116
 2858SOL     OW20209   4.705   0.529   2.757 -0.0482  0.3518 -0.1796
 2858SOL    HW120210   0.053   0.512   2.711  0.9160  1.0122  1.2878
 2858SOL    HW220211   4.663   0.443   2.751  0.9815 -0.1821  0.3131
 2859SOL     OW20212   1.461   2.749   5.889 -0.1693  0.2559 -0.1699
 2859SOL    HW120213   1.389   2.791   5.844  0.4956  0.5279 -0.9777
 2859SOL    HW220214   1.480   2.802   5.967 -0.4145  1.7486 -1.1218
 2860SOL     OW20215   3.889   0.482   3.199  0.0796 -0.0480  0.5777
 2860SOL    HW120216   3.839   0.483   3.281 -0.8480 -0.2289  0.0256
 2860SOL    HW220217   3.813   0.466   3.142 -1.3906  2.1997  1.9041
 2861SOL     OW20218   1.477   0.991   8.421 -0.5550  0.3287  0.4766
 2861SOL    HW120219   1.469   1.023   8.331  0.2923  0.6188  0.5059
 2861SOL    HW220220   1.483   1.077   8.463 -2.1837  0.2588  0.8444
 2862SOL     OW20221   2.766   3.635  14.586  0.2872 -0.0966  0.3966
 2862SOL    HW120222   2.675   3.636  14.617 -0.1732 -0.5830 -0.9431
 2862SOL    HW220223   2.754   3.642  14.492  1.5581 -0.8892  0.1756
 2863SOL     OW20224   0.277   1.069   7.838  0.1851 -0.0856 -0.1442
 2863SOL    HW120225   0.318   1.012   7.903  1.5545  1.2179  0.1332
 2863SOL    HW220226   0.328   1.045   7.761  1.4097  1.9755  0.0397
 2864SOL     OW20227   2.149   1.554   2.594 -0.1898  0.1607  0.4238
 2864SOL    HW120228   2.148   1.507   2.678  1.4442  1.3726  1.1036
 2864SOL    HW220229   2.122   1.486   2.532 -0.8090 -0.4194  1.3228
 2865SOL     OW20230   3.572   3.137   1.501  0.2984 -0.1582 -0.0359
 2865SOL    HW120231   3.538   3.121   1.413 -0.9998  1.9964  0.0702
 2865SOL    HW220232   3.496   3.175   1.547  0.9680 -0.2917  1.1876
 2866SOL     OW20233   0.421   2.515  13.528 -0.2569  0.6194  0.5218
 2866SOL    HW120234   0.444   2.588  13.470 -1.3545  1.3576  1.0148
 2866SOL    HW220235   0.393   2.555  13.610  0.3418  2.7530 -0.3145
 2867SOL     OW20236   3.731   0.970  13.831 -0.2922  0.4142 -0.0572
 2867SOL    HW120237   3.806   0.961  13.772 -0.1631 -1.0491  0.3328
 2867SOL    HW220238   3.771   1.007  13.910  1.2984 -1.2475 -0.0665
 2868SOL     OW20239   2.187   1.902   2.243  0.3926  0.4611  0.2095
 2868SOL    HW120240   2.110   1.883   2.297  0.9270  1.6100  1.3684
 2868SOL    HW220241   2.252   1.880   2.309 -1.2464  1.2714  2.1126
 2869SOL     OW20242   3.923   1.765  16.849 -0.1028 -0.2941  0.0737
 2869SOL    HW120243   3.920   1.751  16.754 -0.8724  0.2976  0.0053
 2869SOL    HW220244   3.959   1.685  16.886  1.1565  0.2969  0.1100
 2870SOL     OW20245   1.877   0.753   2.776 -0.0634  0.5514 -0.3453
 2870SOL    HW120246   1.796   0.702   2.771 -0.9190  1.7210  1.7016
 2870SOL    HW220247   1.946   0.711   2.725 -0.0666  0.7337 -0.5022
 2871SOL     OW20248   3.265   3.402   3.488 -0.4594  0.4797  0.3434
 2871SOL    HW120249   3.319   3.333   3.449 -1.6226  0.8369 -1.9558
 2871SOL    HW220250   3.312   3.476   3.450 -0.6265 -0.1231 -1.0543
 2872SOL     OW20251   2.177   1.609  11.115  0.0099 -0.3175  0.0316
 2872SOL    HW120252   2.168   1.663  11.194 -0.7602 -2.8713  1.6975
 2872SOL    HW220253   2.187   1.519  11.146 -2.2380 -0.8567 -0.7598
 2873SOL     OW20254   1.070   1.855   2.043  0.3801 -0.4197  0.0284
 2873SOL    HW120255   1.093   1.823   2.131  0.8093 -0.9852 -0.2912
 2873SOL    HW220256   1.120   1.936   2.046 -0.1289 -0.1233  0.5796
 2874SOL     OW20257   4.310   3.988  13.823  0.2547 -0.0975 -0.0870
 2874SOL    HW120258   4.302   4.023  13.735 -0.1821 -0.0857 -0.0389
 2874SOL    HW220259   4.229   4.014  13.865 -1.7263 -2.4591 -2.4465
 2875SOL     OW20260   4.609   2.368   8.113 -0.2176  0.2071  0.5976
 2875SOL    HW120261   4.681   2.427   8.091 -0.5451  0.3183 -0.1885
 2875SOL    HW220262   4.538   2.418   8.153  1.0886  1.2172  1.6686
 2876SOL     OW20263   3.833   0.695  15.826  0.2426  0.0162 -0.0670
 2876SOL    HW120264   3.783   0.753  15.883  1.6954  0.9712  0.2350
 2876SOL    HW220265   3.897   0.758  15.792  0.3465  0.6573  1.3285
 2877SOL     OW20266   2.855   3.095   6.800 -0.4950 -0.1135  0.4484
 2877SOL    HW120267   2.783   3.059   6.852 -0.9023  0.2087  0.1084
 2877SOL    HW220268   2.833   3.064   6.713  0.2328 -1.4509  0.7340
 2878SOL     OW20269   2.822   0.425  11.614 -0.6465 -0.4207  0.4329
 2878SOL    HW120270   2.734   0.460  11.626 -0.7597 -0.2029 -0.9872
 2878SOL    HW220271   2.842   0.394  11.702  0.3697 -2.9287 -0.7002
 2879SOL     OW20272   1.712   1.745  15.082 -0.6570 -0.4618  0.2727
 2879SOL    HW120273   1.643   1.793  15.037  0.9009  0.2443 -1.3633
 2879SOL    HW220274   1.760   1.702  15.010 -1.1305 -0.6946  0.0998
 2880SOL     OW20275   1.826   2.322  12.279 -0.2911  0.2057  0.0316
 2880SOL    HW120276   1.887   2.255  12.247  1.4964  1.7305  0.2927
 2880SOL    HW220277   1.869   2.351  12.360 -1.3501  1.3195  0.2001
 2881SOL     OW20278   0.816   3.900   9.045 -0.7381 -0.0209  0.6102
 2881SOL    HW120279   0.831   3.885   8.952 -1.3247  3.2863  0.0029
 2881SOL    HW220280   0.800   3.807   9.065 -0.1378 -0.3296 -0.3696
 2882SOL     OW20281   0.783   0.065  11.314 -0.3088 -0.8214  0.3872
 2882SOL    HW120282   0.765   4.729  11.251  0.3775 -2.0502  1.5808
 2882SOL    HW220283   0.726   0.136  11.283  0.5654 -0.8784 -1.3316
 2883SOL     OW20284   0.940   4.206   2.984 -0.0137 -0.0113  0.3551
 2883SOL    HW120285   1.000   4.243   2.920  1.4667 -0.6204  1.3930
 2883SOL    HW220286   0.951   4.261   3.061 -3.6023  1.2966 -0.0702
 2884SOL     OW20287   0.046   2.639   3.969  0.3682 -0.2513 -0.9298
 2884SOL    HW120288   0.030   2.654   3.875 -0.7575 -1.5955 -0.9587
 2884SOL    HW220289   4.731   2.558   3.985 -0.3761  0.1917 -0.9512
 2885SOL     OW20290   4.316   1.852   5.232 -0.5455  0.3999  0.0410
 2885SOL    HW120291   4.285   1.887   5.316 -1.0582  1.7207 -0.7055
 2885SOL    HW220292   4.274   1.891   5.156  1.8426 -0.8173 -1.9142
 2886SOL     OW20293   3.633   4.296   9.339 -0.1627  0.1271 -0.0755
 2886SOL    HW120294   3.725   4.270   9.344 -0.3606 -1.0274 -2.5459
 2886SOL    HW220295   3.597   4.242   9.409 -1.6986  0.1658 -0.8194
 2887SOL     OW20296   2.140   1.996   6.255  0.0991  0.0440 -0.0796
 2887SOL    HW120297   2.200   2.063   6.288 -1.6668  1.6372 -0.1036
 2887SOL    HW220298   2.151   2.015   6.162  1.0418 -0.3620 -0.0486
 2888SOL     OW20299   1.889   1.393   5.266  0.3123 -0.9218 -0.0851
 2888SOL    HW120300   1.904   1.488   5.261 -3.7022 -0.2483  0.8284
 2888SOL    HW220301   1.912   1.374   5.176 -1.4223 -0.3881 -0.6373
 2889SOL     OW20302   2.996   4.355  10.623  0.7471 -0.1040  0.0177
 2889SOL    HW120303   3.041   4.274  10.645 -0.1592 -1.3900 -2.8373
 2889SOL    HW220304   3.069   4.415  10.605  0.3601  0.7196  1.2109
 2890SOL     OW20305   1.923   2.395   7.348  0.2758  0.2197  0.2288
 2890SOL    HW120306   1.898   2.318   7.296  1.0948  0.2439 -0.2121
 2890SOL    HW220307   1.997   2.366   7.402  0.5414  0.1262 -0.1848
 2891SOL     OW20308   3.165   0.123  12.820  0.0358  0.4313  0.1455
 2891SOL    HW120309   3.183   0.049  12.762 -1.6674  0.3341 -0.2553
 2891SOL    HW220310   3.199   0.082  12.900 -0.2400 -0.3032 -0.1062
 2892SOL     OW20311   4.702   1.140   3.695  0.1981 -0.0543  0.6621
 2892SOL    HW120312   4.698   1.119   3.789  0.2917  0.7250  0.8388
 2892SOL    HW220313   4.630   1.093   3.654  1.3625 -1.0973 -0.1784
 2893SOL     OW20314   3.422   3.927   2.661 -0.0974 -0.1608  0.0152
 2893SOL    HW120315   3.433   3.982   2.738 -0.5319 -2.2199  1.5379
 2893SOL    HW220316   3.441   3.845   2.707 -2.9305 -0.9422 -0.1642
 2894SOL     OW20317   2.498   1.508  11.238 -0.1245  0.1937 -0.1857
 2894SOL    HW120318   2.486   1.585  11.182 -1.5326  1.4404  1.8340
 2894SOL    HW220319   2.463   1.549  11.318  2.0740  0.3779  0.6628
 2895SOL     OW20320   3.460   1.382  17.517  0.6003 -0.5684  0.0978
 2895SOL    HW120321   3.397   1.392  17.588  1.4804 -0.1129  0.8066
 2895SOL    HW220322   3.537   1.354  17.566 -0.4159 -2.3032  0.7374
 2896SOL     OW20323   2.926   0.539   1.569 -0.1962  0.5951  0.2539
 2896SOL    HW120324   2.911   0.517   1.661 -0.6514  0.8811  0.2482
 2896SOL    HW220325   2.844   0.501   1.538  0.1075  0.0943  0.0712
 2897SOL     OW20326   2.340   3.308   4.541  0.0837 -0.1299  0.4011
 2897SOL    HW120327   2.290   3.386   4.565  0.2202 -0.2096  0.9622
 2897SOL    HW220328   2.425   3.325   4.581  1.5174 -1.1172 -2.2848
 2898SOL     OW20329   3.916   4.083  15.618  0.1627 -0.4593  0.0171
 2898SOL    HW120330   3.878   4.159  15.661 -0.2439  0.5665 -2.1439
 2898SOL    HW220331   3.901   4.105  15.526 -0.6614 -1.0171  0.0125
 2899SOL     OW20332   1.838   4.594   3.906 -0.1362  0.2879  0.2758
 2899SOL    HW120333   1.832   4.661   3.974  0.1706  0.8252 -0.2320
 2899SOL    HW220334   1.931   4.601   3.884 -0.5275 -0.5896 -1.7508
 2900SOL     OW20335   2.530   2.842   2.053 -0.2513  0.4654 -0.0065
 2900SOL    HW120336   2.511   2.754   2.021 -0.2964 -0.0680  1.4814
 2900SOL    HW220337   2.543   2.891   1.972  0.2693 -0.5643 -0.5501
 2901SOL     OW20338   2.835   4.503   8.176 -0.1691  0.1963  0.4429
 2901SOL    HW120339   2.839   4.530   8.084  0.5008 -0.3391  0.3112
 2901SOL    HW220340   2.763   4.560   8.202 -0.3016  0.2410 -0.0195
 2902SOL     OW20341   1.242   4.677   6.814 -0.1809  0.0082 -0.2189
 2902SOL    HW120342   1.152   4.670   6.845 -1.1228 -1.0506 -3.1517
 2902SOL    HW220343   1.239   4.617   6.740  2.8031 -2.8536  2.0394
 2903SOL     OW20344   1.258   0.165   4.356  0.0804  0.0709 -0.3743
 2903SOL    HW120345   1.271   0.110   4.279  0.3117 -1.1530  0.5517
 2903SOL    HW220346   1.240   0.245   4.306  2.6705 -0.5499 -2.3297
 2904SOL     OW20347   1.847   1.906   2.532 -0.6690  0.1545 -0.0937
 2904SOL    HW120348   1.784   1.849   2.576 -1.1524  1.7423  1.2735
 2904SOL    HW220349   1.925   1.866   2.570 -0.9794 -0.1000  0.2759
 2905SOL     OW20350   3.438   1.237   3.648  0.1898  0.1307 -0.3894
 2905SOL    HW120351   3.524   1.248   3.687 -1.0352  1.0457  2.0397
 2905SOL    HW220352   3.447   1.155   3.599 -0.1460 -0.4291  0.4923
 2906SOL     OW20353   3.046   3.133  13.102  0.5105 -0.4108  0.4038
 2906SOL    HW120354   3.079   3.083  13.028 -1.9149  0.1346 -1.0356
 2906SOL    HW220355   3.113   3.200  13.090 -0.1486  0.1232 -0.2342
 2907SOL     OW20356   0.226   2.386   6.965 -0.7300 -0.0580 -0.0344
 2907SOL    HW120357   0.298   2.358   6.909 -0.1811  1.0791  0.1000
 2907SOL    HW220358   0.279   2.390   7.045 -2.7838 -0.5655  1.3598
 2908SOL     OW20359   1.044   3.957   4.020 -0.1008  0.8914 -0.0029
 2908SOL    HW120360   1.067   3.867   4.044 -0.4659  1.4304  2.4351
 2908SOL    HW220361   0.992   3.992   4.092  0.7007  0.8494  0.6064
 2909SOL     OW20362   3.988   1.044   3.735 -0.4390 -0.4287 -0.1753
 2909SOL    HW120363   4.047   0.976   3.768  0.5225 -0.3798 -1.8121
 2909SOL    HW220364   4.010   1.106   3.805 -0.5298 -2.0645  1.2903
 2910SOL     OW20365   0.489   4.463   3.592 -0.0524 -0.0115  0.5604
 2910SOL    HW120366   0.399   4.445   3.564  0.1907 -0.9216  0.3796
 2910SOL    HW220367   0.503   4.551   3.559  0.9781 -1.1694 -2.0513
 2911SOL     OW20368   3.808   0.075   4.082 -0.6101  0.5345 -0.1874
 2911SOL    HW120369   3.899   0.080   4.052  0.3066 -1.2709  2.2613
 2911SOL    HW220370   3.780   0.001   4.029 -2.0401  0.5521  0.5289
 2912SOL     OW20371   2.397   4.498  16.128 -0.0921 -0.1277  0.5709
 2912SOL    HW120372   2.380   4.584  16.168 -1.7150  1.1180 -2.7513
 2912SOL    HW220373   2.308   4.465  16.134 -0.2537  0.2884  0.4794
 2913SOL     OW20374   0.464   4.466   3.865  0.1743 -0.4363 -0.2017
 2913SOL    HW120375   0.542   4.521   3.859  0.6580 -1.1546 -0.6055
 2913SOL    HW220376   0.446   4.462   3.771 -2.5940  1.5714  0.2466
 2914SOL     OW20377   0.521   3.290   3.479  0.1572 -0.0257  0.1270
 2914SOL    HW120378   0.603   3.338   3.470 -0.8019  2.1494  2.8399
 2914SOL    HW220379   0.547   3.199   3.464  0.8835 -0.0448  1.4880
 2915SOL     OW20380   0.432   0.385  17.303 -0.1787  0.3986  0.6642
 2915SOL    HW120381   0.486   0.391  17.224  0.5840 -0.7864  1.1045
 2915SOL    HW220382   0.503   0.353  17.358 -1.3973 -4.3062 -0.4953
 2916SOL     OW20383   3.003   1.685   8.526 -0.1211 -0.1829  1.4896
 2916SOL    HW120384   3.018   1.777   8.547  0.3563 -0.3927  2.0672
 2916SOL    HW220385   2.909   1.697   8.510  0.2164  0.9236  0.3334
 2917SOL     OW20386   0.670   0.832   1.243 -0.8179  0.2624 -0.1143
 2917SOL    HW120387   0.650   0.893   1.315 -2.6528 -1.6186  0.9905
 2917SOL    HW220388   0.597   0.861   1.188 -2.7070  1.7942  3.1706
 2918SOL     OW20389   1.673   3.985   8.580  0.0339 -0.8064 -0.3497
 2918SOL    HW120390   1.761   4.001   8.546  0.5332  1.7052  2.1549
 2918SOL    HW220391   1.626   4.067   8.566 -0.1283 -0.8043  0.1947
 2919SOL     OW20392   4.590   0.857   5.209 -0.1845 -0.2658 -0.1019
 2919SOL    HW120393   4.503   0.861   5.169 -0.4345 -1.3034  0.3534
 2919SOL    HW220394   4.622   0.775   5.172 -0.2486 -0.0409 -0.6671
 2920SOL     OW20395   2.445   3.531   4.931  0.2277 -0.0360  0.2531
 2920SOL    HW120396   2.498   3.579   4.994  0.8426  0.6975 -0.8352
 2920SOL    HW220397   2.511   3.487   4.878 -1.6139 -2.2211 -0.2404
 2921SOL     OW20398   4.204   3.410   8.244 -0.0134  0.0287  0.2267
 2921SOL    HW120399   4.194   3.404   8.149 -1.3123  1.9448  0.2441
 2921SOL    HW220400   4.189   3.319   8.269 -0.5896 -0.2853 -1.2566
 2922SOL     OW20401   2.470   1.625   3.008 -0.1804 -0.3001 -0.1137
 2922SOL    HW120402   2.561   1.595   3.009  0.3348  1.2391  1.4926
 2922SOL    HW220403   2.437   1.555   2.953 -2.6135  1.4081 -0.8262
 2923SOL     OW20404   2.021   0.153  15.559 -0.5164  0.1035  0.7185
 2923SOL    HW120405   2.032   0.197  15.475  0.5192 -0.6134  0.4885
 2923SOL    HW220406   2.037   0.220  15.626 -1.2277 -0.4484  1.4397
 2924SOL     OW20407   4.465   0.924  12.165  0.0921  0.3669  0.1053
 2924SOL    HW120408   4.534   0.908  12.230  0.6847  1.5266 -0.2339
 2924SOL    HW220409   4.402   0.853  12.175  1.3373 -0.7512  0.0068
 2925SOL     OW20410   3.972   2.424   6.540  0.2460  0.2093  0.3013
 2925SOL    HW120411   3.961   2.464   6.454 -0.7417 -0.4900  0.1112
 2925SOL    HW220412   4.052   2.379   6.513 -0.5211 -0.1224 -1.3962
 2926SOL     OW20413   4.275   3.309  16.172  0.0025 -0.3081 -0.1049
 2926SOL    HW120414   4.203   3.253  16.145 -0.0255 -0.3374  0.0343
 2926SOL    HW220415   4.261   3.315  16.267  1.6624 -2.7986  0.2816
 2927SOL     OW20416   2.375   2.980   4.963  0.2730  0.3378 -0.1442
 2927SOL    HW120417   2.330   3.064   4.960 -1.2190 -0.3169  3.3719
 2927SOL    HW220418   2.299   2.923   4.955 -0.6437  1.7320 -1.1909
 2928SOL     OW20419   3.222   3.584   3.741  0.1617 -0.6722 -0.4675
 2928SOL    HW120420   3.307   3.599   3.781 -1.1972  1.9883  1.4072
 2928SOL    HW220421   3.224   3.497   3.700  0.8684 -1.5292  1.3712
 2929SOL     OW20422   4.086   1.817   2.979  0.0169  0.9858 -0.6752
 2929SOL    HW120423   4.123   1.885   3.035  1.6388 -0.8213  0.4283
 2929SOL    HW220424   4.045   1.859   2.904 -2.4837  0.5788  0.4552
 2930SOL     OW20425   3.247   1.492   4.848  0.2034 -0.0282 -0.1616
 2930SOL    HW120426   3.177   1.497   4.913  2.9954 -1.2627  2.9445
 2930SOL    HW220427   3.238   1.399   4.825 -2.0806 -0.9658  4.5930
 2931SOL     OW20428   0.114   4.050  14.671  0.3038  0.0708  0.6432
 2931SOL    HW120429   0.159   3.989  14.728 -0.5193 -0.4990  0.6890
 2931SOL    HW220430   0.187   4.052  14.609  0.6160 -0.7950  0.9810
 2932SOL     OW20431   2.365   2.314   2.286  0.6756 -0.3078  0.2095
 2932SOL    HW120432   2.390   2.260   2.361 -1.9733 -1.1271  0.5014
 2932SOL    HW220433   2.405   2.399   2.305  0.6186  0.0005 -1.0331
 2933SOL     OW20434   2.600   4.509   7.352  0.0611  0.2632  0.0151
 2933SOL    HW120435   2.543   4.438   7.381 -1.7617  2.5266  2.0471
 2933SOL    HW220436   2.684   4.464   7.347 -0.0455  0.1308 -0.5284
 2934SOL     OW20437   0.132   1.137   4.483  0.1072 -0.0819  0.2296
 2934SOL    HW120438   0.170   1.221   4.459 -0.7200  0.8664  2.2203
 2934SOL    HW220439   0.207   1.102   4.532 -0.8196 -0.4280  1.4141
 2935SOL     OW20440   0.419   2.216   2.071 -0.0417 -0.0436 -0.3385
 2935SOL    HW120441   0.508   2.183   2.059  0.0669  0.8277 -2.0052
 2935SOL    HW220442   0.414   2.186   2.161  1.2709  1.1519  0.1322
 2936SOL     OW20443   3.381   3.298   5.036 -0.3259 -0.4182 -0.5212
 2936SOL    HW120444   3.303   3.352   5.023 -0.6687 -0.5669  0.8770
 2936SOL    HW220445   3.385   3.299   5.132 -1.0227  0.1104 -0.4997
 2937SOL     OW20446   0.956   0.801   4.613 -0.1814 -0.5692  0.0737
 2937SOL    HW120447   0.899   0.871   4.644 -0.9074 -0.5373 -1.3026
 2937SOL    HW220448   0.989   0.764   4.695  0.9908 -0.0992 -0.1723
 2938SOL     OW20449   0.682   4.680   6.950 -0.3718 -0.1246  0.4345
 2938SOL    HW120450   0.615   4.666   7.017  1.8759  3.2171  3.3910
 2938SOL    HW220451   0.627   4.717   6.881  1.2392 -1.7874 -1.6899
 2939SOL     OW20452   2.834   3.224   9.457 -0.0236 -0.1187  0.1986
 2939SOL    HW120453   2.804   3.314   9.444 -0.9319 -0.5163 -0.4413
 2939SOL    HW220454   2.798   3.207   9.544 -0.6189  0.2809  0.0345
 2940SOL     OW20455   3.389   0.584  15.429 -0.0026 -0.2067  0.0402
 2940SOL    HW120456   3.436   0.516  15.478 -0.2151 -0.1988  0.2561
 2940SOL    HW220457   3.455   0.653  15.431  0.1792 -0.3530 -0.8178
 2941SOL     OW20458   3.531   4.683   4.848  0.5072  0.1511 -0.8559
 2941SOL    HW120459   3.464   4.679   4.916 -1.5605  0.2500 -2.8571
 2941SOL    HW220460   3.613   4.706   4.892  0.5318 -0.6298 -0.5071
 2942SOL     OW20461   2.275   3.612  15.237 -0.0979  0.7441 -0.5261
 2942SOL    HW120462   2.369   3.623  15.252  0.1549  0.7815 -2.1181
 2942SOL    HW220463   2.277   3.518  15.218 -0.7007  1.0393 -2.0182
 2943SOL     OW20464   3.113   0.653   3.811 -0.0294  0.0867  0.4517
 2943SOL    HW120465   3.129   0.746   3.827 -0.7817  0.4259 -0.7871
 2943SOL    HW220466   3.020   0.652   3.834 -0.2237  0.9722 -0.2820
 2944SOL     OW20467   1.046   3.335   2.815 -0.1818 -0.5360  0.4030
 2944SOL    HW120468   1.030   3.319   2.908 -4.0355 -0.0491 -0.2112
 2944SOL    HW220469   1.025   3.427   2.797  0.4097 -0.1088  1.9288
 2945SOL     OW20470   2.332   2.640   6.830 -0.0006  0.5396 -0.1462
 2945SOL    HW120471   2.302   2.731   6.821 -0.1870  0.4463 -0.4656
 2945SOL    HW220472   2.426   2.655   6.828  0.1203 -0.0685  1.0166
 2946SOL     OW20473   2.803   3.917  14.464  0.2271  0.7439  0.1756
 2946SOL    HW120474   2.751   3.879  14.393  0.3112  0.8683  0.0454
 2946SOL    HW220475   2.733   3.965  14.508 -1.1981 -1.8348  0.7481
 2947SOL     OW20476   2.558   1.993   3.340  0.3011  0.1613  0.3839
 2947SOL    HW120477   2.608   1.980   3.259 -1.9780 -3.3737 -0.4688
 2947SOL    HW220478   2.491   1.925   3.332  0.0884  0.3552  0.4832
 2948SOL     OW20479   0.191   0.849   3.842 -0.4297 -0.4459 -0.1699
 2948SOL    HW120480   0.229   0.913   3.781 -0.7396 -2.2165 -2.2136
 2948SOL    HW220481   0.103   0.883   3.859 -0.2646 -0.0619 -0.0792
 2949SOL     OW20482   3.418   3.722  16.694 -0.2068  0.7469 -0.8405
 2949SOL    HW120483   3.459   3.808  16.694 -1.7763  1.4930  0.0518
 2949SOL    HW220484   3.358   3.736  16.620 -2.3543  1.2775  1.0239
 2950SOL     OW20485   4.036   1.261  15.179 -0.5395  0.6901  0.4097
 2950SOL    HW120486   4.036   1.226  15.268 -0.5688 -0.6764 -0.1218
 2950SOL    HW220487   4.108   1.218  15.134 -0.4929  1.1697  0.0173
 2951SOL     OW20488   1.578   1.998   1.891 -0.0843 -0.1469 -0.4215
 2951SOL    HW120489   1.613   2.040   1.970 -1.2010  1.0167 -0.5232
 2951SOL    HW220490   1.646   1.938   1.861 -0.5404 -0.3380 -1.0824
 2952SOL     OW20491   3.106   1.653   7.667  0.7136 -0.0400 -0.1681
 2952SOL    HW120492   3.084   1.722   7.730  0.8149  0.2822 -0.4843
 2952SOL    HW220493   3.060   1.692   7.592  0.0547 -4.5736 -2.0703
 2953SOL     OW20494   0.508   3.914  15.883  0.1744  0.0254 -1.1003
 2953SOL    HW120495   0.601   3.911  15.861  0.3788  1.2358 -0.3906
 2953SOL    HW220496   0.480   3.825  15.904  0.0573  0.3278  0.0516
 2954SOL     OW20497   4.042   3.354   3.162 -0.4512 -0.2009  0.0326
 2954SOL    HW120498   4.011   3.349   3.252 -0.2778  0.0997  0.1066
 2954SOL    HW220499   4.040   3.261   3.139 -1.3857 -0.0202 -0.5997
 2955SOL     OW20500   1.965   0.292   5.793  1.0249  0.5622  0.4482
 2955SOL    HW120501   1.878   0.266   5.822  0.6950  0.6982 -0.4165
 2955SOL    HW220502   1.958   0.387   5.786 -1.8507  0.3444  0.4600
 2956SOL     OW20503   3.186   4.168   2.362  0.1742  0.4172 -0.2952
 2956SOL    HW120504   3.112   4.226   2.376 -2.1422 -2.7608  0.7695
 2956SOL    HW220505   3.166   4.096   2.423 -1.4696  1.2364  0.1526
 2957SOL     OW20506   0.560   2.593   6.057 -0.0661 -0.2078  0.8008
 2957SOL    HW120507   0.546   2.583   6.152  2.0810  0.5181  1.1905
 2957SOL    HW220508   0.542   2.504   6.029  1.4400  0.5642 -2.5438
 2958SOL     OW20509   0.204   1.068   5.878 -0.0794 -0.1256  0.1926
 2958SOL    HW120510   0.137   1.090   5.813  0.5832 -1.2002 -0.8525
 2958SOL    HW220511   0.273   1.069   5.812 -0.4282  2.4620 -0.1386
 2959SOL     OW20512   0.196   1.630   7.513  0.0951  0.0893  0.2181
 2959SOL    HW120513   0.239   1.549   7.485  2.2099  0.5883  1.9927
 2959SOL    HW220514   0.193   1.670   7.426  0.0344  2.1126  1.1461
 2960SOL     OW20515   0.758   3.641  15.918  0.4718 -0.2775  0.0928
 2960SOL    HW120516   0.777   3.707  15.852  0.9371  0.1333  0.6291
 2960SOL    HW220517   0.776   3.684  16.002  1.4428 -3.4069  1.4834
 2961SOL     OW20518   1.896   4.591   4.239 -0.4739  0.3341 -0.1745
 2961SOL    HW120519   1.951   4.596   4.161  0.0388 -3.3502 -0.0308
 2961SOL    HW220520   1.926   4.675   4.275 -2.7724  0.5252  1.3098
 2962SOL     OW20521   2.877   4.569   2.255 -0.0612  0.0565  0.0287
 2962SOL    HW120522   2.931   4.552   2.178  0.8021  1.7543  0.2656
 2962SOL    HW220523   2.885   4.664   2.252 -0.3776  0.1218  1.2080
 2963SOL     OW20524   1.544   0.293   5.946  0.2784  0.1772 -0.4737
 2963SOL    HW120525   1.582   0.355   5.884  1.1822  0.4985  0.4076
 2963SOL    HW220526   1.537   0.346   6.025  1.4003 -1.3941  0.6775
 2964SOL     OW20527   2.761   0.090   6.811  0.8221  0.1169  0.2918
 2964SOL    HW120528   2.735   0.111   6.722 -2.6586 -1.4468  0.9325
 2964SOL    HW220529   2.713   0.157   6.860 -0.6989 -0.6601 -0.1600
 2965SOL     OW20530   0.363   3.274   6.656  0.3757  0.1730  0.4962
 2965SOL    HW120531   0.356   3.179   6.665  0.8754  0.0996  0.1032
 2965SOL    HW220532   0.450   3.291   6.620 -0.1001  0.6777 -0.4173
 2966SOL     OW20533   2.612   4.641   8.236  0.5968 -0.6305 -0.0170
 2966SOL    HW120534   2.521   4.623   8.213  0.4814 -0.1663  0.0748
 2966SOL    HW220535   2.596   4.693   8.314 -0.6293 -2.1677  0.7742
 2967SOL     OW20536   0.500   3.385  11.478 -0.1213 -0.4092  0.0760
 2967SOL    HW120537   0.567   3.317  11.481  0.4168  0.0120 -2.1094
 2967SOL    HW220538   0.469   3.392  11.568  0.6486 -0.2562  0.3284
 2968SOL     OW20539   1.125   3.281   7.524 -0.0826  0.0767  0.1009
 2968SOL    HW120540   1.070   3.302   7.600 -0.6964  1.6869 -0.7828
 2968SOL    HW220541   1.139   3.368   7.487 -0.2687 -0.6456 -1.6699
 2969SOL     OW20542   3.046   2.869  10.522 -0.0253  0.2432  0.4257
 2969SOL    HW120543   2.997   2.930  10.467  0.6328 -0.7282 -1.2320
 2969SOL    HW220544   3.055   2.911  10.607 -1.8002  0.8388  0.3196
 2970SOL     OW20545   4.642   0.910   0.498  0.0465  0.2440  0.1438
 2970SOL    HW120546   4.670   0.850   0.429  1.3715  0.3462  0.5931
 2970SOL    HW220547   4.670   0.995   0.467  1.3466 -0.1563  0.2432
 2971SOL     OW20548   4.385   2.491   4.166 -0.6091 -0.5165 -0.5680
 2971SOL    HW120549   4.356   2.509   4.256 -1.7922 -1.6429 -0.7169
 2971SOL    HW220550   4.385   2.396   4.179 -1.3119 -0.4477 -0.0702
 2972SOL     OW20551   4.714   1.129   9.149 -0.0949  0.5492 -0.0516
 2972SOL    HW120552   4.700   1.038   9.124 -0.3422  0.2944  0.9977
 2972SOL    HW220553   0.013   1.114   9.238 -0.3908 -0.2643 -0.0868
 2973SOL     OW20554   1.545   2.387   1.949 -0.0908 -0.3072  0.2061
 2973SOL    HW120555   1.603   2.314   1.973  1.6136  0.9683 -0.0177
 2973SOL    HW220556   1.582   2.431   1.872  1.1549 -1.8029 -0.0611
 2974SOL     OW20557   0.840   0.136   8.090 -0.2878  0.4124  0.5238
 2974SOL    HW120558   0.859   0.052   8.132 -0.3415  0.7343  1.1974
 2974SOL    HW220559   0.780   0.165   8.159 -1.6375 -0.0878 -0.4503
 2975SOL     OW20560   3.490   4.032   7.379  0.6953  0.3099 -0.3163
 2975SOL    HW120561   3.574   3.986   7.370  0.5547  0.4060 -2.1032
 2975SOL    HW220562   3.462   3.983   7.456  0.9632  1.8077  0.7178
 2976SOL     OW20563   0.653   4.378   8.776 -0.2632 -0.0034 -0.3064
 2976SOL    HW120564   0.710   4.359   8.850 -0.0125 -0.3518 -0.5927
 2976SOL    HW220565   0.629   4.470   8.792 -3.0227 -0.4761 -1.7858
 2977SOL     OW20566   0.599   2.073  14.565 -0.0693  0.2757 -0.1445
 2977SOL    HW120567   0.542   2.040  14.634 -0.8451 -1.6005 -1.6802
 2977SOL    HW220568   0.559   2.049  14.482 -0.3167 -0.7542  0.2812
 2978SOL     OW20569   1.431   3.583   2.237 -0.2762 -0.1045 -0.5296
 2978SOL    HW120570   1.373   3.539   2.299 -0.4352  0.3566 -0.3485
 2978SOL    HW220571   1.476   3.511   2.194 -2.5127 -0.0979 -2.8738
 2979SOL     OW20572   0.350   2.626  12.905  0.0103 -0.3405  0.0853
 2979SOL    HW120573   0.370   2.556  12.968  0.7864 -1.2351 -1.1695
 2979SOL    HW220574   0.299   2.686  12.960  1.2211  0.9054 -0.1707
 2980SOL     OW20575   0.660   2.825   4.668 -0.5714 -0.4538  0.1867
 2980SOL    HW120576   0.646   2.732   4.648  0.4333 -0.5489 -0.0903
 2980SOL    HW220577   0.714   2.826   4.747 -3.0887 -1.2042  1.9156
 2981SOL     OW20578   2.538   0.911  15.331 -0.3117 -0.6030  0.7103
 2981SOL    HW120579   2.496   0.837  15.287 -0.0356 -0.3630  0.0447
 2981SOL    HW220580   2.523   0.986  15.273  1.2309 -0.0257  1.0556
 2982SOL     OW20581   0.633   1.753   6.506 -0.3925 -0.1270  0.6187
 2982SOL    HW120582   0.652   1.698   6.431 -1.1580 -0.0251  0.3502
 2982SOL    HW220583   0.635   1.683   6.570 -0.9171  0.5311  1.3590
 2983SOL     OW20584   0.279   0.792   4.272 -0.4487  0.4895  0.0376
 2983SOL    HW120585   0.320   0.811   4.356  0.5259 -1.7257  0.0390
 2983SOL    HW220586   0.316   0.866   4.223 -1.9639  1.3656  0.2224
 2984SOL     OW20587   3.668   0.274   6.367  0.2205 -0.3143 -0.1242
 2984SOL    HW120588   3.619   0.209   6.417 -1.5008  0.0905 -1.3045
 2984SOL    HW220589   3.634   0.268   6.278 -0.1637  0.9165 -0.0607
 2985SOL     OW20590   3.218   4.537   8.438  0.4627  0.5839 -0.0945
 2985SOL    HW120591   3.284   4.483   8.480  0.4977  1.6597  1.2464
 2985SOL    HW220592   3.155   4.571   8.502  0.9059  0.2749  0.5059
 2986SOL     OW20593   4.302   2.615  15.926 -0.0674  0.4160 -0.9084
 2986SOL    HW120594   4.211   2.628  15.899 -0.6595 -1.9654 -0.0768
 2986SOL    HW220595   4.299   2.656  16.013  1.7715  3.8348 -2.4664
 2987SOL     OW20596   4.282   2.935   6.653  0.1204  0.0538 -0.3630
 2987SOL    HW120597   4.316   2.957   6.566  0.2320  0.8622 -0.1155
 2987SOL    HW220598   4.307   2.843   6.661  1.5444  0.2989 -1.8183
 2988SOL     OW20599   3.244   2.455   6.562 -0.2205  0.7780  0.0524
 2988SOL    HW120600   3.174   2.393   6.541 -0.4034  1.1172 -0.3304
 2988SOL    HW220601   3.286   2.465   6.477 -0.9799  1.9025 -0.1880
 2989SOL     OW20602   0.914   2.027   6.023 -0.2134 -0.9814 -0.2392
 2989SOL    HW120603   0.884   2.032   5.932  1.9837  3.4170 -0.7314
 2989SOL    HW220604   0.842   2.058   6.077  0.6206 -0.3030  0.4890
 2990SOL     OW20605   2.444   1.491   1.183 -0.0833  0.0513 -0.3917
 2990SOL    HW120606   2.416   1.460   1.097 -0.8105  1.0610 -0.5218
 2990SOL    HW220607   2.534   1.462   1.171  0.2835  0.9128  0.2694
 2991SOL     OW20608   0.747   1.076   7.096  0.2633 -0.0024 -0.0151
 2991SOL    HW120609   0.753   1.170   7.085 -0.8134  0.1274  0.4343
 2991SOL    HW220610   0.833   1.049   7.128  0.0727 -0.1407  0.3827
 2992SOL     OW20611   2.844   1.860   0.485  0.4109  0.2103 -0.1855
 2992SOL    HW120612   2.786   1.786   0.468 -1.6411  1.1262  2.9235
 2992SOL    HW220613   2.845   1.854   0.580  1.1745 -0.6058 -0.2386
 2993SOL     OW20614   2.002   3.435   2.764  0.5209  0.3884 -0.1360
 2993SOL    HW120615   2.066   3.468   2.701  0.7600 -1.7310 -0.9860
 2993SOL    HW220616   2.033   3.480   2.843  2.1569 -0.4483 -0.2940
 2994SOL     OW20617   1.649   4.047   5.777 -0.5598 -0.2409  0.1555
 2994SOL    HW120618   1.580   3.985   5.755 -0.4913 -0.3544  0.2580
 2994SOL    HW220619   1.603   4.117   5.823 -1.5612 -0.1326 -1.0141
 2995SOL     OW20620   0.909   3.757   3.132  0.2757  0.5132  0.0723
 2995SOL    HW120621   0.931   3.800   3.215 -0.0608 -1.6470  1.2812
 2995SOL    HW220622   0.948   3.815   3.067  2.5988 -0.4667  0.6022
 2996SOL     OW20623   1.966   0.150   0.345 -0.0584 -0.2483 -0.1109
 2996SOL    HW120624   1.912   0.115   0.416 -0.9157  1.7155  0.2198
 2996SOL    HW220625   1.997   0.235   0.377 -0.3659  1.1576 -3.5200
 2997SOL     OW20626   4.578   2.844   5.872 -0.7434  0.3196  0.2870
 2997SOL    HW120627   4.492   2.885   5.879  0.6148  3.0005  1.0273
 2997SOL    HW220628   4.565   2.774   5.937  0.1754 -0.2389 -0.1276
 2998SOL     OW20629   2.694   4.294   6.810 -0.0564 -0.7987  0.0723
 2998SOL    HW120630   2.694   4.211   6.858  0.4739 -0.9612 -0.2101
 2998SOL    HW220631   2.730   4.354   6.876  2.3796 -1.1598 -0.9262
 2999SOL     OW20632   1.876   0.939   6.118 -0.0608 -0.0789  0.9544
 2999SOL    HW120633   1.912   0.905   6.037 -0.5221  0.8277  0.3669
 2999SOL    HW220634   1.946   0.990   6.159 -0.7037  2.1829 -0.7527
 3000SOL     OW20635   4.604   4.447   3.966 -0.2994 -0.5486  0.5191
 3000SOL    HW120636   4.693   4.446   3.931 -1.0046  1.2091 -1.3286
 3000SOL    HW220637   4.615   4.484   4.054 -0.8544 -0.6549  0.6388
 3001SOL     OW20638   2.213   2.232  11.713 -0.4371  0.1841 -0.4925
 3001SOL    HW120639   2.148   2.175  11.670 -0.6282 -0.5411  0.7385
 3001SOL    HW220640   2.279   2.164  11.728  0.2736  1.5789  2.6109
 3002SOL     OW20641   4.240   1.652   7.013 -0.0057  0.1903 -0.1632
 3002SOL    HW120642   4.330   1.685   7.016 -0.7641  2.5628 -3.5629
 3002SOL    HW220643   4.240   1.557   7.020  0.6467  0.1757 -0.3573
 3003SOL     OW20644   2.468   3.582  14.643  0.0806 -0.1394 -0.0555
 3003SOL    HW120645   2.466   3.502  14.589 -1.3009  0.1424 -0.4262
 3003SOL    HW220646   2.421   3.560  14.723 -1.0605 -0.6153 -0.8561
 3004SOL     OW20647   0.591   1.731   3.011  0.5745  0.1425  0.4217
 3004SOL    HW120648   0.502   1.765   3.005  0.2902 -1.0198 -1.6220
 3004SOL    HW220649   0.569   1.640   3.027 -0.2822  0.3219  0.2451
 3005SOL     OW20650   2.701   4.110   0.993 -0.0935  0.2998  0.3431
 3005SOL    HW120651   2.724   4.193   0.953  2.9099 -0.6251  0.1295
 3005SOL    HW220652   2.620   4.087   0.948 -0.4189  0.7502  0.7035
 3006SOL     OW20653   3.175   2.044   5.735  0.4682 -0.6170 -0.2303
 3006SOL    HW120654   3.250   2.016   5.683 -0.8767  0.2923 -2.6405
 3006SOL    HW220655   3.103   2.010   5.683  0.8679 -1.0311 -0.5151
 3007SOL     OW20656   3.413   4.626   7.722 -0.1157  0.4611  0.1946
 3007SOL    HW120657   3.402   4.546   7.670 -0.1535  0.4661  0.1949
 3007SOL    HW220658   3.383   4.601   7.809  1.0588  0.1678  0.5190
 3008SOL     OW20659   1.914   1.479   2.918 -0.4418 -0.1335 -0.6882
 3008SOL    HW120660   1.882   1.442   2.836 -2.3633 -2.1793  0.9650
 3008SOL    HW220661   2.009   1.476   2.909 -0.2431 -1.4197  1.9460
 3009SOL     OW20662   4.279   1.424  14.429 -0.5306  0.2217  0.1092
 3009SOL    HW120663   4.212   1.436  14.496 -0.2720 -1.9100  0.7592
 3009SOL    HW220664   4.274   1.330  14.410  0.1592  0.8110 -2.9156
 3010SOL     OW20665   1.808   3.626   8.195  0.7652 -0.2543  0.3714
 3010SOL    HW120666   1.784   3.537   8.220 -1.0033  0.2977  0.6419
 3010SOL    HW220667   1.845   3.611   8.108 -0.4596 -0.2045 -0.1498
 3011SOL     OW20668   3.238   3.333  13.096 -0.3744  0.1760 -0.8089
 3011SOL    HW120669   3.176   3.400  13.064 -0.7379 -0.1206 -0.7291
 3011SOL    HW220670   3.323   3.368  13.070  0.3772 -2.8691 -2.4313
 3012SOL     OW20671   2.873   4.421  16.340  0.2391  0.3784 -0.2368
 3012SOL    HW120672   2.788   4.426  16.296  0.3181 -1.4179 -0.6093
 3012SOL    HW220673   2.838   4.384  16.421  1.6823  3.1537  1.6466
 3013SOL     OW20674   0.907   0.833   8.037 -0.1556  0.5596 -0.0711
 3013SOL    HW120675   0.995   0.807   8.008  0.1437  0.5119  0.8955
 3013SOL    HW220676   0.928   0.912   8.088 -1.0437  1.0037 -0.3915
 3014SOL     OW20677   3.042   4.439   6.771 -0.5521 -0.0780 -0.1616
 3014SOL    HW120678   3.006   4.527   6.757  0.1585 -0.1487 -2.3668
 3014SOL    HW220679   3.071   4.410   6.684  1.4777 -0.7460  0.7370
 3015SOL     OW20680   4.363   0.504   2.548 -0.3069  0.5684 -0.2016
 3015SOL    HW120681   4.418   0.435   2.587  0.7250  1.4384 -0.1082
 3015SOL    HW220682   4.405   0.580   2.589  1.2813  0.7577 -2.1438
 3016SOL     OW20683   3.249   2.652   4.277  0.0084  0.2426  0.3500
 3016SOL    HW120684   3.261   2.683   4.367 -0.8414 -0.9803  0.8773
 3016SOL    HW220685   3.327   2.698   4.245  1.5326 -2.6115  0.0181
 3017SOL     OW20686   0.548   0.606   1.336  0.5369  0.4057  0.3054
 3017SOL    HW120687   0.606   0.682   1.329  2.3407 -0.7034  3.2595
 3017SOL    HW220688   0.607   0.536   1.310 -1.0376  0.2149 -2.6776
 3018SOL     OW20689   3.680   3.069   3.269  0.1758 -0.6918  0.2724
 3018SOL    HW120690   3.722   2.989   3.237  0.6737 -0.4365  0.2883
 3018SOL    HW220691   3.683   3.043   3.362  0.2473 -0.3621  0.3603
 3019SOL     OW20692   4.027   3.334   3.466  0.1829 -0.4535  0.2887
 3019SOL    HW120693   3.955   3.272   3.462 -0.5059  0.3176  0.6694
 3019SOL    HW220694   4.010   3.397   3.537 -0.1604  0.1304 -0.3043
 3020SOL     OW20695   1.402   1.560   1.713 -0.6082 -0.2442 -0.0432
 3020SOL    HW120696   1.407   1.634   1.773 -0.6207 -1.2963  1.2509
 3020SOL    HW220697   1.340   1.501   1.757 -0.9074  0.8032  0.9531
 3021SOL     OW20698   3.758   2.162   5.867  0.1936  0.1633  0.0492
 3021SOL    HW120699   3.813   2.148   5.944 -1.4018  0.6470  1.2838
 3021SOL    HW220700   3.688   2.101   5.892  1.9931 -1.4632  1.0863
 3022SOL     OW20701   1.759   0.560   9.243 -0.4529 -0.0657 -0.0504
 3022SOL    HW120702   1.670   0.547   9.209 -0.5802  0.9192 -0.0844
 3022SOL    HW220703   1.726   0.540   9.331 -2.8053 -0.0365 -0.9304
 3023SOL     OW20704   1.974   3.233   9.693  0.5363 -0.1695  0.0915
 3023SOL    HW120705   1.917   3.282   9.634  1.2079  1.6148  0.9361
 3023SOL    HW220706   2.035   3.305   9.709  0.1212  1.3692 -5.0173
 3024SOL     OW20707   3.445   0.492   9.596 -0.0252 -0.1394 -0.1799
 3024SOL    HW120708   3.358   0.485   9.637  0.7613 -0.4620  1.4525
 3024SOL    HW220709   3.413   0.525   9.512  1.5320 -1.4765 -1.2745
 3025SOL     OW20710   4.651   4.506   2.010 -0.3037  0.1393 -0.1994
 3025SOL    HW120711   4.685   4.561   2.081 -3.2888 -0.6316  1.8678
 3025SOL    HW220712   4.565   4.545   1.991 -0.7153 -1.0476 -0.7248
 3026SOL     OW20713   2.313   1.686  15.261 -0.4173  0.9096 -0.2690
 3026SOL    HW120714   2.269   1.704  15.344  3.1564 -0.5846  1.9236
 3026SOL    HW220715   2.370   1.762  15.263  1.0468 -0.1994 -0.1281
 3027SOL     OW20716   0.321   1.897   3.295 -0.4072  0.0595 -0.2865
 3027SOL    HW120717   0.293   1.933   3.211 -1.2399  0.7614  0.2864
 3027SOL    HW220718   0.332   1.979   3.345 -1.6922 -0.0193  0.1252
 3028SOL     OW20719   1.607   0.930   6.163 -0.4568  0.1468 -0.2970
 3028SOL    HW120720   1.702   0.929   6.154 -0.3805 -0.9991  0.7310
 3028SOL    HW220721   1.582   0.842   6.134  1.8336 -0.6286  0.0853
 3029SOL     OW20722   1.969   3.441   3.581  0.5195 -0.3924 -0.4638
 3029SOL    HW120723   1.889   3.493   3.583  0.7591  0.0129 -1.4399
 3029SOL    HW220724   2.037   3.493   3.538 -0.3956  1.4255  0.2834
 3030SOL     OW20725   2.667   2.874  17.101 -0.1714  0.1554  0.4750
 3030SOL    HW120726   2.594   2.847  17.044  2.5875 -1.8443 -2.1294
 3030SOL    HW220727   2.671   2.966  17.077  0.2375 -0.0838 -0.3868
 3031SOL     OW20728   1.511   2.332   1.472 -0.0505 -0.7840 -0.5174
 3031SOL    HW120729   1.535   2.269   1.539  1.9116  1.1331  0.5548
 3031SOL    HW220730   1.426   2.293   1.448  0.0264 -2.1047  1.3491
 3032SOL     OW20731   3.186   1.243   6.015  0.0431 -0.1612 -0.2480
 3032SOL    HW120732   3.140   1.315   6.058  0.4616  0.9681 -1.6905
 3032SOL    HW220733   3.268   1.263   6.060 -0.0482 -1.0566  0.3226
 3033SOL     OW20734   0.033   2.254   4.667 -0.5438  0.1116 -0.0680
 3033SOL    HW120735   4.718   2.234   4.747 -1.4545 -0.8712 -0.8715
 3033SOL    HW220736   0.023   2.349   4.655 -0.3564  0.2362  0.7736
 3034SOL     OW20737   0.181   2.690   6.834  0.3201 -0.6534 -0.1301
 3034SOL    HW120738   0.107   2.665   6.779 -0.0728 -0.3853  0.2709
 3034SOL    HW220739   0.199   2.615   6.891 -2.0213 -1.8990 -0.9947
 3035SOL     OW20740   0.267   0.857   8.864 -0.0520  0.1355 -0.2477
 3035SOL    HW120741   0.282   0.950   8.881 -0.6792  0.2330 -0.2080
 3035SOL    HW220742   0.265   0.825   8.954  0.8202 -1.5053 -0.8188
 3036SOL     OW20743   3.567   3.975   4.144 -0.2168 -0.4206  0.8285
 3036SOL    HW120744   3.544   4.051   4.089 -1.2429 -0.8624  0.6632
 3036SOL    HW220745   3.478   3.959   4.172 -0.3926 -2.1616 -0.6941
 3037SOL     OW20746   1.445   3.519  16.298  0.3172 -0.3025 -0.3576
 3037SOL    HW120747   1.445   3.608  16.264  3.9238 -0.0049  0.4020
 3037SOL    HW220748   1.504   3.473  16.237 -0.7154 -1.4144 -0.5187
 3038SOL     OW20749   2.026   1.948  15.239  0.1841 -0.2610 -0.3192
 3038SOL    HW120750   2.015   1.902  15.156 -3.0552 -1.2797  0.6779
 3038SOL    HW220751   2.026   1.880  15.306  1.0296 -0.5296 -0.5989
 3039SOL     OW20752   4.636   4.478   2.629 -0.8045  0.1465  0.4452
 3039SOL    HW120753   4.725   4.468   2.595 -0.9486  1.1619 -0.2503
 3039SOL    HW220754   4.616   4.572   2.634  0.4194  0.4772 -1.0662
 3040SOL     OW20755   3.910   4.068   4.121  0.7939 -0.0430 -0.2802
 3040SOL    HW120756   3.817   4.064   4.145  0.9703 -0.8418  0.2650
 3040SOL    HW220757   3.938   4.122   4.195 -1.5999 -0.3296  0.8402
 3041SOL     OW20758   4.069   3.505  10.277  0.1428  0.2047  0.8452
 3041SOL    HW120759   4.142   3.559  10.248  2.5151 -2.7924  1.2592
 3041SOL    HW220760   4.048   3.472  10.189 -0.6457  0.8551  0.7906
 3042SOL     OW20761   2.144   0.541   5.355 -0.5575 -0.7657 -0.0565
 3042SOL    HW120762   2.184   0.456   5.373  1.1975 -0.3290 -1.8485
 3042SOL    HW220763   2.080   0.517   5.289 -1.4907 -0.4274  0.7203
 3043SOL     OW20764   3.026   2.895  13.340 -0.2238  0.3728  0.3703
 3043SOL    HW120765   2.964   2.878  13.269 -1.5594  0.2487  1.5541
 3043SOL    HW220766   3.054   2.982  13.310 -0.7951 -0.4354 -2.5033
 3044SOL     OW20767   1.871   2.973   2.910 -0.0616  0.3062 -0.0866
 3044SOL    HW120768   1.856   3.063   2.882 -0.3810  1.0689  2.5486
 3044SOL    HW220769   1.851   2.975   3.004 -1.7769 -0.6212 -0.4324
 3045SOL     OW20770   1.138   3.957   7.667 -0.4014 -0.2155  0.1189
 3045SOL    HW120771   1.098   3.934   7.751 -1.0640  0.4223 -0.0335
 3045SOL    HW220772   1.224   3.916   7.675 -0.9085 -1.0992  1.0444
 3046SOL     OW20773   1.554   4.613   1.150 -0.6036  0.1057  0.0811
 3046SOL    HW120774   1.612   4.593   1.077 -0.6745  0.1834  0.0044
 3046SOL    HW220775   1.524   4.702   1.131 -0.5289  0.2634  0.6764
 3047SOL     OW20776   1.347   3.657   0.749 -0.6835 -0.3687 -0.2517
 3047SOL    HW120777   1.307   3.571   0.733 -1.2811  0.0152 -0.8003
 3047SOL    HW220778   1.329   3.706   0.669  0.3114  0.4553  0.0203
 3048SOL     OW20779   3.084   2.956   8.241 -0.1058  0.5909 -0.3041
 3048SOL    HW120780   3.055   2.865   8.250 -0.4153  0.6059 -1.1742
 3048SOL    HW220781   3.003   2.986   8.201  0.0544  1.7677  0.2501
 3049SOL     OW20782   4.404   0.688   4.757 -0.1315 -0.6955  0.2570
 3049SOL    HW120783   4.444   0.632   4.691 -2.5234  2.5949 -3.9516
 3049SOL    HW220784   4.380   0.624   4.825  1.5787  1.1093  2.5839
 3050SOL     OW20785   2.454   4.448   3.900 -0.2604  0.4252  0.2497
 3050SOL    HW120786   2.533   4.502   3.898 -1.0667  1.6761  1.3817
 3050SOL    HW220787   2.385   4.504   3.865 -1.3575 -0.8600  0.3770
 3051SOL     OW20788   4.541   0.153   4.102  0.1781 -0.1390  0.0005
 3051SOL    HW120789   4.580   0.238   4.125  1.5969 -1.3766  2.1044
 3051SOL    HW220790   4.550   0.144   4.007 -1.2390  3.4026 -0.4964
 3052SOL     OW20791   0.137   1.677   2.478 -0.0596 -0.6706 -0.2587
 3052SOL    HW120792   0.215   1.635   2.514 -0.5681 -1.8095 -0.4930
 3052SOL    HW220793   0.091   1.700   2.559  0.5631 -0.2507 -0.0209
 3053SOL     OW20794   0.806   4.590   6.093  0.3557 -0.3242  0.7949
 3053SOL    HW120795   0.741   4.519   6.090 -0.2446  0.2801 -0.4027
 3053SOL    HW220796   0.878   4.555   6.040 -0.5060  0.2075 -0.7385
 3054SOL     OW20797   4.682   3.391   8.831 -0.1438  0.2976 -0.3622
 3054SOL    HW120798   0.023   3.331   8.832 -0.8631 -0.5777  0.5212
 3054SOL    HW220799   4.692   3.402   8.736  1.7497  0.6775 -0.1192
 3055SOL     OW20800   2.065   2.357  10.424  0.2030 -0.0808 -0.2027
 3055SOL    HW120801   2.066   2.451  10.411 -0.0040 -0.3055 -1.7994
 3055SOL    HW220802   2.129   2.344  10.494 -0.2455  0.9397  0.3879
 3056SOL     OW20803   4.328   1.715   8.634  0.6169  0.3413  0.2115
 3056SOL    HW120804   4.286   1.763   8.706 -0.2875  0.9130 -0.6950
 3056SOL    HW220805   4.415   1.753   8.641  0.1728  1.3629  0.3145
 3057SOL     OW20806   4.098   3.499   8.990  0.2027 -0.4984 -0.0407
 3057SOL    HW120807   4.059   3.586   8.997  3.2889  0.8682  0.3391
 3057SOL    HW220808   4.077   3.455   9.072 -1.8808  0.9455  0.1947
 3058SOL     OW20809   4.306   3.006   4.027 -0.7992  0.1589 -0.5794
 3058SOL    HW120810   4.346   3.078   3.980 -0.1162  0.8060  0.9861
 3058SOL    HW220811   4.380   2.982   4.083 -1.9131  1.7513  1.5604
 3059SOL     OW20812   0.022   0.428   9.310  0.2423 -0.0998  0.2300
 3059SOL    HW120813   0.115   0.420   9.287  0.4717  1.0037  0.7322
 3059SOL    HW220814   4.704   0.375   9.250  1.5910 -1.8149  0.5878
 3060SOL     OW20815   3.857   4.113  17.316  0.2516 -0.6472 -0.7420
 3060SOL    HW120816   3.765   4.137  17.304 -0.5613 -2.9806  0.8252
 3060SOL    HW220817   3.898   4.177  17.259 -0.1245  0.4193  0.1878
 3061SOL     OW20818   0.564   2.293  15.608  0.4073 -0.0884  0.3601
 3061SOL    HW120819   0.584   2.336  15.525  1.5555 -0.4873  0.4327
 3061SOL    HW220820   0.529   2.360  15.667 -2.3828  1.2754 -2.8114
 3062SOL     OW20821   2.431   0.488  13.205 -0.3000  0.2602 -0.6968
 3062SOL    HW120822   2.474   0.500  13.289  1.6599 -2.1662 -1.3516
 3062SOL    HW220823   2.341   0.478  13.236 -1.0221  1.2384 -2.4562
 3063SOL     OW20824   0.673   1.826  17.638  0.4060  0.0465  0.1544
 3063SOL    HW120825   0.744   1.761  17.636 -0.2003 -0.6778  2.5033
 3063SOL    HW220826   0.715   1.889  17.579  3.6395  0.6194  3.0932
 3064SOL     OW20827   3.158   0.800   9.566 -0.3951 -0.0691 -0.1016
 3064SOL    HW120828   3.121   0.843   9.489 -0.1576  2.5863  1.2628
 3064SOL    HW220829   3.231   0.857   9.588 -0.9897  0.1843  1.2569
 3065SOL     OW20830   0.608   2.678   7.695  0.7800  0.1354 -0.1145
 3065SOL    HW120831   0.636   2.609   7.756  1.2910  0.6632  0.2516
 3065SOL    HW220832   0.670   2.745   7.723  0.0519  0.2379  1.3002
 3066SOL     OW20833   4.035   1.938   3.246  0.0017 -0.3547 -0.3446
 3066SOL    HW120834   3.962   1.877   3.257 -0.4791  0.0382 -1.3608
 3066SOL    HW220835   4.097   1.904   3.311 -2.5738 -1.4209  1.5789
 3067SOL     OW20836   3.973   2.223  13.491 -0.0482  0.3793  0.1844
 3067SOL    HW120837   3.992   2.295  13.550 -1.4001  0.5195  0.4594
 3067SOL    HW220838   3.966   2.153  13.556 -1.2599 -0.5229 -0.8773
 3068SOL     OW20839   0.480   4.119  16.053  0.1220 -0.0156  0.2077
 3068SOL    HW120840   0.475   4.027  16.027 -2.1867  0.2087 -0.1044
 3068SOL    HW220841   0.443   4.167  15.979 -0.5654  1.1759  1.3307
 3069SOL     OW20842   4.731   1.226   0.188  0.0264 -0.2937 -0.3935
 3069SOL    HW120843   4.723   1.196   0.279  0.8409  0.3656 -0.1031
 3069SOL    HW220844   4.686   1.310   0.189 -0.7035 -0.6788 -2.1599
 3070SOL     OW20845   2.529   3.048   2.763  0.4272  0.4204 -0.4182
 3070SOL    HW120846   2.508   3.054   2.856 -0.5424 -4.2797 -0.3301
 3070SOL    HW220847   2.592   3.120   2.756 -1.6197  2.2190 -0.2909
 3071SOL     OW20848   3.770   2.014   6.261  0.1713  0.6573  0.2868
 3071SOL    HW120849   3.807   2.003   6.173 -0.1588  0.6246  0.1538
 3071SOL    HW220850   3.710   1.939   6.264  0.2690  0.5700  0.0872
 3072SOL     OW20851   3.028   0.116  12.062 -0.0770  0.4055 -0.3376
 3072SOL    HW120852   3.088   0.149  11.994  0.2650  1.5919  0.5302
 3072SOL    HW220853   3.088   0.118  12.137 -1.8696  2.3974  1.0592
 3073SOL     OW20854   0.438   4.454   6.394  0.0880 -0.2104  0.2450
 3073SOL    HW120855   0.474   4.438   6.307 -2.6297 -0.5211 -0.8222
 3073SOL    HW220856   0.461   4.371   6.436 -1.9254 -0.6815  0.4021
 3074SOL     OW20857   2.503   3.668   8.058  0.0840  0.5756 -0.6576
 3074SOL    HW120858   2.440   3.671   7.986 -1.2941 -0.6519  0.4963
 3074SOL    HW220859   2.483   3.754   8.096 -0.8897 -0.1825  0.5302
 3075SOL     OW20860   4.135   3.995   6.518  0.2182  0.5317  0.2602
 3075SOL    HW120861   4.080   3.959   6.448  0.8448  0.3855 -0.1479
 3075SOL    HW220862   4.219   4.000   6.474  0.1869  0.3969  0.1843
 3076SOL     OW20863   4.070   0.802   8.089  0.7185 -0.2540 -0.3416
 3076SOL    HW120864   4.131   0.789   8.162  1.8527  0.5219 -1.1393
 3076SOL    HW220865   4.085   0.896   8.077 -2.5114  0.2912 -0.1445
 3077SOL     OW20866   1.075   0.583  16.564 -0.1400  0.2602 -0.0332
 3077SOL    HW120867   0.982   0.563  16.549  0.1932  0.2759 -2.1755
 3077SOL    HW220868   1.078   0.621  16.652 -1.3272  1.5072 -0.5338
 3078SOL     OW20869   1.828   3.445   6.729 -0.1274 -0.3904 -0.1251
 3078SOL    HW120870   1.789   3.533   6.724  1.1378  0.2514  1.2965
 3078SOL    HW220871   1.840   3.438   6.824  0.0123 -0.7579 -0.1691
 3079SOL     OW20872   2.753   2.872   7.243  0.1333 -0.2370 -0.0593
 3079SOL    HW120873   2.827   2.885   7.184  1.7741 -0.3527  1.9570
 3079SOL    HW220874   2.699   2.820   7.183 -0.5572  0.7652 -0.3167
 3080SOL     OW20875   1.083   4.352   6.288 -0.1731 -0.1058  0.0516
 3080SOL    HW120876   1.125   4.379   6.206 -3.8380  1.4875 -1.3021
 3080SOL    HW220877   1.147   4.288   6.319 -0.9763 -0.4391  1.0178
 3081SOL     OW20878   1.146   0.915   4.460 -0.2130  0.1226  0.2716
 3081SOL    HW120879   1.109   1.002   4.447 -2.3827 -0.7513  0.7043
 3081SOL    HW220880   1.094   0.866   4.523  0.8729 -2.5262 -0.8834
 3082SOL     OW20881   3.051   1.695   7.078  0.1578  0.4916  0.4664
 3082SOL    HW120882   2.989   1.693   7.150 -0.2883 -3.1608 -0.0101
 3082SOL    HW220883   3.081   1.604   7.088 -0.8779  0.1417  0.3302
 3083SOL     OW20884   0.448   3.844   3.437  0.1905  0.5987  0.2098
 3083SOL    HW120885   0.451   3.839   3.532  2.2287 -1.1067  0.0665
 3083SOL    HW220886   0.517   3.785   3.404  0.2303  0.7573  0.0092
 3084SOL     OW20887   2.272   2.651   0.286  0.2538  0.0650 -0.1408
 3084SOL    HW120888   2.325   2.619   0.212  1.3149  1.8121 -0.1318
 3084SOL    HW220889   2.223   2.726   0.253 -0.0129 -1.0369 -2.2872
 3085SOL     OW20890   4.599   1.061   4.903  0.2823  0.4198  0.2705
 3085SOL    HW120891   4.529   1.114   4.865 -0.1094  1.6844  2.7336
 3085SOL    HW220892   4.597   0.988   4.841  1.2592 -0.9240  1.8267
 3086SOL     OW20893   4.554   4.266   6.905  0.3380 -0.8071  0.1346
 3086SOL    HW120894   4.486   4.200   6.915 -0.3190 -0.2456 -0.5788
 3086SOL    HW220895   4.614   4.219   6.846 -1.6225 -0.5649 -2.0668
 3087SOL     OW20896   3.362   1.047   6.732 -0.5103  0.1165 -0.1187
 3087SOL    HW120897   3.369   1.137   6.763 -0.5799 -0.2600  1.0053
 3087SOL    HW220898   3.386   1.061   6.641 -3.8537 -2.4765 -1.3829
 3088SOL     OW20899   1.312   1.816  17.026  0.1580  0.2053 -0.2711
 3088SOL    HW120900   1.246   1.832  16.958 -0.4021 -3.1254 -0.4981
 3088SOL    HW220901   1.285   1.866  17.103 -1.3196  1.7794 -1.7973
 3089SOL     OW20902   1.144   1.101  17.163 -0.1230  0.6788 -0.1860
 3089SOL    HW120903   1.230   1.099  17.120  0.0386  1.8391  0.0670
 3089SOL    HW220904   1.080   1.102  17.092 -2.8054  0.7539  2.2320
 3090SOL     OW20905   0.564   3.226   1.796  0.7469  0.1764 -0.2746
 3090SOL    HW120906   0.578   3.137   1.763 -1.5896  0.0007 -0.8085
 3090SOL    HW220907   0.472   3.252   1.785  0.5415 -0.2153  0.4742
 3091SOL     OW20908   0.037   2.041  12.202  0.6767  0.3485 -0.1909
 3091SOL    HW120909   0.016   2.101  12.274  2.3123 -1.8113  2.0842
 3091SOL    HW220910   4.714   1.965  12.213  1.7932 -0.4530 -0.0161
 3092SOL     OW20911   1.660   0.488   3.843  0.0501  0.2358 -0.6096
 3092SOL    HW120912   1.635   0.441   3.763 -1.1385 -0.4622  0.1786
 3092SOL    HW220913   1.583   0.478   3.898  1.4471 -1.4373  1.0203
 3093SOL     OW20914   0.682   4.431   2.066  0.4397 -0.4958  0.2359
 3093SOL    HW120915   0.772   4.459   2.052  0.9402 -1.4449  1.5314
 3093SOL    HW220916   0.699   4.342   2.033  1.8997  0.1331 -0.7058
 3094SOL     OW20917   0.908   0.285   5.741  0.5048 -0.2701 -0.2343
 3094SOL    HW120918   0.863   0.233   5.675 -0.2959  0.8780 -0.5890
 3094SOL    HW220919   0.982   0.311   5.687 -0.0765  0.9729 -0.4506
 3095SOL     OW20920   0.214   4.192   9.153  0.2897  0.0274 -0.0395
 3095SOL    HW120921   0.293   4.220   9.106  0.8904  0.7604  1.4210
 3095SOL    HW220922   0.249   4.173   9.240 -0.0473  0.6419  0.2265
 3096SOL     OW20923   4.488   4.352  16.068  0.0472 -0.0504  0.0145
 3096SOL    HW120924   4.485   4.366  15.974 -0.2629 -1.9717 -0.2723
 3096SOL    HW220925   4.503   4.257  16.065  0.1366 -0.1369  2.9916
 3097SOL     OW20926   3.183   3.432   9.583  0.0793  0.0699  0.3261
 3097SOL    HW120927   3.117   3.386   9.635 -2.2555  1.6056 -1.2076
 3097SOL    HW220928   3.260   3.381   9.606 -0.9653 -1.5565  0.2165
 3098SOL     OW20929   1.756   2.790   4.120  0.0041  0.1872 -0.1834
 3098SOL    HW120930   1.744   2.724   4.189 -1.8715 -0.3764 -1.0421
 3098SOL    HW220931   1.772   2.729   4.048 -0.6130  0.8182 -0.8511
 3099SOL     OW20932   0.105   0.450  17.330  0.3106 -0.2757 -0.2900
 3099SOL    HW120933   0.083   0.359  17.349  0.9634 -0.1965  0.8133
 3099SOL    HW220934   0.177   0.447  17.267 -0.4051 -2.3516 -1.0091
 3100SOL     OW20935   0.775   0.041  12.609  0.8501 -0.4469 -0.0089
 3100SOL    HW120936   0.683   0.065  12.618  0.4450 -1.6364 -0.9388
 3100SOL    HW220937   0.815   0.090  12.681  2.4918  3.3410 -3.4737
 3101SOL     OW20938   1.070   4.670   3.558  0.3982 -0.1187  0.3919
 3101SOL    HW120939   1.095   0.025   3.585 -1.5226  0.9880 -1.4560
 3101SOL    HW220940   1.085   4.627   3.642  1.6708 -0.1719  0.1317
 3102SOL     OW20941   4.484   2.526   5.259  0.1802  0.6494  0.4615
 3102SOL    HW120942   4.429   2.559   5.188  0.6098  0.2570 -0.0534
 3102SOL    HW220943   4.422   2.505   5.328  2.1029 -3.0819  1.0594
 3103SOL     OW20944   1.250   0.726   2.205 -0.3192 -0.6038  0.2134
 3103SOL    HW120945   1.171   0.772   2.235  0.5269  0.9154  0.1133
 3103SOL    HW220946   1.217   0.664   2.140  0.6775 -1.0908  0.1785
 3104SOL     OW20947   2.742   1.215   7.636 -0.2049  0.3124 -0.2839
 3104SOL    HW120948   2.795   1.178   7.565  1.0269 -1.5097  1.5612
 3104SOL    HW220949   2.797   1.199   7.713 -0.7350  0.9717  0.2217
 3105SOL     OW20950   3.424   1.776   0.831 -0.1411 -0.3527  0.3086
 3105SOL    HW120951   3.360   1.808   0.768 -0.0368  0.5236  0.6521
 3105SOL    HW220952   3.472   1.856   0.851  0.9040 -1.4223  2.0873
 3106SOL     OW20953   4.466   2.851   4.491 -1.1461 -0.0830  0.5134
 3106SOL    HW120954   4.484   2.925   4.432  1.9850 -0.8465  0.5390
 3106SOL    HW220955   4.378   2.823   4.464 -1.6955  1.2969  0.8245
 3107SOL     OW20956   1.237   2.039   3.405 -0.6604 -0.7612  0.6217
 3107SOL    HW120957   1.203   2.129   3.409  0.1110 -0.4623  0.4669
 3107SOL    HW220958   1.171   1.992   3.454  0.4335 -1.9599  0.9454
 3108SOL     OW20959   1.244   2.099   2.262 -0.2196 -0.1576 -0.4383
 3108SOL    HW120960   1.309   2.168   2.248 -0.3930  0.0629 -0.1535
 3108SOL    HW220961   1.214   2.098   2.171  0.0909 -2.2964 -0.5058
 3109SOL     OW20962   3.124   3.148   3.215 -0.4408 -0.2696 -0.3429
 3109SOL    HW120963   3.065   3.161   3.141 -0.6133 -0.7611 -0.2943
 3109SOL    HW220964   3.209   3.148   3.171 -0.8835  2.8553 -1.1740
 3110SOL     OW20965   0.838   0.938  14.023 -0.0776 -0.5987  0.2872
 3110SOL    HW120966   0.759   0.883  14.022  0.2231 -1.0439  1.0024
 3110SOL    HW220967   0.903   0.868  14.027  0.9713  0.3683  0.0355
 3111SOL     OW20968   0.767   3.998   8.079 -0.0820 -0.3675  0.1695
 3111SOL    HW120969   0.679   3.982   8.112  0.1293 -0.5710  0.6298
 3111SOL    HW220970   0.816   3.947   8.144 -1.8479  0.3409  2.0829
 3112SOL     OW20971   2.911   2.224   3.393  0.3568  0.2176  0.2920
 3112SOL    HW120972   2.977   2.292   3.409 -2.9923  3.2763  1.1538
 3112SOL    HW220973   2.830   2.263   3.426 -1.2847 -1.1284 -2.1397
 3113SOL     OW20974   0.105   2.236   9.746  0.3026  0.1145 -0.4372
 3113SOL    HW120975   0.021   2.283   9.741 -1.2826 -2.7112 -0.2949
 3113SOL    HW220976   0.139   2.252   9.833 -0.7461  1.4152 -0.2648
 3114SOL     OW20977   3.063   0.414  15.465 -0.2078  0.1401  0.4109
 3114SOL    HW120978   3.148   0.392  15.428 -0.5291  0.4652 -0.5126
 3114SOL    HW220979   3.044   0.338  15.520 -0.0469 -0.1839  0.0216
 3115SOL     OW20980   4.271   2.065  16.481  0.0065 -0.8100 -0.7462
 3115SOL    HW120981   4.277   2.150  16.525 -0.5012 -1.2777  0.2323
 3115SOL    HW220982   4.365   2.047  16.472 -0.4179 -2.7794 -1.0100
 3116SOL     OW20983   3.223   0.560  17.231 -0.0224 -0.8292  0.2634
 3116SOL    HW120984   3.157   0.521  17.289 -2.1109 -1.2335 -2.3935
 3116SOL    HW220985   3.302   0.517  17.263 -0.6003 -1.4789  0.8246
 3117SOL     OW20986   1.089   0.781   3.421 -0.2414  0.0271  0.6629
 3117SOL    HW120987   1.156   0.754   3.359  0.3878 -1.9594  2.1966
 3117SOL    HW220988   1.110   0.871   3.445 -2.8071  0.8232 -0.0551
 3118SOL     OW20989   1.110   2.156  13.778  0.3342 -0.3662 -0.0775
 3118SOL    HW120990   1.095   2.164  13.683  1.9164  1.0469 -0.1918
 3118SOL    HW220991   1.204   2.147  13.767  0.1960 -0.5993 -1.0847
 3119SOL     OW20992   3.246   0.658   8.954  0.2725  0.0312 -0.1746
 3119SOL    HW120993   3.199   0.714   8.893 -1.2878  2.0380  2.8638
 3119SOL    HW220994   3.295   0.596   8.899  1.9185  1.3542 -0.1984
 3120SOL     OW20995   3.756   1.270   3.686 -0.3493 -0.5233 -0.2125
 3120SOL    HW120996   3.783   1.233   3.602 -1.2351 -1.4255 -0.1018
 3120SOL    HW220997   3.811   1.348   3.686 -1.4209  0.2378  0.1058
 3121SOL     OW20998   3.493   2.175  15.023 -0.1122 -0.1499  0.5880
 3121SOL    HW120999   3.520   2.120  14.949  0.2102  1.6705 -0.6474
 3121SOL    HW221000   3.525   2.260  14.992  1.3366 -1.3926 -1.2842
 3122SOL     OW21001   3.039   1.487  16.857  0.6014 -0.3722 -0.5924
 3122SOL    HW121002   3.112   1.426  16.852 -0.5072 -1.7809  0.3333
 3122SOL    HW221003   3.076   1.575  16.852 -1.7853  0.5311 -2.5113
 3123SOL     OW21004   4.464   4.392  15.807  0.1772  0.0885  0.0631
 3123SOL    HW121005   4.467   4.458  15.737  2.1963  0.9554  0.9775
 3123SOL    HW221006   4.376   4.355  15.802  0.5656 -0.4922 -2.7150
 3124SOL     OW21007   4.718   3.510   9.094 -0.0798 -0.1597  0.3484
 3124SOL    HW121008   4.642   3.562   9.123 -1.4881 -2.2467  0.3675
 3124SOL    HW221009   4.717   3.499   8.999  1.0385 -1.2193  0.4691
 3125SOL     OW21010   1.575   1.365   4.692 -0.0905  0.0779 -0.4238
 3125SOL    HW121011   1.611   1.345   4.606 -0.2966  1.5643 -0.8598
 3125SOL    HW221012   1.484   1.354   4.664 -0.8505  1.2859  1.5550
 3126SOL     OW21013   0.203   4.691   8.846 -0.1351 -0.2423  0.0595
 3126SOL    HW121014   0.262   0.009   8.900 -0.1773 -0.0233 -0.1031
 3126SOL    HW221015   0.237   4.606   8.872  1.1451  0.0685 -0.6004
 3127SOL     OW21016   2.015   2.783  11.905 -0.0137 -0.0083  0.2713
 3127SOL    HW121017   1.940   2.738  11.865  0.5599  1.0133 -1.9334
 3127SOL    HW221018   2.079   2.782  11.834 -0.5781  2.7710 -0.2960
 3128SOL     OW21019   1.740   3.081   7.074  0.1376 -0.3186 -0.3739
 3128SOL    HW121020   1.782   3.147   7.129 -0.7723 -0.9836  1.1171
 3128SOL    HW221021   1.808   3.060   7.011 -0.0562 -0.6815 -0.4632
 3129SOL     OW21022   1.340   1.917   5.093 -0.0558  0.5901 -0.1303
 3129SOL    HW121023   1.435   1.906   5.088 -0.3472 -2.0936 -0.1927
 3129SOL    HW221024   1.333   2.008   5.066  1.2094  0.0858 -2.1562
 3130SOL     OW21025   2.677   1.667   4.437 -0.2089  0.4369  0.1601
 3130SOL    HW121026   2.690   1.757   4.404  1.5264  0.6527  1.4412
 3130SOL    HW221027   2.583   1.668   4.457 -0.2753 -0.8017 -0.0937
 3131SOL     OW21028   4.436   4.155   3.440 -0.0969 -0.0980  0.0082
 3131SOL    HW121029   4.371   4.224   3.437  1.2690  1.1210 -1.2408
 3131SOL    HW221030   4.450   4.140   3.346  2.0129 -2.4165  0.6697
 3132SOL     OW21031   0.105   4.241   9.587  0.2080 -0.0096 -0.4719
 3132SOL    HW121032   0.179   4.221   9.530  1.0588  0.6380  0.4155
 3132SOL    HW221033   0.150   4.250   9.671  1.5900 -0.0068 -1.2141
 3133SOL     OW21034   3.347   2.142   8.856 -0.2395  0.0227  0.1739
 3133SOL    HW121035   3.337   2.137   8.761 -2.2201 -2.7748  0.5265
 3133SOL    HW221036   3.346   2.050   8.879 -0.2758  0.3342  1.3848
 3134SOL     OW21037   2.638   3.810   5.624  0.5017 -0.1526  0.3000
 3134SOL    HW121038   2.595   3.815   5.710  0.1512  3.9157 -0.1158
 3134SOL    HW221039   2.577   3.749   5.581  0.9926 -0.9177  0.6820
 3135SOL     OW21040   1.911   0.751   7.327  0.5949  0.3895 -0.1410
 3135SOL    HW121041   1.983   0.812   7.316  0.4535  0.3554 -1.2081
 3135SOL    HW221042   1.841   0.814   7.309  1.5847  1.3521 -0.5911
 3136SOL     OW21043   1.009   0.540   5.386 -0.1628 -0.2267 -0.4142
 3136SOL    HW121044   0.969   0.573   5.305 -1.3656 -2.3557 -0.7034
 3136SOL    HW221045   1.059   0.614   5.420 -1.2362  0.7502 -0.9267
 3137SOL     OW21046   3.814   3.684   1.442 -0.2991 -0.2107  0.6304
 3137SOL    HW121047   3.771   3.611   1.397 -1.4205  1.2723 -0.7128
 3137SOL    HW221048   3.771   3.688   1.528 -0.2695 -0.3176  0.6497
 3138SOL     OW21049   4.509   3.052   6.810  0.3597 -0.2673 -0.3288
 3138SOL    HW121050   4.486   3.092   6.893  0.8232 -1.4967  0.3957
 3138SOL    HW221051   4.423   3.012   6.796  0.0824 -0.0710  0.8857
 3139SOL     OW21052   1.462   2.091  16.364 -0.8469 -0.1986  0.2264
 3139SOL    HW121053   1.530   2.049  16.311 -0.8480 -1.1816  1.0193
 3139SOL    HW221054   1.453   2.031  16.437 -1.0384  0.8915  1.0959
 3140SOL     OW21055   3.085   3.763   6.511  0.3293 -0.2320 -0.0448
 3140SOL    HW121056   3.090   3.734   6.602  1.7655 -1.9069 -0.6686
 3140SOL    HW221057   3.108   3.683   6.464  0.2194  1.0423 -2.2166
 3141SOL     OW21058   3.555   2.534   8.118  0.2708  0.3423 -0.0704
 3141SOL    HW121059   3.536   2.617   8.074  1.7264 -0.0654 -1.4694
 3141SOL    HW221060   3.610   2.565   8.190  1.2266  0.6545 -0.9333
 3142SOL     OW21061   1.753   2.936   6.122  0.1918  0.3424 -0.1827
 3142SOL    HW121062   1.674   2.974   6.081  0.3499  1.4810  0.5663
 3142SOL    HW221063   1.729   2.901   6.207  1.2141 -1.7008 -0.7487
 3143SOL     OW21064   1.832   4.630   2.005  0.8641  0.0746  0.5238
 3143SOL    HW121065   1.762   4.577   2.042  1.0021 -0.8870 -0.5977
 3143SOL    HW221066   1.912   4.579   2.018 -0.6912 -2.3551  0.5507
 3144SOL     OW21067   0.999   2.899   7.505 -0.2525 -1.1301  0.1680
 3144SOL    HW121068   0.973   2.894   7.413  1.7325 -1.7766 -0.3774
 3144SOL    HW221069   1.075   2.956   7.496 -0.3585 -0.9381  0.5023
 3145SOL     OW21070   0.314   0.639   2.797 -0.5000  0.1110  0.0449
 3145SOL    HW121071   0.371   0.575   2.756  0.3534 -0.7166  2.5052
 3145SOL    HW221072   0.257   0.659   2.723  0.8359 -0.2823 -1.0791
 3146SOL     OW21073   3.471   1.705  16.810  0.2179 -0.1223  0.2325
 3146SOL    HW121074   3.452   1.635  16.872 -2.6360 -0.4183 -0.9515
 3146SOL    HW221075   3.439   1.782  16.856 -0.6198  0.8682 -1.9979
 3147SOL     OW21076   0.278   0.077   5.148 -0.0962 -1.1760  0.2502
 3147SOL    HW121077   0.186   0.077   5.120 -0.3505  0.8169  1.0431
 3147SOL    HW221078   0.303   0.168   5.166 -2.7448 -0.3309 -0.2665
 3148SOL     OW21079   2.481   1.445   3.448 -0.3728 -0.7072 -0.5815
 3148SOL    HW121080   2.553   1.509   3.449  0.3076 -1.4591 -1.9623
 3148SOL    HW221081   2.399   1.495   3.441 -0.5318 -0.4074  3.1675
 3149SOL     OW21082   4.613   1.001   2.758  0.3455  0.4114  0.4520
 3149SOL    HW121083   4.580   0.916   2.728 -2.8400  2.3490 -1.5738
 3149SOL    HW221084   4.555   1.063   2.715  0.4556  1.2282  1.4840
 3150SOL     OW21085   0.815   1.312   7.011 -0.0439 -0.4179 -1.1570
 3150SOL    HW121086   0.791   1.355   6.929  0.5787  0.3038 -0.9627
 3150SOL    HW221087   0.910   1.327   7.003  0.3100 -2.5471 -1.0221
 3151SOL     OW21088   4.261   2.500  13.303 -0.1924  0.4433 -0.5043
 3151SOL    HW121089   4.198   2.513  13.232  0.4378 -0.4644 -1.2270
 3151SOL    HW221090   4.269   2.405  13.300 -3.1239  0.1894 -0.3899
 3152SOL     OW21091   1.410   2.082   0.432  0.1943  0.0600 -0.6791
 3152SOL    HW121092   1.456   2.141   0.372  0.1782  1.9618  1.1648
 3152SOL    HW221093   1.471   2.008   0.432  0.1492  0.0231 -0.0472
 3153SOL     OW21094   1.604   2.849  15.163 -0.1436  0.3146  0.3590
 3153SOL    HW121095   1.603   2.934  15.118  0.8366 -0.8024 -1.7415
 3153SOL    HW221096   1.669   2.803  15.111 -0.3578 -1.3057  1.5153
 3154SOL     OW21097   2.081   3.364  12.151 -0.2309  0.4273 -0.2573
 3154SOL    HW121098   2.015   3.432  12.137 -2.6999 -2.0631 -0.8429
 3154SOL    HW221099   2.120   3.352  12.064  0.1661 -2.7129  0.3587
 3155SOL     OW21100   0.161   1.024   6.687 -0.4642  0.1747  0.1259
 3155SOL    HW121101   0.130   0.959   6.623 -0.1506  0.1107  0.0401
 3155SOL    HW221102   0.256   1.019   6.698 -0.3727 -1.4484 -1.2933
 3156SOL     OW21103   3.324   3.790   0.419  0.4629  0.2119  0.0066
 3156SOL    HW121104   3.278   3.872   0.405 -0.1103 -0.4219 -1.8614
 3156SOL    HW221105   3.319   3.782   0.514 -0.8720  0.1725 -0.0760
 3157SOL     OW21106   4.294   2.422   1.621  0.0303 -0.4515  0.2258
 3157SOL    HW121107   4.368   2.481   1.636 -0.7684  0.2896  1.3111
 3157SOL    HW221108   4.298   2.361   1.695 -0.0013  0.5025  1.0186
 3158SOL     OW21109   1.392   1.185  16.381  0.2142 -0.0064  0.4109
 3158SOL    HW121110   1.336   1.182  16.459 -0.7978  0.1732 -0.3020
 3158SOL    HW221111   1.359   1.109  16.333  0.0510  0.0276  0.4675
 3159SOL     OW21112   3.377   2.256   8.312 -0.7289 -0.2175 -0.8631
 3159SOL    HW121113   3.366   2.335   8.364 -1.2580 -1.2523  0.6293
 3159SOL    HW221114   3.438   2.204   8.364 -1.4680  1.0405  1.2668
 3160SOL     OW21115   2.193   3.104  17.088  0.2077 -0.2620  0.2270
 3160SOL    HW121116   2.202   3.090  17.183  0.5299  0.8384  0.3517
 3160SOL    HW221117   2.104   3.140  17.086  0.3238 -0.0193 -0.3779
 3161SOL     OW21118   3.049   0.534   5.336  0.1687  0.6404  0.2779
 3161SOL    HW121119   2.959   0.557   5.357 -0.3783 -2.5952  1.4288
 3161SOL    HW221120   3.093   0.598   5.391 -1.1213  0.5382  1.4054
 3162SOL     OW21121   1.620   1.676   3.508 -0.5571 -0.0164 -1.0287
 3162SOL    HW121122   1.628   1.771   3.513  0.5427 -0.3042  2.7060
 3162SOL    HW221123   1.705   1.648   3.474 -0.1880  0.4209 -0.4587
 3163SOL     OW21124   0.000   0.346   1.695 -0.0028  0.2909  0.2990
 3163SOL    HW121125   0.079   0.303   1.661 -0.3688  0.3772 -0.6552
 3163SOL    HW221126   0.029   0.360   1.786 -0.6346  2.1131  0.2070
 3164SOL     OW21127   2.245   4.318   2.615  0.2650  0.3268  0.3189
 3164SOL    HW121128   2.230   4.255   2.685 -0.4720  2.4042  2.0610
 3164SOL    HW221129   2.305   4.272   2.556 -0.2219 -2.1093  1.7455
 3165SOL     OW21130   0.900   4.159  10.963  0.2980 -0.0562 -0.1473
 3165SOL    HW121131   0.854   4.078  10.981 -0.1381  0.1119 -0.5105
 3165SOL    HW221132   0.924   4.145  10.872  0.2489 -1.9149  0.1377
 3166SOL     OW21133   2.889   4.157   2.369  0.0276  0.6865  0.8421
 3166SOL    HW121134   2.874   4.098   2.443 -1.1603  3.1263  2.5501
 3166SOL    HW221135   2.909   4.100   2.295  1.1303  0.5438  1.2505
 3167SOL     OW21136   2.300   0.439   4.015 -0.0251 -0.0592 -0.9035
 3167SOL    HW121137   2.271   0.365   3.961 -1.5575 -0.2843  0.2075
 3167SOL    HW221138   2.267   0.510   3.961  0.0225  0.9093  0.3504
 3168SOL     OW21139   3.588   0.960   7.546  0.0428  0.5780 -0.2721
 3168SOL    HW121140   3.533   0.962   7.624  1.3691 -0.6258  0.6820
 3168SOL    HW221141   3.549   0.883   7.505 -2.5883  0.0862  3.1421
 3169SOL     OW21142   3.335   0.670  13.084  0.0956 -0.1128  0.4956
 3169SOL    HW121143   3.426   0.699  13.092  0.3662  0.0595 -3.1611
 3169SOL    HW221144   3.338   0.574  13.081  1.3994 -0.1104  1.6770
 3170SOL     OW21145   1.690   1.206  10.376 -0.2932 -0.0895 -0.2098
 3170SOL    HW121146   1.663   1.267  10.308  0.5253 -0.9942 -1.3465
 3170SOL    HW221147   1.785   1.208  10.363 -0.3530  0.7493 -0.5145
 3171SOL     OW21148   4.344   0.260   0.611  0.2469  0.2908  0.0978
 3171SOL    HW121149   4.311   0.209   0.685  0.7098  0.0110  0.1127
 3171SOL    HW221150   4.384   0.331   0.661  0.7398 -0.1405  0.3156
 3172SOL     OW21151   1.863   0.963   0.249 -0.0862  0.4006  0.1416
 3172SOL    HW121152   1.841   0.937   0.160 -1.1057  0.9869  0.2177
 3172SOL    HW221153   1.800   0.909   0.297  0.5821  0.2591  0.8634
 3173SOL     OW21154   0.074   3.298   4.742  0.1385 -0.0084  0.0661
 3173SOL    HW121155   0.084   3.325   4.833  0.5033 -0.5321  0.1807
 3173SOL    HW221156   0.133   3.223   4.748 -0.7607 -0.6659  0.6877
 3174SOL     OW21157   1.439   0.535   3.975  0.0048  0.3166  0.1319
 3174SOL    HW121158   1.450   0.544   4.069 -2.9990 -0.7335  0.6189
 3174SOL    HW221159   1.344   0.542   3.962 -0.1057  0.0816  0.8029
 3175SOL     OW21160   2.882   2.587  13.329  0.5560  0.4048  0.7501
 3175SOL    HW121161   2.886   2.677  13.360 -2.2270  1.0189 -0.6698
 3175SOL    HW221162   2.825   2.589  13.252  2.5205 -1.2939 -0.7576
 3176SOL     OW21163   2.701   1.778   7.616 -0.2020 -0.0649  0.1389
 3176SOL    HW121164   2.688   1.684   7.622 -3.8708  0.4542  0.4091
 3176SOL    HW221165   2.787   1.796   7.654 -0.5839  2.2561 -0.0978
 3177SOL     OW21166   4.161   3.923   7.249 -0.3229 -0.1825  0.4176
 3177SOL    HW121167   4.211   4.004   7.235  0.0291 -0.5315 -0.3231
 3177SOL    HW221168   4.187   3.875   7.170  0.7368 -0.7390  1.1084
 3178SOL     OW21169   1.190   1.030   3.851 -0.2487 -0.2487  0.3602
 3178SOL    HW121170   1.196   1.119   3.888  0.4058 -0.5974  1.0951
 3178SOL    HW221171   1.283   1.012   3.839  0.0688  1.6809 -0.1628
 3179SOL     OW21172   3.642   1.146   7.227  0.1093 -0.1121 -0.3583
 3179SOL    HW121173   3.556   1.150   7.269  0.4385  0.1807  0.2854
 3179SOL    HW221174   3.691   1.217   7.267  0.0389 -0.6161  0.6144
 3180SOL     OW21175   0.357   0.496  17.562 -0.2299  0.6967  0.4223
 3180SOL    HW121176   0.283   0.557  17.562 -0.9171 -0.1386 -0.4433
 3180SOL    HW221177   0.362   0.465  17.472  0.7055  0.4496  0.5599
 3181SOL     OW21178   2.887   1.345  15.170 -0.1063 -0.5153 -0.2232
 3181SOL    HW121179   2.827   1.286  15.216 -2.3789  2.0118 -0.0058
 3181SOL    HW221180   2.918   1.290  15.098  0.7250 -0.1914 -0.1133
 3182SOL     OW21181   3.106   1.233   7.255  0.0228 -0.0184  0.2468
 3182SOL    HW121182   3.093   1.309   7.198 -0.3143 -0.4557 -0.2623
 3182SOL    HW221183   3.063   1.252   7.338  1.3541 -1.8507  1.3291
 3183SOL     OW21184   0.667   2.074   5.310 -1.1105 -0.4996 -0.4062
 3183SOL    HW121185   0.631   2.109   5.228 -2.0208 -0.1832  0.1192
 3183SOL    HW221186   0.759   2.095   5.294 -1.7213  1.9162 -0.7685
 3184SOL     OW21187   3.798   0.114   5.527 -0.5828 -0.0119  0.1372
 3184SOL    HW121188   3.850   0.187   5.558  0.4828 -0.1647 -1.3127
 3184SOL    HW221189   3.832   0.100   5.438  1.9762  0.5146  1.0522
 3185SOL     OW21190   2.652   2.575  15.747 -0.5528 -0.1977 -0.1357
 3185SOL    HW121191   2.611   2.489  15.736 -0.0333 -0.2593 -1.6061
 3185SOL    HW221192   2.742   2.547  15.729 -0.7260  1.6471 -3.9078
 3186SOL     OW21193   2.888   3.564   8.013 -0.2736 -0.4886  0.0306
 3186SOL    HW121194   2.939   3.625   8.067 -0.1851  1.4348 -2.2673
 3186SOL    HW221195   2.801   3.602   8.028  0.0866  0.3776 -0.1163
 3187SOL     OW21196   3.608   0.736   0.283  0.1291 -0.2168 -0.2117
 3187SOL    HW121197   3.652   0.816   0.311  0.0943  0.7505 -2.9694
 3187SOL    HW221198   3.547   0.720   0.355 -1.9281 -0.4104 -1.9843
 3188SOL     OW21199   0.336   1.209   7.212  0.6356 -0.1944  0.6326
 3188SOL    HW121200   0.252   1.202   7.259 -0.6168  1.6085 -1.3527
 3188SOL    HW221201   0.400   1.249   7.270  1.1374 -2.3936  1.5733
 3189SOL     OW21202   0.363   0.759   3.413 -0.8257  0.1639 -0.1700
 3189SOL    HW121203   0.428   0.828   3.423 -1.9569  1.1789  0.2100
 3189SOL    HW221204   0.402   0.688   3.362 -1.0549 -1.0262  1.3298
 3190SOL     OW21205   2.541   2.830  15.793 -0.0880 -0.3342  0.1369
 3190SOL    HW121206   2.603   2.763  15.766  0.7006  0.5489 -0.2418
 3190SOL    HW221207   2.601   2.904  15.802  0.7498 -1.1765  1.4517
 3191SOL     OW21208   3.583   4.484   4.157  0.0968 -0.5662  0.3395
 3191SOL    HW121209   3.547   4.453   4.240  1.0256  0.3833  1.0915
 3191SOL    HW221210   3.660   4.530   4.189  1.0107 -1.8471 -0.0625
 3192SOL     OW21211   0.688   3.383   4.816  0.4030  0.2564  0.0085
 3192SOL    HW121212   0.667   3.306   4.764 -1.6160 -0.4042  1.7823
 3192SOL    HW221213   0.672   3.344   4.902  1.1211  0.3414  0.1815
 3193SOL     OW21214   4.333   3.334   5.031 -0.3527  0.3446 -0.2712
 3193SOL    HW121215   4.248   3.309   4.993  0.0484 -1.8201  0.2995
 3193SOL    HW221216   4.397   3.277   4.991 -1.8761  0.0779 -2.3499
 3194SOL     OW21217   1.877   1.778  17.602 -0.1340  0.1926 -0.0671
 3194SOL    HW121218   1.879   1.690  17.564 -0.9958  1.1503 -2.2992
 3194SOL    HW221219   1.829   1.840  17.547  0.7054 -0.7269 -1.8616
 3195SOL     OW21220   3.124   0.934  16.953 -0.3418 -0.1660  0.7805
 3195SOL    HW121221   3.158   1.023  16.950  1.6182 -0.9319  0.4387
 3195SOL    HW221222   3.169   0.891  17.026 -0.1109 -1.9781 -0.4472
 3196SOL     OW21223   4.323   2.910   7.840  0.4842  0.0659 -0.0365
 3196SOL    HW121224   4.328   2.822   7.878  0.5753  0.4065  0.7396
 3196SOL    HW221225   4.228   2.920   7.843  0.2462 -2.1113  0.0942
 3197SOL     OW21226   0.908   2.560   3.877 -0.1704  0.1185 -0.4707
 3197SOL    HW121227   0.908   2.493   3.809 -0.3613 -0.5020  0.1467
 3197SOL    HW221228   0.930   2.506   3.952 -1.7683 -0.1374 -0.1865
 3198SOL     OW21229   0.231   4.143   7.795  0.3151  0.6535 -0.2553
 3198SOL    HW121230   0.176   4.087   7.849  0.2434  1.3120  0.3676
 3198SOL    HW221231   0.251   4.215   7.856 -0.2566  1.2940 -0.8269
 3199SOL     OW21232   1.957   0.480   5.156  0.7479 -0.2366 -0.5489
 3199SOL    HW121233   1.876   0.454   5.200 -0.0701  2.1165 -0.6476
 3199SOL    HW221234   1.924   0.491   5.067  0.8998 -0.7702 -0.6721
 3200SOL     OW21235   2.032   2.755  14.509 -0.2266  0.4200  0.2661
 3200SOL    HW121236   2.028   2.740  14.415  2.3859  1.7594 -0.0583
 3200SOL    HW221237   1.967   2.689  14.532  0.7136 -0.5289  0.1855
 3201SOL     OW21238   3.013   0.867   6.602 -0.0031  0.0474 -0.3132
 3201SOL    HW121239   3.051   0.949   6.571  1.2647 -0.5730 -0.4288
 3201SOL    HW221240   3.089   0.819   6.636 -0.7950 -0.9060  0.0780
 3202SOL     OW21241   1.440   0.328  16.527 -0.7725  0.1137 -1.0383
 3202SOL    HW121242   1.493   0.407  16.519  0.2551 -0.4328  0.3380
 3202SOL    HW221243   1.510   0.264  16.514  0.7054  1.1626  1.7714
 3203SOL     OW21244   4.080   1.038   2.707  0.3250  0.0137 -0.4304
 3203SOL    HW121245   4.136   1.010   2.779 -0.4100  0.2695  0.2465
 3203SOL    HW221246   4.070   1.133   2.714  2.4713  0.2279 -0.4977
 3204SOL     OW21247   1.186   0.362   6.991 -0.3805  0.0850  0.2180
 3204SOL    HW121248   1.119   0.413   6.945  1.6897  2.1290 -0.5128
 3204SOL    HW221249   1.259   0.374   6.930 -1.1630  1.5365 -0.4383
 3205SOL     OW21250   0.152   2.302  11.235 -0.2959 -0.2771  0.7530
 3205SOL    HW121251   0.059   2.310  11.256 -0.1473  0.9166  0.9491
 3205SOL    HW221252   0.144   2.274  11.144  1.0786  0.1537  0.4951
 3206SOL     OW21253   2.882   1.097   8.076 -0.5115 -0.6853  0.4968
 3206SOL    HW121254   2.884   1.143   8.160  0.2549  1.1486 -0.5260
 3206SOL    HW221255   2.791   1.103   8.046 -0.2303 -0.5478 -0.3200
 3207SOL     OW21256   2.874   3.965   8.562  0.0105 -0.3131 -0.6064
 3207SOL    HW121257   2.945   4.027   8.579 -0.0564 -0.7344  1.1827
 3207SOL    HW221258   2.834   4.003   8.484 -1.7275 -1.4733 -0.2821
 3208SOL     OW21259   1.004   2.510  11.544 -0.4854  0.0467  0.4423
 3208SOL    HW121260   1.027   2.453  11.470 -0.8891  1.2165 -0.5781
 3208SOL    HW221261   0.914   2.527  11.515  0.1444  0.7860 -1.0870
 3209SOL     OW21262   1.617   1.149  14.190  0.2289 -0.1965  0.2810
 3209SOL    HW121263   1.665   1.104  14.121  0.6425  0.2617  0.2751
 3209SOL    HW221264   1.591   1.074  14.243  2.0903 -0.5572  0.6802
 3210SOL     OW21265   2.176   3.799   5.043 -0.1248 -0.2352  0.1590
 3210SOL    HW121266   2.266   3.781   5.071 -0.3151 -1.7551 -0.2022
 3210SOL    HW221267   2.195   3.864   4.976  0.0542 -0.3613  0.0877
 3211SOL     OW21268   4.321   1.029   6.616 -0.0157  0.0329  0.6062
 3211SOL    HW121269   4.306   0.946   6.663  0.1569  0.1310  0.8373
 3211SOL    HW221270   4.346   0.994   6.531  1.6832 -1.8177  1.8579
 3212SOL     OW21271   0.352   2.375   2.457  0.0017 -0.5843 -0.7903
 3212SOL    HW121272   0.433   2.345   2.498  0.3611  0.0113 -1.0566
 3212SOL    HW221273   0.318   2.295   2.416 -2.4601 -0.9523  2.0034
 3213SOL     OW21274   1.251   2.145   8.623  0.6834 -0.0655  0.2885
 3213SOL    HW121275   1.300   2.196   8.559  0.1123 -0.7744 -0.7284
 3213SOL    HW221276   1.322   2.111   8.678  0.2272  0.1987  1.0440
 3214SOL     OW21277   3.591   4.214   8.558 -0.4871 -0.8380 -0.0928
 3214SOL    HW121278   3.618   4.195   8.648  3.8941  2.1807 -0.7605
 3214SOL    HW221279   3.620   4.134   8.515 -0.0052 -1.3889  1.2488
 3215SOL     OW21280   1.273   1.355   1.838  0.7149 -0.0456 -0.5301
 3215SOL    HW121281   1.240   1.295   1.905 -0.6568  1.2121 -0.0903
 3215SOL    HW221282   1.190   1.387   1.803  0.8878 -0.4024 -1.2842
 3216SOL     OW21283   2.744   4.359   3.049  0.2919 -0.0802  0.6994
 3216SOL    HW121284   2.824   4.412   3.051  0.2503  0.0685 -1.7722
 3216SOL    HW221285   2.767   4.269   3.072  1.7378  0.2250  0.4940
 3217SOL     OW21286   0.863   3.175  12.885  0.1094 -0.4776 -0.0746
 3217SOL    HW121287   0.905   3.098  12.924  0.2600  0.0337  0.7663
 3217SOL    HW221288   0.775   3.164  12.922  0.5847 -1.1472  0.8810
 3218SOL     OW21289   0.696   2.161   0.023  0.2770  0.1244  0.2908
 3218SOL    HW121290   0.754   2.206  17.696 -2.5809  2.2768 -0.8707
 3218SOL    HW221291   0.679   2.074  17.724 -0.7860  1.0317 -1.5093
 3219SOL     OW21292   3.899   3.525   0.708 -0.4428 -0.8287 -0.0952
 3219SOL    HW121293   3.993   3.517   0.722 -0.3619  1.0624  0.4707
 3219SOL    HW221294   3.874   3.612   0.739  0.9031 -1.1592  1.8960
 3220SOL     OW21295   2.786   4.405   7.595 -0.0239  0.2587 -0.0362
 3220SOL    HW121296   2.847   4.372   7.530  0.1542  1.8966 -0.7021
 3220SOL    HW221297   2.705   4.370   7.559  0.5554 -1.4488  0.3496
 3221SOL     OW21298   4.335   1.912   2.262 -0.3328  0.1086 -0.6008
 3221SOL    HW121299   4.410   1.853   2.252 -0.4794  0.0979 -1.7068
 3221SOL    HW221300   4.255   1.863   2.243  0.0268 -0.1382 -1.4784
 3222SOL     OW21301   2.443   3.770   5.108 -0.6670  0.4919 -0.3314
 3222SOL    HW121302   2.536   3.790   5.116 -1.3982  3.1151  1.8374
 3222SOL    HW221303   2.417   3.862   5.119 -2.6929  0.0457 -1.2716
 3223SOL     OW21304   2.348   2.949  14.613 -0.0265 -0.3122 -0.2876
 3223SOL    HW121305   2.431   2.967  14.569 -0.1060 -0.3765 -0.4644
 3223SOL    HW221306   2.316   2.873  14.565 -1.5458  0.0490  0.1417
 3224SOL     OW21307   2.378   4.022   5.167  0.1346 -0.5544  0.3432
 3224SOL    HW121308   2.301   4.069   5.134 -1.2975 -2.2157  1.3225
 3224SOL    HW221309   2.437   4.092   5.197 -2.7884  2.2848 -0.5500
 3225SOL     OW21310   3.133   1.626   3.328  0.0474  0.1441  0.0017
 3225SOL    HW121311   3.087   1.584   3.255 -0.8729 -1.0385  1.2720
 3225SOL    HW221312   3.213   1.637   3.277 -1.1050  1.9173 -1.4248
 3226SOL     OW21313   2.180   3.638   3.352  0.5512  0.0172  0.1467
 3226SOL    HW121314   2.160   3.716   3.301 -0.3422  0.9518  1.9421
 3226SOL    HW221315   2.270   3.662   3.375  0.1600  1.4468  0.1893
 3227SOL     OW21316   0.844   0.004   8.558  0.3779 -0.3958 -0.3567
 3227SOL    HW121317   0.802   4.652   8.554  0.5938 -0.5019 -0.3338
 3227SOL    HW221318   0.928   4.712   8.520 -0.9705 -2.6210 -1.8917
 3228SOL     OW21319   2.286   2.161   1.884 -0.6234 -0.2163  0.5965
 3228SOL    HW121320   2.223   2.196   1.947 -3.0803 -0.5840 -1.6563
 3228SOL    HW221321   2.287   2.068   1.904 -1.2788 -0.3069  0.2009
 3229SOL     OW21322   0.025   0.241  12.630  0.5803 -0.0855 -0.2506
 3229SOL    HW121323   0.046   0.202  12.715  1.4976 -1.9129 -1.3275
 3229SOL    HW221324   0.104   0.233  12.578  1.2119  2.0109  0.3760
 3230SOL     OW21325   2.956   3.952   3.344 -0.0571  0.3891 -0.4762
 3230SOL    HW121326   2.982   4.031   3.393 -0.4427  0.5185 -0.4822
 3230SOL    HW221327   2.862   3.969   3.345  0.0029  0.6389  0.5834
 3231SOL     OW21328   2.190   1.865   6.739  0.3506 -0.0186  0.3526
 3231SOL    HW121329   2.161   1.799   6.676  4.1072 -0.2920 -1.0978
 3231SOL    HW221330   2.264   1.905   6.694 -0.4114  0.3337 -0.5889
 3232SOL     OW21331   1.963   2.781   2.314 -0.0808 -0.9273 -0.1962
 3232SOL    HW121332   1.982   2.803   2.222  0.5077 -0.4956  0.0298
 3232SOL    HW221333   2.001   2.862   2.347  0.0200  0.5316 -3.8298
 3233SOL     OW21334   1.597   2.502  16.725  0.6006 -0.4372  0.0222
 3233SOL    HW121335   1.687   2.496  16.692  1.1129 -0.7279  1.4784
 3233SOL    HW221336   1.564   2.419  16.759  2.6340 -0.5078  1.7868
 3234SOL     OW21337   3.215   4.598   5.251 -0.0722 -0.1097 -0.0535
 3234SOL    HW121338   3.307   4.620   5.236 -0.3379 -1.2895 -3.3385
 3234SOL    HW221339   3.170   4.645   5.181 -1.2987 -0.9036  0.2112
 3235SOL     OW21340   0.534   0.233   7.037 -0.0713 -0.1107 -0.0688
 3235SOL    HW121341   0.453   0.282   7.024 -0.0975 -0.0659  0.2699
 3235SOL    HW221342   0.531   0.209   7.130 -0.3094 -1.3731 -0.3942
 3236SOL     OW21343   0.077   3.229   3.526 -0.1200 -0.2777 -0.3765
 3236SOL    HW121344   0.105   3.138   3.517  0.5786 -0.1970  0.9478
 3236SOL    HW221345   0.077   3.263   3.437  3.1208  0.5900 -0.0438
 3237SOL     OW21346   4.419   3.242  10.071 -0.0297  0.0154 -0.0693
 3237SOL    HW121347   4.467   3.159  10.070 -0.4779 -0.2348 -1.4234
 3237SOL    HW221348   4.360   3.220  10.142  0.4799  0.6599  0.5547
 3238SOL     OW21349   4.661   2.887   7.072  0.6360  0.2064 -0.4783
 3238SOL    HW121350   4.633   2.969   7.112 -0.9767 -0.4285 -0.2859
 3238SOL    HW221351   0.021   2.893   7.056  0.7732 -3.0670 -1.0355
 3239SOL     OW21352   2.879   3.094  10.573  0.2354  0.4352 -0.0804
 3239SOL    HW121353   2.853   3.065  10.660 -2.5712  1.8944 -0.4404
 3239SOL    HW221354   2.851   3.185  10.571  1.4858  0.8108 -0.9716
 3240SOL     OW21355   4.114   3.782  11.816  0.3114  0.6713 -0.1579
 3240SOL    HW121356   4.195   3.803  11.768  0.1061  0.3139 -0.6624
 3240SOL    HW221357   4.054   3.802  11.744 -0.8703 -0.5798  0.4801
 3241SOL     OW21358   1.670   2.284   2.339  0.0909  0.4488 -0.8472
 3241SOL    HW121359   1.688   2.234   2.419  0.0146  0.1726 -1.0070
 3241SOL    HW221360   1.761   2.305   2.318  0.1890  2.4229  1.4470
 3242SOL     OW21361   3.890   4.731  13.704  0.2315  0.4376 -0.9857
 3242SOL    HW121362   3.879   4.684  13.787 -1.5547 -1.4369 -2.3017
 3242SOL    HW221363   3.822   0.063  13.695 -2.6197 -2.3968 -0.3961
 3243SOL     OW21364   3.069   1.334   6.834  0.3762  0.0989  0.0794
 3243SOL    HW121365   3.088   1.427   6.851 -0.5012  0.4939 -1.1155
 3243SOL    HW221366   3.113   1.290   6.907  0.2386 -1.1844 -0.6120
 3244SOL     OW21367   4.377   1.086   6.249 -0.4256 -0.2889  0.0722
 3244SOL    HW121368   4.368   0.997   6.283  2.3387 -0.2527  0.8606
 3244SOL    HW221369   4.464   1.119   6.272  0.2125 -1.7351 -0.2827
 3245SOL     OW21370   3.148   0.522   3.432 -0.2998 -0.0299 -0.4847
 3245SOL    HW121371   3.059   0.553   3.418 -0.1243  1.1724  1.0731
 3245SOL    HW221372   3.202   0.601   3.424 -0.9890  0.6047  1.0799
 3246SOL     OW21373   1.050   2.821  11.358 -0.2552 -0.6199 -0.5243
 3246SOL    HW121374   1.017   2.741  11.317  2.4031 -2.6740  1.3188
 3246SOL    HW221375   1.041   2.803  11.452  0.0261 -3.6620 -1.0730
 3247SOL     OW21376   2.678   3.744  13.697  0.4064  0.2612 -0.4898
 3247SOL    HW121377   2.758   3.760  13.647  0.7871 -1.1101 -0.3144
 3247SOL    HW221378   2.685   3.816  13.759  3.0732 -0.5830  0.1813
 3248SOL     OW21379   0.111   4.094   3.544  0.8241 -0.6149  0.8005
 3248SOL    HW121380   0.152   4.008   3.551 -0.2270 -1.3691 -2.1165
 3248SOL    HW221381   0.058   4.101   3.623 -1.2098  0.4750 -0.6632
 3249SOL     OW21382   3.461   4.192   4.006 -0.2239 -0.0352 -0.3357
 3249SOL    HW121383   3.427   4.281   4.012 -0.4122 -0.1052 -0.3570
 3249SOL    HW221384   3.394   4.162   3.945 -0.7465  2.2789 -0.9205
 3250SOL     OW21385   2.545   1.080   6.054  0.5747 -0.2960 -0.1538
 3250SOL    HW121386   2.630   1.119   6.070 -0.2272  0.8226  1.3411
 3250SOL    HW221387   2.549   0.987   6.079  1.2029 -0.3523 -0.4594
 3251SOL     OW21388   4.425   2.190   6.124  0.0175 -0.2436  0.0892
 3251SOL    HW121389   4.475   2.196   6.043 -2.5063 -0.3876 -1.4721
 3251SOL    HW221390   4.492   2.167   6.188 -0.0505 -1.5970 -0.3364
 3252SOL     OW21391   2.049   0.936   6.798 -0.2072  0.4444 -0.5663
 3252SOL    HW121392   2.023   0.895   6.715  2.0303  1.7766 -1.9291
 3252SOL    HW221393   2.032   0.866   6.861 -1.3723  1.1826 -0.0619
 3253SOL     OW21394   3.656   3.163  10.572  0.5056 -0.3676  0.1374
 3253SOL    HW121395   3.734   3.195  10.617  0.0411  0.1942  0.5352
 3253SOL    HW221396   3.616   3.115  10.644  1.7078 -0.0091  1.0361
 3254SOL     OW21397   0.143   3.195   8.802  0.5563 -0.3140 -0.3123
 3254SOL    HW121398   0.235   3.212   8.820  0.8624 -1.7225 -0.5472
 3254SOL    HW221399   0.142   3.149   8.719  1.3449 -2.4982  0.8980
 3255SOL     OW21400   2.108   0.432   0.870 -0.1237 -0.2353 -0.3393
 3255SOL    HW121401   2.103   0.523   0.900  0.9656 -0.6698  1.1565
 3255SOL    HW221402   2.140   0.444   0.780  1.6611  2.0598  0.6011
 3256SOL     OW21403   4.670   0.405  12.994  0.0223  0.2346  0.0723
 3256SOL    HW121404   0.007   0.440  12.940 -0.7342 -1.9493 -2.3237
 3256SOL    HW221405   4.609   0.478  12.990 -1.6214 -1.1944 -0.5778
 3257SOL     OW21406   2.523   3.729  11.589  0.0762  0.1187  0.2683
 3257SOL    HW121407   2.442   3.771  11.620 -0.3870  0.2594 -1.1485
 3257SOL    HW221408   2.574   3.809  11.597 -0.0625  0.3359 -1.0626
 3258SOL     OW21409   4.285   1.473  15.418  0.2108  0.2132 -0.5252
 3258SOL    HW121410   4.299   1.438  15.330  2.7420  0.2495 -0.1623
 3258SOL    HW221411   4.373   1.459  15.454 -0.2988  0.4553  0.8128
 3259SOL     OW21412   2.937   4.591   4.956 -0.0599 -0.2289 -0.5738
 3259SOL    HW121413   2.867   4.553   4.903 -1.5701 -0.7012  1.7432
 3259SOL    HW221414   2.954   4.672   4.909  0.3082  0.4935  0.8014
 3260SOL     OW21415   3.930   0.791   7.681 -0.0879  0.1817  0.1863
 3260SOL    HW121416   3.956   0.875   7.641  0.2359  0.9003  1.9173
 3260SOL    HW221417   3.846   0.810   7.722  0.2880  0.5218  0.7926
 3261SOL     OW21418   4.095   1.154   6.378 -0.2248 -0.2546 -1.0897
 3261SOL    HW121419   4.171   1.189   6.425 -1.4778 -1.4304  1.8161
 3261SOL    HW221420   4.131   1.078   6.332  1.0658  1.0260 -2.1728
 3262SOL     OW21421   3.880   2.205   9.059  0.4703 -0.5900  0.3569
 3262SOL    HW121422   3.797   2.183   9.102 -0.6392  1.8439 -0.5556
 3262SOL    HW221423   3.920   2.242   9.138  0.9012  0.7050 -0.4645
 3263SOL     OW21424   0.122   2.242   3.887  0.4981 -0.1899  0.3707
 3263SOL    HW121425   0.194   2.179   3.877 -0.8997 -1.5574 -1.1254
 3263SOL    HW221426   0.173   2.320   3.908 -0.5846  0.7832 -0.6411
 3264SOL     OW21427   3.937   0.552   4.505 -0.1064 -0.2515  0.0128
 3264SOL    HW121428   3.882   0.585   4.576  1.0731  1.8506 -0.0526
 3264SOL    HW221429   3.916   0.619   4.440  0.9714  2.1451  2.1155
 3265SOL     OW21430   2.466   2.849   5.190 -0.0297 -0.0404  0.4458
 3265SOL    HW121431   2.435   2.895   5.112 -1.2916  0.8621  1.4813
 3265SOL    HW221432   2.545   2.897   5.212  1.2039 -1.1917 -1.4708
 3266SOL     OW21433   2.202   0.551   5.641 -0.6779  0.0134 -0.3450
 3266SOL    HW121434   2.243   0.632   5.671 -0.0056 -1.1715  1.8813
 3266SOL    HW221435   2.182   0.576   5.551  0.0034  1.5483 -0.0659
 3267SOL     OW21436   3.665   0.906  15.934  0.9348 -0.8595 -0.0703
 3267SOL    HW121437   3.651   0.906  16.029 -1.6934 -2.5933 -0.4638
 3267SOL    HW221438   3.576   0.907  15.898  0.8003  0.5085  0.3049
 3268SOL     OW21439   3.845   0.292   7.654 -0.3316  0.4010  0.3562
 3268SOL    HW121440   3.805   0.231   7.592 -0.4617  0.2508  0.5866
 3268SOL    HW221441   3.931   0.255   7.671  0.4872  2.8782  1.5900
 3269SOL     OW21442   2.563   4.653   7.762  0.2813 -0.6685 -0.5995
 3269SOL    HW121443   2.631   4.675   7.698 -0.1044  2.0393 -0.0438
 3269SOL    HW221444   2.611   4.668   7.843  1.0434  0.5641 -1.2702
 3270SOL     OW21445   3.787   1.101  15.807  0.0780  0.1145 -0.2420
 3270SOL    HW121446   3.864   1.046  15.797 -0.1782 -0.2618 -0.1456
 3270SOL    HW221447   3.733   1.045  15.863 -1.1604  1.6293  0.0633
 3271SOL     OW21448   3.152   3.026   9.092  0.3939  0.3119 -0.1103
 3271SOL    HW121449   3.114   3.068   9.169  0.5806 -1.2234  0.8223
 3271SOL    HW221450   3.123   3.084   9.022 -2.0279 -0.6640  0.0812
 3272SOL     OW21451   2.144   1.619   5.661  0.7279  0.0958 -0.1074
 3272SOL    HW121452   2.149   1.533   5.619 -0.9903 -0.4690  0.8678
 3272SOL    HW221453   2.224   1.615   5.713  2.2039 -1.4286 -2.4544
 3273SOL     OW21454   0.860   3.296   7.171  0.1958  0.0339  0.1324
 3273SOL    HW121455   0.955   3.285   7.160  0.6557  2.4005  1.6653
 3273SOL    HW221456   0.853   3.275   7.264  1.9449  0.7842  0.4405
 3274SOL     OW21457   4.339   3.085   7.048 -0.5732 -0.0423 -0.5576
 3274SOL    HW121458   4.340   2.992   7.071  0.3983  0.1133  0.0129
 3274SOL    HW221459   4.251   3.097   7.011 -2.3032 -2.0896  2.9107
 3275SOL     OW21460   3.103   4.379  16.037  0.1074  0.3174 -0.4832
 3275SOL    HW121461   3.016   4.347  16.061  1.8516 -2.7256  1.8282
 3275SOL    HW221462   3.127   4.298  15.992 -0.6307 -0.1591 -0.0151
 3276SOL     OW21463   0.321   0.631   2.218  0.1889  0.4018 -0.3167
 3276SOL    HW121464   0.377   0.708   2.224  0.8764  0.0413 -2.1608
 3276SOL    HW221465   0.359   0.591   2.140  0.8074 -0.6895  0.5549
 3277SOL     OW21466   1.914   0.259  14.784  0.2613 -0.1352 -0.1384
 3277SOL    HW121467   1.866   0.183  14.752 -0.1200 -0.1047  0.3560
 3277SOL    HW221468   1.991   0.258  14.727  0.1269 -1.8570 -0.2928
 3278SOL     OW21469   2.079   3.798   2.391  0.1931 -0.2588 -0.1153
 3278SOL    HW121470   1.990   3.822   2.417  0.3300  2.5364 -2.2347
 3278SOL    HW221471   2.071   3.709   2.356  0.5521 -1.3767  2.5876
 3279SOL     OW21472   1.288   2.834   4.039  0.1217  0.4027 -0.1136
 3279SOL    HW121473   1.217   2.817   3.977 -0.9727 -0.8322  1.4596
 3279SOL    HW221474   1.332   2.912   4.006  1.9832 -0.1116  1.1121
 3280SOL     OW21475   0.457   0.913   7.966  0.0726  0.1464  0.6309
 3280SOL    HW121476   0.530   0.955   8.011  0.9005 -0.3388 -0.2456
 3280SOL    HW221477   0.484   0.822   7.954 -0.9153  0.0239 -0.6719
 3281SOL     OW21478   3.336   3.775   2.092  0.0827 -0.2256 -0.2100
 3281SOL    HW121479   3.280   3.700   2.070 -1.3656  0.1281  2.2178
 3281SOL    HW221480   3.389   3.784   2.013 -2.8849 -0.4834 -2.2637
 3282SOL     OW21481   2.188   1.580   0.799 -0.0224  0.2916 -0.2982
 3282SOL    HW121482   2.125   1.651   0.806 -0.6799 -0.3215  0.0041
 3282SOL    HW221483   2.224   1.600   0.713  1.3787 -1.3571 -0.1120
 3283SOL     OW21484   2.837   0.496   7.060  0.1694 -0.1623  0.0678
 3283SOL    HW121485   2.874   0.458   7.139  2.1616  0.0684 -0.7359
 3283SOL    HW221486   2.907   0.547   7.019 -0.4214  0.2158 -0.4724
 3284SOL     OW21487   4.539   1.164   3.316 -0.2762  0.5522  0.3693
 3284SOL    HW121488   4.556   1.138   3.407  1.9804  1.3714  0.1916
 3284SOL    HW221489   4.623   1.154   3.271 -0.2868 -0.5130  0.5866
 3285SOL     OW21490   0.899   3.896   3.447 -0.1199  0.8573  0.1928
 3285SOL    HW121491   0.887   3.956   3.374 -1.0261 -0.1309 -0.4799
 3285SOL    HW221492   0.941   3.948   3.516  1.8471  0.6754 -0.8674
 3286SOL     OW21493   1.252   2.785   1.404 -0.3815 -0.1159  0.2513
 3286SOL    HW121494   1.296   2.738   1.475  0.1735  0.6233  0.4097
 3286SOL    HW221495   1.206   2.857   1.446  1.3694  0.0374  1.9049
 3287SOL     OW21496   3.191   3.117   4.279  0.2566  0.0686 -0.2469
 3287SOL    HW121497   3.132   3.105   4.204  1.7056 -1.9514 -1.0551
 3287SOL    HW221498   3.136   3.087   4.351  2.9426 -0.0749  1.6965
 3288SOL     OW21499   3.918   0.859  15.125 -0.3219  0.1383  0.6154
 3288SOL    HW121500   3.911   0.862  15.030 -1.5968 -2.2590  0.6229
 3288SOL    HW221501   3.900   0.952  15.140 -0.6445 -0.4390  3.8083
 3289SOL     OW21502   0.840   3.286   5.846  0.0316  0.5376  0.1297
 3289SOL    HW121503   0.823   3.194   5.865  1.3642 -0.1038 -1.8205
 3289SOL    HW221504   0.811   3.327   5.928  2.4822 -1.9026  2.2582
 3290SOL     OW21505   4.444   3.151   2.391  0.2783 -0.1223  0.0342
 3290SOL    HW121506   4.438   3.068   2.344  1.8278  0.5131 -1.2948
 3290SOL    HW221507   4.363   3.156   2.442 -0.1211  1.3724 -0.7727
 3291SOL     OW21508   4.051   0.061   5.998 -0.0372 -0.2554 -0.4642
 3291SOL    HW121509   4.077   4.716   6.046  1.4619 -0.0179 -0.8587
 3291SOL    HW221510   3.977   0.087   6.052 -0.7886 -1.8547 -0.7285
 3292SOL     OW21511   3.248   0.314  16.545  0.2927  0.0322 -0.1168
 3292SOL    HW121512   3.247   0.398  16.591  4.9950  0.0752 -0.1124
 3292SOL    HW221513   3.164   0.271  16.564 -0.2152  1.2449  0.3993
 3293SOL     OW21514   3.178   2.964   9.494  0.5189 -0.7602 -0.3560
 3293SOL    HW121515   3.211   3.044   9.452 -0.2030 -0.0510  0.4169
 3293SOL    HW221516   3.089   2.958   9.459 -0.0949  1.1454  0.8412
 3294SOL     OW21517   1.644   2.093  17.731  0.3115 -0.2171  0.1833
 3294SOL    HW121518   1.722   2.097  17.676 -0.8860  1.2918 -1.4036
 3294SOL    HW221519   1.620   2.186  17.721 -0.9780 -0.4700  0.9129
 3295SOL     OW21520   4.649   3.034   9.324  0.2944  0.1510  0.0600
 3295SOL    HW121521   4.671   3.098   9.257 -1.9431  1.6487  0.7751
 3295SOL    HW221522   4.672   2.956   9.272 -0.9223 -2.6033  3.6404
 3296SOL     OW21523   3.800   2.867   3.157  0.2455  0.3493  0.2947
 3296SOL    HW121524   3.794   2.862   3.062  1.3063 -0.1787  0.2543
 3296SOL    HW221525   3.850   2.787   3.173  1.4270  0.7690 -1.3734
 3297SOL     OW21526   4.634   2.394  12.912 -0.5945 -0.3254 -0.1494
 3297SOL    HW121527   4.598   2.315  12.871 -3.0293  0.2076  0.9383
 3297SOL    HW221528   4.723   2.366  12.934 -0.7515 -1.6104 -1.1625
 3298SOL     OW21529   1.018   3.900   5.389 -0.3344 -0.4929 -0.2506
 3298SOL    HW121530   1.013   3.896   5.293  1.5253 -0.6489 -0.3548
 3298SOL    HW221531   1.045   3.812   5.417 -0.8296 -0.5305  0.1039
 3299SOL     OW21532   0.578   2.588  15.996 -0.3893 -0.2782 -0.0018
 3299SOL    HW121533   0.640   2.660  15.983  1.7748 -2.4147 -1.4321
 3299SOL    HW221534   0.636   2.541  16.055  0.6851  0.4287 -0.4896
 3300SOL     OW21535   3.086   4.647   2.625  0.6456 -0.5147  0.0072
 3300SOL    HW121536   3.172   4.680   2.601  0.3554 -0.2943 -0.7505
 3300SOL    HW221537   3.076   4.564   2.578 -1.0967  0.1854 -0.8955
 3301SOL     OW21538   3.568   2.763  10.485  0.5916  0.3537 -0.4249
 3301SOL    HW121539   3.542   2.842  10.532  1.7487  1.1900 -1.1829
 3301SOL    HW221540   3.592   2.705  10.557 -1.4827  0.4447  0.3271
 3302SOL     OW21541   3.286   3.304   6.907 -0.2580  0.0718 -0.2599
 3302SOL    HW121542   3.319   3.215   6.924 -0.3249  0.1445  0.2379
 3302SOL    HW221543   3.303   3.352   6.988  0.6529 -0.0089 -0.3930
 3303SOL     OW21544   1.924   2.943   0.964  0.5556 -0.2274 -0.1038
 3303SOL    HW121545   1.911   3.037   0.951  0.4466 -0.0599  1.2414
 3303SOL    HW221546   1.830   2.923   0.957  1.0914 -2.4953 -0.8784
 3304SOL     OW21547   4.496   1.460   9.467 -0.2542  0.6151 -0.1344
 3304SOL    HW121548   4.544   1.501   9.396 -0.3565 -0.4378 -0.8225
 3304SOL    HW221549   4.432   1.401   9.426 -0.4488  1.0699 -0.4848
 3305SOL     OW21550   2.349   1.989  12.549  0.1579 -0.1973 -0.6481
 3305SOL    HW121551   2.289   1.939  12.604  0.2831  1.8961  1.3872
 3305SOL    HW221552   2.332   2.081  12.570  0.0236 -0.8692  2.2098
 3306SOL     OW21553   4.053   1.227   9.184 -0.2286  0.3397 -0.3813
 3306SOL    HW121554   3.974   1.214   9.131 -1.3332  0.8773  1.1477
 3306SOL    HW221555   4.015   1.230   9.271 -0.1558 -2.5017 -0.2252
 3307SOL     OW21556   2.895   0.473   9.373 -0.0077  0.8594  0.1209
 3307SOL    HW121557   2.991   0.464   9.375 -0.2294 -1.4787  0.8416
 3307SOL    HW221558   2.885   0.505   9.463 -1.5371  0.1887  0.1957
 3308SOL     OW21559   3.917   1.312   4.498  0.2626  0.0411  0.4242
 3308SOL    HW121560   3.871   1.391   4.468  0.0289  0.5127  2.0530
 3308SOL    HW221561   3.852   1.242   4.507  1.3765 -0.9510  0.6725
 3309SOL     OW21562   2.066   3.671   5.517 -0.0344 -0.3365 -0.0328
 3309SOL    HW121563   2.030   3.720   5.442  3.2516  1.8475 -0.1895
 3309SOL    HW221564   2.056   3.733   5.589 -1.7238 -0.6066 -0.0347
 3310SOL     OW21565   2.931   2.828  13.824 -0.0531 -0.2686 -0.6964
 3310SOL    HW121566   2.878   2.763  13.779 -1.7921  2.0405 -1.9410
 3310SOL    HW221567   2.976   2.860  13.746  1.4597  0.9812  0.6629
 3311SOL     OW21568   1.712   2.583   8.210 -0.1332  0.2479  0.0266
 3311SOL    HW121569   1.699   2.503   8.260 -0.6132 -0.0181 -0.5391
 3311SOL    HW221570   1.789   2.567   8.155 -0.2364 -0.2387  0.0251
 3312SOL     OW21571   1.511   1.850  14.937  0.2289  0.3584  0.0506
 3312SOL    HW121572   1.421   1.861  14.968 -0.8768 -2.3433 -2.1148
 3312SOL    HW221573   1.528   1.932  14.892 -3.1642  0.6629 -0.6535
 3313SOL     OW21574   1.627   1.618  14.593  0.1189 -0.3381  0.2796
 3313SOL    HW121575   1.650   1.682  14.526 -0.2427 -1.5825 -1.0352
 3313SOL    HW221576   1.531   1.626  14.590  0.3894  2.2913 -1.1232
 3314SOL     OW21577   4.653   3.353   7.778 -0.1468 -0.5508 -0.1847
 3314SOL    HW121578   4.604   3.275   7.802  0.0132  0.1536  2.4164
 3314SOL    HW221579   4.665   3.403   7.859 -0.4007  2.1622 -1.8010
 3315SOL     OW21580   4.121   1.701   0.935  0.1986  0.1980 -0.3931
 3315SOL    HW121581   4.122   1.612   0.900  0.1715  0.2062 -0.4158
 3315SOL    HW221582   4.029   1.716   0.914  0.6768  1.1001 -1.8846
 3316SOL     OW21583   3.224   2.817   8.492  0.3608  0.7349 -0.3220
 3316SOL    HW121584   3.249   2.907   8.471 -0.1579  1.0773  0.5350
 3316SOL    HW221585   3.262   2.771   8.417 -1.8576 -0.3557 -0.7962
 3317SOL     OW21586   0.862   4.133   3.289 -0.2737  0.2915  0.7482
 3317SOL    HW121587   0.824   4.195   3.351 -2.0871  1.4919 -1.5680
 3317SOL    HW221588   0.917   4.187   3.232  1.1168 -2.0077 -0.0709
 3318SOL     OW21589   2.128   3.491  14.413 -0.0868 -0.3046 -0.3806
 3318SOL    HW121590   2.196   3.484  14.346 -0.3736 -1.4224 -0.5581
 3318SOL    HW221591   2.125   3.409  14.462 -0.7340  0.2356  0.4741
 3319SOL     OW21592   0.517   2.752  14.682  0.1613 -0.2025 -0.1363
 3319SOL    HW121593   0.519   2.664  14.643 -2.4674  0.4609 -1.8174
 3319SOL    HW221594   0.588   2.795  14.634  0.1817  0.6432  0.6809
 3320SOL     OW21595   3.732   4.235   6.185 -0.7007  0.2010 -0.2082
 3320SOL    HW121596   3.820   4.197   6.188 -0.1453  1.4864  0.4814
 3320SOL    HW221597   3.750   4.326   6.159 -1.4715  0.1677 -0.8571
 3321SOL     OW21598   1.212   1.878  16.091 -0.1154 -0.1721 -0.0245
 3321SOL    HW121599   1.127   1.896  16.130  0.3234  0.1455  0.7771
 3321SOL    HW221600   1.182   1.821  16.019 -0.6246 -1.0600  0.8946
 3322SOL     OW21601   3.883   4.655   6.346 -0.5513 -0.2150 -0.5090
 3322SOL    HW121602   3.865   4.578   6.292 -0.4366 -0.4751 -0.1749
 3322SOL    HW221603   3.800   4.661   6.392 -0.2076 -0.2984  0.1270
 3323SOL     OW21604   3.231   3.916   9.723  0.3363 -0.5962 -0.6111
 3323SOL    HW121605   3.234   3.988   9.786  2.2981 -1.0424 -0.1984
 3323SOL    HW221606   3.140   3.923   9.694 -0.3014  0.0955  1.6151
 3324SOL     OW21607   4.300   4.408   3.356 -0.4160  0.1755 -0.1456
 3324SOL    HW121608   4.298   4.434   3.448  0.4571  1.0941 -0.3889
 3324SOL    HW221609   4.374   4.458   3.321  0.8455 -2.0977 -0.7545
 3325SOL     OW21610   3.596   1.877   0.020  0.5660  0.1554  0.1770
 3325SOL    HW121611   3.635   1.839   0.098  0.2506 -0.6740 -0.0704
 3325SOL    HW221612   3.637   1.964   0.021  0.3280  0.2628  0.7427
 3326SOL     OW21613   3.838   4.305   5.354 -0.1376  0.4118  0.7762
 3326SOL    HW121614   3.807   4.215   5.347  0.8760  0.1556 -0.4239
 3326SOL    HW221615   3.822   4.320   5.447 -1.0329  2.3316  0.3194
 3327SOL     OW21616   1.426   1.020   5.313  0.1309 -0.5053  0.1113
 3327SOL    HW121617   1.382   1.065   5.386  0.4956  1.1408 -0.6848
 3327SOL    HW221618   1.501   1.076   5.293 -0.1485  0.0260  0.5493
 3328SOL     OW21619   4.548   3.823   6.241 -0.2414 -0.0581  0.2203
 3328SOL    HW121620   4.608   3.823   6.166 -0.4746  0.5103  0.0366
 3328SOL    HW221621   4.542   3.728   6.255 -1.7799 -0.0467 -0.4024
 3329SOL     OW21622   4.195   4.222   1.891  0.3932  0.5050 -0.8394
 3329SOL    HW121623   4.255   4.278   1.842  1.3687  0.8604  0.7399
 3329SOL    HW221624   4.239   4.227   1.976  2.3173  0.2691 -1.8089
 3330SOL     OW21625   0.358   2.309  16.939  0.0585  0.1410  0.3699
 3330SOL    HW121626   0.339   2.340  16.851 -2.1257  2.1425  1.5347
 3330SOL    HW221627   0.275   2.327  16.983 -0.6166 -0.6949 -0.5896
 3331SOL     OW21628   3.943   1.062   7.650  0.0485 -0.1910 -0.0172
 3331SOL    HW121629   3.878   1.071   7.719 -0.0285  1.2062 -0.2671
 3331SOL    HW221630   3.897   1.110   7.582 -0.7407  1.6462  1.8123
 3332SOL     OW21631   0.079   3.396  10.122  0.3972 -0.0103 -0.2774
 3332SOL    HW121632   0.018   3.465  10.149 -0.1370 -1.6841  2.7972
 3332SOL    HW221633   0.139   3.399  10.196 -0.9096  2.5046  0.6680
 3333SOL     OW21634   3.147   0.697   0.824  0.0991 -0.2573 -0.1489
 3333SOL    HW121635   3.235   0.733   0.815  0.2154 -0.5133 -0.0331
 3333SOL    HW221636   3.095   0.766   0.783 -0.5229 -0.0678  0.9427
 3334SOL     OW21637   2.715   3.061   6.560  0.1038 -0.0402 -0.2045
 3334SOL    HW121638   2.687   3.138   6.511  0.7769  1.6290  2.0429
 3334SOL    HW221639   2.651   2.997   6.528  0.0382  0.5105 -1.1535
 3335SOL     OW21640   0.040   3.988   3.307 -0.1858  0.2216 -0.8536
 3335SOL    HW121641   0.033   3.903   3.349 -2.1131  1.1824  0.7976
 3335SOL    HW221642   0.058   4.045   3.382  0.0276 -2.6692  1.2956
 3336SOL     OW21643   3.646   0.568  10.980  0.1164 -0.5512  0.2017
 3336SOL    HW121644   3.681   0.628  10.915  0.6426  0.7408  1.6890
 3336SOL    HW221645   3.699   0.595  11.055  1.5623 -0.4628 -0.8662
 3337SOL     OW21646   3.332   1.880   0.070 -0.0030 -0.2379 -0.3676
 3337SOL    HW121647   3.357   1.920   0.153  2.1850 -1.4877 -0.4276
 3337SOL    HW221648   3.421   1.863   0.040  1.0006 -0.4414  2.7481
 3338SOL     OW21649   2.067   3.906  17.167 -0.0126  0.5962 -0.3485
 3338SOL    HW121650   2.153   3.866  17.154  0.3738  0.9600  1.1016
 3338SOL    HW221651   2.013   3.855  17.105 -0.9372  1.5361 -0.3152
 3339SOL     OW21652   1.240   2.941   6.690  0.2293  0.1043 -0.0931
 3339SOL    HW121653   1.296   2.990   6.750 -0.8282  2.7443 -1.2545
 3339SOL    HW221654   1.245   3.001   6.616 -0.3489  0.5546  0.2379
 3340SOL     OW21655   0.263   1.088   2.016 -0.9299  0.2388 -0.1391
 3340SOL    HW121656   0.168   1.088   2.018 -0.9687 -1.0708 -1.3913
 3340SOL    HW221657   0.284   0.995   2.030 -0.4348  0.3802  0.0684
 3341SOL     OW21658   1.479   0.381  17.511  0.0149 -0.2790  0.0924
 3341SOL    HW121659   1.529   0.339  17.581 -2.0106 -0.0539  1.7081
 3341SOL    HW221660   1.467   0.469  17.548  2.4955  0.7637 -1.6219
 3342SOL     OW21661   2.371   1.020   5.652  0.1050 -0.1988  0.8214
 3342SOL    HW121662   2.306   1.089   5.640  1.7692  1.1738 -0.2571
 3342SOL    HW221663   2.446   1.065   5.613 -0.6761  0.3621 -0.0350
 3343SOL     OW21664   1.007   4.595   4.167  0.0165 -0.0363  0.2386
 3343SOL    HW121665   0.951   4.534   4.119 -0.6161 -0.1199  1.0761
 3343SOL    HW221666   0.958   4.677   4.158 -0.6944 -0.7167 -2.1702
 3344SOL     OW21667   1.727   4.390   6.236  0.0174 -0.4457 -0.4655
 3344SOL    HW121668   1.737   4.458   6.169  3.0448  0.2010  0.6383
 3344SOL    HW221669   1.649   4.422   6.281 -0.4570  0.8119 -2.2057
 3345SOL     OW21670   3.752   2.614   8.325 -0.3073 -0.0409  0.5125
 3345SOL    HW121671   3.671   2.645   8.366 -1.1823  0.0523 -1.3016
 3345SOL    HW221672   3.784   2.560   8.397  1.4146  1.6394  1.0207
 3346SOL     OW21673   0.720   4.449  15.842  0.2631 -0.2816 -0.7770
 3346SOL    HW121674   0.814   4.434  15.833  0.1051 -2.3052  1.0517
 3346SOL    HW221675   0.682   4.406  15.766  0.4861 -0.3371 -0.8555
 3347SOL     OW21676   0.736   0.971  17.393  0.2885  0.4234  0.2887
 3347SOL    HW121677   0.831   0.983  17.390  0.3101  0.0617 -0.4740
 3347SOL    HW221678   0.719   0.924  17.474 -0.6288  0.3634  0.0569
 3348SOL     OW21679   3.804   4.270  15.896  0.2134  0.3468  0.6767
 3348SOL    HW121680   3.826   4.284  15.988  1.2923  0.2093  0.4351
 3348SOL    HW221681   3.714   4.239  15.907  0.8638 -1.2617  1.4490
 3349SOL     OW21682   1.197   2.245   9.878  0.5656  0.3239 -0.4859
 3349SOL    HW121683   1.228   2.161   9.911 -1.3841 -0.3916 -0.4773
 3349SOL    HW221684   1.160   2.223   9.792 -0.3186 -0.8683  0.2115
 3350SOL     OW21685   2.226   2.654   8.664  0.3570 -0.1107  0.0654
 3350SOL    HW121686   2.183   2.689   8.742  1.1025 -0.0455  0.4456
 3350SOL    HW221687   2.273   2.732   8.633 -0.7280  0.1098 -1.0204
 3351SOL     OW21688   2.531   4.029   4.480  0.7656  0.4865  0.0485
 3351SOL    HW121689   2.483   4.102   4.440  0.6452  1.1551  1.3878
 3351SOL    HW221690   2.461   3.971   4.510 -0.7129  1.6602 -1.1232
 3352SOL     OW21691   3.568   0.016   3.401  0.1758  0.1989  0.5265
 3352SOL    HW121692   3.661   0.039   3.408  0.2674  0.0577 -0.2845
 3352SOL    HW221693   3.570   4.654   3.392  0.0389  0.4581 -2.0934
 3353SOL     OW21694   3.224   0.047  10.426  0.0997  0.1635 -0.0501
 3353SOL    HW121695   3.230   0.019  10.334 -2.3659 -0.7328  0.0711
 3353SOL    HW221696   3.236   0.142  10.423  2.0597 -0.1121 -1.1622
 3354SOL     OW21697   2.474   3.035  13.277 -0.0411 -0.4271  0.1680
 3354SOL    HW121698   2.565   3.061  13.284 -0.8727  2.0833  1.5796
 3354SOL    HW221699   2.496   2.974  13.206  2.0828 -0.2102  0.6488
 3355SOL     OW21700   2.187   3.312   9.916 -0.4279  0.5423 -0.0562
 3355SOL    HW121701   2.264   3.342   9.868  0.1329 -1.1361 -0.1972
 3355SOL    HW221702   2.113   3.371   9.901  0.0077  0.7499 -1.3604
 3356SOL     OW21703   4.622   1.666   8.430 -0.4733  1.2374 -0.4022
 3356SOL    HW121704   4.578   1.599   8.378  0.5752 -0.1907  0.5651
 3356SOL    HW221705   4.552   1.722   8.464  0.6632  1.5857  1.3486
 3357SOL     OW21706   3.743   4.530   1.196 -0.5389  0.1391 -1.2123
 3357SOL    HW121707   3.760   4.568   1.110  2.3741 -1.4176 -1.3349
 3357SOL    HW221708   3.648   4.524   1.203 -0.3050 -1.1673  0.7917
 3358SOL     OW21709   2.121   3.396  17.409  0.1411  0.5959 -0.2625
 3358SOL    HW121710   2.042   3.438  17.442  0.2172  0.2025  0.4244
 3358SOL    HW221711   2.126   3.410  17.315  1.7518 -0.5271 -0.3510
 3359SOL     OW21712   3.896   4.630  11.351 -0.3908  0.0501 -0.3774
 3359SOL    HW121713   3.948   4.644  11.271 -0.2148  1.1716 -0.0616
 3359SOL    HW221714   3.862   4.545  11.323  0.4726 -0.2069 -0.6544
 3360SOL     OW21715   4.701   4.714   5.709  0.3185 -0.5043  0.8832
 3360SOL    HW121716   0.052   4.691   5.672 -0.5945 -1.5700 -0.5671
 3360SOL    HW221717   4.734   0.025   5.787  1.0192  1.4063 -0.5094
 3361SOL     OW21718   0.514   3.907  12.550 -0.1586  0.5079  0.1725
 3361SOL    HW121719   0.606   3.886  12.563 -0.8736 -1.4858  2.0263
 3361SOL    HW221720   0.474   3.831  12.592  1.9877  0.0013  1.2723
 3362SOL     OW21721   3.058   3.123   4.008 -0.0057  0.0991  0.0847
 3362SOL    HW121722   3.028   3.189   3.946 -0.5473  0.6895  0.9826
 3362SOL    HW221723   3.050   3.044   3.954  1.6785  0.9996 -1.5038
 3363SOL     OW21724   4.047   4.674   8.485 -0.2368  0.0459  0.1907
 3363SOL    HW121725   4.081   4.584   8.481  0.2695  0.2042  1.0041
 3363SOL    HW221726   3.963   4.659   8.441 -0.1662  0.8907 -0.2368
 3364SOL     OW21727   1.011   1.716   4.785 -0.3055 -0.1472 -0.6430
 3364SOL    HW121728   0.955   1.712   4.708 -0.1009 -0.7962 -0.7520
 3364SOL    HW221729   0.944   1.734   4.851  0.3414  0.6746 -0.2062
 3365SOL     OW21730   1.626   4.697  10.969 -0.1202 -0.2826  0.3382
 3365SOL    HW121731   1.706   0.015  10.970  1.1855 -2.2563 -0.2036
 3365SOL    HW221732   1.554   0.021  10.994 -1.3113 -1.5952 -0.0168
 3366SOL     OW21733   0.431   0.867   2.831 -0.1549 -0.0501 -0.3817
 3366SOL    HW121734   0.405   0.775   2.837  1.7156 -0.5527 -0.0205
 3366SOL    HW221735   0.522   0.859   2.857 -0.2171  1.0254  0.1611
 3367SOL     OW21736   3.505   0.684   3.402 -0.6971  0.1016 -0.1548
 3367SOL    HW121737   3.531   0.775   3.391 -0.4078  0.0673  0.2332
 3367SOL    HW221738   3.412   0.683   3.381 -0.9380  0.9732  0.8807
 3368SOL     OW21739   2.339   1.733   0.999  0.3392  0.8109 -0.1672
 3368SOL    HW121740   2.370   1.646   0.975 -0.4979  0.0768  1.4272
 3368SOL    HW221741   2.259   1.720   1.050  1.5118 -1.7386  1.0153
 3369SOL     OW21742   0.306   4.228   6.627 -0.5690 -0.5431 -0.1936
 3369SOL    HW121743   0.334   4.282   6.701  0.2843 -1.1045 -0.1044
 3369SOL    HW221744   0.362   4.151   6.637  0.2304  0.4391  3.0227
 3370SOL     OW21745   1.270   1.894  15.042 -0.6523 -0.4147 -0.1559
 3370SOL    HW121746   1.213   1.823  15.069 -1.3954  0.2854  0.1148
 3370SOL    HW221747   1.291   1.923  15.131  3.0103  1.3713 -1.5877
 3371SOL     OW21748   1.798   2.396  11.963  0.2928  0.1361 -0.1358
 3371SOL    HW121749   1.841   2.406  12.048  0.4064 -2.4077  0.1184
 3371SOL    HW221750   1.708   2.384  11.995  0.0607  0.4621 -0.6739
 3372SOL     OW21751   3.968   3.848  11.592 -0.2359  0.0960 -0.0874
 3372SOL    HW121752   3.963   3.815  11.503 -0.9515  1.3398 -0.5130
 3372SOL    HW221753   4.000   3.938  11.582 -0.2614  0.1799  0.5329
 3373SOL     OW21754   4.486   3.735  14.588  0.3484  0.3763 -0.2972
 3373SOL    HW121755   4.440   3.797  14.646 -1.3147 -1.9484  0.8410
 3373SOL    HW221756   4.480   3.784  14.506 -3.1058  0.8617  0.2682
 3374SOL     OW21757   0.256   2.082   2.290  0.6739  0.3974  0.3282
 3374SOL    HW121758   0.235   2.033   2.210  0.2969 -0.6334  1.0563
 3374SOL    HW221759   0.177   2.132   2.309 -0.3129 -1.2686  0.6360
 3375SOL     OW21760   4.514   0.424  13.343  0.0563  0.2330  0.1888
 3375SOL    HW121761   4.535   0.503  13.292 -0.4348  0.1027 -0.2178
 3375SOL    HW221762   4.533   0.455  13.432  3.8635  0.0406 -0.5483
 3376SOL     OW21763   3.379   4.707   3.973 -0.4639  0.7208  0.1948
 3376SOL    HW121764   3.466   4.715   3.933 -1.5158 -1.0334 -2.3985
 3376SOL    HW221765   3.379   0.020   4.056 -0.0123  1.5994 -0.3015
 3377SOL     OW21766   4.088   0.620   6.127 -0.4235 -0.5069 -0.2467
 3377SOL    HW121767   4.006   0.650   6.089 -0.1718 -0.7610 -0.9828
 3377SOL    HW221768   4.053   0.594   6.213  2.4951  1.0747  1.4466
 3378SOL     OW21769   1.226   1.813   5.662  0.0673  0.3572  0.0225
 3378SOL    HW121770   1.306   1.865   5.672  0.7081 -0.7817  0.7293
 3378SOL    HW221771   1.266   1.743   5.611 -0.4033  0.4531 -0.4802
 3379SOL     OW21772   4.641   4.295  13.063  0.2224 -0.3962  0.0524
 3379SOL    HW121773   4.570   4.266  13.005  0.1228  1.3483 -0.6728
 3379SOL    HW221774   4.712   4.317  13.004 -1.1653  1.3023 -0.9765
 3380SOL     OW21775   1.501   3.597   8.207 -0.2307 -0.1313  0.0882
 3380SOL    HW121776   1.485   3.587   8.300 -1.0290 -0.2729 -0.0618
 3380SOL    HW221777   1.440   3.531   8.173  1.1219 -2.2036  1.6872
 3381SOL     OW21778   0.227   3.632   3.437 -0.3097  0.2929  0.5575
 3381SOL    HW121779   0.264   3.629   3.349 -2.7855  0.2844 -0.4983
 3381SOL    HW221780   0.213   3.726   3.447  0.1813  0.1142  2.9117
 3382SOL     OW21781   1.281   0.174  11.237  0.2335 -0.7984  0.6805
 3382SOL    HW121782   1.193   0.167  11.201 -0.5463 -0.3745  2.5069
 3382SOL    HW221783   1.341   0.161  11.163 -1.0224 -1.8893 -0.1558
 3383SOL     OW21784   0.877   0.884   1.889 -0.0135  0.5821  0.3798
 3383SOL    HW121785   0.931   0.873   1.811 -0.0896 -1.4619  0.6281
 3383SOL    HW221786   0.855   0.977   1.901  1.2244  0.7242  1.5468
 3384SOL     OW21787   3.206   0.235   1.605 -0.7391 -0.2357  0.0331
 3384SOL    HW121788   3.222   0.317   1.651 -1.7798 -0.6470  1.1217
 3384SOL    HW221789   3.159   0.263   1.526 -0.8983  0.8875  0.5360
 3385SOL     OW21790   1.089   2.192   5.597 -0.4950  0.0752 -0.1470
 3385SOL    HW121791   1.061   2.119   5.541 -0.4666 -0.5586  0.6674
 3385SOL    HW221792   1.177   2.193   5.558  0.0339 -1.5749  1.0109
 3386SOL     OW21793   3.549   4.160  14.326 -0.1548 -0.2962 -0.0527
 3386SOL    HW121794   3.580   4.249  14.342  1.1001 -0.7780  0.1642
 3386SOL    HW221795   3.462   4.181  14.292 -0.8596 -0.9512  1.3644
 3387SOL     OW21796   1.502   1.333  17.154  0.1052 -0.3430  0.9560
 3387SOL    HW121797   1.428   1.339  17.214 -1.3476 -1.7555 -0.6829
 3387SOL    HW221798   1.499   1.242  17.127 -0.9264  0.0365 -0.2250
 3388SOL     OW21799   1.177   1.065   3.439  0.0482 -0.5279 -0.8011
 3388SOL    HW121800   1.157   1.146   3.486 -0.8358 -1.6170  0.7094
 3388SOL    HW221801   1.272   1.074   3.437 -0.0636  0.6175 -0.8033
 3389SOL     OW21802   0.556   4.342   6.164 -0.9245 -0.6240 -0.4533
 3389SOL    HW121803   0.474   4.294   6.149  0.3234 -2.8628 -0.1488
 3389SOL    HW221804   0.592   4.339   6.075 -0.0520  1.5390 -0.1664
 3390SOL     OW21805   0.877   1.377  14.544 -0.2372 -0.3496  0.2490
 3390SOL    HW121806   0.927   1.309  14.497 -1.6025 -1.7386  0.7971
 3390SOL    HW221807   0.842   1.332  14.621 -0.9681  0.4944  0.4030
 3391SOL     OW21808   0.647   2.431   9.187  0.5188 -0.1554  0.1665
 3391SOL    HW121809   0.650   2.446   9.281  2.4293 -0.4085  0.1408
 3391SOL    HW221810   0.667   2.517   9.150  0.2893  0.7846  2.2020
 3392SOL     OW21811   3.126   0.719   4.128  0.6149  0.3568 -0.4189
 3392SOL    HW121812   3.060   0.771   4.082 -1.5731 -1.5343  0.6059
 3392SOL    HW221813   3.082   0.686   4.206 -1.4437 -0.3222 -1.8733
 3393SOL     OW21814   2.951   0.232   3.106  0.0486 -0.3188  0.6863
 3393SOL    HW121815   3.014   0.282   3.053  0.0838 -1.9460 -0.8061
 3393SOL    HW221816   2.992   0.236   3.193 -1.1095  0.2215  1.1994
 3394SOL     OW21817   1.283   2.097  14.848  0.1047 -0.4492  0.0678
 3394SOL    HW121818   1.249   2.034  14.911 -2.3748  3.0728  2.2465
 3394SOL    HW221819   1.247   2.068  14.764  1.4899 -1.7511 -0.0776
 3395SOL     OW21820   3.590   1.284   8.259  0.4729  0.4815 -0.1821
 3395SOL    HW121821   3.542   1.272   8.177 -2.1517  2.3255  1.0748
 3395SOL    HW221822   3.531   1.353   8.288 -0.3356 -0.6862  0.9531
 3396SOL     OW21823   0.507   4.636   8.385 -0.0244  0.7139 -0.2969
 3396SOL    HW121824   0.428   4.666   8.431 -0.2523 -0.0450 -0.1931
 3396SOL    HW221825   0.506   4.704   8.318 -1.3504 -1.7804 -2.7585
 3397SOL     OW21826   3.291   2.853  14.655  0.3705 -0.0196 -0.0111
 3397SOL    HW121827   3.229   2.885  14.720 -0.8872  0.5124 -1.4692
 3397SOL    HW221828   3.326   2.768  14.680 -0.3526 -0.1248  0.6352
 3398SOL     OW21829   1.613   4.281   3.247 -0.1831 -0.1093 -0.0834
 3398SOL    HW121830   1.664   4.201   3.260 -2.0050 -0.6335  3.7909
 3398SOL    HW221831   1.667   4.358   3.267  1.4632 -1.6253  1.3098
 3399SOL     OW21832   1.610   1.853   8.132 -0.5458 -0.0907  0.1532
 3399SOL    HW121833   1.673   1.798   8.086  0.6699  0.9961  0.5169
 3399SOL    HW221834   1.642   1.943   8.124  2.1488 -1.0441  0.2478
 3400SOL     OW21835   0.959   4.142   9.090 -0.3710  0.0540  0.2188
 3400SOL    HW121836   0.933   4.050   9.091 -0.6920  0.1030 -2.6890
 3400SOL    HW221837   1.022   4.139   9.162  1.0921  0.8425 -1.0406
 3401SOL     OW21838   1.695   3.728   3.871 -0.2497  0.2282 -0.7316
 3401SOL    HW121839   1.731   3.782   3.941  1.9306 -0.4062 -1.3366
 3401SOL    HW221840   1.614   3.703   3.915 -0.8988  2.0496 -0.9098
 3402SOL     OW21841   2.686   1.007   2.321  0.3271  0.6501 -0.0478
 3402SOL    HW121842   2.750   1.060   2.273 -0.8502  2.4667  0.3960
 3402SOL    HW221843   2.730   0.922   2.323 -1.8705 -0.4726  0.4506
 3403SOL     OW21844   3.295   1.445   2.063  0.0432 -0.3246 -0.1840
 3403SOL    HW121845   3.341   1.510   2.116  0.4777 -0.3615 -0.5146
 3403SOL    HW221846   3.355   1.449   1.988  0.1472 -0.3442 -0.1022
 3404SOL     OW21847   1.712   0.410  14.900  0.2711  0.2390 -0.5512
 3404SOL    HW121848   1.790   0.358  14.882  0.3892  0.0541  0.5562
 3404SOL    HW221849   1.682   0.384  14.987  1.1496 -0.4678 -0.4630
 3405SOL     OW21850   3.791   3.165   8.241  0.2338  0.3921  0.0511
 3405SOL    HW121851   3.790   3.165   8.336 -1.1411  2.3512  0.0509
 3405SOL    HW221852   3.768   3.074   8.223 -0.1718  0.5067  0.0046
 3406SOL     OW21853   3.300   0.065   0.489  0.5719 -0.3910 -0.2731
 3406SOL    HW121854   3.310   4.719   0.438  1.4772 -0.3046 -0.2404
 3406SOL    HW221855   3.249   0.038   0.566 -0.0544 -1.6556 -1.1343
 3407SOL     OW21856   3.025   3.738  16.132  0.3850  0.4414  0.6818
 3407SOL    HW121857   2.959   3.743  16.201 -0.2129  2.6306 -0.0286
 3407SOL    HW221858   2.985   3.779  16.055  2.5846  2.5909  0.6902
 3408SOL     OW21859   3.552   1.064   5.265  0.4503  0.3473  0.2058
 3408SOL    HW121860   3.603   1.119   5.325  2.1611 -1.3882  0.3312
 3408SOL    HW221861   3.469   1.108   5.248 -0.7482 -1.9625  0.2053
 3409SOL     OW21862   0.892   4.201   0.625  0.2252  0.0856  0.5802
 3409SOL    HW121863   0.916   4.283   0.583  0.9901 -0.0660  0.7060
 3409SOL    HW221864   0.947   4.205   0.704  1.6054 -0.1558 -0.3733
 3410SOL     OW21865   0.895   1.636   6.334  0.1149 -0.2004 -0.1298
 3410SOL    HW121866   0.888   1.671   6.245  2.5804  1.2619  0.2476
 3410SOL    HW221867   0.854   1.550   6.342  0.7548 -0.1793  3.1726
 3411SOL     OW21868   3.727   2.157   1.034 -0.0941  0.2688 -0.1949
 3411SOL    HW121869   3.703   2.242   1.071 -0.2061 -0.6871  1.9401
 3411SOL    HW221870   3.750   2.113   1.116  0.8230  1.9917  0.4759
 3412SOL     OW21871   0.279   4.210  11.746 -0.6351 -0.2799 -0.2151
 3412SOL    HW121872   0.331   4.131  11.760 -1.3517 -0.3727  1.9421
 3412SOL    HW221873   0.343   4.254  11.690  0.2031 -0.8104  0.3267
 3413SOL     OW21874   3.977   0.308   4.622  0.1307 -0.4641  0.0412
 3413SOL    HW121875   3.969   0.393   4.578  1.0777 -1.5527 -2.2399
 3413SOL    HW221876   4.072   0.302   4.615 -0.0125  1.2124 -3.0976
 3414SOL     OW21877   3.146   0.099   2.025 -0.2444  0.0575  0.0464
 3414SOL    HW121878   3.146   0.003   2.030 -0.8500  0.0196 -0.5170
 3414SOL    HW221879   3.056   0.130   2.038 -0.6573 -0.6717 -1.0183
 3415SOL     OW21880   3.772   3.794   5.826 -0.3041 -0.0001 -0.2032
 3415SOL    HW121881   3.681   3.816   5.806 -0.3511 -0.6717 -0.7170
 3415SOL    HW221882   3.785   3.816   5.918  0.0119 -0.6946 -0.0851
 3416SOL     OW21883   2.655   3.292   6.427 -0.0097 -0.1033  0.6329
 3416SOL    HW121884   2.573   3.341   6.433  0.8746  0.9743  4.0371
 3416SOL    HW221885   2.711   3.348   6.480 -0.9558  1.7042 -0.2888
 3417SOL     OW21886   0.120   3.116  13.256 -0.0721 -0.0913 -0.1863
 3417SOL    HW121887   0.156   3.187  13.203 -2.5752  2.8304  2.0001
 3417SOL    HW221888   0.025   3.123  13.247  0.0885  1.1214 -0.9603
 3418SOL     OW21889   0.440   0.024  13.522  0.6269  0.7818  0.0411
 3418SOL    HW121890   0.427   0.063  13.608  1.5040 -0.2712  0.6601
 3418SOL    HW221891   0.504   4.689  13.539  1.2421  1.7905  1.7079
 3419SOL     OW21892   0.926   3.218  13.919  0.1739  0.2790  0.3491
 3419SOL    HW121893   0.993   3.163  13.878 -1.4053 -1.4553  0.0626
 3419SOL    HW221894   0.877   3.237  13.840  1.9806  2.0976 -0.3410
 3420SOL     OW21895   1.061   1.049   6.862 -0.3147 -0.3792  0.0432
 3420SOL    HW121896   1.081   1.135   6.899 -1.5372 -1.0481  2.2396
 3420SOL    HW221897   1.055   1.001   6.945 -1.6596  0.2000  0.2844
 3421SOL     OW21898   0.765   2.742  11.842 -0.0390 -0.0934  0.0625
 3421SOL    HW121899   0.808   2.702  11.918 -0.4537  0.4228  0.5696
 3421SOL    HW221900   0.718   2.664  11.813 -0.6049 -0.6348  2.4429
 3422SOL     OW21901   3.324   0.708   8.410  0.0730 -0.0007 -0.2183
 3422SOL    HW121902   3.319   0.780   8.472 -1.7478  0.2724 -0.6689
 3422SOL    HW221903   3.397   0.656   8.443  0.7388  1.2510  0.3081
 3423SOL     OW21904   0.610   0.687  16.029  0.2976  0.1684  0.1678
 3423SOL    HW121905   0.597   0.609  15.976  1.5511 -0.7147  1.1479
 3423SOL    HW221906   0.660   0.643  16.098  2.4842  0.4309 -1.2597
 3424SOL     OW21907   2.613   3.773   6.220 -0.5347 -0.0637 -0.4375
 3424SOL    HW121908   2.587   3.772   6.128  0.2976 -0.2506 -0.6706
 3424SOL    HW221909   2.634   3.865   6.236 -1.9406 -0.0228  1.1440
 3425SOL     OW21910   3.271   3.293   6.251  0.0725 -0.1500 -0.2168
 3425SOL    HW121911   3.333   3.349   6.297 -0.1102  0.5698 -0.8520
 3425SOL    HW221912   3.186   3.330   6.276 -1.0535 -1.8730 -1.3790
 3426SOL     OW21913   0.209   2.246   2.933 -0.1775  0.5967  0.3626
 3426SOL    HW121914   0.304   2.235   2.922 -0.2027  0.9223 -0.1872
 3426SOL    HW221915   0.189   2.303   2.859  0.3700  0.7425  0.3233
 3427SOL     OW21916   3.068   4.609   1.414  0.0010 -0.1805  0.0153
 3427SOL    HW121917   3.066   4.666   1.491 -0.1579  0.8091 -0.7271
 3427SOL    HW221918   3.162   4.604   1.396 -0.0603 -2.2129  0.2337
 3428SOL     OW21919   4.481   1.513   3.567  0.0193  0.6660 -0.2453
 3428SOL    HW121920   4.422   1.534   3.494  0.3906  4.6708  0.6462
 3428SOL    HW221921   4.449   1.562   3.643  0.5654 -2.3811  1.9318
 3429SOL     OW21922   3.690   1.788  12.874  0.2492  0.0596  0.1401
 3429SOL    HW121923   3.702   1.693  12.864  1.1591  0.0561  1.1421
 3429SOL    HW221924   3.762   1.804  12.935 -0.8822 -1.4501  1.8757
 3430SOL     OW21925   0.501   0.688   1.700 -0.2259  0.6300 -0.1057
 3430SOL    HW121926   0.503   0.783   1.693  1.9004  0.7615  2.1658
 3430SOL    HW221927   0.583   0.668   1.745 -1.0617  0.0624  1.1741
 3431SOL     OW21928   2.168   1.538   3.400 -0.4341  0.0661 -0.0075
 3431SOL    HW121929   2.165   1.632   3.381 -0.1141  0.4252  1.7077
 3431SOL    HW221930   2.101   1.516   3.465 -0.0055  2.8261  1.3704
 3432SOL     OW21931   3.617   2.532   2.178  0.2297  0.3654 -0.1928
 3432SOL    HW121932   3.607   2.497   2.089 -1.2549 -0.6923  0.3951
 3432SOL    HW221933   3.657   2.457   2.222 -1.0309 -0.9794 -1.3437
 3433SOL     OW21934   1.618   0.941  11.323 -0.4647  0.1673 -0.3699
 3433SOL    HW121935   1.599   0.852  11.353  0.5650  0.3384  0.7802
 3433SOL    HW221936   1.595   0.937  11.230  0.4562 -1.4461 -0.5399
 3434SOL     OW21937   4.153   3.696   7.437  0.2157  0.2039  0.2214
 3434SOL    HW121938   4.153   3.768   7.374 -1.4515 -0.9005 -1.0356
 3434SOL    HW221939   4.060   3.671   7.440  0.4635 -0.7402 -0.0371
 3435SOL     OW21940   3.658   4.704   8.833  0.2417 -0.2493 -0.7496
 3435SOL    HW121941   3.632   4.726   8.922 -2.2319 -2.9966 -0.8000
 3435SOL    HW221942   3.613   4.622   8.813 -3.3802  1.1297  1.7814
 3436SOL     OW21943   0.002   4.476   1.535  0.1823 -0.2534 -0.3957
 3436SOL    HW121944   4.712   4.442   1.621  1.2506 -1.2912 -0.5075
 3436SOL    HW221945   0.006   4.570   1.550  0.3121 -0.3438  0.1440
 3437SOL     OW21946   0.523   0.123   8.226  0.4407  0.5132  0.6952
 3437SOL    HW121947   0.496   0.204   8.181  0.8167  0.9851  1.3203
 3437SOL    HW221948   0.598   0.151   8.278  0.8268  1.6233 -0.4493
 3438SOL     OW21949   2.916   3.279   9.778 -0.4565 -0.1194 -0.0304
 3438SOL    HW121950   2.978   3.331   9.829 -0.5439 -0.5739  0.5310
 3438SOL    HW221951   2.941   3.191   9.806 -0.7548 -0.0955  0.3180
 3439SOL     OW21952   4.020   0.132  17.624 -0.5523  0.7423  0.1440
 3439SOL    HW121953   4.100   0.154  17.671  0.2555  1.1513 -1.4184
 3439SOL    HW221954   3.954   0.141  17.692  0.7799  2.4426  1.1892
 3440SOL     OW21955   2.461   4.710   8.468 -0.0316 -0.4037  0.1757
 3440SOL    HW121956   2.437   0.052   8.414  2.8468  1.1160  1.0488
 3440SOL    HW221957   2.505   0.013   8.544 -0.5944  0.7745 -0.0595
 3441SOL     OW21958   0.512   4.709   9.280 -0.5359  0.1067 -0.6703
 3441SOL    HW121959   0.496   4.619   9.251  2.6777 -1.1309  1.3405
 3441SOL    HW221960   0.571   4.698   9.355  1.2406 -2.1844 -2.4152
 3442SOL     OW21961   0.536   2.897   8.520 -0.5453 -0.4148  0.7490
 3442SOL    HW121962   0.491   2.979   8.542 -1.0287 -0.3747 -0.3666
 3442SOL    HW221963   0.461   2.838   8.528 -1.3901  0.4627 -0.6543
 3443SOL     OW21964   1.295   2.886  10.647 -0.0708  0.0087 -0.2693
 3443SOL    HW121965   1.217   2.879  10.702  2.0320  0.1035  2.7334
 3443SOL    HW221966   1.300   2.795  10.616  1.3690  0.0843 -0.2827
 3444SOL     OW21967   3.095   2.402   4.441 -0.0319 -0.5953  0.2836
 3444SOL    HW121968   3.153   2.336   4.480 -1.1544 -1.4908  0.4239
 3444SOL    HW221969   3.141   2.484   4.455 -0.5022 -0.2717 -0.0906
 3445SOL     OW21970   4.660   1.184   0.480  0.2638  0.3544 -0.4340
 3445SOL    HW121971   4.700   1.271   0.484 -0.0241  0.3831  1.7337
 3445SOL    HW221972   4.569   1.201   0.455  0.0086  0.0054  0.2661
 3446SOL     OW21973   0.076   2.703   5.402 -0.2031 -0.1151  0.1464
 3446SOL    HW121974   0.080   2.788   5.359  2.2173 -1.3191 -2.0861
 3446SOL    HW221975   0.010   2.725   5.468  0.6888  1.6848  0.4248
 3447SOL     OW21976   0.993   1.370  13.737  0.2974 -0.4133  0.7986
 3447SOL    HW121977   0.943   1.326  13.806 -2.1247  1.0140 -0.0285
 3447SOL    HW221978   1.003   1.297  13.677  0.9810  0.3108  0.0330
 3448SOL     OW21979   3.342   0.986  13.164  0.3165  0.3395  0.0121
 3448SOL    HW121980   3.306   0.900  13.141 -0.2543  0.2990  1.0279
 3448SOL    HW221981   3.330   0.967  13.257  0.2158  0.3818  0.0085
 3449SOL     OW21982   0.261   0.709   4.555 -0.0352  0.3889  0.2487
 3449SOL    HW121983   0.190   0.659   4.596  0.3860  1.1530  1.9022
 3449SOL    HW221984   0.254   0.793   4.601  3.3636  0.3626  0.7908
 3450SOL     OW21985   2.836   0.720   9.533 -0.2090  0.3038  0.7896
 3450SOL    HW121986   2.798   0.787   9.588 -1.0412  1.6136 -1.3771
 3450SOL    HW221987   2.805   0.749   9.447  0.7086  0.2279  0.4296
 3451SOL     OW21988   3.765   0.610   9.210  0.4712 -0.0610  0.5590
 3451SOL    HW121989   3.690   0.550   9.214 -0.2393  1.0315  3.5355
 3451SOL    HW221990   3.842   0.554   9.217  0.9270  0.5827  0.6900
 3452SOL     OW21991   0.977   3.504   6.015  0.2412 -0.0330  0.1800
 3452SOL    HW121992   1.046   3.513   5.950 -0.9518  0.6878 -0.9962
 3452SOL    HW221993   1.029   3.511   6.094 -0.2174 -0.3619  0.5124
 3453SOL     OW21994   4.236   2.616   2.770 -0.3630 -0.1260  0.0597
 3453SOL    HW121995   4.232   2.617   2.674 -0.6945  0.5495  0.0783
 3453SOL    HW221996   4.326   2.582   2.778  0.2956  1.8097  0.9451
 3454SOL     OW21997   3.826   2.950  15.768 -0.9708  0.4304 -0.5025
 3454SOL    HW121998   3.740   2.910  15.753 -0.6210 -0.7787  0.6478
 3454SOL    HW221999   3.805   3.037  15.801  0.9338  1.1065 -1.1245
 3455SOL     OW22000   3.415   2.081  14.040  0.2682 -0.0775  0.3441
 3455SOL    HW122001   3.468   2.152  14.005  0.8417  0.4052  2.1774
 3455SOL    HW222002   3.330   2.119  14.065  0.8846  1.7694 -0.3723
 3456SOL     OW22003   0.113   1.163   6.175 -0.0651  0.5489 -0.0798
 3456SOL    HW122004   0.156   1.202   6.252 -1.6948  2.1106  0.0352
 3456SOL    HW222005   0.119   1.070   6.197  2.0568  0.8433  0.5922
 3457SOL     OW22006   2.466   1.262   6.234  0.2340 -0.2140 -0.2722
 3457SOL    HW122007   2.474   1.210   6.314  1.1041 -0.2240 -0.3676
 3457SOL    HW222008   2.486   1.194   6.169 -1.6329 -0.7979 -0.2564
 3458SOL     OW22009   1.800   1.043  13.452  0.1793  0.2557 -0.8278
 3458SOL    HW122010   1.819   1.135  13.467  1.1618  0.1310 -1.3232
 3458SOL    HW222011   1.882   1.011  13.416 -0.2750 -1.1533 -0.6250
 3459SOL     OW22012   2.049   1.826   0.062 -0.2517  0.1801 -0.6956
 3459SOL    HW122013   2.117   1.808  17.731 -1.8052  0.5512 -2.3896
 3459SOL    HW222014   1.976   1.805   0.004 -0.0698  0.5937 -1.0698
 3460SOL     OW22015   2.519   3.476   7.434  0.2732  0.0489  0.0537
 3460SOL    HW122016   2.554   3.548   7.486  0.0733  0.0185  0.2279
 3460SOL    HW222017   2.555   3.402   7.482  1.1130  0.0415 -0.5834
 3461SOL     OW22018   4.141   2.644   4.132  0.5619  0.0967 -0.4367
 3461SOL    HW122019   4.217   2.664   4.077 -0.5037 -0.6426 -2.1613
 3461SOL    HW222020   4.078   2.714   4.118 -1.0626 -1.2007  0.4658
 3462SOL     OW22021   0.032   1.003   7.436  0.4803 -0.1044 -0.1730
 3462SOL    HW122022   0.094   0.949   7.484  1.3982  0.7164 -0.4118
 3462SOL    HW222023   0.054   1.090   7.471 -1.6135  0.8142 -1.0925
 3463SOL     OW22024   0.200   3.693  10.643 -0.0024  0.2253 -0.1492
 3463SOL    HW122025   0.213   3.627  10.711 -0.0511  0.9493  0.5634
 3463SOL    HW222026   0.281   3.675  10.595  1.3256 -1.2549  2.6493
 3464SOL     OW22027   1.585   3.724  15.850  0.0718  0.2854  0.4066
 3464SOL    HW122028   1.531   3.654  15.886 -1.7039  1.1392 -0.5460
 3464SOL    HW222029   1.660   3.720  15.909  1.5073 -2.6277 -1.6881
 3465SOL     OW22030   2.762   4.057   5.403 -0.0280 -0.4139 -0.1464
 3465SOL    HW122031   2.707   4.069   5.481  0.1654  2.1755 -0.4114
 3465SOL    HW222032   2.852   4.082   5.425 -0.1654  1.1338 -1.3405
 3466SOL     OW22033   2.367   4.122  13.259  0.6869 -0.1914  0.0874
 3466SOL    HW122034   2.452   4.141  13.218  0.1841 -0.3320 -1.0397
 3466SOL    HW222035   2.314   4.191  13.220 -0.1380  0.2484  2.0047
 3467SOL     OW22036   4.243   1.620   5.619 -0.4233 -0.3522 -0.2889
 3467SOL    HW122037   4.265   1.526   5.620 -0.5145 -0.3764 -0.4782
 3467SOL    HW222038   4.268   1.633   5.710 -0.6156  1.6289 -0.5202
 3468SOL     OW22039   1.564   1.636   8.433 -0.0467  0.3107  0.0047
 3468SOL    HW122040   1.556   1.553   8.480  0.5784  0.5387  0.5147
 3468SOL    HW222041   1.659   1.646   8.445 -0.2953  0.7129  1.5876
 3469SOL     OW22042   2.459   3.325   8.090 -0.2552 -0.3856  0.0496
 3469SOL    HW122043   2.492   3.352   8.004  0.3331  1.4541  0.8528
 3469SOL    HW222044   2.460   3.406   8.139 -0.0027 -2.7390  3.9142
 3470SOL     OW22045   2.015   2.867  13.155 -0.2588 -0.6482 -0.8222
 3470SOL    HW122046   1.992   2.954  13.188  1.0924 -0.2740 -0.8506
 3470SOL    HW222047   2.071   2.829  13.222 -0.6975 -1.0481 -0.6895
 3471SOL     OW22048   1.281   4.547   4.002 -0.0779 -0.1195  0.1850
 3471SOL    HW122049   1.209   4.551   3.938 -0.2092 -0.6198  0.3029
 3471SOL    HW222050   1.333   4.481   3.956 -1.0665  0.5015 -1.8621
 3472SOL     OW22051   2.943   1.589  17.289 -0.0479 -0.7431 -0.2532
 3472SOL    HW122052   2.881   1.656  17.260  2.0905  0.6563 -1.5519
 3472SOL    HW222053   2.906   1.516  17.239  0.4878  1.0915 -3.3446
 3473SOL     OW22054   4.115   3.053  16.527  0.2349  0.1594  0.2094
 3473SOL    HW122055   4.147   3.142  16.515 -2.8992  1.4506  1.4208
 3473SOL    HW222056   4.030   3.056  16.572 -0.0221  1.0563 -0.3410
 3474SOL     OW22057   2.154   0.931   3.223  0.3689 -0.0893 -0.0227
 3474SOL    HW122058   2.111   0.902   3.142 -2.2730  0.9396  1.0010
 3474SOL    HW222059   2.243   0.900   3.205  1.1211  1.6255  0.7091
 3475SOL     OW22060   1.589   0.529   8.204  0.4407  0.3173 -0.3070
 3475SOL    HW122061   1.517   0.588   8.183 -0.0679 -1.1120 -2.5198
 3475SOL    HW222062   1.579   0.458   8.141 -0.2200 -1.4165  1.7470
 3476SOL     OW22063   4.042   3.025   6.714 -0.5268  0.0537  0.3149
 3476SOL    HW122064   4.130   2.998   6.688 -0.6472 -0.1198  0.0793
 3476SOL    HW222065   4.031   3.098   6.654  2.3463  0.7398  0.6320
 3477SOL     OW22066   0.643   0.151  15.835  0.3924 -0.0659 -0.3543
 3477SOL    HW122067   0.554   0.122  15.857  0.3380 -0.9120 -1.6910
 3477SOL    HW222068   0.643   0.242  15.865  1.8905  0.3821 -1.7149
 3478SOL     OW22069   1.185   3.349   4.071  0.5023 -0.0056  0.6318
 3478SOL    HW122070   1.273   3.384   4.056  0.2923  0.6926  1.0954
 3478SOL    HW222071   1.214   3.263   4.104 -0.2531  0.1087  1.5769
 3479SOL     OW22072   2.781   3.376   0.735 -0.0273  0.0053 -0.0004
 3479SOL    HW122073   2.812   3.406   0.650  4.2258 -1.3679  1.0712
 3479SOL    HW222074   2.773   3.283   0.713  0.9553  0.2316 -1.2676
 3480SOL     OW22075   3.837   3.341   0.886  0.7671  0.3395 -0.2137
 3480SOL    HW122076   3.866   3.268   0.831  0.2596 -1.0715  1.3833
 3480SOL    HW222077   3.856   3.410   0.822  1.6738 -0.1481 -0.4723
 3481SOL     OW22078   1.830   2.238   0.279 -0.8011 -0.1459 -0.0572
 3481SOL    HW122079   1.906   2.296   0.277  0.3001 -1.6183 -0.6029
 3481SOL    HW222080   1.871   2.153   0.266  0.2168  0.5897 -1.6199
 3482SOL     OW22081   0.015   3.881  12.056 -0.3673 -0.0427  0.7071
 3482SOL    HW122082   4.703   3.965  12.059 -0.1547  0.1547 -2.0694
 3482SOL    HW222083   4.714   3.835  12.132 -1.8297 -1.2099 -0.7025
 3483SOL     OW22084   3.447   1.030   2.536 -0.0706 -0.0276  0.1925
 3483SOL    HW122085   3.444   1.103   2.475  2.1854 -0.0890  0.0174
 3483SOL    HW222086   3.407   1.071   2.612 -0.0208  2.8838 -1.3570
 3484SOL     OW22087   2.217   2.016  11.109 -0.6214 -0.2930 -0.6781
 3484SOL    HW122088   2.220   1.973  11.024  2.8124 -0.0043 -0.6952
 3484SOL    HW222089   2.181   1.945  11.163 -2.4863 -0.8192 -2.5956
 3485SOL     OW22090   3.038   2.576   9.613 -0.5039 -0.7344  0.1606
 3485SOL    HW122091   3.128   2.549   9.597 -0.3060  0.8078 -1.4319
 3485SOL    HW222092   3.012   2.500   9.664  1.9400 -0.5373  1.6541
 3486SOL     OW22093   0.957   4.635   4.649 -0.1580 -0.4811  0.0003
 3486SOL    HW122094   1.035   4.667   4.695 -1.2513  2.0505  0.1535
 3486SOL    HW222095   0.986   4.638   4.558 -1.2976  2.7207 -0.2636
 3487SOL     OW22096   3.582   0.687   8.001  0.0970  0.5428 -0.5818
 3487SOL    HW122097   3.657   0.708   8.057 -0.0462 -1.2372  0.2944
 3487SOL    HW222098   3.519   0.758   8.010  0.0550  0.5089 -0.6050
 3488SOL     OW22099   3.345   4.427   6.168 -0.3836 -0.7346 -0.1346
 3488SOL    HW122100   3.421   4.415   6.110  0.0717  0.2607  0.2606
 3488SOL    HW222101   3.396   4.434   6.248  1.0190 -1.3550 -0.9803
 3489SOL     OW22102   3.866   4.318   1.871  0.0594 -0.0777  0.0286
 3489SOL    HW122103   3.933   4.327   1.939 -0.0169 -1.0924  0.2419
 3489SOL    HW222104   3.816   4.393   1.903 -0.0846  1.0357 -2.7727
 3490SOL     OW22105   2.111   4.440   4.985 -0.6721 -0.2131  0.8751
 3490SOL    HW122106   2.034   4.448   5.040 -1.2936  0.5608 -0.0954
 3490SOL    HW222107   2.177   4.404   5.044  0.2408  0.6529  0.3896
 3491SOL     OW22108   3.350   3.187   5.658  0.3577  0.8181  0.1045
 3491SOL    HW122109   3.381   3.135   5.585  0.8062  1.1284  0.0656
 3491SOL    HW222110   3.375   3.129   5.730 -0.3271 -2.0602 -2.0299
 3492SOL     OW22111   0.115   0.386   4.072  0.0593  0.0504 -0.3326
 3492SOL    HW122112   0.109   0.430   4.157 -0.9311 -0.0826 -0.3351
 3492SOL    HW222113   0.121   0.459   4.010 -1.9782  0.6067  0.1236
 3493SOL     OW22114   4.245   3.489   7.265 -0.3490  0.4526  0.6502
 3493SOL    HW122115   4.157   3.464   7.236  0.1945  0.2335 -0.8147
 3493SOL    HW222116   4.214   3.540   7.340 -0.5309 -0.1790  1.0061
 3494SOL     OW22117   2.891   4.202  11.080 -0.1163  0.5614 -1.1794
 3494SOL    HW122118   2.855   4.290  11.093  1.5698  1.0919 -0.1755
 3494SOL    HW222119   2.875   4.190  10.987 -1.1172 -1.4851 -0.7399
 3495SOL     OW22120   2.437   4.051   5.892 -0.4707 -1.3563 -0.0145
 3495SOL    HW122121   2.380   4.040   5.968  0.2684 -0.3093  0.6985
 3495SOL    HW222122   2.386   4.099   5.827  0.9204 -1.6898 -1.3556
 3496SOL     OW22123   1.958   2.787   0.641 -0.1876 -0.8093  0.2201
 3496SOL    HW122124   1.928   2.704   0.678  0.9621 -1.1830  0.3017
 3496SOL    HW222125   2.037   2.752   0.601 -0.3013  0.6901 -1.3118
 3497SOL     OW22126   4.224   0.219  15.297  0.6542 -0.3400  0.2230
 3497SOL    HW122127   4.140   0.189  15.333  0.0022  0.1256 -0.8811
 3497SOL    HW222128   4.283   0.204  15.370 -1.0453 -1.2404  1.4064
 3498SOL     OW22129   0.786   4.344  13.885 -0.0725 -0.5909  0.3871
 3498SOL    HW122130   0.800   4.258  13.845 -1.7482 -0.4186 -0.5660
 3498SOL    HW222131   0.831   4.392  13.815  1.0797 -1.8610  0.2466
 3499SOL     OW22132   3.590   1.435  12.125 -0.2892  0.0934  0.5446
 3499SOL    HW122133   3.551   1.350  12.105 -1.5329  1.8628 -4.4115
 3499SOL    HW222134   3.683   1.411  12.133  0.4217  2.2379 -1.5480
 3500SOL     OW22135   4.144   1.933   8.512 -0.0200  0.1105  0.2950
 3500SOL    HW122136   4.152   1.929   8.607  0.6784 -3.4335  0.0930
 3500SOL    HW222137   4.167   1.843   8.488  0.2673  0.1138  0.5529
 3501SOL     OW22138   3.110   4.523  16.280 -0.3572 -0.6663  0.1725
 3501SOL    HW122139   3.035   4.482  16.323 -0.7214 -1.4138 -1.1860
 3501SOL    HW222140   3.105   4.474  16.199  2.5783  1.0363 -1.0796
 3502SOL     OW22141   2.743   3.929   9.816  0.0941  0.0966 -0.0624
 3502SOL    HW122142   2.728   4.006   9.762  0.9556  0.8163  0.7266
 3502SOL    HW222143   2.743   3.971   9.902  1.8058 -0.6188  0.2895
 3503SOL     OW22144   3.663   0.699   5.478 -0.2333 -0.0119  0.0113
 3503SOL    HW122145   3.706   0.709   5.393  1.2197  2.6315  1.0376
 3503SOL    HW222146   3.668   0.605   5.493 -0.8732  0.0236  0.4618
 3504SOL     OW22147   2.546   0.573   3.722 -0.4630 -0.2757 -0.6174
 3504SOL    HW122148   2.471   0.516   3.707 -0.6714 -0.3032  0.5393
 3504SOL    HW222149   2.576   0.569   3.631  2.4419  0.2463  0.3235
 3505SOL     OW22150   2.683   1.546   5.823 -0.8434 -0.2000  0.1249
 3505SOL    HW122151   2.668   1.539   5.918 -2.8101  0.6322 -0.1239
 3505SOL    HW222152   2.768   1.590   5.825 -3.0169  3.8492  1.4277
 3506SOL     OW22153   4.048   0.666   2.850  0.5585  0.3651 -0.2722
 3506SOL    HW122154   3.967   0.647   2.802  0.8436  0.4122 -0.7718
 3506SOL    HW222155   4.015   0.721   2.921 -0.1529  1.0082 -1.0954
 3507SOL     OW22156   3.479   0.175   2.749 -0.0210  0.4412  0.3013
 3507SOL    HW122157   3.431   0.240   2.698 -0.5203 -1.0734 -1.1462
 3507SOL    HW222158   3.515   0.110   2.689  0.2818  0.8439  0.0495
 3508SOL     OW22159   1.930   0.476   2.227  0.5846  0.3049 -0.1022
 3508SOL    HW122160   1.861   0.433   2.177  1.3902 -0.2960 -0.6894
 3508SOL    HW222161   1.888   0.560   2.247 -2.2547 -1.0122 -0.6099
 3509SOL     OW22162   3.703   4.504  17.317  0.1441 -0.0747  0.6156
 3509SOL    HW122163   3.785   4.520  17.270 -0.6357 -0.2801 -0.8227
 3509SOL    HW222164   3.654   4.580  17.285 -1.0241 -0.5795  1.1963
 3510SOL     OW22165   3.947   2.546   5.632  0.2259 -0.2546 -0.3133
 3510SOL    HW122166   3.864   2.515   5.666  0.5143 -1.3432 -0.6084
 3510SOL    HW222167   3.994   2.548   5.716 -1.7157  1.0431  0.7457
 3511SOL     OW22168   0.482   0.724   1.045  0.2647  0.5823  0.2618
 3511SOL    HW122169   0.414   0.656   1.049 -0.1547  0.9822 -0.1063
 3511SOL    HW222170   0.552   0.677   1.091 -0.1099  0.2878  0.5346
 3512SOL     OW22171   0.829   3.596  17.182  0.1699  0.0245 -0.7858
 3512SOL    HW122172   0.742   3.561  17.201  0.8602 -2.0485 -1.4059
 3512SOL    HW222173   0.804   3.680  17.144  0.2381  1.7478  2.9987
 3513SOL     OW22174   2.309   3.050  16.814 -0.0926 -0.0489  0.7273
 3513SOL    HW122175   2.335   2.967  16.855 -0.1433 -0.3321  0.1908
 3513SOL    HW222176   2.284   3.100  16.892 -2.1733  0.4625 -0.2465
 3514SOL     OW22177   2.070   3.780   2.799  0.1737  0.1893  0.8966
 3514SOL    HW122178   2.146   3.838   2.801  0.5860 -0.2503 -1.4480
 3514SOL    HW222179   2.097   3.708   2.856  0.1461 -2.3555 -2.2630
 3515SOL     OW22180   3.217   1.418  16.571  0.6668 -0.0531 -0.0750
 3515SOL    HW122181   3.165   1.342  16.545  1.2458 -0.3448 -0.3821
 3515SOL    HW222182   3.258   1.392  16.653 -0.3483 -0.1465  0.4027
 3516SOL     OW22183   1.922   1.746  15.425  0.3996 -0.7317 -0.3262
 3516SOL    HW122184   1.875   1.678  15.473 -0.6837 -1.4200 -2.3394
 3516SOL    HW222185   1.895   1.722  15.336 -0.3938 -0.0716 -0.2655
 3517SOL     OW22186   3.203   3.784   9.475  0.3376 -0.1412 -0.8463
 3517SOL    HW122187   3.198   3.873   9.441 -1.1654  0.0711 -0.0621
 3517SOL    HW222188   3.280   3.787   9.533 -1.0132 -2.1480  1.0619
 3518SOL     OW22189   0.414   4.324   5.705 -0.2856  0.3238 -0.4252
 3518SOL    HW122190   0.445   4.235   5.690 -0.2137 -0.4131  4.2223
 3518SOL    HW222191   0.421   4.360   5.616 -0.0734  0.8295 -0.2022
 3519SOL     OW22192   3.196   2.806   9.848  0.1333  0.9511 -0.1356
 3519SOL    HW122193   3.197   2.867   9.922  0.3061  1.9163 -0.9272
 3519SOL    HW222194   3.108   2.769   9.839  0.9568 -1.0620  0.0490
 3520SOL     OW22195   2.138   0.180  14.585  0.1328 -0.3115 -0.5063
 3520SOL    HW122196   2.131   0.106  14.646  0.0926 -0.2945 -0.4908
 3520SOL    HW222197   2.203   0.145  14.524  0.7985  0.5691 -0.2946
 3521SOL     OW22198   2.040   3.964  17.585 -0.2256 -0.0148 -0.1380
 3521SOL    HW122199   1.969   4.014  17.625  0.9548  1.3773  0.1896
 3521SOL    HW222200   1.993   3.917  17.515  0.2889 -0.4806 -0.1688
 3522SOL     OW22201   4.563   3.678   8.648  0.0162 -0.6326  0.5368
 3522SOL    HW122202   4.650   3.709   8.623  0.0846 -0.6867  0.7072
 3522SOL    HW222203   4.568   3.696   8.742 -0.3899  3.4553 -0.2452
 3523SOL     OW22204   1.540   2.342  12.258  0.6610  0.5986  0.2525
 3523SOL    HW122205   1.536   2.338  12.163 -1.2864 -0.9661  0.3996
 3523SOL    HW222206   1.632   2.363  12.276  0.5457  0.8520  0.5527
 3524SOL     OW22207   2.323   4.472   8.493 -0.3545 -0.2479 -0.3485
 3524SOL    HW122208   2.368   4.552   8.466 -2.2980  0.9457 -0.0094
 3524SOL    HW222209   2.340   4.412   8.421  0.6321 -2.7195  1.9129
 3525SOL     OW22210   4.564   1.968   6.762  0.7021 -0.1529 -0.4068
 3525SOL    HW122211   4.544   2.006   6.848  2.0111  0.0460 -0.2011
 3525SOL    HW222212   4.475   1.941   6.739  1.0391 -0.7477 -1.0182
 3526SOL     OW22213   1.475   1.241   6.575 -0.4833  0.5728  0.1326
 3526SOL    HW122214   1.550   1.275   6.624  0.3645  0.8603 -1.3832
 3526SOL    HW222215   1.494   1.147   6.572  0.4618  0.6617  3.0997
 3527SOL     OW22216   4.353   1.326   8.047  0.5760  0.0366 -0.2465
 3527SOL    HW122217   4.327   1.392   7.983 -3.6101 -0.6103  0.7464
 3527SOL    HW222218   4.394   1.260   7.991 -0.8445 -0.8934 -0.2063
 3528SOL     OW22219   3.562   2.248   5.573  0.1056 -0.2785  0.4164
 3528SOL    HW122220   3.581   2.331   5.530  1.8308 -0.9992 -0.2348
 3528SOL    HW222221   3.467   2.243   5.582  0.0429  1.3965  0.6200
 3529SOL     OW22222   2.572   0.631   5.577  0.3635  0.7832  0.3843
 3529SOL    HW122223   2.637   0.598   5.515  0.5111 -1.0213  1.5144
 3529SOL    HW222224   2.602   0.722   5.585  1.3146  0.4844  0.1143
 3530SOL     OW22225   1.084   2.423  17.200  0.3722  0.6775 -0.5806
 3530SOL    HW122226   1.105   2.392  17.289 -2.7063 -0.8015 -0.3621
 3530SOL    HW222227   0.989   2.412  17.209  0.2742  1.0264 -1.2302
 3531SOL     OW22228   2.799   3.339  10.598 -0.2185  0.2391  0.3085
 3531SOL    HW122229   2.780   3.418  10.548  0.5636 -1.8526 -3.2782
 3531SOL    HW222230   2.733   3.349  10.667 -0.4039 -0.4358  0.2295
 3532SOL     OW22231   2.149   1.005  17.683  0.4215  0.4327  0.1878
 3532SOL    HW122232   2.091   0.929  17.672 -1.3926  2.0092 -1.0880
 3532SOL    HW222233   2.229   0.982  17.635 -0.3339  0.0783 -0.9020
 3533SOL     OW22234   4.020   3.515   6.386 -0.7245 -0.3406 -0.6045
 3533SOL    HW122235   3.977   3.473   6.461  0.2252 -0.8317 -0.3253
 3533SOL    HW222236   3.981   3.601   6.392 -1.6732 -0.8352  0.3519
 3534SOL     OW22237   4.244   2.355  10.782  0.2255  0.9151  0.2793
 3534SOL    HW122238   4.204   2.290  10.840  0.9976  0.6694  0.5347
 3534SOL    HW222239   4.182   2.348  10.710  0.0163 -0.5245  0.5928
 3535SOL     OW22240   3.649   3.668   9.107  0.4019 -0.4647 -0.4446
 3535SOL    HW122241   3.562   3.695   9.138 -0.3108 -3.1553 -0.0907
 3535SOL    HW222242   3.646   3.576   9.133  0.8580  0.5514  3.1812
 3536SOL     OW22243   3.927   2.360   4.348  0.2545  0.3468  0.3104
 3536SOL    HW122244   3.953   2.356   4.256  1.0159 -0.9341  0.5751
 3536SOL    HW222245   3.891   2.272   4.358  0.4822  0.0297 -1.7099
 3537SOL     OW22246   3.868   1.146  14.999  0.7180  0.7827  0.0091
 3537SOL    HW122247   3.923   1.181  15.069 -0.5131  3.6943 -0.4949
 3537SOL    HW222248   3.922   1.153  14.921  2.9869  0.5502  1.5323
 3538SOL     OW22249   3.089   1.426  10.179 -0.2332 -0.9083  0.4964
 3538SOL    HW122250   3.067   1.516  10.202  0.1971 -1.2542  2.2012
 3538SOL    HW222251   2.997   1.399  10.189 -0.2787 -1.1541 -0.5652
 3539SOL     OW22252   0.805   0.159  17.223  0.1159  0.3640 -0.0981
 3539SOL    HW122253   0.899   0.150  17.206  0.1805 -0.7531  0.8515
 3539SOL    HW222254   0.765   0.091  17.169  1.4261 -0.5687  0.1104
 3540SOL     OW22255   0.254   4.003  15.500 -0.0041  0.3687  0.0692
 3540SOL    HW122256   0.270   3.914  15.468 -0.4085 -0.2012  1.4383
 3540SOL    HW222257   0.333   4.007  15.555 -1.9350  0.5422  2.8542
 3541SOL     OW22258   4.041   3.215   1.499  0.4308 -0.2524 -0.1431
 3541SOL    HW122259   3.967   3.273   1.517  1.0412  0.4841  0.0076
 3541SOL    HW222260   4.084   3.230   1.583 -0.7473 -0.9814  0.5853
 3542SOL     OW22261   3.220   1.698   2.169 -0.1405 -0.5066 -0.0288
 3542SOL    HW122262   3.241   1.684   2.262 -1.7541 -0.1818  0.3692
 3542SOL    HW222263   3.129   1.725   2.171 -0.4277 -1.5216  0.9116
 3543SOL     OW22264   4.729   3.125   4.455  0.0728 -0.4490  0.4589
 3543SOL    HW122265   4.668   3.138   4.528 -0.0115  2.7661 -0.1855
 3543SOL    HW222266   4.681   3.157   4.379 -1.7741 -1.5668  1.1480
 3544SOL     OW22267   1.565   2.915   3.460 -0.1301 -0.4422  0.3002
 3544SOL    HW122268   1.539   2.954   3.377 -1.9784 -2.4239 -0.0494
 3544SOL    HW222269   1.495   2.948   3.518 -1.1399 -3.7503  0.9517
 3545SOL     OW22270   1.873   0.802  16.840 -0.3365  0.2009 -0.0792
 3545SOL    HW122271   1.911   0.796  16.752  0.0950  3.0834 -0.0903
 3545SOL    HW222272   1.831   0.717  16.854  1.6790 -0.6297  1.0002
 3546SOL     OW22273   3.622   2.992   1.891  0.2257  0.0194  0.2279
 3546SOL    HW122274   3.677   3.037   1.827  1.4849  2.1894  2.8535
 3546SOL    HW222275   3.680   2.942   1.949  1.5521  1.3007 -0.0179
 3547SOL     OW22276   0.229   3.077   4.737  0.2788 -0.1061 -0.2772
 3547SOL    HW122277   0.169   3.017   4.781 -1.0352 -1.1073 -3.4295
 3547SOL    HW222278   0.284   3.011   4.695  1.7316  1.4489 -0.7899
 3548SOL     OW22279   0.861   0.241  13.733  0.3455  0.3194  0.1876
 3548SOL    HW122280   0.927   0.310  13.726  0.4849  0.0735 -0.8808
 3548SOL    HW222281   0.802   0.281  13.670  0.3400  0.0657  0.0335
 3549SOL     OW22282   4.066   3.244   8.022 -0.1036  0.5943  0.4335
 3549SOL    HW122283   3.989   3.278   7.978 -1.4822 -3.3846 -0.2028
 3549SOL    HW222284   4.135   3.293   7.978  0.3384 -0.2122  0.2250
 3550SOL     OW22285   1.787   2.168   2.572 -0.4009  0.5283 -0.4140
 3550SOL    HW122286   1.813   2.078   2.554 -0.7078  0.5038 -0.7395
 3550SOL    HW222287   1.868   2.202   2.609 -0.5316  0.7040 -0.2855
 3551SOL     OW22288   3.587   1.671   6.074  0.3678  0.3784  0.1336
 3551SOL    HW122289   3.660   1.643   6.018  0.4213 -1.6419  1.2009
 3551SOL    HW222290   3.523   1.611   6.037 -1.0085  0.7374  1.9875
 3552SOL     OW22291   0.345   2.961   6.390 -0.1730  0.1594 -0.1272
 3552SOL    HW122292   0.351   2.981   6.484 -0.1053 -0.4659  0.0002
 3552SOL    HW222293   0.275   2.896   6.384  0.4843 -0.7048  1.3674
 3553SOL     OW22294   4.334   2.973  16.414  0.4610  0.3077 -0.4502
 3553SOL    HW122295   4.253   2.995  16.460  0.3216 -0.0666 -0.5146
 3553SOL    HW222296   4.305   3.004  16.328  0.7700 -0.5611 -0.8637
 3554SOL     OW22297   4.036   2.151   0.849  0.1571 -0.4555  0.0354
 3554SOL    HW122298   4.077   2.107   0.924 -4.3751  1.2665  3.5218
 3554SOL    HW222299   4.097   2.126   0.780  0.9073  0.6315  0.3109
 3555SOL     OW22300   3.629   4.172   8.829 -0.0470  0.5449 -0.0181
 3555SOL    HW122301   3.686   4.153   8.904  1.4586  0.9745 -1.0283
 3555SOL    HW222302   3.554   4.118   8.850  0.2654  0.5211  1.0371
 3556SOL     OW22303   3.275   3.095  11.307  0.3910 -0.6631  0.0682
 3556SOL    HW122304   3.302   3.035  11.237  0.6455 -2.2351  1.5116
 3556SOL    HW222305   3.289   3.183  11.272  1.0595 -1.0614 -0.6883
 3557SOL     OW22306   2.469   1.407   4.607 -0.0104 -0.0824 -0.4974
 3557SOL    HW122307   2.473   1.487   4.555 -0.2565  0.1559 -0.1502
 3557SOL    HW222308   2.404   1.430   4.673 -0.7808 -1.1586 -0.8814
 3558SOL     OW22309   2.370   1.514   4.837 -0.0029 -0.3760  0.1200
 3558SOL    HW122310   2.283   1.553   4.845  0.4483  0.1043  2.4365
 3558SOL    HW222311   2.378   1.488   4.928  2.5338  0.0513 -0.0015
 3559SOL     OW22312   4.531   3.935   9.907 -0.1339  0.0644 -0.0469
 3559SOL    HW122313   4.604   3.935   9.844  2.0787  0.4685  2.5480
 3559SOL    HW222314   4.581   3.948   9.987 -1.1464  0.7637  0.4662
 3560SOL     OW22315   1.216   3.096   5.069  0.6469 -0.0200 -0.0072
 3560SOL    HW122316   1.248   3.172   5.116 -1.7334  1.4047 -0.6760
 3560SOL    HW222317   1.123   3.120   5.068  1.1065  1.8465  3.4500
 3561SOL     OW22318   3.994   0.176  17.335 -0.3788 -0.5078  0.0580
 3561SOL    HW122319   3.925   0.240  17.318  0.2695  0.3262  0.5686
 3561SOL    HW222320   3.991   0.166  17.430  0.2837 -0.5389  0.0743
 3562SOL     OW22321   2.938   0.222   9.849 -0.0631  0.1417 -0.3083
 3562SOL    HW122322   2.957   0.139   9.806 -2.0713 -0.6263  0.3198
 3562SOL    HW222323   2.898   0.266   9.775  0.9070  1.7751  0.1385
 3563SOL     OW22324   2.204   0.210   2.404 -0.6203  0.7081  0.7245
 3563SOL    HW122325   2.298   0.220   2.418 -0.6918 -3.8762  3.9895
 3563SOL    HW222326   2.172   0.294   2.437  1.3280  2.6870 -2.3720
 3564SOL     OW22327   0.988   2.505  10.144  0.4207 -0.4668 -0.2461
 3564SOL    HW122328   0.935   2.505  10.224 -1.2434 -1.0816 -1.3503
 3564SOL    HW222329   1.069   2.480  10.189  1.1388 -0.2699 -1.4179
 3565SOL     OW22330   4.594   0.654  12.867  0.3332 -0.2697 -0.1217
 3565SOL    HW122331   4.637   0.710  12.932  1.8293 -1.5746  0.0120
 3565SOL    HW222332   4.667   0.641  12.807  0.3608  0.4852 -0.2513
 3566SOL     OW22333   0.048   2.382  15.080 -0.0723  0.6267 -0.6210
 3566SOL    HW122334   0.019   2.300  15.121 -0.4270  2.0411  2.0217
 3566SOL    HW222335   4.722   2.447  15.118  0.7861  0.0461  1.7228
 3567SOL     OW22336   4.717   1.893  15.883 -0.2013  0.5738 -0.0431
 3567SOL    HW122337   0.032   1.836  15.941  0.8259 -0.0069 -1.4833
 3567SOL    HW222338   0.050   1.930  15.825  0.7550  0.9679  1.3132
 3568SOL     OW22339   3.410   4.308  12.819  0.3098  0.6846 -0.2397
 3568SOL    HW122340   3.495   4.287  12.781 -0.0634  2.8660 -2.3116
 3568SOL    HW222341   3.431   4.333  12.909 -2.2022  0.5316  0.3957
 3569SOL     OW22342   0.309   2.355   8.243 -0.1945  0.1367  0.4948
 3569SOL    HW122343   0.366   2.348   8.319 -0.1277 -1.1220  0.3155
 3569SOL    HW222344   0.342   2.280   8.194 -1.4829  0.0884 -0.2973
 3570SOL     OW22345   4.223   4.525   4.169  0.0196 -0.2922 -0.0269
 3570SOL    HW122346   4.314   4.510   4.145  0.3546  0.8817  0.5495
 3570SOL    HW222347   4.225   4.582   4.245 -2.4594  1.6597 -1.4046
 3571SOL     OW22348   2.017   1.809   3.994 -0.0576 -0.0548 -0.0282
 3571SOL    HW122349   1.952   1.852   4.049 -1.3471 -0.2397 -1.4016
 3571SOL    HW222350   2.007   1.849   3.908  0.4973  1.3062  0.5515
 3572SOL     OW22351   2.498   3.135  14.907  0.3965  0.2182  0.1726
 3572SOL    HW122352   2.523   3.225  14.929 -2.5750  0.9445  0.5455
 3572SOL    HW222353   2.430   3.142  14.840 -0.9937  2.4539  1.8253
 3573SOL     OW22354   3.750   2.642   2.421  0.5167 -0.1022  0.1563
 3573SOL    HW122355   3.691   2.596   2.361 -0.7900  0.2346  1.1842
 3573SOL    HW222356   3.828   2.605   2.379 -0.4586 -1.8174 -0.1585
 3574SOL     OW22357   0.053   2.523   4.618 -0.2826 -0.1526 -0.4997
 3574SOL    HW122358   0.048   2.603   4.567 -1.1980 -0.1939 -0.4861
 3574SOL    HW222359   0.045   2.562   4.705  0.2370 -2.0664  0.3974
 3575SOL     OW22360   1.863   0.163   3.030  0.0476  0.1773  0.4695
 3575SOL    HW122361   1.872   0.095   3.096  0.4256 -2.0141 -1.8274
 3575SOL    HW222362   1.956   0.164   3.007 -0.3305 -0.6758 -1.1028
 3576SOL     OW22363   1.447   2.025   9.608  1.0372  1.1059 -0.5991
 3576SOL    HW122364   1.364   2.068   9.629  0.1986 -0.8644  0.1262
 3576SOL    HW222365   1.500   2.063   9.678  0.9971 -2.4558  1.3891
 3577SOL     OW22366   1.470   1.706   3.177  0.0552 -0.5075 -0.1750
 3577SOL    HW122367   1.429   1.626   3.208  1.7827 -1.4142 -0.2490
 3577SOL    HW222368   1.397   1.768   3.182  0.1513 -0.5589  2.1356
 3578SOL     OW22369   4.437   0.302   5.932  0.1362 -0.1593 -0.4128
 3578SOL    HW122370   4.396   0.228   5.976  0.9971 -0.5100 -0.2146
 3578SOL    HW222371   4.365   0.343   5.884  0.5168  0.3592 -0.5477
 3579SOL     OW22372   0.510   0.784  17.576 -0.2995 -0.8468 -0.0590
 3579SOL    HW122373   0.484   0.727  17.505  1.0821  0.6455 -1.7573
 3579SOL    HW222374   0.430   0.795  17.628 -1.2856 -2.5726 -1.2190
 3580SOL     OW22375   3.264   2.841  13.952  0.3264 -0.1472 -0.4276
 3580SOL    HW122376   3.311   2.857  13.870 -0.6504  1.4589 -0.6731
 3580SOL    HW222377   3.239   2.928  13.984 -1.6399 -1.4972  1.6924
 3581SOL     OW22378   3.740   2.008   3.525 -0.5294  0.2900 -0.1030
 3581SOL    HW122379   3.728   1.950   3.450 -2.6322  0.8897 -0.2413
 3581SOL    HW222380   3.747   2.095   3.487  1.3388  0.6489  1.0745
 3582SOL     OW22381   1.029   0.664  17.276  0.1528  0.8611 -0.0886
 3582SOL    HW122382   1.110   0.614  17.291 -0.4892 -1.2965 -3.9315
 3582SOL    HW222383   0.961   0.596  17.279  0.7968  0.1306 -2.4671
 3583SOL     OW22384   1.776   1.319   8.810  0.3682  0.7090 -0.3185
 3583SOL    HW122385   1.685   1.330   8.839  1.2783  3.2627  1.5157
 3583SOL    HW222386   1.789   1.224   8.804 -1.8867  0.5203 -2.5754
 3584SOL     OW22387   0.739   1.046   3.513 -0.6633  0.1935 -0.1651
 3584SOL    HW122388   0.809   1.019   3.572 -0.0252  0.0779 -0.9829
 3584SOL    HW222389   0.764   1.014   3.427 -0.5112  1.1842 -0.4897
 3585SOL     OW22390   4.040   4.640   1.418  0.2276  0.1858  0.5262
 3585SOL    HW122391   3.949   4.642   1.389 -0.0049  1.3210  1.3167
 3585SOL    HW222392   4.022   4.625   1.511 -0.0481  0.2646  0.4844
 3586SOL     OW22393   3.414   3.737   7.908 -0.2454  0.3948  0.1126
 3586SOL    HW122394   3.384   3.647   7.896  2.7654 -0.9432  2.5221
 3586SOL    HW222395   3.482   3.730   7.975  1.3459  0.7244 -1.4813
 3587SOL     OW22396   0.536   1.367   1.694  0.4457  0.1159 -0.4882
 3587SOL    HW122397   0.447   1.393   1.718  0.5896  1.0668 -0.9827
 3587SOL    HW222398   0.515   1.284   1.652 -2.4536  1.6880 -2.1096
 3588SOL     OW22399   3.931   4.000   6.274 -0.0067 -0.1024 -0.4265
 3588SOL    HW122400   3.888   3.939   6.333  1.5480 -1.0409 -0.2681
 3588SOL    HW222401   4.008   3.953   6.241 -0.6767 -2.1455  0.8957
 3589SOL     OW22402   4.014   3.399  16.086  0.3357  0.1501 -0.0829
 3589SOL    HW122403   3.946   3.336  16.066  1.4335 -0.5819 -1.5561
 3589SOL    HW222404   3.993   3.417  16.177 -0.1962 -0.6690 -0.0529
 3590SOL     OW22405   3.889   4.411   7.019  0.3079 -0.0910  0.1731
 3590SOL    HW122406   3.943   4.472   6.968 -0.4123 -1.2883 -2.0333
 3590SOL    HW222407   3.879   4.336   6.959 -2.4812  0.5037 -0.0974
 3591SOL     OW22408   2.988   3.784   0.060  0.1920 -0.4974 -0.1398
 3591SOL    HW122409   3.016   3.714   0.118 -1.3679 -1.9737 -1.1773
 3591SOL    HW222410   2.955   3.736  17.719  0.1177  0.0361 -0.4466
 3592SOL     OW22411   0.034   0.393   3.667 -0.6816 -0.1855  1.2018
 3592SOL    HW122412   0.008   0.484   3.658 -0.4562 -0.1223  1.1912
 3592SOL    HW222413   0.129   0.404   3.664 -1.0594  1.9645 -2.0967
 3593SOL     OW22414   4.294   3.641  14.870  0.0243 -0.1693  0.1582
 3593SOL    HW122415   4.297   3.575  14.800 -0.2060 -0.3071  0.2780
 3593SOL    HW222416   4.326   3.715  14.818  0.7704 -1.1317 -0.7481
 3594SOL     OW22417   0.552   3.524  17.170  0.5029 -0.5758 -0.1123
 3594SOL    HW122418   0.493   3.580  17.119  1.0045  0.3596  0.3181
 3594SOL    HW222419   0.522   3.435  17.155 -3.0018  0.6703 -0.6568
 3595SOL     OW22420   4.418   1.589   7.281  0.4296 -1.0129  0.1479
 3595SOL    HW122421   4.464   1.605   7.363  0.8461  0.0974 -0.3027
 3595SOL    HW222422   4.411   1.676   7.242 -0.0138 -2.0881 -2.2325
 3596SOL     OW22423   0.896   4.602   8.162  0.3138  0.4056  0.5620
 3596SOL    HW122424   0.877   4.510   8.144 -0.8813  0.5841  0.9217
 3596SOL    HW222425   0.978   4.616   8.115 -0.1014 -2.3044 -0.9852
 3597SOL     OW22426   4.714   4.049   5.386  0.3875 -0.3650 -0.0285
 3597SOL    HW122427   4.686   4.139   5.402 -0.8330 -0.6997 -0.3146
 3597SOL    HW222428   4.666   4.027   5.306 -1.1374 -0.4420  0.9128
 3598SOL     OW22429   4.686   1.705  17.197 -0.3602  0.0894 -0.4263
 3598SOL    HW122430   4.655   1.770  17.260  0.2596 -0.2917  0.2835
 3598SOL    HW222431   0.047   1.698  17.210 -0.4243 -2.0343 -1.1610
 3599SOL     OW22432   1.593   2.616   3.869  0.0752 -0.1455 -0.1541
 3599SOL    HW122433   1.525   2.619   3.801  2.5433  0.7049 -2.5918
 3599SOL    HW222434   1.673   2.641   3.822  1.5811 -0.8482  2.0599
 3600SOL     OW22435   3.979   3.710   6.706 -0.3055 -0.1702 -0.1862
 3600SOL    HW122436   4.022   3.769   6.768 -0.9146  1.6466 -1.4885
 3600SOL    HW222437   4.046   3.642   6.703 -1.5800 -1.4062 -0.6556
 3601SOL     OW22438   2.567   2.225   6.119 -0.5653  0.2651 -0.0050
 3601SOL    HW122439   2.589   2.136   6.092 -1.9614 -0.0028 -0.2567
 3601SOL    HW222440   2.517   2.250   6.042  1.3888 -0.3828 -1.4797
 3602SOL     OW22441   2.363   2.874  15.997 -0.0434  0.0879 -0.6748
 3602SOL    HW122442   2.395   2.954  16.038 -0.9916  0.0724  0.0938
 3602SOL    HW222443   2.435   2.850  15.939 -0.2751 -2.0381 -0.0880
 3603SOL     OW22444   3.955   0.293   3.643  0.0237 -0.2328 -0.2267
 3603SOL    HW122445   3.891   0.364   3.648 -0.7778 -0.8989 -1.0428
 3603SOL    HW222446   3.906   0.238   3.583 -2.2009  2.0540 -0.5162
 3604SOL     OW22447   0.321   2.727  15.143  0.0844  0.1839 -0.2336
 3604SOL    HW122448   0.229   2.742  15.119  0.0476 -1.8610 -1.3601
 3604SOL    HW222449   0.333   2.633  15.130 -1.8369 -0.0222 -0.6126
 3605SOL     OW22450   4.638   0.355  14.685 -0.1710 -0.3382 -0.1931
 3605SOL    HW122451   4.720   0.392  14.652 -0.6305 -0.7496 -1.7721
 3605SOL    HW222452   4.669   0.267  14.705  1.4966 -0.0993 -1.8007
 3606SOL     OW22453   2.463   3.857   7.724 -0.2996 -0.5191 -0.8540
 3606SOL    HW122454   2.397   3.849   7.793  1.4209 -4.2232  0.3851
 3606SOL    HW222455   2.473   3.951   7.716  1.2226 -0.5811  0.1341
 3607SOL     OW22456   0.079   0.107  15.063  0.1232  0.2003  0.5205
 3607SOL    HW122457   0.142   0.140  15.127 -2.7338  1.0657  2.8701
 3607SOL    HW222458   0.048   0.029  15.110 -1.2004  0.2087 -0.3450
 3608SOL     OW22459   2.825   3.993   2.155  0.0471  0.1216 -0.6843
 3608SOL    HW122460   2.787   4.063   2.101  1.4787  1.5387  0.1411
 3608SOL    HW222461   2.742   3.950   2.174  1.3715 -3.2368 -2.6298
 3609SOL     OW22462   3.032   3.673   4.851 -0.4516 -0.2157  0.4325
 3609SOL    HW122463   3.066   3.585   4.860  2.3351  0.6579 -1.7219
 3609SOL    HW222464   3.080   3.727   4.913 -1.0636 -2.0767  2.5341
 3610SOL     OW22465   0.332   4.633   1.788  0.0312 -0.0024  0.0086
 3610SOL    HW122466   0.363   4.555   1.834  0.2260  0.0304 -0.0663
 3610SOL    HW222467   0.320   4.698   1.857 -1.4828  0.2909 -0.5340
 3611SOL     OW22468   3.941   2.465   7.474  0.1704 -0.2465  0.0032
 3611SOL    HW122469   3.856   2.508   7.465  0.3486  0.0236 -0.3781
 3611SOL    HW222470   3.941   2.395   7.409  0.5367 -1.2468  1.1003
 3612SOL     OW22471   2.886   3.086  13.960 -0.2832 -0.1742 -0.0361
 3612SOL    HW122472   2.979   3.109  13.958 -0.7508  1.4977 -1.9439
 3612SOL    HW222473   2.878   2.993  13.937  1.2559 -0.8013  1.9153
 3613SOL     OW22474   1.966   1.508   8.170 -0.4687 -1.0920 -0.4079
 3613SOL    HW122475   1.978   1.486   8.078  0.9033  0.2583 -0.5590
 3613SOL    HW222476   2.038   1.468   8.219 -0.6793 -2.4579 -1.2483
 3614SOL     OW22477   3.857   3.528   9.488  0.6768  0.4247 -0.4066
 3614SOL    HW122478   3.939   3.502   9.528 -0.2449 -2.0694 -0.1481
 3614SOL    HW222479   3.800   3.489   9.554  0.9782 -0.9278 -0.9363
 3615SOL     OW22480   0.264   0.236   9.537  0.2315  0.5165 -0.2110
 3615SOL    HW122481   0.202   0.299   9.573  0.3927 -0.3230  1.5452
 3615SOL    HW222482   0.346   0.274   9.568  0.7498 -1.7506  1.1969
 3616SOL     OW22483   3.212   1.731  16.584 -0.0837 -0.1686  0.2624
 3616SOL    HW122484   3.220   1.636  16.580  2.7864  0.1534 -1.3158
 3616SOL    HW222485   3.176   1.742  16.672 -1.0489 -0.0303 -0.1494
 3617SOL     OW22486   2.582   1.628   5.435 -0.0982 -0.0102 -0.1541
 3617SOL    HW122487   2.500   1.665   5.402 -0.4054 -0.6474 -0.0991
 3617SOL    HW222488   2.552   1.549   5.480 -2.0379 -0.0174 -1.4718
 3618SOL     OW22489   3.718   1.202   7.535  0.4009  0.0426 -0.6705
 3618SOL    HW122490   3.658   1.130   7.515  0.1710 -0.4825  1.9858
 3618SOL    HW222491   3.656   1.275   7.535  0.1991 -0.1302 -1.6957
 3619SOL     OW22492   1.730   1.317   0.025 -0.2262  0.0127  0.3792
 3619SOL    HW122493   1.674   1.239   0.016  1.8161 -1.1603 -2.4021
 3619SOL    HW222494   1.675   1.366  17.699 -0.2454  0.5181  0.8023
 3620SOL     OW22495   1.340   3.413   2.923  0.3838  0.2398 -0.0571
 3620SOL    HW122496   1.413   3.425   2.863  0.6180  2.8212  0.7433
 3620SOL    HW222497   1.264   3.408   2.866 -1.6416  1.8478  2.5103
 3621SOL     OW22498   1.250   0.678   4.743 -0.2578  0.1355  0.0923
 3621SOL    HW122499   1.325   0.712   4.793  0.5248 -2.9621  1.0131
 3621SOL    HW222500   1.300   0.669   4.661  2.2082  1.6555  1.4225
 3622SOL     OW22501   3.255   4.314   5.232  0.1621 -0.9644  0.2080
 3622SOL    HW122502   3.348   4.310   5.252  0.2350 -2.0654 -0.3818
 3622SOL    HW222503   3.225   4.405   5.239  0.5355 -0.7171 -1.4214
 3623SOL     OW22504   4.286   3.183   1.305 -0.5903 -0.1166 -0.5094
 3623SOL    HW122505   4.212   3.205   1.362 -0.1914 -2.7823  1.0517
 3623SOL    HW222506   4.328   3.269   1.309  0.5293 -0.6614 -0.7215
 3624SOL     OW22507   3.595   0.712  13.859  0.1229 -0.4258 -0.1043
 3624SOL    HW122508   3.510   0.694  13.820 -0.0528 -2.9875  1.5025
 3624SOL    HW222509   3.604   0.806  13.841  1.2993 -0.3570  0.8324
 3625SOL     OW22510   2.057   4.525   8.552  0.0415  0.3851 -0.3965
 3625SOL    HW122511   2.061   4.612   8.513  0.6079  0.9264  0.8434
 3625SOL    HW222512   2.142   4.490   8.527  0.1133 -0.1635  0.6077
 3626SOL     OW22513   1.895   2.304   2.181 -0.1061 -0.2055 -0.1672
 3626SOL    HW122514   1.934   2.383   2.218  1.7499 -0.4558 -1.5845
 3626SOL    HW222515   1.966   2.280   2.122 -0.4486 -0.9067 -0.2905
 3627SOL     OW22516   2.440   0.055  16.705  0.3172 -0.4506 -0.2458
 3627SOL    HW122517   2.440   4.698  16.676  0.1630 -0.6720  0.4297
 3627SOL    HW222518   2.532   0.065  16.729  0.2003  0.3069 -0.1164
 3628SOL     OW22519   3.405   3.204  10.109 -0.2097 -0.9319  0.0053
 3628SOL    HW122520   3.399   3.290  10.150 -0.4179 -0.4902 -0.9559
 3628SOL    HW222521   3.457   3.161  10.177 -2.0364 -1.2332  1.2202
 3629SOL     OW22522   3.446   4.663   5.147  0.7004 -0.5167 -0.3770
 3629SOL    HW122523   3.466   4.715   5.225  2.2227 -1.3119 -0.2384
 3629SOL    HW222524   3.539   4.664   5.124  0.2675 -1.8986 -2.1545
 3630SOL     OW22525   0.236   2.079   5.968 -0.3550 -0.2359  0.0732
 3630SOL    HW122526   0.176   2.131   6.021 -0.4110 -0.7429  0.5025
 3630SOL    HW222527   0.170   2.025   5.924 -1.1203  0.0120  0.9257
 3631SOL     OW22528   2.577   2.397   3.210  0.2179 -0.3276 -0.4918
 3631SOL    HW122529   2.499   2.449   3.190 -0.8142 -2.1061 -1.1447
 3631SOL    HW222530   2.639   2.443   3.154  1.0081 -0.8659 -0.0590
 3632SOL     OW22531   3.012   3.517  13.373 -0.2142  0.4210  0.4841
 3632SOL    HW122532   2.961   3.521  13.453 -1.0821 -0.8202 -0.0037
 3632SOL    HW222533   3.099   3.499  13.407 -0.4410  0.3235  1.0068
 3633SOL     OW22534   4.043   0.607   9.734 -0.0450 -0.1744 -0.0289
 3633SOL    HW122535   4.112   0.623   9.798 -0.6811 -1.1185  0.8928
 3633SOL    HW222536   4.097   0.582   9.659  0.7335 -1.0645  0.8281
 3634SOL     OW22537   4.353   3.065   3.234  0.1077 -0.1226 -0.0871
 3634SOL    HW122538   4.273   3.034   3.275 -0.6036  0.9123 -0.6834
 3634SOL    HW222539   4.362   3.153   3.272  2.4415  0.5416 -2.1909
 3635SOL     OW22540   3.531   3.589  16.385  0.3156 -0.7428 -0.1831
 3635SOL    HW122541   3.478   3.665  16.361  2.0077  1.7522  3.8964
 3635SOL    HW222542   3.472   3.514  16.391 -1.1154  0.5580  2.3339
 3636SOL     OW22543   3.518   1.186   1.892 -0.0852 -0.1365 -0.3074
 3636SOL    HW122544   3.608   1.210   1.916 -0.1047 -0.5242  0.1651
 3636SOL    HW222545   3.530   1.112   1.833  3.6932 -2.0690  2.9438
 3637SOL     OW22546   2.735   1.381   9.309 -0.3346 -0.1200  0.4050
 3637SOL    HW122547   2.665   1.331   9.267 -2.1380  0.8138  2.3000
 3637SOL    HW222548   2.701   1.377   9.398  0.0185  2.4635  0.6825
 3638SOL     OW22549   0.338   1.578   2.077 -0.1802 -0.6413  0.3741
 3638SOL    HW122550   0.280   1.515   2.119 -0.2083 -0.5887  0.4136
 3638SOL    HW222551   0.424   1.566   2.118 -0.2685 -1.9736  0.1598
 3639SOL     OW22552   2.352   1.786   8.812  0.0046 -0.1334 -1.0843
 3639SOL    HW122553   2.420   1.803   8.877 -0.4897  1.3544 -0.9454
 3639SOL    HW222554   2.397   1.821   8.735 -0.6011  2.1087 -0.4325
 3640SOL     OW22555   0.478   0.354   4.421  0.1953 -0.1103 -0.1252
 3640SOL    HW122556   0.497   0.444   4.448  0.1497 -0.3764  0.7960
 3640SOL    HW222557   0.383   0.365   4.413  0.5317  2.6471 -0.4622
 3641SOL     OW22558   3.330   1.371   8.885 -0.2115 -0.6970 -0.9636
 3641SOL    HW122559   3.270   1.425   8.937  0.9791  0.2029 -0.5285
 3641SOL    HW222560   3.348   1.428   8.810 -1.2973  1.7616  0.6486
 3642SOL     OW22561   3.493   2.212   1.975 -0.4347  0.1117 -0.1191
 3642SOL    HW122562   3.452   2.180   1.895 -1.9966 -1.3179  1.2656
 3642SOL    HW222563   3.421   2.265   2.010  0.4382  0.3455  1.3338
 3643SOL     OW22564   2.549   0.540   1.782  0.3766  0.0350 -0.0304
 3643SOL    HW122565   2.551   0.473   1.714 -0.7698  0.9421 -0.9409
 3643SOL    HW222566   2.457   0.560   1.796 -0.0052 -2.2160  0.7720
 3644SOL     OW22567   1.060   0.508  11.836 -0.3640  0.0514  0.3286
 3644SOL    HW122568   1.135   0.465  11.797 -2.3065 -1.4334 -1.7647
 3644SOL    HW222569   1.121   0.559  11.888  0.4583  1.5286 -2.0916
 3645SOL     OW22570   0.369   4.111   5.433  0.0542  0.8960 -0.0101
 3645SOL    HW122571   0.454   4.119   5.476  0.4001  0.3282 -0.5860
 3645SOL    HW222572   0.360   4.186   5.374 -3.0557 -0.0172 -0.7111
 3646SOL     OW22573   0.340   2.175  10.763  0.0599  0.4601 -0.2867
 3646SOL    HW122574   0.414   2.229  10.789  0.8222  1.2334 -3.9917
 3646SOL    HW222575   0.369   2.086  10.783  0.1786  0.4509 -0.4975
 3647SOL     OW22576   2.466   1.523  13.924 -0.0006 -0.1640  0.1412
 3647SOL    HW122577   2.534   1.591  13.915  1.4862 -1.3903  2.0481
 3647SOL    HW222578   2.398   1.550  13.986  1.2673 -1.2792  2.0326
 3648SOL     OW22579   0.142   2.874   1.416 -0.3676 -0.5116  0.0318
 3648SOL    HW122580   0.133   2.961   1.377  1.4528  0.7729  2.4935
 3648SOL    HW222581   0.120   2.811   1.346  3.3320 -0.2294 -1.3858
 3649SOL     OW22582   3.114   0.021   4.780 -0.8139 -0.3281 -0.1079
 3649SOL    HW122583   3.115   0.111   4.748 -1.3755  0.2653  1.5156
 3649SOL    HW222584   3.035   4.728   4.733 -2.5138 -0.9566  3.0728
 3650SOL     OW22585   3.201   0.472  14.911 -0.2928 -0.3968  0.1194
 3650SOL    HW122586   3.267   0.541  14.910 -1.2219  0.4983  0.1599
 3650SOL    HW222587   3.156   0.497  14.992  0.7510  1.3156  0.1697
 3651SOL     OW22588   2.584   3.307   5.440 -0.1445 -0.0933  0.0565
 3651SOL    HW122589   2.558   3.352   5.360  0.4256 -0.8051 -0.5323
 3651SOL    HW222590   2.561   3.216   5.417 -0.3925  0.1966 -0.8368
 3652SOL     OW22591   4.261   3.503   3.026 -0.7120 -0.4577 -0.0659
 3652SOL    HW122592   4.196   3.467   3.087 -0.3924 -0.3413  0.3397
 3652SOL    HW222593   4.205   3.543   2.960 -1.8117  0.1648  1.2573
 3653SOL     OW22594   0.159   3.473   3.652 -0.1609 -0.1773  0.2113
 3653SOL    HW122595   0.208   3.512   3.579  0.0874  0.1571  0.5605
 3653SOL    HW222596   0.109   3.408   3.601  0.2042  1.4470 -2.2371
 3654SOL     OW22597   1.244   0.797  16.017 -0.1036 -0.3857  0.2021
 3654SOL    HW122598   1.289   0.797  16.102  2.3283  2.9193 -1.0993
 3654SOL    HW222599   1.207   0.709  16.025 -0.4913 -0.1830  0.6649
 3655SOL     OW22600   4.101   1.726   5.031  0.3478  0.1537 -0.0880
 3655SOL    HW122601   4.052   1.801   5.066  1.8599  1.2926 -0.4429
 3655SOL    HW222602   4.031   1.662   5.015  0.2201  0.3657 -0.3721
 3656SOL     OW22603   1.363   3.509   2.645  0.0965 -0.0475  0.0890
 3656SOL    HW122604   1.303   3.554   2.586  1.0164  0.4233 -0.4850
 3656SOL    HW222605   1.431   3.574   2.658  0.9934 -0.8948 -0.3594
 3657SOL     OW22606   0.362   3.325  17.700  0.4450 -0.1572  0.0663
 3657SOL    HW122607   0.329   3.262  17.635 -0.2863 -2.0043  2.2360
 3657SOL    HW222608   0.340   3.268   0.039 -3.8137  0.9240 -0.3856
 3658SOL     OW22609   0.898   2.999   5.364 -0.0454 -0.2982  0.4571
 3658SOL    HW122610   0.841   2.965   5.433 -0.7988  0.1777  0.0543
 3658SOL    HW222611   0.857   3.082   5.343 -2.2732 -1.4114  0.4034
 3659SOL     OW22612   1.528   3.350   4.801  0.0986  0.0353 -0.0898
 3659SOL    HW122613   1.568   3.267   4.829 -1.3074 -0.8195 -0.6537
 3659SOL    HW222614   1.533   3.340   4.706 -1.3264 -0.9334 -0.0720
 3660SOL     OW22615   2.085   0.306   4.797 -0.5983  0.7745  0.3427
 3660SOL    HW122616   2.037   0.383   4.767 -0.1454  0.6423 -0.7250
 3660SOL    HW222617   2.073   0.309   4.892 -0.9845 -0.5620  0.3416
 3661SOL     OW22618   3.236   0.515   7.245 -0.1076  0.7915  0.0113
 3661SOL    HW122619   3.220   0.605   7.219 -0.9355  0.1238 -1.8320
 3661SOL    HW222620   3.293   0.521   7.321 -0.2381 -1.8650  0.3305
 3662SOL     OW22621   0.937   1.088   6.446 -0.3161 -0.6704 -0.1216
 3662SOL    HW122622   0.890   1.006   6.428 -1.8547  0.1932 -0.0310
 3662SOL    HW222623   1.017   1.084   6.394  0.5695  0.4870  1.1579
 3663SOL     OW22624   0.348   0.139   2.569  0.1072 -0.3335  0.0011
 3663SOL    HW122625   0.367   0.107   2.657 -2.8317  1.6430  1.3658
 3663SOL    HW222626   0.260   0.108   2.547 -0.5191  1.5460 -0.1275
 3664SOL     OW22627   0.289   0.348   8.777 -0.1287 -0.0539 -0.3945
 3664SOL    HW122628   0.219   0.355   8.842 -0.4146 -1.1089 -0.5798
 3664SOL    HW222629   0.319   0.436   8.756  0.9531  0.0004  1.4451
 3665SOL     OW22630   3.633   0.474   1.784 -0.1878  0.3224  0.0807
 3665SOL    HW122631   3.650   0.497   1.875 -0.9233  0.2043  0.2522
 3665SOL    HW222632   3.671   0.546   1.734  1.5355 -1.8362 -1.7030
 3666SOL     OW22633   1.455   3.750  16.159  0.3905  0.3293  0.1417
 3666SOL    HW122634   1.382   3.805  16.187  0.0349  0.2778 -0.7038
 3666SOL    HW222635   1.520   3.814  16.132  0.2112  0.9807  1.2449
 3667SOL     OW22636   3.159   4.679  11.601 -0.0594  0.4116 -0.1483
 3667SOL    HW122637   3.125   4.619  11.534 -0.9325  0.6757  0.0563
 3667SOL    HW222638   3.249   4.651  11.615  0.3025  1.8906  0.4789
 3668SOL     OW22639   2.960   2.791   3.302  0.0455  0.4123 -0.1046
 3668SOL    HW122640   2.954   2.696   3.316  1.8651  0.5270  1.3772
 3668SOL    HW222641   3.020   2.787   3.227  0.5683 -0.1150  0.3467
 3669SOL     OW22642   0.564   0.914  11.332  0.0571  0.1810 -0.5482
 3669SOL    HW122643   0.650   0.880  11.354 -0.8224  0.0257  2.6263
 3669SOL    HW222644   0.532   0.964  11.407 -0.2477  2.4276 -2.2020
 3670SOL     OW22645   0.915   1.579   0.983  0.2291  0.3122 -0.4455
 3670SOL    HW122646   0.921   1.486   1.004 -2.6136 -0.1079 -1.5129
 3670SOL    HW222647   0.848   1.585   0.915  1.0816 -1.4179 -1.4378
 3671SOL     OW22648   2.007   3.695   5.227 -0.2624  0.4671 -0.5541
 3671SOL    HW122649   1.940   3.711   5.160 -1.1293 -0.6787  0.0376
 3671SOL    HW222650   2.082   3.728   5.178  0.1008  2.4491  1.3339
 3672SOL     OW22651   0.735   1.002   0.918 -0.2125 -0.5361  0.4725
 3672SOL    HW122652   0.715   1.049   0.999 -0.1739  0.6663 -0.2116
 3672SOL    HW222653   0.732   1.071   0.851 -0.0550  1.6348  2.7263
 3673SOL     OW22654   3.976   4.697  15.695  0.1618 -0.2132 -0.2821
 3673SOL    HW122655   4.014   4.637  15.631  1.7423 -0.3842  0.8334
 3673SOL    HW222656   3.959   4.639  15.769 -1.2579 -0.2184 -0.6178
 3674SOL     OW22657   1.709   4.433  10.984  0.1974  0.5414 -0.2797
 3674SOL    HW122658   1.677   4.521  11.004 -0.2309  0.1515  0.7572
 3674SOL    HW222659   1.777   4.413  11.050 -0.7744  0.8532  0.8164
 3675SOL     OW22660   1.632   1.378   4.201 -0.3223 -0.9735  0.3889
 3675SOL    HW122661   1.678   1.462   4.187 -0.4614 -1.0594 -0.6170
 3675SOL    HW222662   1.601   1.384   4.291 -3.0741 -1.4761 -0.5400
 3676SOL     OW22663   3.473   3.555   2.533  0.3213  0.3411 -0.0694
 3676SOL    HW122664   3.483   3.467   2.570  0.4183  0.2052 -0.4206
 3676SOL    HW222665   3.379   3.559   2.551  0.0330 -0.9432 -1.2977
 3677SOL     OW22666   4.551   4.603   5.021  0.7389  0.2713 -0.0344
 3677SOL    HW122667   4.606   4.538   4.977  0.7767  0.8072 -0.7829
 3677SOL    HW222668   4.463   4.565   5.017  1.0409 -0.5377  1.1914
 3678SOL     OW22669   4.312   4.521   7.307  0.4297  0.0305 -0.5882
 3678SOL    HW122670   4.380   4.455   7.288 -0.7982 -1.6059  0.6519
 3678SOL    HW222671   4.306   4.502   7.401  0.8934  0.2546 -0.5152
 3679SOL     OW22672   2.247   2.753   2.596 -0.1528 -0.2743 -0.4235
 3679SOL    HW122673   2.210   2.765   2.508 -1.0462  0.6906  0.0865
 3679SOL    HW222674   2.182   2.800   2.648  0.8131  0.4194  0.1603
 3680SOL     OW22675   1.191   0.958  11.857  0.1178 -0.2495 -0.5662
 3680SOL    HW122676   1.097   0.977  11.851  0.5857  1.7986 -1.4849
 3680SOL    HW222677   1.194   0.868  11.890 -2.6698 -0.0378  0.2442
 3681SOL     OW22678   1.863   3.298   7.234 -0.3502  0.0107  0.3170
 3681SOL    HW122679   1.888   3.217   7.279  0.6494  0.6865  0.9491
 3681SOL    HW222680   1.898   3.364   7.293 -1.6730  0.5770  0.4607
 3682SOL     OW22681   1.781   0.609   1.305 -0.7099 -0.3317 -0.1298
 3682SOL    HW122682   1.800   0.664   1.381 -0.7234 -2.1369  1.2040
 3682SOL    HW222683   1.832   0.535   1.338  0.6432  1.0394  0.8788
 3683SOL     OW22684   3.743   0.666  14.698 -0.4775 -0.0799 -0.0263
 3683SOL    HW122685   3.655   0.658  14.661  0.5945 -1.1153 -2.4014
 3683SOL    HW222686   3.770   0.737  14.639  0.2123 -0.1308  0.2332
 3684SOL     OW22687   3.069   0.747   9.814  0.3775 -0.3791 -0.1027
 3684SOL    HW122688   3.109   0.767   9.730  1.3480  0.6327  0.6003
 3684SOL    HW222689   3.004   0.815   9.831 -0.4944 -1.7102  2.0198
 3685SOL     OW22690   4.403   1.585  10.536 -0.7156  0.4006 -0.7144
 3685SOL    HW122691   4.411   1.649  10.606  0.9385 -1.4271  0.7701
 3685SOL    HW222692   4.422   1.511  10.594 -4.7313  0.9059  1.2016
 3686SOL     OW22693   1.600   4.375   6.508 -0.7193  0.2255  0.3820
 3686SOL    HW122694   1.537   4.409   6.445  0.2524  2.1167  0.4421
 3686SOL    HW222695   1.538   4.341   6.573  1.7224 -2.6575  1.2301
 3687SOL     OW22696   0.710   0.460   4.601  0.0904  0.2723  0.1060
 3687SOL    HW122697   0.632   0.509   4.578 -1.2472 -1.8813  0.0587
 3687SOL    HW222698   0.760   0.453   4.520 -1.6295 -1.4981 -0.7813
 3688SOL     OW22699   1.636   1.193   5.276 -0.0443  0.6824 -0.0620
 3688SOL    HW122700   1.687   1.273   5.277 -2.1000  1.9698  0.7563
 3688SOL    HW222701   1.655   1.156   5.190  1.4749  1.2220  0.0509
 3689SOL     OW22702   0.500   0.081   6.320 -0.1119  0.0436 -0.6335
 3689SOL    HW122703   0.577   0.042   6.361 -0.1166 -0.5441 -1.1875
 3689SOL    HW222704   0.467   0.011   6.264 -1.4945 -0.5214  0.8670
 3690SOL     OW22705   1.146   2.811   6.423 -0.3722  0.0629  0.1688
 3690SOL    HW122706   1.185   2.831   6.509 -2.3292  0.2220  1.0283
 3690SOL    HW222707   1.055   2.796   6.450 -1.1698  1.2208 -1.8963
 3691SOL     OW22708   2.754   2.929   6.126  0.1072  0.2672 -0.3325
 3691SOL    HW122709   2.780   2.999   6.186 -1.6962 -1.5504  2.5269
 3691SOL    HW222710   2.839   2.890   6.105  0.2609 -0.2370  1.2294
 3692SOL     OW22711   3.474   2.769  15.909  0.3737 -0.4024 -0.2293
 3692SOL    HW122712   3.509   2.835  15.969  1.0388 -0.5446 -0.4564
 3692SOL    HW222713   3.442   2.695  15.960 -1.3837  0.1957 -0.4429
 3693SOL     OW22714   2.273   2.590  15.563 -0.1535  0.3686 -0.1805
 3693SOL    HW122715   2.215   2.516  15.546  0.2151  0.2806 -1.0495
 3693SOL    HW222716   2.260   2.636  15.480 -3.1137 -0.7483 -0.3476
 3694SOL     OW22717   1.781   4.471  16.487  0.7015  0.0963  0.0388
 3694SOL    HW122718   1.753   4.543  16.544 -2.7770 -2.9389  2.1661
 3694SOL    HW222719   1.743   4.400  16.539 -0.2842  1.2089  0.8407
 3695SOL     OW22720   4.193   2.455   0.583 -0.8430  0.3033  0.7673
 3695SOL    HW122721   4.242   2.457   0.500 -1.1850 -2.2896  0.5149
 3695SOL    HW222722   4.265   2.469   0.645 -0.9703  0.7081  0.8229
 3696SOL     OW22723   2.519   0.105   2.110 -0.5038 -0.1182  0.4214
 3696SOL    HW122724   2.590   0.042   2.115  0.2082  0.5766 -1.0882
 3696SOL    HW222725   2.570   0.178   2.143 -1.0445  0.1455  0.6807
 3697SOL     OW22726   1.031   2.890   2.126  0.2694  0.2145 -0.2691
 3697SOL    HW122727   0.946   2.848   2.116  0.0310  0.4446  0.8264
 3697SOL    HW222728   1.002   2.979   2.104  0.4401  0.0759 -1.0666
 3698SOL     OW22729   3.269   4.495   1.036  0.1549  0.9422 -0.4202
 3698SOL    HW122730   3.352   4.537   1.058  0.1068  0.9849 -0.3234
 3698SOL    HW222731   3.291   4.412   0.993  2.6685  0.5993  1.4986
 3699SOL     OW22732   4.673   2.318  16.422 -0.3350  0.1589  0.2005
 3699SOL    HW122733   4.731   2.348  16.492  0.6775  1.1087 -1.0468
 3699SOL    HW222734   4.710   2.371  16.352 -2.7088  1.4459 -0.0662
 3700SOL     OW22735   4.368   0.124  15.515 -0.1621 -0.0650  0.0638
 3700SOL    HW122736   4.439   0.179  15.548 -1.5100  1.8161 -0.1641
 3700SOL    HW222737   4.303   0.127  15.585 -1.3607 -0.1424 -1.0622
 3701SOL     OW22738   3.985   4.359   8.972 -0.2474  0.0387  0.5589
 3701SOL    HW122739   4.059   4.329   8.919 -0.6263 -1.5174  0.9148
 3701SOL    HW222740   3.934   4.395   8.900 -1.0744 -0.9164  0.6711
 3702SOL     OW22741   0.820   2.632   2.802 -0.0923  0.5232 -0.5812
 3702SOL    HW122742   0.899   2.613   2.752 -1.0737  2.0156 -2.6962
 3702SOL    HW222743   0.825   2.726   2.785  4.3883  0.2116 -0.8266
 3703SOL     OW22744   3.085   3.220  12.509  0.0281  0.4012  0.0263
 3703SOL    HW122745   3.104   3.136  12.466 -1.9534  1.9320 -3.7730
 3703SOL    HW222746   3.105   3.277  12.435  1.4063  0.2675  0.2806
 3704SOL     OW22747   4.509   3.298  16.757  0.3669  0.2915  0.1256
 3704SOL    HW122748   4.594   3.332  16.784  1.3933 -1.4659 -0.8667
 3704SOL    HW222749   4.450   3.367  16.786  0.3269 -0.9424  2.9882
 3705SOL     OW22750   4.141   3.553   6.935  0.3818 -0.0395 -0.3297
 3705SOL    HW122751   4.096   3.485   6.986  0.4983  1.0089  1.1803
 3705SOL    HW222752   4.187   3.497   6.873 -2.1106 -1.8630 -0.5457
 3706SOL     OW22753   0.171   3.875   2.884 -0.2991 -0.5601  0.2456
 3706SOL    HW122754   0.177   3.890   2.790 -2.0188  2.3270  0.5875
 3706SOL    HW222755   0.191   3.782   2.892  0.0941 -0.4987 -0.0493
 3707SOL     OW22756   3.312   2.186   4.579 -0.9108 -0.6172  0.9541
 3707SOL    HW122757   3.292   2.102   4.537 -1.6623  0.9379 -1.8326
 3707SOL    HW222758   3.380   2.212   4.516 -1.4358 -1.0966  0.1808
 3708SOL     OW22759   3.878   3.022  16.693 -0.2284  0.5605  0.3718
 3708SOL    HW122760   3.847   2.940  16.731 -1.3339 -0.1644 -2.0442
 3708SOL    HW222761   3.795   3.070  16.688  0.3968  1.5284 -1.1010
 3709SOL     OW22762   1.339   1.457   7.940 -0.0085  0.5838 -0.0282
 3709SOL    HW122763   1.277   1.529   7.948 -0.3525  0.3636 -0.7505
 3709SOL    HW222764   1.386   1.466   8.023  1.7135  0.8293 -1.0357
 3710SOL     OW22765   2.807   4.685   7.591 -0.1557 -0.0182 -0.2799
 3710SOL    HW122766   2.844   4.703   7.505 -0.2039  1.4227  0.0173
 3710SOL    HW222767   2.818   4.589   7.590  0.6605  0.0756 -0.2225
 3711SOL     OW22768   0.362   2.348   7.191  0.7987 -0.3493 -0.7168
 3711SOL    HW122769   0.387   2.312   7.276 -0.0937  0.2392 -0.2085
 3711SOL    HW222770   0.444   2.322   7.149  2.3465  0.5438  1.7449
 3712SOL     OW22771   3.913   3.731  16.300  0.1343  0.0353  0.1547
 3712SOL    HW122772   3.936   3.646  16.339  1.8384  0.1526 -0.6054
 3712SOL    HW222773   4.002   3.760  16.281  0.5414 -0.0841  1.8916
 3713SOL     OW22774   0.051   0.888   6.070 -0.3047 -1.2466  0.0562
 3713SOL    HW122775   4.699   0.901   6.030 -0.3613 -0.6966  0.3572
 3713SOL    HW222776   0.114   0.925   6.008  0.7340 -1.6246  0.8875
 3714SOL     OW22777   3.728   2.156  15.960  0.1251 -0.3575 -0.1520
 3714SOL    HW122778   3.786   2.080  15.954 -1.0129 -1.2416  0.1101
 3714SOL    HW222779   3.707   2.161  15.867  2.2368  0.1822 -0.6174
 3715SOL     OW22780   4.500   1.415   7.080  0.3198 -0.3370 -0.1197
 3715SOL    HW122781   4.475   1.485   7.140  2.5240  0.6730 -0.3896
 3715SOL    HW222782   4.515   1.342   7.140  1.2895 -0.7445 -0.8593
 3716SOL     OW22783   3.457   4.037   6.990  0.2337 -0.1098 -0.3021
 3716SOL    HW122784   3.551   4.016   6.986  0.1213 -0.6053 -0.3788
 3716SOL    HW222785   3.450   4.122   7.032  1.7905  0.6597 -1.5842
 3717SOL     OW22786   0.664   0.246  13.022  0.4861  0.2860  0.0933
 3717SOL    HW122787   0.667   0.182  13.093 -1.1227  1.7239  1.4464
 3717SOL    HW222788   0.741   0.234  12.966  2.2183  0.6908  2.3946
 3718SOL     OW22789   3.068   1.522   1.931  0.3466  0.6707 -0.1633
 3718SOL    HW122790   3.157   1.514   1.964  0.2094 -0.8429 -0.1500
 3718SOL    HW222791   3.036   1.434   1.950  0.6342 -0.4317 -4.7433
 3719SOL     OW22792   2.164   4.321   3.223  0.0925 -0.1832 -0.3802
 3719SOL    HW122793   2.072   4.346   3.213  0.2183 -0.2685 -1.7896
 3719SOL    HW222794   2.207   4.403   3.199 -0.6935  1.0880  2.5817
 3720SOL     OW22795   3.826   3.143  13.271  0.0133 -0.0832  0.6098
 3720SOL    HW122796   3.794   3.154  13.181  2.0551  1.5911  0.0749
 3720SOL    HW222797   3.784   3.211  13.323 -0.7476 -1.4294  1.7454
 3721SOL     OW22798   2.280   1.781   4.213  0.3248  0.0127 -0.1383
 3721SOL    HW122799   2.247   1.694   4.189 -0.7137  0.4229 -0.1777
 3721SOL    HW222800   2.242   1.795   4.300 -1.5845 -1.6233 -0.6991
 3722SOL     OW22801   3.454   4.224   2.394  0.1903 -0.2420  0.2324
 3722SOL    HW122802   3.363   4.199   2.375  0.1810 -0.4979  0.6223
 3722SOL    HW222803   3.509   4.155   2.357  1.9890  0.3352  1.8260
 3723SOL     OW22804   0.223   0.507   9.666 -0.3492  0.4804 -0.2812
 3723SOL    HW122805   0.304   0.555   9.679  0.3248 -0.5574 -0.6724
 3723SOL    HW222806   0.206   0.479   9.756 -0.1315 -2.0445 -1.0154
 3724SOL     OW22807   1.117   4.682   4.413  0.6439 -0.2269 -0.6926
 3724SOL    HW122808   1.143   0.040   4.407 -2.7085  0.8585  1.4711
 3724SOL    HW222809   1.100   4.654   4.323 -1.5110  1.0172 -0.6504
 3725SOL     OW22810   3.371   1.300   7.788 -0.2252  0.0943 -0.3543
 3725SOL    HW122811   3.342   1.354   7.714 -0.6813  2.0747  1.2715
 3725SOL    HW222812   3.294   1.245   7.794 -0.5795  0.7600  1.1548
 3726SOL     OW22813   2.491   0.419   5.395 -0.3436 -0.7230 -0.5396
 3726SOL    HW122814   2.451   0.353   5.453  1.8893  0.5312  2.4634
 3726SOL    HW222815   2.508   0.495   5.450 -3.0808 -1.5988  1.5386
 3727SOL     OW22816   3.249   3.683   8.922  0.1710 -0.0150 -0.2793
 3727SOL    HW122817   3.226   3.731   8.843  1.6265  1.1279 -0.0088
 3727SOL    HW222818   3.191   3.735   8.977  1.4230  1.1179 -0.0365
 3728SOL     OW22819   0.575   1.519  17.488  0.0645  0.5548 -0.3745
 3728SOL    HW122820   0.610   1.551  17.405 -1.6122 -0.2949 -1.4042
 3728SOL    HW222821   0.524   1.443  17.462 -0.9643  1.1437 -0.0689
 3729SOL     OW22822   0.275   4.222  15.910 -0.1711  0.5860 -0.5687
 3729SOL    HW122823   0.183   4.215  15.886  0.0246 -0.7870 -0.8855
 3729SOL    HW222824   0.249   4.239  16.001 -1.2743 -0.1684 -0.7460
 3730SOL     OW22825   0.715   1.452  15.202  0.4748 -0.1963  0.3438
 3730SOL    HW122826   0.639   1.395  15.201  1.9731 -2.2429  1.9627
 3730SOL    HW222827   0.669   1.534  15.221  1.6155  0.9762 -1.8169
 3731SOL     OW22828   0.336   3.339   5.653 -0.1624  0.2122  0.0857
 3731SOL    HW122829   0.337   3.356   5.559 -0.4164  2.7618  0.5602
 3731SOL    HW222830   0.429   3.317   5.660 -0.3284 -0.9012 -1.2094
 3732SOL     OW22831   3.201   4.621  12.648  0.1011  0.6795 -0.0705
 3732SOL    HW122832   3.247   4.608  12.565 -0.2599  2.4566 -0.5579
 3732SOL    HW222833   3.177   4.532  12.671 -2.1630  0.6743 -2.3474
 3733SOL     OW22834   4.534   2.801  15.372 -0.1717  0.1106  0.0341
 3733SOL    HW122835   4.503   2.863  15.306 -0.2767 -2.3009 -2.1517
 3733SOL    HW222836   4.509   2.722  15.325  0.0177  0.1717 -0.1718
 3734SOL     OW22837   0.237   2.075   3.578  0.5702 -0.1797 -0.3365
 3734SOL    HW122838   0.158   2.022   3.590 -0.6117  1.8486  0.7958
 3734SOL    HW222839   0.276   2.087   3.665 -0.2956  1.0983 -0.1262
 3735SOL     OW22840   2.514   4.134   7.767  0.0928 -0.5581  0.5430
 3735SOL    HW122841   2.604   4.107   7.787  0.8090  2.9212  1.9669
 3735SOL    HW222842   2.534   4.175   7.683  0.1910  0.9287  1.3052
 3736SOL     OW22843   3.612   4.682   3.812 -0.0030  0.4984  0.1460
 3736SOL    HW122844   3.621   4.660   3.719  3.1969 -1.8976  1.0426
 3736SOL    HW222845   3.612   0.043   3.801 -1.0671  0.3236 -1.3512
 3737SOL     OW22846   2.784   1.899   4.806 -0.2212 -0.0419  0.0761
 3737SOL    HW122847   2.824   1.929   4.887 -2.1914  1.4389  0.4973
 3737SOL    HW222848   2.736   1.825   4.842  0.7354 -0.1124  1.1973
 3738SOL     OW22849   3.652   1.560   7.744 -0.1817  0.2837 -0.0822
 3738SOL    HW122850   3.668   1.491   7.680  0.5491  0.2956  0.0826
 3738SOL    HW222851   3.593   1.610   7.688 -2.1096 -2.7093 -0.6886
 3739SOL     OW22852   2.815   3.418   2.555  0.1007  0.0624 -0.0442
 3739SOL    HW122853   2.903   3.451   2.535  1.0654 -2.1451  0.5208
 3739SOL    HW222854   2.806   3.362   2.479 -1.5551 -0.9090  0.8733
 3740SOL     OW22855   0.822   2.643   3.093 -0.0340  0.3127 -0.9621
 3740SOL    HW122856   0.782   2.643   3.006 -0.1695 -0.7039 -0.8971
 3740SOL    HW222857   0.868   2.560   3.087 -2.2281 -0.9184 -0.8119
 3741SOL     OW22858   2.692   2.851   4.152 -0.1380 -0.3809 -0.1171
 3741SOL    HW122859   2.685   2.946   4.156 -1.5734 -0.4527 -1.0440
 3741SOL    HW222860   2.780   2.826   4.122  0.2319  2.3510 -1.3220
 3742SOL     OW22861   0.418   4.120  15.697 -0.9001  0.4706  0.3366
 3742SOL    HW122862   0.454   4.037  15.728  2.9794  1.0416 -2.5637
 3742SOL    HW222863   0.365   4.154  15.768 -2.3107 -2.3535  0.6326
 3743SOL     OW22864   1.258   1.485   4.317  0.0346  0.0633  0.1813
 3743SOL    HW122865   1.313   1.485   4.238  0.0144  0.1052  0.1671
 3743SOL    HW222866   1.176   1.511   4.274  0.8327  1.5078 -0.4901
 3744SOL     OW22867   2.963   2.450   1.037 -0.7584 -0.2793  0.1875
 3744SOL    HW122868   2.975   2.449   0.942  0.1122 -0.0897  0.2921
 3744SOL    HW222869   2.977   2.543   1.056 -3.1562 -0.3287  2.1983
 3745SOL     OW22870   3.979   1.840  15.882 -0.1883  0.1132 -0.1675
 3745SOL    HW122871   3.987   1.746  15.866  1.2292  0.4007 -1.0998
 3745SOL    HW222872   3.952   1.845  15.974 -0.7299 -3.5953 -0.1439
 3746SOL     OW22873   3.409   2.164   5.167  0.0804  0.1098  0.3665
 3746SOL    HW122874   3.349   2.238   5.160  0.9298  0.6408 -1.3521
 3746SOL    HW222875   3.419   2.139   5.075  2.3595  0.6195  0.4561
 3747SOL     OW22876   2.630   3.875   8.664  0.4278 -0.8066 -0.6352
 3747SOL    HW122877   2.594   3.962   8.685  1.5815 -0.1076 -1.5409
 3747SOL    HW222878   2.713   3.903   8.627  0.5377  0.7457  0.7706
 3748SOL     OW22879   3.180   3.529   7.216 -0.1417 -0.1079 -0.1939
 3748SOL    HW122880   3.219   3.585   7.149  1.9003  1.2885  2.1736
 3748SOL    HW222881   3.260   3.476   7.228 -0.7579 -0.9746  0.1116
 3749SOL     OW22882   2.551   4.508   8.704 -0.1409 -0.4533  0.1035
 3749SOL    HW122883   2.460   4.522   8.675  0.2908 -0.4350 -1.2575
 3749SOL    HW222884   2.573   4.598   8.729  1.3288 -0.3171 -1.6268
 3750SOL     OW22885   2.238   2.654  14.254 -0.2213  0.0423 -0.1779
 3750SOL    HW122886   2.313   2.693  14.298 -0.6161  0.4443  0.1277
 3750SOL    HW222887   2.222   2.722  14.188 -1.1776 -1.8180 -1.8885
 3751SOL     OW22888   3.855   4.152  11.722  0.7856  0.0295  0.1879
 3751SOL    HW122889   3.876   4.158  11.815  0.4552  1.8585  0.1553
 3751SOL    HW222890   3.792   4.080  11.720 -0.8230  1.4469 -0.7083
 3752SOL     OW22891   1.523   2.262  14.906 -0.1302  0.4766  0.3633
 3752SOL    HW122892   1.533   2.284  14.814  0.1793 -2.6175 -0.3613
 3752SOL    HW222893   1.434   2.226  14.908 -0.4418  1.3767  2.9915
 3753SOL     OW22894   1.447   1.023   7.075  0.4576 -0.1831  0.1924
 3753SOL    HW122895   1.474   1.114   7.089  0.2530 -0.2764  1.2281
 3753SOL    HW222896   1.500   1.009   6.997 -1.2850  1.8687 -1.3382
 3754SOL     OW22897   3.198   4.512   9.364 -0.6436 -0.2624  0.2502
 3754SOL    HW122898   3.120   4.517   9.419 -2.3439 -0.6462 -2.1187
 3754SOL    HW222899   3.268   4.547   9.418 -0.1813  1.0615 -1.2082
 3755SOL     OW22900   0.818   2.708   3.529 -0.5279 -0.3685 -0.1152
 3755SOL    HW122901   0.764   2.630   3.541 -0.2287 -0.3551  1.2875
 3755SOL    HW222902   0.777   2.737   3.447  2.7412 -0.0786 -1.6431
 3756SOL     OW22903   3.143   0.977  10.677 -0.0569  0.6146 -0.9551
 3756SOL    HW122904   3.057   0.999  10.642 -0.2801 -1.4684 -1.6602
 3756SOL    HW222905   3.130   0.889  10.712 -1.3724  1.0883 -0.2577
 3757SOL     OW22906   1.711   2.044  16.116 -0.1159  0.5115  0.1074
 3757SOL    HW122907   1.760   2.126  16.123  2.2122 -0.8714  0.0811
 3757SOL    HW222908   1.716   2.001  16.202 -0.6559 -0.0310 -0.1306
 3758SOL     OW22909   3.667   3.438  15.855 -0.0269 -0.3548 -0.1384
 3758SOL    HW122910   3.712   3.518  15.885  1.0703 -0.8544 -0.4530
 3758SOL    HW222911   3.583   3.438  15.901  0.7705  1.5864  1.3461
 3759SOL     OW22912   3.602   4.145   9.560  0.5226  0.3861 -0.1930
 3759SOL    HW122913   3.634   4.191   9.637  2.5100 -0.8142 -0.2914
 3759SOL    HW222914   3.538   4.087   9.602  0.2876  0.1774 -0.8277
 3760SOL     OW22915   1.748   0.659   2.326  0.7217 -0.4597  0.6729
 3760SOL    HW122916   1.679   0.709   2.283  0.0935 -1.2086  0.8091
 3760SOL    HW222917   1.687   0.597   2.365 -0.2750 -0.3465 -0.7308
 3761SOL     OW22918   0.204   2.070  16.509 -0.1112 -0.4682 -0.0517
 3761SOL    HW122919   0.110   2.060  16.522 -0.3512  3.0875  0.9924
 3761SOL    HW222920   0.198   2.120  16.427  1.9287  2.9783  1.8965
 3762SOL     OW22921   2.473   4.191   2.074  0.2035  0.6763  0.2183
 3762SOL    HW122922   2.555   4.158   2.038 -0.0658  0.4502 -0.1987
 3762SOL    HW222923   2.473   4.150   2.160  1.1420  0.5010  0.1317
 3763SOL     OW22924   0.700   3.273  11.911  0.1468  0.3942  0.1815
 3763SOL    HW122925   0.675   3.296  12.001  0.5077 -1.0423  0.6580
 3763SOL    HW222926   0.699   3.178  11.921 -0.2681  0.3818 -0.0213
 3764SOL     OW22927   0.819   3.958   0.176 -0.3602 -0.1973  0.4640
 3764SOL    HW122928   0.844   4.028   0.236  0.1259 -0.0315  0.0668
 3764SOL    HW222929   0.901   3.909   0.167  0.3612  1.4447 -2.0189
 3765SOL     OW22930   2.488   2.026   4.993  0.0325  0.0499 -0.0159
 3765SOL    HW122931   2.488   2.121   4.978 -0.4950 -0.2127 -1.6453
 3765SOL    HW222932   2.421   1.998   4.930 -0.2193 -1.5356  0.9670
 3766SOL     OW22933   0.016   1.956   5.863  0.5432  0.5055  0.1024
 3766SOL    HW122934   4.710   1.896   5.926  0.8172 -0.3971 -0.5902
 3766SOL    HW222935   4.683   1.949   5.795 -0.5177 -0.9995  1.2762
 3767SOL     OW22936   4.692   3.764   5.999 -0.5098 -0.4596 -0.4823
 3767SOL    HW122937   0.032   3.748   5.940  0.2937 -2.1105  0.9888
 3767SOL    HW222938   4.674   3.672   6.014  0.1684 -0.3098  1.2227
 3768SOL     OW22939   4.087   4.405   1.017 -0.3827  0.2001 -0.2384
 3768SOL    HW122940   4.052   4.344   1.083  0.8411 -0.6140 -0.3418
 3768SOL    HW222941   4.172   4.426   1.056 -0.6550  1.5109 -0.3440
 3769SOL     OW22942   3.745   2.100   1.866  0.5398  0.0187  0.4071
 3769SOL    HW122943   3.750   2.154   1.787  1.1612 -0.2778  0.2382
 3769SOL    HW222944   3.662   2.127   1.905 -0.2617 -1.5926 -0.1476
 3770SOL     OW22945   4.237   1.945   4.238  0.0688 -0.3802 -0.0858
 3770SOL    HW122946   4.238   1.947   4.334  0.2235  1.7125 -0.1246
 3770SOL    HW222947   4.317   1.897   4.218  0.5892 -0.2431  1.6872
 3771SOL     OW22948   2.280   2.972  12.182  0.2430  0.7785  0.6075
 3771SOL    HW122949   2.344   2.916  12.137 -1.5553  0.9681 -2.1626
 3771SOL    HW222950   2.194   2.945  12.150  1.7206 -1.2953 -1.6887
 3772SOL     OW22951   2.627   0.520  12.397  0.3353 -0.1405 -0.4394
 3772SOL    HW122952   2.656   0.431  12.417  0.4456  0.0379  0.2054
 3772SOL    HW222953   2.693   0.573  12.441  1.4746  0.3472 -2.7424
 3773SOL     OW22954   1.170   0.376   1.797  0.5142 -0.6135  0.4193
 3773SOL    HW122955   1.200   0.285   1.796 -0.1984 -0.8412 -0.0173
 3773SOL    HW222956   1.212   0.418   1.721 -2.4550  2.4672  0.4634
 3774SOL     OW22957   4.664   3.845   5.685 -0.5530 -0.2946  0.2452
 3774SOL    HW122958   4.690   3.831   5.595 -0.5016  0.4583  0.1489
 3774SOL    HW222959   0.019   3.848   5.720 -1.8229  0.5509  3.4363
 3775SOL     OW22960   4.682   0.813   8.118 -0.2619  0.1503 -0.1316
 3775SOL    HW122961   4.674   0.735   8.173 -1.0109  0.3372  0.0247
 3775SOL    HW222962   0.032   0.856   8.137 -0.8952  0.7294  1.4040
 3776SOL     OW22963   2.415   0.317   9.813  0.1545 -0.4885  0.5497
 3776SOL    HW122964   2.344   0.300   9.874 -2.0872  0.1789 -1.9036
 3776SOL    HW222965   2.360   0.350   9.742 -0.6708 -1.1166  0.8974
 3777SOL     OW22966   2.184   2.098   2.783 -0.1519 -0.0287 -0.4069
 3777SOL    HW122967   2.269   2.111   2.826 -0.3398 -0.6740  0.1553
 3777SOL    HW222968   2.119   2.094   2.853  0.6532 -2.3080  0.2179
 3778SOL     OW22969   4.506   3.489   7.308 -0.3314 -0.5073 -1.1743
 3778SOL    HW122970   4.492   3.452   7.395  1.9779 -0.7050 -0.9064
 3778SOL    HW222971   4.415   3.496   7.279 -0.9494 -0.6518  0.7005
 3779SOL     OW22972   0.225   2.616  17.251  0.4848  0.3097  0.1671
 3779SOL    HW122973   0.146   2.669  17.260  0.3089  0.0374  0.2103
 3779SOL    HW222974   0.181   2.538  17.217 -1.5239  1.5049  0.0204
 3780SOL     OW22975   1.777   2.970   5.700  0.1035 -0.1777  0.5616
 3780SOL    HW122976   1.841   2.908   5.734 -1.0258 -1.8853 -0.4731
 3780SOL    HW222977   1.797   3.039   5.763  1.6021  0.1648 -0.2778
 3781SOL     OW22978   2.960   3.544   6.219  0.1057  0.6234  0.3905
 3781SOL    HW122979   2.889   3.575   6.275 -0.6655  1.0486 -0.8110
 3781SOL    HW222980   2.967   3.451   6.240  0.1050  0.4604 -0.3267
 3782SOL     OW22981   0.065   3.208   7.283 -0.6030 -0.4184 -0.8801
 3782SOL    HW122982   0.011   3.214   7.362 -0.7309  0.4709 -1.0421
 3782SOL    HW222983   0.147   3.179   7.323 -1.4581 -1.5205  0.1079
 3783SOL     OW22984   3.895   1.516   5.055 -0.5085 -0.2138  0.6335
 3783SOL    HW122985   3.810   1.476   5.039  0.5953 -2.3889  0.0687
 3783SOL    HW222986   3.928   1.480   5.137 -1.3372  0.6510  1.3333
 3784SOL     OW22987   2.688   4.319  14.794 -0.2279  0.1082  0.1399
 3784SOL    HW122988   2.771   4.348  14.758 -0.1720  1.9504  1.7649
 3784SOL    HW222989   2.654   4.400  14.833 -0.3180 -0.0742  0.4455
 3785SOL     OW22990   1.449   1.817  16.180  0.1774  0.0345  0.2962
 3785SOL    HW122991   1.457   1.843  16.088  0.7658 -1.6173 -0.1270
 3785SOL    HW222992   1.358   1.848  16.182  0.2587  0.4907 -2.3228
 3786SOL     OW22993   3.425   2.194  13.243 -0.4422 -0.0198 -0.0421
 3786SOL    HW122994   3.334   2.176  13.263  0.0020 -2.8866 -0.6473
 3786SOL    HW222995   3.458   2.186  13.333 -0.5606 -1.2159 -0.1040
 3787SOL     OW22996   1.585   3.155   7.340  0.4734 -0.4734  0.6369
 3787SOL    HW122997   1.645   3.116   7.276 -1.0195  1.8661 -2.1794
 3787SOL    HW222998   1.607   3.247   7.322 -0.3041 -0.4045  0.0161
 3788SOL     OW22999   2.015   3.053  11.218 -1.0986 -0.2056 -0.1603
 3788SOL    HW123000   2.014   3.142  11.255  0.3129 -0.1286 -0.3163
 3788SOL    HW223001   1.976   3.077  11.133 -0.1462 -1.6878 -1.0084
 3789SOL     OW23002   3.444   3.808   1.813  0.0258  0.1785 -0.0213
 3789SOL    HW123003   3.389   3.881   1.785 -0.2845 -0.8206 -2.0229
 3789SOL    HW223004   3.505   3.855   1.870 -0.4800  0.7036  0.0747
 3790SOL     OW23005   3.454   0.789   6.261 -0.1381 -0.0011 -0.1137
 3790SOL    HW123006   3.414   0.704   6.248 -0.5777 -0.0888  1.9418
 3790SOL    HW223007   3.494   0.793   6.173  0.3377 -0.0280  0.0987
 3791SOL     OW23008   0.479   1.312   3.368 -0.1815  0.4078 -0.4878
 3791SOL    HW123009   0.491   1.312   3.274 -1.6592  1.3322 -0.6773
 3791SOL    HW223010   0.556   1.362   3.396 -0.0160 -1.3628  2.2610
 3792SOL     OW23011   3.254   2.553  10.336  0.6532 -0.2495  0.3736
 3792SOL    HW123012   3.200   2.499  10.393  0.5015 -0.4488  0.0433
 3792SOL    HW223013   3.311   2.480  10.312  1.5820  0.1065  1.4778
 3793SOL     OW23014   1.132   3.214   4.742  0.2896 -0.2493 -0.0839
 3793SOL    HW123015   1.115   3.175   4.656  0.7365  0.3940 -0.4575
 3793SOL    HW223016   1.092   3.153   4.805  0.7525  1.4472  1.8468
 3794SOL     OW23017   1.889   2.098  13.689 -0.9856  0.0218 -0.3359
 3794SOL    HW123018   1.900   2.170  13.751  0.2636 -0.5174  0.0627
 3794SOL    HW223019   1.815   2.052  13.729  0.3063 -0.6681  1.2836
 3795SOL     OW23020   3.036   1.031   4.238 -0.2237  0.0328 -0.6118
 3795SOL    HW123021   3.061   0.970   4.307 -1.0163 -0.4695 -0.7626
 3795SOL    HW223022   3.114   1.087   4.244 -1.0560  1.2032 -0.7539
 3796SOL     OW23023   1.579   2.125  16.809 -0.5055  0.0432  0.4869
 3796SOL    HW123024   1.518   2.193  16.839 -1.3883  0.0952 -1.4480
 3796SOL    HW223025   1.585   2.070  16.888  5.0516  0.7736  0.5790
 3797SOL     OW23026   1.974   0.644   2.487  0.2672 -0.0138  0.6017
 3797SOL    HW123027   1.899   0.637   2.428 -0.2268 -0.8818  1.3265
 3797SOL    HW223028   1.994   0.737   2.492  0.2977  0.0033  0.1143
 3798SOL     OW23029   2.012   1.354   4.980  0.4532 -0.4320  0.3546
 3798SOL    HW123030   2.098   1.314   4.965  1.2994  1.4546  0.2090
 3798SOL    HW223031   1.960   1.298   4.923 -1.5183  1.1335  0.6169
 3799SOL     OW23032   0.110   1.593   4.962 -0.3009  0.4520  0.1866
 3799SOL    HW123033   0.035   1.579   5.021  0.2102  0.7066  0.8921
 3799SOL    HW223034   0.126   1.503   4.933 -0.2248 -0.1051  1.9411
 3800SOL     OW23035   1.595   3.629   6.029 -0.1256  0.0911  0.3967
 3800SOL    HW123036   1.614   3.721   6.010  2.3245 -0.4136  0.3446
 3800SOL    HW223037   1.564   3.634   6.120 -2.1279  1.3135 -0.3530
 3801SOL     OW23038   4.536   1.747   5.322  0.0267 -0.1266  0.1807
 3801SOL    HW123039   4.514   1.740   5.415 -0.1998 -1.5051  0.0287
 3801SOL    HW223040   4.454   1.775   5.281  0.4852  0.3270 -0.4137
 3802SOL     OW23041   4.605   2.215  11.454 -0.2889 -0.7006 -0.1568
 3802SOL    HW123042   4.555   2.134  11.462 -1.0141 -0.3776 -1.3772
 3802SOL    HW223043   4.538   2.277  11.424 -0.1263 -1.2043 -1.5551
 3803SOL     OW23044   1.655   3.105   4.817 -0.2257  0.3183  0.2441
 3803SOL    HW123045   1.583   3.047   4.794 -1.2111  1.5243  0.2779
 3803SOL    HW223046   1.664   3.076   4.908  1.2270 -2.1181 -0.6930
 3804SOL     OW23047   2.800   2.761   5.256 -0.2648  0.0258  0.1312
 3804SOL    HW123048   2.727   2.740   5.315  0.8970 -3.2534  0.3690
 3804SOL    HW223049   2.845   2.823   5.314 -0.2625 -0.2573  0.4333
 3805SOL     OW23050   3.801   2.891   8.035 -0.4635 -0.9280 -0.0885
 3805SOL    HW123051   3.815   2.809   8.082 -0.5771 -0.5812  0.5520
 3805SOL    HW223052   3.705   2.885   8.040 -0.4657 -0.0970  1.0737
 3806SOL     OW23053   0.328   0.196   7.691  0.2321  0.6960 -0.1049
 3806SOL    HW123054   0.247   0.216   7.739  0.8144  0.3266  1.0338
 3806SOL    HW223055   0.355   0.135   7.760 -0.6591  1.3650  0.8550
 3807SOL     OW23056   3.975   4.248   4.344 -0.3250 -0.3392 -0.1406
 3807SOL    HW123057   3.986   4.332   4.389 -0.7007 -0.6400  0.5227
 3807SOL    HW223058   4.027   4.196   4.404 -0.7517 -0.6327 -0.0233
 3808SOL     OW23059   3.069   2.922  14.794  0.6020 -0.8397 -0.3846
 3808SOL    HW123060   3.102   3.011  14.800 -0.3135 -0.6098  1.1965
 3808SOL    HW223061   3.033   2.905  14.881 -1.8329  0.7532 -1.0723
 3809SOL     OW23062   4.040   3.706   5.895  0.6396 -0.3308 -0.2693
 3809SOL    HW123063   3.958   3.738   5.857  1.8579  0.1413 -2.4967
 3809SOL    HW223064   4.080   3.641   5.837 -0.8207 -0.8780 -0.6739
 3810SOL     OW23065   3.031   1.400  12.979  0.1295 -0.6395 -0.2751
 3810SOL    HW123066   2.968   1.445  12.923  0.5092  0.5381  0.2440
 3810SOL    HW223067   3.114   1.440  12.954  0.6100 -1.5061 -0.0609
 3811SOL     OW23068   3.734   4.076   1.761  0.3982  0.2879 -0.4568
 3811SOL    HW123069   3.780   4.128   1.827  1.2282 -0.3957 -0.5096
 3811SOL    HW223070   3.706   3.997   1.808 -0.4765  1.4250  0.9555
 3812SOL     OW23071   4.276   1.239   3.856  0.1815  0.2174  0.2694
 3812SOL    HW123072   4.350   1.299   3.867 -0.1750  0.4831  1.2475
 3812SOL    HW223073   4.323   1.156   3.865 -2.1112 -1.0825  0.3023
 3813SOL     OW23074   2.282   3.934  16.461 -0.7391 -0.2972  0.6747
 3813SOL    HW123075   2.193   3.960  16.439 -0.6167  0.6867  1.3503
 3813SOL    HW223076   2.305   4.024  16.483  1.2879 -0.4235 -0.8892
 3814SOL     OW23077   0.811   0.029   9.208 -0.4659  0.2623  0.3545
 3814SOL    HW123078   0.867   4.721   9.143 -0.8261  0.1628  0.1078
 3814SOL    HW223079   0.812   4.706   9.284 -2.2921  1.7332  1.4809
 3815SOL     OW23080   2.808   3.678   9.755 -0.2377 -0.4268 -0.1967
 3815SOL    HW123081   2.774   3.767   9.769 -0.3970 -0.6405  0.7702
 3815SOL    HW223082   2.861   3.669   9.834 -1.1698  2.1873  0.7213
 3816SOL     OW23083   4.724   4.292   9.325  0.2572  0.3334 -0.3903
 3816SOL    HW123084   0.073   4.290   9.277 -0.8403 -1.7755 -2.2186
 3816SOL    HW223085   0.013   4.309   9.417  2.3802 -3.4952 -0.1817
 3817SOL     OW23086   4.114   4.244   4.864 -0.2063 -0.8304 -0.3644
 3817SOL    HW123087   4.062   4.224   4.941 -2.5878 -2.0288 -2.2885
 3817SOL    HW223088   4.172   4.168   4.865 -0.8842 -1.2895  2.7595
 3818SOL     OW23089   0.105   1.345   8.084  0.1915  0.5471  0.3267
 3818SOL    HW123090   0.069   1.281   8.023  0.0118  1.8140 -0.9186
 3818SOL    HW223091   0.037   1.412   8.078 -0.5282  0.1064  3.5135
 3819SOL     OW23092   0.542   0.364   2.406  0.1500  0.3551 -0.7765
 3819SOL    HW123093   0.450   0.386   2.394  0.2021  0.6602 -0.6063
 3819SOL    HW223094   0.548   0.278   2.447 -0.6258  1.0610  0.8162
 3820SOL     OW23095   1.497   1.897  13.041 -0.0082 -0.7669  0.2760
 3820SOL    HW123096   1.480   1.815  12.994 -2.5442  0.3114 -0.6672
 3820SOL    HW223097   1.552   1.857  13.108 -0.4448 -0.6941  0.6747
 3821SOL     OW23098   0.156   3.446  10.406  0.1455  0.4821 -0.6615
 3821SOL    HW123099   0.232   3.408  10.450 -0.1768  0.8807  0.2490
 3821SOL    HW223100   0.178   3.538  10.389  1.3969 -0.3568 -3.4253
 3822SOL     OW23101   0.641   2.668  16.930  0.0924  0.1501  0.0463
 3822SOL    HW123102   0.575   2.636  16.992  0.7837 -1.8243 -0.2284
 3822SOL    HW223103   0.593   2.730  16.876 -1.6903 -1.3666 -0.0898
 3823SOL     OW23104   4.733   3.947   4.911 -0.5287 -0.4290 -0.4815
 3823SOL    HW123105   0.083   3.902   4.901  0.7584  2.3268 -2.1757
 3823SOL    HW223106   4.685   3.883   4.963  0.8283 -0.7244  0.4170
 3824SOL     OW23107   1.906   0.495   7.135  0.5522 -0.5324 -0.0270
 3824SOL    HW123108   1.900   0.561   7.204  2.7136  2.0450 -2.2865
 3824SOL    HW223109   1.814   0.479   7.115  0.2865 -0.1105  0.8822
 3825SOL     OW23110   4.702   0.122   6.176  0.5422 -0.0618 -0.2164
 3825SOL    HW123111   4.679   0.033   6.204 -1.0393  0.7922  1.1982
 3825SOL    HW223112   0.023   0.142   6.251  0.2760  1.7039 -0.4919
 3826SOL     OW23113   4.715   4.416   4.906 -0.2139 -0.2497  0.4589
 3826SOL    HW123114   0.057   4.369   4.939  1.0074  1.2637 -0.1955
 3826SOL    HW223115   4.651   4.354   4.870 -1.4175  0.5945  1.1436
 3827SOL     OW23116   1.209   3.278   3.152 -0.4667 -0.2497 -0.0550
 3827SOL    HW123117   1.173   3.364   3.170  2.3697  0.9130  0.0075
 3827SOL    HW223118   1.266   3.302   3.079 -1.1137 -0.5620 -0.6674
 3828SOL     OW23119   3.291   0.962   7.145  0.1547 -0.0985  0.3089
 3828SOL    HW123120   3.383   0.946   7.127  0.0054 -1.0652  0.4407
 3828SOL    HW223121   3.289   0.981   7.239 -0.5588  0.4757  0.1872
 3829SOL     OW23122   1.038   1.660   7.449 -0.1152  0.1457  0.1793
 3829SOL    HW123123   0.957   1.708   7.466  0.3274  0.8390  0.3439
 3829SOL    HW223124   1.009   1.613   7.371 -0.5800 -1.1615  1.1391
 3830SOL     OW23125   3.469   4.328   1.767  0.0968 -0.2896 -0.1942
 3830SOL    HW123126   3.396   4.267   1.773  0.5497 -1.0261 -1.9806
 3830SOL    HW223127   3.536   4.277   1.721  0.9074 -0.9289  1.7198
 3831SOL     OW23128   2.175   4.100  12.033 -0.2968 -0.1113 -0.0392
 3831SOL    HW123129   2.081   4.111  12.022 -0.2040  0.5875 -0.1601
 3831SOL    HW223130   2.202   4.126  11.945 -0.5285  0.8662  0.1847
 3832SOL     OW23131   0.508   1.817   1.957  0.3782  0.0932  0.5657
 3832SOL    HW123132   0.488   1.776   2.041  0.9537 -3.2156 -0.8858
 3832SOL    HW223133   0.426   1.855   1.926  0.0141 -1.6450 -0.6219
 3833SOL     OW23134   3.343   2.062  16.061 -0.1238  0.4800 -0.3258
 3833SOL    HW123135   3.304   2.148  16.042 -2.4742  0.1044  2.8136
 3833SOL    HW223136   3.372   2.040  15.973 -0.6055 -0.9161 -0.1217
 3834SOL     OW23137   0.190   0.509  13.617  0.4346  0.3136  0.0391
 3834SOL    HW123138   0.196   0.488  13.710  0.6747 -1.0061 -0.2797
 3834SOL    HW223139   0.268   0.469  13.579  1.5362  1.2228  1.3797
 3835SOL     OW23140   4.056   0.393   5.213  0.2168 -0.5532  1.3644
 3835SOL    HW123141   4.085   0.473   5.169 -0.6625 -0.1416  1.5331
 3835SOL    HW223142   3.971   0.428   5.239  0.7480  2.0429 -0.4232
 3836SOL     OW23143   2.043   4.289   6.784 -0.4284 -0.0934 -0.4825
 3836SOL    HW123144   2.099   4.366   6.794 -1.6536  1.0366 -2.2332
 3836SOL    HW223145   1.968   4.323   6.734  0.5621  1.5119 -0.8674
 3837SOL     OW23146   2.379   1.720  11.452  0.2215  0.0989  0.0824
 3837SOL    HW123147   2.473   1.736  11.458  0.1059  0.4258  1.0740
 3837SOL    HW223148   2.367   1.657  11.523 -0.8601 -0.0685 -0.2471
 3838SOL     OW23149   4.295   2.471   0.327 -0.1250 -0.4112  0.2219
 3838SOL    HW123150   4.253   2.391   0.295 -2.1709  0.8215 -0.1931
 3838SOL    HW223151   4.376   2.464   0.276 -1.2035 -1.3522 -1.3778
 3839SOL     OW23152   0.533   4.483   9.508  0.0884 -0.0588  0.0846
 3839SOL    HW123153   0.523   4.488   9.603  1.5127 -1.8116  0.3169
 3839SOL    HW223154   0.627   4.469   9.498  0.3226  1.1890  0.5018
 3840SOL     OW23155   0.846   2.128  14.478 -0.0039  0.3392 -0.4315
 3840SOL    HW123156   0.877   2.038  14.465 -0.1089  0.2604 -0.1552
 3840SOL    HW223157   0.758   2.115  14.514  0.4155 -1.9394 -0.1759
 3841SOL     OW23158   4.711   1.047   4.268  0.0470 -0.9316 -0.4242
 3841SOL    HW123159   0.030   1.099   4.329  0.7746 -1.9860 -0.1489
 3841SOL    HW223160   4.711   0.968   4.322  1.8072 -0.1209  0.7707
 3842SOL     OW23161   0.479   4.140   7.634 -0.0974  0.4341  0.7136
 3842SOL    HW123162   0.546   4.120   7.701  0.6492 -0.7981 -0.3841
 3842SOL    HW223163   0.400   4.140   7.687  0.1125  1.4731  1.0241
 3843SOL     OW23164   1.572   3.974   6.717  0.6604  0.2660 -0.3839
 3843SOL    HW123165   1.544   3.913   6.786 -1.0535 -1.2479 -2.4158
 3843SOL    HW223166   1.619   4.038   6.770  1.8627 -0.1262 -0.9780
 3844SOL     OW23167   2.233   3.433   5.472 -0.1316 -0.4214 -0.3372
 3844SOL    HW123168   2.171   3.492   5.515  0.7660  0.5133 -0.3102
 3844SOL    HW223169   2.177   3.435   5.394 -1.8653 -0.5365  0.9186
 3845SOL     OW23170   1.020   0.356  15.766  0.1810  0.3431 -0.2908
 3845SOL    HW123171   0.974   0.283  15.724  2.6990 -0.1338 -2.2412
 3845SOL    HW223172   0.949   0.414  15.791 -0.3672 -0.1965 -0.5976
 3846SOL     OW23173   0.627   2.619   8.235  0.5301  0.1953  0.1758
 3846SOL    HW123174   0.663   2.531   8.220 -0.6664 -0.3092  0.2321
 3846SOL    HW223175   0.687   2.666   8.293  0.6521 -0.2329  0.4024
 3847SOL     OW23176   3.525   1.718   5.707  0.2372  0.9756  0.2006
 3847SOL    HW123177   3.595   1.768   5.750  2.9244 -0.3492 -2.6480
 3847SOL    HW223178   3.554   1.710   5.616  0.9665 -0.9064  0.6020
 3848SOL     OW23179   2.199   0.126  12.227  0.1654  0.1250 -0.4521
 3848SOL    HW123180   2.214   0.058  12.294 -1.2168  1.3899  1.1381
 3848SOL    HW223181   2.139   0.184  12.274  1.1532 -0.2416  1.2929
 3849SOL     OW23182   4.661   1.591   9.293  0.4128  0.4577  0.3765
 3849SOL    HW123183   4.723   1.570   9.223  1.4106  1.6950  0.8833
 3849SOL    HW223184   4.663   1.687   9.289  0.5503  0.4367 -0.0436
 3850SOL     OW23185   2.562   0.985   7.735  0.2064  0.1631  0.5140
 3850SOL    HW123186   2.483   0.931   7.726 -2.1638  4.0175 -1.4644
 3850SOL    HW223187   2.556   1.036   7.655  0.0945  0.2706  0.5907
 3851SOL     OW23188   0.138   4.238   0.520  0.0135  0.2800  0.6213
 3851SOL    HW123189   0.184   4.197   0.594  2.5053  0.0995 -1.0202
 3851SOL    HW223190   0.053   4.254   0.560 -0.0143 -0.9299  1.0709
 3852SOL     OW23191   0.125   1.960  11.139  0.1039 -0.1744 -0.0458
 3852SOL    HW123192   0.131   2.056  11.138  1.4719 -0.2405  1.8308
 3852SOL    HW223193   0.145   1.933  11.229  1.4825 -2.4632 -1.0279
 3853SOL     OW23194   4.536   0.519   3.378 -0.2598  0.0287 -0.6303
 3853SOL    HW123195   4.551   0.613   3.376 -1.3467  0.2386  0.6585
 3853SOL    HW223196   4.486   0.504   3.459 -0.9530 -2.1924 -1.4542
 3854SOL     OW23197   0.200   2.943   6.976 -0.6840 -0.7088 -0.3896
 3854SOL    HW123198   0.271   2.985   6.928 -0.4388 -0.8017 -0.1088
 3854SOL    HW223199   0.222   2.853   6.950 -0.1915 -0.3507 -1.2072
 3855SOL     OW23200   2.371   0.758   7.989  0.2248 -0.0891 -0.4185
 3855SOL    HW123201   2.363   0.854   7.994  3.7319  0.2260 -0.9763
 3855SOL    HW223202   2.414   0.744   7.905  0.4027 -2.2913  0.0583
 3856SOL     OW23203   0.116   0.131   8.616 -0.1637  0.3286 -0.3375
 3856SOL    HW123204   0.206   0.145   8.585  1.2266 -0.0541  3.4501
 3856SOL    HW223205   0.122   0.112   8.710  1.0329 -1.8972 -0.8732
 3857SOL     OW23206   3.464   1.416   5.963  0.1327  0.4388  0.3886
 3857SOL    HW123207   3.553   1.429   5.931  0.6470 -2.1524  0.8156
 3857SOL    HW223208   3.483   1.390   6.054 -2.8924 -0.5461  0.7166
 3858SOL     OW23209   2.960   1.206   2.562  0.0332 -0.1143 -0.1477
 3858SOL    HW123210   2.987   1.149   2.634  1.5420  1.0669  0.2072
 3858SOL    HW223211   2.939   1.285   2.612  0.1297 -0.9115  1.1409
 3859SOL     OW23212   0.257   3.424  13.588  0.1057 -0.1032  0.4398
 3859SOL    HW123213   0.219   3.340  13.614 -1.4135  1.0410  1.8552
 3859SOL    HW223214   0.242   3.474  13.667 -0.7919  0.5974 -0.1812
 3860SOL     OW23215   2.424   2.801  11.540  0.2687  0.2498 -0.0053
 3860SOL    HW123216   2.487   2.745  11.585  0.1206  0.3272  0.3040
 3860SOL    HW223217   2.463   2.802  11.453 -2.0099  1.4579 -1.0161
 3861SOL     OW23218   1.479   4.536   9.432  0.2534 -0.3883 -0.8561
 3861SOL    HW123219   1.574   4.536   9.421  0.3975  0.0689  0.3187
 3861SOL    HW223220   1.463   4.630   9.427  0.6330 -0.2236  0.8236
 3862SOL     OW23221   0.161   4.428   2.511 -0.3121  0.0593 -0.5431
 3862SOL    HW123222   0.132   4.377   2.435  1.8025 -1.2961 -0.4479
 3862SOL    HW223223   0.255   4.420   2.491 -0.0584 -2.2935  1.5878
 3863SOL     OW23224   1.252   1.823   7.387 -0.3314  0.6215 -0.4875
 3863SOL    HW123225   1.259   1.826   7.292  2.0655 -2.4362 -0.4035
 3863SOL    HW223226   1.171   1.776   7.405  0.7532 -1.4261 -0.9930
 3864SOL     OW23227   0.012   2.697   0.817  0.2979  0.1666  0.1838
 3864SOL    HW123228   0.091   2.739   0.851 -1.1855  0.4717  3.3094
 3864SOL    HW223229   0.020   2.613   0.862  1.9964 -0.5230 -1.4509
 3865SOL     OW23230   2.148   0.777  14.024  0.2993  0.5588 -0.0530
 3865SOL    HW123231   2.060   0.740  14.026  2.1655 -3.8476  0.9115
 3865SOL    HW223232   2.184   0.719  13.957  0.6102 -0.6043  1.1102
 3866SOL     OW23233   3.286   1.815   1.922  0.0383  0.3791  0.0739
 3866SOL    HW123234   3.268   1.790   2.013 -1.7214  1.5836  0.0583
 3866SOL    HW223235   3.308   1.729   1.886 -1.3932  0.1873 -0.3562
 3867SOL     OW23236   2.256   2.043  14.953 -0.0084 -0.2009 -0.4417
 3867SOL    HW123237   2.211   2.063  14.871 -3.9040 -0.6779  1.6177
 3867SOL    HW223238   2.183   2.001  14.999 -0.5408 -2.0824 -3.0398
 3868SOL     OW23239   4.461   1.040   7.926 -0.7102 -0.1714 -0.3912
 3868SOL    HW123240   4.481   0.949   7.949 -0.3825  0.4854  1.8710
 3868SOL    HW223241   4.385   1.019   7.872  0.3103 -1.7159 -1.2531
 3869SOL     OW23242   1.037   3.273   5.655 -0.1470 -0.2949 -0.3427
 3869SOL    HW123243   1.049   3.366   5.635 -1.4127  0.0255  0.3385
 3869SOL    HW223244   0.983   3.290   5.733 -2.4676 -2.4455 -1.4755
 3870SOL     OW23245   2.366   2.824  11.966  0.0280 -0.0282 -0.0821
 3870SOL    HW123246   2.431   2.794  11.903 -0.2904 -0.5907 -0.1435
 3870SOL    HW223247   2.331   2.739  11.991 -0.2961 -0.3286 -1.5385
 3871SOL     OW23248   0.261   0.783  17.724  0.1567 -0.2237  0.4598
 3871SOL    HW123249   0.188   0.743  17.676 -1.5641  1.7316  1.4768
 3871SOL    HW223250   0.212   0.855   0.027 -1.7108 -0.9563 -0.5258
 3872SOL     OW23251   2.525   2.594   2.872 -0.3397  0.3092  0.4564
 3872SOL    HW123252   2.436   2.618   2.899 -0.8123  0.2295 -1.0600
 3872SOL    HW223253   2.544   2.660   2.806  1.0010  0.6022  1.1406
 3873SOL     OW23254   3.017   0.739  11.798  0.5250  0.4716 -0.0945
 3873SOL    HW123255   2.954   0.787  11.745 -0.9815  0.4697  1.7059
 3873SOL    HW223256   2.995   0.776  11.883  0.6321 -0.5865  0.3908
 3874SOL     OW23257   1.703   1.368  14.657  0.0577 -0.0901  0.1478
 3874SOL    HW123258   1.687   1.457  14.626 -0.8288 -0.2822  0.0657
 3874SOL    HW223259   1.630   1.322  14.617 -1.0385  1.0515  0.8546
 3875SOL     OW23260   0.813   0.048  11.873  0.2709 -1.0538  0.1860
 3875SOL    HW123261   0.728   0.008  11.853  0.3075 -0.9480 -0.1825
 3875SOL    HW223262   0.820   0.120  11.810  0.6124 -1.5048 -0.2951
 3876SOL     OW23263   1.548   4.554  16.202  0.2136  0.1845  0.4064
 3876SOL    HW123264   1.491   4.517  16.135  1.2170 -0.2618 -0.1984
 3876SOL    HW223265   1.606   4.611  16.151 -0.0031 -0.5232 -0.6259
 3877SOL     OW23266   2.386   3.460  12.494  0.3239 -0.3964  0.4756
 3877SOL    HW123267   2.366   3.522  12.425  0.7459  0.4102  1.0782
 3877SOL    HW223268   2.378   3.378  12.446  0.8168 -1.3084  1.9412
 3878SOL     OW23269   3.644   0.841   0.854 -0.3987 -0.0222 -0.3012
 3878SOL    HW123270   3.638   0.754   0.895 -0.8667  1.0256  1.8528
 3878SOL    HW223271   3.681   0.825   0.767  2.0679  0.5133  0.6525
 3879SOL     OW23272   3.077   3.426   7.879  0.3445 -0.1338 -0.3253
 3879SOL    HW123273   3.010   3.485   7.914  1.1402  0.3542  0.3803
 3879SOL    HW223274   3.154   3.481   7.892  1.2041 -1.8310  1.8668
 3880SOL     OW23275   4.689   4.155   5.773 -0.0653  0.2270  0.7437
 3880SOL    HW123276   0.019   4.225   5.787  0.2388  0.0049  0.4504
 3880SOL    HW223277   4.697   4.141   5.678  1.4906 -2.2950  1.2559
 3881SOL     OW23278   0.972   3.887   5.133 -0.1085 -0.2797 -0.1962
 3881SOL    HW123279   0.902   3.952   5.126  0.9255  0.9617  1.2127
 3881SOL    HW223280   0.966   3.837   5.051 -1.6488 -0.0343 -0.2380
 3882SOL     OW23281   1.240   1.030   7.940 -0.4784 -0.2751  0.1655
 3882SOL    HW123282   1.175   1.100   7.949  0.9940  1.0673  0.2958
 3882SOL    HW223283   1.291   1.039   7.859  1.5426  0.5208  1.5328
 3883SOL     OW23284   1.664   3.180  10.182 -0.0958  0.0118  0.2346
 3883SOL    HW123285   1.593   3.117  10.175 -1.1128  1.0512  1.4094
 3883SOL    HW223286   1.639   3.233  10.106 -0.6463  0.0404  0.4425
 3884SOL     OW23287   3.374   2.826   9.630  0.3949 -0.1172  0.1143
 3884SOL    HW123288   3.316   2.833   9.706  0.7270  0.0744  0.3444
 3884SOL    HW223289   3.314   2.858   9.562 -1.1549 -1.4261  0.8416
 3885SOL     OW23290   2.063   3.435   5.271 -0.4193 -0.6600 -0.2101
 3885SOL    HW123291   2.008   3.513   5.269  0.9603  0.3095 -0.1825
 3885SOL    HW223292   2.121   3.452   5.196  0.8798 -0.7460  0.7880
 3886SOL     OW23293   1.344   4.486   3.573 -0.3099  0.3482  0.1802
 3886SOL    HW123294   1.269   4.454   3.623 -1.1181  0.9347 -0.6690
 3886SOL    HW223295   1.411   4.419   3.585  0.0597  0.2748 -2.4576
 3887SOL     OW23296   1.172   0.780   7.995  0.1257  0.1530  0.3689
 3887SOL    HW123297   1.228   0.856   7.977  0.4272 -0.7860 -2.6664
 3887SOL    HW223298   1.245   0.720   8.008 -0.5060 -0.7184 -0.1101
 3888SOL     OW23299   2.186   3.650   7.610  0.1500 -0.5676 -0.1570
 3888SOL    HW123300   2.122   3.721   7.606  1.8586  0.8770 -1.8657
 3888SOL    HW223301   2.240   3.679   7.683  0.5415 -1.3428 -0.1450
 3889SOL     OW23302   1.498   0.186   1.822 -0.1022  0.1505  0.0026
 3889SOL    HW123303   1.482   0.149   1.736 -0.8964 -0.5345  0.4525
 3889SOL    HW223304   1.592   0.169   1.827 -0.2954 -0.7457  0.5939
 3890SOL     OW23305   4.657   0.587   5.068 -0.0681  0.0439  0.1867
 3890SOL    HW123306   4.600   0.511   5.057  1.4152 -1.1363  0.5562
 3890SOL    HW223307   4.720   0.580   4.996 -0.1670  1.3447 -0.0216
 3891SOL     OW23308   1.752   0.621  10.649 -0.0235 -0.1437 -0.0448
 3891SOL    HW123309   1.831   0.592  10.694 -0.1962 -1.1658 -0.3940
 3891SOL    HW223310   1.684   0.562  10.682  1.4706 -1.5624  0.4554
 3892SOL     OW23311   0.106   1.799   3.860 -0.2796  0.4878 -0.4033
 3892SOL    HW123312   0.153   1.735   3.806  1.1012  1.2077 -0.0413
 3892SOL    HW223313   0.164   1.812   3.935 -0.7084 -0.4745  0.0952
 3893SOL     OW23314   3.662   3.305   4.106  0.1388 -0.1424  0.3419
 3893SOL    HW123315   3.689   3.216   4.083 -0.4527 -0.2545  0.0769
 3893SOL    HW223316   3.618   3.341   4.029 -1.1483 -3.8121 -0.6638
 3894SOL     OW23317   1.557   2.816   8.258  0.2844  0.6749 -0.1519
 3894SOL    HW123318   1.480   2.792   8.208 -0.5511 -0.5562  1.7044
 3894SOL    HW223319   1.628   2.754   8.239  0.0597  0.5081 -0.4368
 3895SOL     OW23320   3.785   3.555   4.042  0.4309 -0.2867 -0.1117
 3895SOL    HW123321   3.712   3.618   4.045  1.9464  1.4078  0.7622
 3895SOL    HW223322   3.756   3.478   4.090 -1.5957  0.4214 -0.1716
 3896SOL     OW23323   4.705   1.451   0.434  0.1541 -0.0102 -0.3565
 3896SOL    HW123324   4.624   1.498   0.453  1.0826  0.5603  2.1243
 3896SOL    HW223325   0.038   1.507   0.474 -0.2740  1.0207 -1.0846
 3897SOL     OW23326   3.590   3.965   5.718 -0.5130 -0.0174  0.0167
 3897SOL    HW123327   3.631   4.039   5.672 -0.6312 -0.1211 -0.2541
 3897SOL    HW223328   3.527   4.015   5.770 -0.4995  0.0670 -0.0471
 3898SOL     OW23329   1.129   2.846   1.802 -0.2302  0.0383 -0.1836
 3898SOL    HW123330   1.154   2.891   1.721 -0.3051  2.1375  0.9408
 3898SOL    HW223331   1.043   2.814   1.775 -1.1782  0.1075  2.7227
 3899SOL     OW23332   2.114   0.713  13.431  0.3857 -0.0422 -0.7470
 3899SOL    HW123333   2.123   0.808  13.436 -3.2559  0.2781 -0.0920
 3899SOL    HW223334   2.066   0.695  13.511  1.8596 -1.2245 -0.1441
 3900SOL     OW23335   3.482   1.263  11.864 -0.3574  0.5702 -0.2648
 3900SOL    HW123336   3.535   1.219  11.797 -3.8828 -0.5678 -2.2782
 3900SOL    HW223337   3.518   1.221  11.942 -1.6636 -0.0651 -0.0134
 3901SOL     OW23338   4.637   1.633   8.851 -0.2257 -0.1518  0.5997
 3901SOL    HW123339   4.641   1.681   8.933  0.8346 -2.9904  2.2092
 3901SOL    HW223340   4.620   1.542   8.877  0.1504 -0.3677  0.0961
 3902SOL     OW23341   3.930   1.154   2.437 -0.3571 -0.0715 -0.4659
 3902SOL    HW123342   3.906   1.113   2.521  1.0127 -1.8934 -0.9760
 3902SOL    HW223343   3.886   1.100   2.372  0.2607  0.1215 -1.0378
 3903SOL     OW23344   2.217   2.746   7.123  0.3956 -0.0996 -0.3770
 3903SOL    HW123345   2.217   2.841   7.137 -0.4778  0.1089 -1.8414
 3903SOL    HW223346   2.156   2.739   7.050 -1.3241 -1.4917  1.1906
 3904SOL     OW23347   2.259   1.514   9.362 -0.2731 -0.0793  0.1984
 3904SOL    HW123348   2.298   1.567   9.293 -0.4062 -1.5034 -0.9733
 3904SOL    HW223349   2.167   1.517   9.335 -0.6379 -2.4114  1.2094
 3905SOL     OW23350   4.697   3.475   4.255  0.4189 -0.5141 -0.2039
 3905SOL    HW123351   0.030   3.490   4.189 -0.4830  1.3308 -0.7093
 3905SOL    HW223352   4.637   3.546   4.230  2.3867  1.5879  1.0356
 3906SOL     OW23353   1.779   1.449   2.688  0.4080 -0.0110  0.1815
 3906SOL    HW123354   1.834   1.436   2.612 -0.8048 -0.1717 -0.6731
 3906SOL    HW223355   1.735   1.532   2.667  0.1516  0.0574  0.9714
 3907SOL     OW23356   2.130   1.812  12.632  0.1894  0.0437 -0.7577
 3907SOL    HW123357   2.042   1.809  12.595 -0.3164 -2.9181  0.6708
 3907SOL    HW223358   2.104   1.796  12.723  1.6242 -0.6451 -0.4833
 3908SOL     OW23359   0.896   0.760   3.732 -0.1362  0.0904 -0.4583
 3908SOL    HW123360   0.932   0.838   3.691  2.5652 -0.3921  1.0011
 3908SOL    HW223361   0.811   0.784   3.769 -1.1953 -2.1632 -1.3930
 3909SOL     OW23362   2.793   1.491   1.115 -0.3391  0.0913  0.2510
 3909SOL    HW123363   2.849   1.503   1.191  1.4465  0.0532 -1.0563
 3909SOL    HW223364   2.828   1.558   1.057 -0.4916 -1.5695 -1.7786
 3910SOL     OW23365   4.037   1.645   8.227  0.0997  0.2289  0.1629
 3910SOL    HW123366   4.122   1.675   8.258  2.0013 -1.6674 -3.2425
 3910SOL    HW223367   4.063   1.593   8.151  1.0459  0.4538  0.3301
 3911SOL     OW23368   4.273   4.615   1.188 -0.5255  0.2077 -0.1499
 3911SOL    HW123369   4.182   4.636   1.207 -0.3934  2.6611 -2.2412
 3911SOL    HW223370   4.309   4.626   1.276 -0.3057  0.2992 -0.2512
 3912SOL     OW23371   2.374   1.203   9.759  0.5877 -0.0874  0.2245
 3912SOL    HW123372   2.422   1.182   9.839  2.6230 -0.7599 -1.1505
 3912SOL    HW223373   2.427   1.274   9.722 -1.3503  2.4156  2.3075
 3913SOL     OW23374   2.606   4.529  14.935 -0.1432  0.2344  0.4869
 3913SOL    HW123375   2.609   4.612  14.984  1.0528  0.1447  0.5604
 3913SOL    HW223376   2.573   4.563  14.852 -1.4044 -1.7050  0.2176
 3914SOL     OW23377   4.538   4.162   1.700 -0.1511 -0.2183 -0.2880
 3914SOL    HW123378   4.469   4.227   1.686 -1.0059 -1.0598  0.0747
 3914SOL    HW223379   4.602   4.209   1.753  0.7950 -0.0482 -1.5739
 3915SOL     OW23380   3.473   1.490   1.062  0.3254  0.3527  0.2394
 3915SOL    HW123381   3.543   1.523   1.005 -0.1899  3.3580  1.3034
 3915SOL    HW223382   3.524   1.476   1.141  1.4663 -0.1114 -0.5873
 3916SOL     OW23383   2.548   1.130   5.256  0.4972 -0.4812 -0.2930
 3916SOL    HW123384   2.542   1.040   5.223  0.7667 -0.1098 -1.3450
 3916SOL    HW223385   2.642   1.145   5.266  0.5272 -1.4500  0.8690
 3917SOL     OW23386   2.279   0.735  13.702  0.2659  0.0469  0.1251
 3917SOL    HW123387   2.305   0.676  13.774  1.1470 -0.0028 -0.2316
 3917SOL    HW223388   2.190   0.701  13.692  0.8901 -2.0034  1.6360
 3918SOL     OW23389   4.371   1.392   4.812  0.0503  0.0851 -0.0114
 3918SOL    HW123390   4.275   1.392   4.811  0.0440 -0.1066  0.6915
 3918SOL    HW223391   4.396   1.436   4.731 -1.1536 -0.8260 -0.8842
 3919SOL     OW23392   1.287   2.099   5.853 -0.6913 -0.3336  0.2677
 3919SOL    HW123393   1.377   2.091   5.821 -1.5864 -0.8006 -2.1179
 3919SOL    HW223394   1.249   2.150   5.782  1.8478 -0.8128 -1.4318
 3920SOL     OW23395   3.680   2.445   4.394 -0.0583  0.3703 -0.3153
 3920SOL    HW123396   3.656   2.474   4.306 -2.8498  0.6087  0.5209
 3920SOL    HW223397   3.773   2.428   4.382  0.3117  1.2553  1.4031
 3921SOL     OW23398   0.824   1.311  10.438  0.5662  0.0033 -0.1588
 3921SOL    HW123399   0.799   1.231  10.483 -1.9277  1.5654  1.2722
 3921SOL    HW223400   0.789   1.286  10.353 -0.8876 -1.3094  0.8395
 3922SOL     OW23401   0.318   2.719   0.681 -0.1768  0.2809  0.2745
 3922SOL    HW123402   0.357   2.707   0.594 -1.2173  0.1419 -0.1691
 3922SOL    HW223403   0.268   2.639   0.695  1.8133 -1.0033  0.0059
 3923SOL     OW23404   1.661   4.244  17.600 -0.1722 -0.5293 -0.0023
 3923SOL    HW123405   1.597   4.194  17.550  0.6026 -1.1417 -0.3825
 3923SOL    HW223406   1.735   4.237  17.540 -1.1790 -0.4523 -1.2467
 3924SOL     OW23407   3.765   1.637  16.291 -0.1418 -0.5535  0.9375
 3924SOL    HW123408   3.761   1.556  16.342  2.3666 -0.7275  0.8793
 3924SOL    HW223409   3.679   1.674  16.311 -1.0251 -2.9474  1.5177
 3925SOL     OW23410   1.750   0.087   5.965 -0.3133  0.1510  0.0055
 3925SOL    HW123411   1.743   0.163   6.023  3.3857  0.7687 -0.3448
 3925SOL    HW223412   1.808   0.043   6.027 -1.9644 -1.9253  0.0772
 3926SOL     OW23413   0.468   0.809   5.195 -0.2251 -0.7955  0.6737
 3926SOL    HW123414   0.412   0.754   5.140  0.4137 -0.2051 -0.5576
 3926SOL    HW223415   0.541   0.834   5.138 -1.3560 -0.0733 -0.4740
 3927SOL     OW23416   4.691   2.922   2.298  0.1384  0.2436  0.9873
 3927SOL    HW123417   4.721   2.962   2.380 -0.6215  0.8428  0.9818
 3927SOL    HW223418   4.680   3.000   2.244 -2.1587  0.1887  1.3531
 3928SOL     OW23419   2.028   4.259   1.671  0.1864 -0.4672 -0.6298
 3928SOL    HW123420   2.036   4.349   1.703  0.4363 -1.0886  1.0387
 3928SOL    HW223421   1.959   4.221   1.725  1.2879  1.3032  2.0656
 3929SOL     OW23422   2.445   1.645  12.604 -0.2132  0.0929 -0.3940
 3929SOL    HW123423   2.483   1.717  12.554 -0.5128  2.0009  2.0970
 3929SOL    HW223424   2.358   1.681  12.618  0.6003  2.0519 -0.4464
 3930SOL     OW23425   4.165   2.816  16.746  0.5277  0.1223  0.0283
 3930SOL    HW123426   4.222   2.887  16.716 -1.4906  1.3992 -0.8540
 3930SOL    HW223427   4.076   2.852  16.749  0.5554  0.1617  0.4416
 3931SOL     OW23428   1.068   1.004   5.604  0.2807  0.3092 -0.6623
 3931SOL    HW123429   1.038   0.970   5.688 -2.1906  0.1369 -1.6339
 3931SOL    HW223430   1.042   1.096   5.609 -0.4414 -0.0125  1.2949
 3932SOL     OW23431   0.497   3.990  17.054  0.2042 -0.2032  0.1876
 3932SOL    HW123432   0.445   4.004  17.133  1.0166  1.1208  0.4696
 3932SOL    HW223433   0.436   4.028  16.991 -1.1489 -0.0075  1.6326
 3933SOL     OW23434   1.298   3.426   8.164 -0.3072  0.5936 -0.2895
 3933SOL    HW123435   1.237   3.461   8.230 -0.4543  1.1731 -0.7259
 3933SOL    HW223436   1.249   3.372   8.102  0.4878 -0.5126  0.0440
 3934SOL     OW23437   3.575   0.468   5.167  0.2624 -0.2235  0.4132
 3934SOL    HW123438   3.611   0.430   5.087  2.5947  0.2071  1.2445
 3934SOL    HW223439   3.504   0.404   5.170 -1.0666  1.2598  0.5169
 3935SOL     OW23440   1.905   2.892   7.248 -0.7959 -0.1940  0.3867
 3935SOL    HW123441   1.817   2.877   7.281 -1.0562  1.5189  0.4953
 3935SOL    HW223442   1.960   2.879   7.326  0.2918  0.7384 -0.2262
 3936SOL     OW23443   3.066   0.454   5.088  0.1019 -0.3990 -0.0490
 3936SOL    HW123444   3.058   0.499   5.172 -0.6653  0.3102 -0.4863
 3936SOL    HW223445   3.160   0.438   5.090  0.2937  0.8252  1.3453
 3937SOL     OW23446   1.360   1.204   3.095  0.2116  0.7153 -0.1619
 3937SOL    HW123447   1.437   1.251   3.061 -0.8044  0.7156 -2.4937
 3937SOL    HW223448   1.344   1.260   3.171 -0.6708  0.6758 -0.3159
 3938SOL     OW23449   0.883   0.223   7.624  0.2787  0.0684  0.0955
 3938SOL    HW123450   0.849   0.312   7.636 -0.2248 -0.2703  1.1717
 3938SOL    HW223451   0.842   0.175   7.695  1.6509  0.5020  1.1676
 3939SOL     OW23452   3.474   3.618   3.460  0.8122  0.1045  0.8004
 3939SOL    HW123453   3.419   3.692   3.486 -0.4490 -0.2820 -0.8031
 3939SOL    HW223454   3.549   3.624   3.520 -0.3954  1.5278  2.1650
 3940SOL     OW23455   0.464   1.785   6.140  0.4071 -0.4424  0.0902
 3940SOL    HW123456   0.487   1.856   6.200  3.7810 -0.2574 -1.4525
 3940SOL    HW223457   0.525   1.788   6.067 -0.5516 -0.3734 -0.7105
 3941SOL     OW23458   4.530   3.814   3.198  0.1390  0.2518 -0.3280
 3941SOL    HW123459   4.506   3.722   3.191 -0.5276  0.3841  0.2327
 3941SOL    HW223460   4.529   3.839   3.106  0.4826  0.2171 -0.3417
 3942SOL     OW23461   3.736   1.177  16.234  0.1880 -0.0438 -0.8837
 3942SOL    HW123462   3.696   1.253  16.277 -0.9797  0.7190 -3.3367
 3942SOL    HW223463   3.783   1.223  16.164 -0.8671  0.4634 -1.2571
 3943SOL     OW23464   0.886   0.093   2.685  0.2095  0.3622  0.3240
 3943SOL    HW123465   0.813   0.145   2.652  0.3548 -0.1050 -0.7128
 3943SOL    HW223466   0.882   0.104   2.780 -1.1736 -2.3368  0.5820
 3944SOL     OW23467   1.479   4.151  14.451 -0.0211  0.8402  0.0211
 3944SOL    HW123468   1.430   4.150  14.369 -1.9897  3.2855  1.1997
 3944SOL    HW223469   1.510   4.061  14.462  0.0872  1.0703  1.5138
 3945SOL     OW23470   4.197   4.042  12.012 -0.0300  0.0518 -0.1599
 3945SOL    HW123471   4.232   4.025  11.925  0.8850  0.3724  0.1482
 3945SOL    HW223472   4.159   4.127  11.989  0.0058  0.0024 -0.3996
 3946SOL     OW23473   1.608   2.599   2.365 -0.0260 -0.6407  0.2002
 3946SOL    HW123474   1.559   2.546   2.301  1.2532  0.3152 -1.5940
 3946SOL    HW223475   1.675   2.543   2.403  0.6706  0.4010  0.5033
 3947SOL     OW23476   0.208   4.269   9.832 -0.1425  0.1711  0.4425
 3947SOL    HW123477   0.178   4.354   9.865 -1.3504 -0.3790  0.7421
 3947SOL    HW223478   0.293   4.295   9.796  1.1320 -1.3808  2.2950
 3948SOL     OW23479   0.123   3.545   4.052  0.6069 -0.2604 -0.2105
 3948SOL    HW123480   0.163   3.468   4.011 -0.2117 -1.6184  1.5168
 3948SOL    HW223481   0.102   3.595   3.974 -1.3424 -2.1739 -0.9042
 3949SOL     OW23482   2.885   2.035  17.582  0.6903  0.0949 -0.3119
 3949SOL    HW123483   2.857   2.123  17.556  0.2734 -0.3791 -1.4786
 3949SOL    HW223484   2.980   2.032  17.594  0.3283 -0.4604  2.3969
 3950SOL     OW23485   4.333   1.324   5.081  0.3022 -0.4073 -0.3402
 3950SOL    HW123486   4.355   1.362   4.995 -1.0148 -2.9740 -1.7968
 3950SOL    HW223487   4.278   1.392   5.118  0.1985  0.1836 -1.5741
 3951SOL     OW23488   1.235   1.711   3.632 -0.4255  0.0689  0.1850
 3951SOL    HW123489   1.245   1.618   3.613 -1.9355  0.0427 -0.5347
 3951SOL    HW223490   1.323   1.730   3.664 -0.2892 -3.2746  1.6953
 3952SOL     OW23491   0.005   2.791  15.172  0.2927 -0.2956  0.1349
 3952SOL    HW123492   4.666   2.849  15.151 -0.3944 -1.4456 -0.6713
 3952SOL    HW223493   4.697   2.705  15.173  0.6983 -0.5208 -2.3772
 3953SOL     OW23494   3.846   2.808   3.864  0.3490 -0.4713  0.2141
 3953SOL    HW123495   3.939   2.816   3.885  0.7862 -1.3703 -1.3136
 3953SOL    HW223496   3.857   2.738   3.799  0.0971 -2.2387  2.0701
 3954SOL     OW23497   0.854   1.942   6.528  0.0819  0.3531 -0.1170
 3954SOL    HW123498   0.792   1.870   6.523  1.7974 -0.9126 -2.6647
 3954SOL    HW223499   0.914   1.926   6.455 -0.3124  1.3503 -0.6498
 3955SOL     OW23500   0.755   4.598   2.925 -0.3727  0.1764  0.0270
 3955SOL    HW123501   0.809   4.633   2.995  1.4295 -0.9882 -0.7807
 3955SOL    HW223502   0.796   4.647   2.855  1.2796 -0.4432  0.5664
 3956SOL     OW23503   1.916   2.837   6.972 -0.3800 -0.0132 -0.6605
 3956SOL    HW123504   1.843   2.780   6.997  0.7508 -1.4352 -0.5960
 3956SOL    HW223505   1.950   2.871   7.055  0.1876 -2.9170  0.3034
 3957SOL     OW23506   4.372   0.533   7.551 -0.3031  0.7217 -0.4077
 3957SOL    HW123507   4.373   0.509   7.459  1.7420  2.3738 -0.8240
 3957SOL    HW223508   4.305   0.472   7.582  0.0106 -0.7025 -2.5713
 3958SOL     OW23509   1.334   4.323   4.707  0.2587 -0.2245 -0.1035
 3958SOL    HW123510   1.245   4.338   4.675  0.5203  0.5159 -0.4700
 3958SOL    HW223511   1.392   4.378   4.656  0.5092 -0.0042  0.4142
 3959SOL     OW23512   0.638   0.093   2.915 -0.1119  0.5555  0.5004
 3959SOL    HW123513   0.630   4.733   2.929  0.3228  0.6865  1.6956
 3959SOL    HW223514   0.657   0.115   3.007 -1.2846 -1.5424  1.2563
 3960SOL     OW23515   3.853   0.638   4.988 -0.6558  0.5797  0.0387
 3960SOL    HW123516   3.796   0.666   5.060 -0.2010 -0.7590  0.9056
 3960SOL    HW223517   3.814   0.554   4.964  1.1231 -0.3212  0.3337
 3961SOL     OW23518   2.822   3.469   0.495  0.5066 -0.9745  0.4683
 3961SOL    HW123519   2.812   3.564   0.483  1.0459 -0.7857  1.5762
 3961SOL    HW223520   2.809   3.431   0.408  3.8258 -0.3350 -0.3077
 3962SOL     OW23521   1.468   4.153   2.438 -0.8801 -0.3414  0.3527
 3962SOL    HW123522   1.456   4.217   2.368 -0.0900 -0.7988 -0.2060
 3962SOL    HW223523   1.563   4.160   2.451 -1.0361  1.5184  0.3824
 3963SOL     OW23524   2.363   2.732   3.876 -0.5046 -0.1669  0.0937
 3963SOL    HW123525   2.455   2.730   3.847 -1.4498  2.9051 -3.1406
 3963SOL    HW223526   2.315   2.698   3.801  2.4603 -0.7720 -1.5391
 3964SOL     OW23527   3.634   2.564   5.966  0.2573  0.0364  0.1062
 3964SOL    HW123528   3.709   2.511   5.939  1.1550  2.4973 -2.2720
 3964SOL    HW223529   3.668   2.614   6.040 -0.3947  1.2905 -0.4443
 3965SOL     OW23530   4.463   2.121  12.494 -0.2524 -0.1334  0.1660
 3965SOL    HW123531   4.421   2.035  12.491 -0.1147 -0.1145 -1.8532
 3965SOL    HW223532   4.403   2.179  12.448  0.2330  0.3246  0.1159
 3966SOL     OW23533   0.534   4.615   5.021  0.1831  0.3182  0.1768
 3966SOL    HW123534   0.533   4.624   4.926 -0.5879  0.9778  0.2502
 3966SOL    HW223535   0.456   4.667   5.039 -0.4380  0.1039 -1.9736
 3967SOL     OW23536   1.019   0.328   8.731  0.1628  0.3695 -0.1908
 3967SOL    HW123537   1.111   0.314   8.752 -0.2362 -2.1372 -0.1911
 3967SOL    HW223538   0.994   0.242   8.764  0.2995  0.3373 -0.1698
 3968SOL     OW23539   0.689   1.944   2.582  0.2998  0.4187 -0.1031
 3968SOL    HW123540   0.606   1.955   2.536  0.6726  0.2674 -0.8103
 3968SOL    HW223541   0.657   1.865   2.624  2.5860 -0.8032 -0.6785
 3969SOL     OW23542   3.816   1.288  12.445  0.0470 -0.0966 -0.2520
 3969SOL    HW123543   3.823   1.221  12.513 -0.2711  0.4323  0.3056
 3969SOL    HW223544   3.731   1.329  12.458 -0.9470 -1.9633 -0.8962
 3970SOL     OW23545   3.861   0.128   6.167  0.6416  0.0665 -0.0830
 3970SOL    HW123546   3.785   0.169   6.209 -2.0312 -3.2896 -1.5418
 3970SOL    HW223547   3.895   0.074   6.238 -0.6359  0.3550  0.7455
 3971SOL     OW23548   0.469   4.376   7.940  0.5156 -0.6472  0.5400
 3971SOL    HW123549   0.427   4.441   7.996  0.5119  0.5504 -0.8467
 3971SOL    HW223550   0.503   4.436   7.873 -1.2820 -0.4422 -0.1877
 3972SOL     OW23551   3.793   1.302   5.631  0.4937  0.6619 -0.5833
 3972SOL    HW123552   3.802   1.386   5.586  1.8785  1.4728  1.2379
 3972SOL    HW223553   3.708   1.271   5.600 -0.3560  0.2687  2.1402
 3973SOL     OW23554   4.219   4.570   8.918 -0.4912  0.2850  0.3975
 3973SOL    HW123555   4.195   4.498   8.860  0.5376  0.0036  0.3205
 3973SOL    HW223556   4.277   4.620   8.860 -1.7136  0.3784 -0.7671
 3974SOL     OW23557   0.504   0.085   7.303 -0.2575  0.0614  0.3792
 3974SOL    HW123558   0.413   0.103   7.325 -0.1836 -0.5570  1.1727
 3974SOL    HW223559   0.546   0.074   7.388 -1.3708 -2.4790  0.5943
 3975SOL     OW23560   0.179   2.355  11.517 -0.0850 -0.4009  0.3609
 3975SOL    HW123561   0.197   2.271  11.559  1.0429 -0.1461  0.3955
 3975SOL    HW223562   0.171   2.329  11.425  1.1284 -2.3719  0.8050
 3976SOL     OW23563   2.349   3.704   9.725  0.5510  0.0489 -0.5962
 3976SOL    HW123564   2.434   3.724   9.766  1.0230 -1.8992 -0.6044
 3976SOL    HW223565   2.298   3.693   9.805 -0.0011 -1.1573 -1.1129
 3977SOL     OW23566   2.758   0.128   5.908  0.7757  0.6469  0.1413
 3977SOL    HW123567   2.706   0.078   5.845 -0.2796  1.4665  0.3627
 3977SOL    HW223568   2.811   0.178   5.845 -0.4587 -0.5089 -1.8172
 3978SOL     OW23569   0.041   1.904   9.005  0.0467  0.2293 -0.1739
 3978SOL    HW123570   4.729   1.960   8.942 -0.8017  0.8879  1.0217
 3978SOL    HW223571   4.702   1.852   9.040 -1.3083  0.6183 -2.4339
 3979SOL     OW23572   2.658   2.575   3.565 -0.0922  0.4409 -0.6399
 3979SOL    HW123573   2.612   2.550   3.645  2.1387 -2.3574 -0.2232
 3979SOL    HW223574   2.742   2.610   3.596  0.6749 -1.2131 -0.8642
 3980SOL     OW23575   2.126   0.383   2.848  0.4071 -0.1888 -0.7951
 3980SOL    HW123576   2.127   0.380   2.752 -2.4911 -1.4028 -0.8044
 3980SOL    HW223577   2.034   0.356   2.853  0.1293  0.7160 -1.0980
 3981SOL     OW23578   0.842   3.294   8.020  0.9450 -0.1043 -0.4982
 3981SOL    HW123579   0.926   3.296   7.975  0.7052 -0.6529 -0.9882
 3981SOL    HW223580   0.809   3.377   7.986 -0.9776 -0.3592  0.7063
 3982SOL     OW23581   3.224   4.678   3.424  0.6642  0.0317  0.1273
 3982SOL    HW123582   3.179   0.027   3.443 -0.8110 -0.4145 -1.4396
 3982SOL    HW223583   3.249   4.638   3.508 -1.6197 -1.3723  0.1462
 3983SOL     OW23584   3.570   1.671   2.347  0.4529  0.1562 -0.0554
 3983SOL    HW123585   3.631   1.598   2.355 -0.0843 -0.5125 -1.9837
 3983SOL    HW223586   3.587   1.730   2.420 -0.0805 -0.1168  0.2926
 3984SOL     OW23587   4.549   2.285   7.173  0.2040 -0.0122  0.3700
 3984SOL    HW123588   4.591   2.367   7.199  1.2443 -0.8652  1.3728
 3984SOL    HW223589   4.627   2.239   7.139 -0.4169 -1.1063  0.4406
 3985SOL     OW23590   4.193   3.250   9.744  0.0016  0.4518 -0.0195
 3985SOL    HW123591   4.278   3.219   9.774 -0.0076  1.5974  1.1944
 3985SOL    HW223592   4.146   3.167   9.758 -2.8630  2.4535  2.1725
 3986SOL     OW23593   1.378   0.681   2.851 -0.2991 -0.3656  0.4324
 3986SOL    HW123594   1.319   0.618   2.808 -1.8736  0.9148  0.7567
 3986SOL    HW223595   1.362   0.761   2.801  1.4522 -0.4489 -0.2645
 3987SOL     OW23596   2.609   3.846   1.898 -0.6051  0.4613  0.1155
 3987SOL    HW123597   2.613   3.867   1.991  0.3771  2.2894 -0.3349
 3987SOL    HW223598   2.515   3.855   1.882 -1.1685 -2.0648  2.0146
 3988SOL     OW23599   2.054   3.291   8.218  0.2002  0.1423  0.0190
 3988SOL    HW123600   1.972   3.319   8.258 -0.1061 -2.4146  1.1303
 3988SOL    HW223601   2.027   3.262   8.131 -1.8853 -1.5720  1.2526
 3989SOL     OW23602   3.170   2.308   4.870  0.3721 -0.2378 -0.2112
 3989SOL    HW123603   3.098   2.335   4.813 -0.9271 -0.7439  1.1912
 3989SOL    HW223604   3.170   2.214   4.851 -0.2705 -0.1622 -0.5639
 3990SOL     OW23605   0.735   2.240   9.799  0.8520 -0.1664  0.0256
 3990SOL    HW123606   0.794   2.278   9.863  0.3172  1.2136 -0.3029
 3990SOL    HW223607   0.664   2.214   9.858  0.7548 -0.3999 -0.1926
 3991SOL     OW23608   3.203   1.931   1.458 -0.2512 -0.0543 -0.2021
 3991SOL    HW123609   3.275   1.868   1.470 -0.2710 -0.2920 -1.3547
 3991SOL    HW223610   3.127   1.875   1.444 -1.4997  2.0399 -1.7971
 3992SOL     OW23611   1.320   1.749   6.617 -0.0226 -0.1228 -0.4809
 3992SOL    HW123612   1.308   1.728   6.524 -1.4573 -0.9776 -0.0899
 3992SOL    HW223613   1.232   1.768   6.648 -0.1617 -0.3503 -0.7337
 3993SOL     OW23614   4.676   1.848  14.282  0.1883 -0.2258 -0.1594
 3993SOL    HW123615   4.639   1.781  14.340 -0.1240  1.2249  1.3304
 3993SOL    HW223616   0.028   1.863  14.321 -0.6095  0.7156  1.2261
 3994SOL     OW23617   0.900   4.610   2.137 -0.6392  0.5645  0.1942
 3994SOL    HW123618   0.901   4.545   2.207 -0.7736  0.1792 -0.1630
 3994SOL    HW223619   0.877   4.692   2.180 -2.5348  0.2221 -0.1871
 3995SOL     OW23620   0.328   3.948   5.205 -0.4508 -0.5626 -0.2906
 3995SOL    HW123621   0.356   4.009   5.272  0.5880 -1.2629 -0.0921
 3995SOL    HW223622   0.379   3.982   5.131  0.2629 -1.5433 -0.2578
 3996SOL     OW23623   3.133   2.886   7.011  0.0485 -0.1483 -0.5718
 3996SOL    HW123624   3.168   2.943   6.943  2.9524  0.2011  1.2172
 3996SOL    HW223625   3.166   2.933   7.088 -1.8606 -0.4698  0.4417
 3997SOL     OW23626   4.548   0.419   4.703 -0.0798  0.1518  0.0766
 3997SOL    HW123627   4.539   0.338   4.753 -1.6632  0.9156  1.0177
 3997SOL    HW223628   4.479   0.395   4.642 -0.7839 -0.0001  0.9487
 3998SOL     OW23629   4.533   1.783   9.083  0.1234  0.4671  0.5038
 3998SOL    HW123630   4.543   1.830   9.165 -0.1315  0.7556  0.3706
 3998SOL    HW223631   4.438   1.770   9.085  0.0890  0.5224 -1.0092
 3999SOL     OW23632   0.372   2.341   0.195 -0.1530  0.0816 -0.0404
 3999SOL    HW123633   0.378   2.336   0.100 -1.0863  0.5309 -0.1227
 3999SOL    HW223634   0.449   2.397   0.197  0.6828 -1.1033  0.5027
 4000SOL     OW23635   4.199   3.601   3.682 -0.1093 -0.1631  0.0377
 4000SOL    HW123636   4.115   3.558   3.699  0.4691 -1.4530 -0.3042
 4000SOL    HW223637   4.176   3.690   3.705  3.2989  0.8217 -0.3507
 4001SOL     OW23638   1.231   0.528  10.224  0.0417  0.3744  0.3662
 4001SOL    HW123639   1.324   0.509  10.218 -0.0828 -0.4608  1.1073
 4001SOL    HW223640   1.224   0.566  10.311 -2.2524  1.8908 -0.4592
 4002SOL     OW23641   1.359   0.513   9.942 -0.8568 -0.0120 -0.2489
 4002SOL    HW123642   1.303   0.574   9.893  1.9242  0.5337 -2.7571
 4002SOL    HW223643   1.347   0.539  10.033  2.0549  1.4300 -0.2609
 4003SOL     OW23644   0.776   2.751   8.833 -0.2017 -0.2357  0.1821
 4003SOL    HW123645   0.746   2.662   8.851 -2.8485  0.3970 -1.0339
 4003SOL    HW223646   0.843   2.736   8.767  1.2975 -1.4425  2.0058
 4004SOL     OW23647   4.713   1.984   4.232  0.2368  0.0854  0.1235
 4004SOL    HW123648   4.676   2.038   4.162  2.4137  0.3124 -0.8504
 4004SOL    HW223649   4.691   2.038   4.308  0.8325  2.2217 -1.2215
 4005SOL     OW23650   3.624   0.316   7.224  0.6744  0.3958 -0.4787
 4005SOL    HW123651   3.689   0.385   7.214 -0.6517  1.9196  1.3047
 4005SOL    HW223652   3.640   0.311   7.319  1.7114  1.9920 -0.5784
 4006SOL     OW23653   1.347   2.397   4.921  0.2332 -0.3247 -0.5024
 4006SOL    HW123654   1.278   2.433   4.866 -0.4436 -0.8691 -0.0117
 4006SOL    HW223655   1.391   2.474   4.958  0.0805 -1.4685  2.1087
 4007SOL     OW23656   2.382   0.658   2.218 -0.0574 -0.0599  0.0783
 4007SOL    HW123657   2.389   0.674   2.312 -0.3736 -0.4784  0.1740
 4007SOL    HW223658   2.319   0.585   2.215  1.3072 -1.1818 -1.2102
 4008SOL     OW23659   0.097   0.826   6.504  0.2928  0.0486  0.3215
 4008SOL    HW123660   0.076   0.817   6.411  3.0455 -1.4377 -0.1513
 4008SOL    HW223661   0.172   0.767   6.507 -2.0818 -3.0243 -0.5595
 4009SOL     OW23662   3.665   3.876  11.049  0.3572 -0.2675 -1.1437
 4009SOL    HW123663   3.697   3.853  11.136 -1.6028 -0.4566 -0.4771
 4009SOL    HW223664   3.743   3.876  10.994  0.2907 -1.1481 -1.2416
 4010SOL     OW23665   0.336   1.118   0.720  0.1613 -0.0450  0.1509
 4010SOL    HW123666   0.279   1.072   0.657  0.3946  0.0523 -0.1321
 4010SOL    HW223667   0.315   1.073   0.802  1.6784  0.9671  1.0767
 4011SOL     OW23668   0.944   1.121   8.146  0.2420  0.0482 -0.2007
 4011SOL    HW123669   0.873   1.161   8.195  0.1180  0.4029 -0.6709
 4011SOL    HW223670   1.016   1.183   8.158 -0.1117  0.4268 -0.0477
 4012SOL     OW23671   0.239   1.730   9.993  0.4803  0.2964  0.2286
 4012SOL    HW123672   0.172   1.668  10.021  1.0459 -0.1834  0.5263
 4012SOL    HW223673   0.314   1.698  10.043  0.0681  2.6324  2.3108
 4013SOL     OW23674   1.128   0.724   2.983  0.1300 -0.1214 -0.7148
 4013SOL    HW123675   1.100   0.813   3.002 -0.5588 -0.3167 -0.8322
 4013SOL    HW223676   1.218   0.721   3.015 -0.6224 -1.4354  1.2319
 4014SOL     OW23677   2.902   4.060   4.509  0.1389 -0.3106  0.7147
 4014SOL    HW123678   2.998   4.065   4.502  0.0060  0.3257 -0.7715
 4014SOL    HW223679   2.899   4.147   4.550  0.7937  0.0634 -0.0046
 4015SOL     OW23680   0.388   1.231   6.541  0.0090  0.0952 -0.4004
 4015SOL    HW123681   0.473   1.188   6.547  0.5541  0.9705 -1.9035
 4015SOL    HW223682   0.376   1.252   6.633  2.1744 -2.8039  0.5519
 4016SOL     OW23683   1.485   4.360   2.772  0.4455  0.3539  0.0701
 4016SOL    HW123684   1.447   4.412   2.701  0.2931  0.4164  0.1995
 4016SOL    HW223685   1.559   4.414   2.798  0.7587 -0.1529  0.2253
 4017SOL     OW23686   1.612   3.234   2.838 -0.1034 -0.3840 -0.1331
 4017SOL    HW123687   1.654   3.229   2.752 -1.2244  0.6683 -0.7474
 4017SOL    HW223688   1.675   3.296   2.876 -1.3361  1.3887 -0.9742
 4018SOL     OW23689   1.863   0.328   7.518 -0.1896  0.7368 -0.3416
 4018SOL    HW123690   1.951   0.347   7.550 -0.2102  1.2018 -0.5605
 4018SOL    HW223691   1.878   0.307   7.425  0.2418  1.6887 -0.4802
 4019SOL     OW23692   2.481   2.906  10.063 -0.3039 -0.0063 -0.3137
 4019SOL    HW123693   2.465   2.817  10.094 -0.2605  1.0227  2.6221
 4019SOL    HW223694   2.397   2.941  10.094 -0.0704 -1.9817  2.5042
 4020SOL     OW23695   1.239   2.950   7.719 -0.0549 -0.3164  0.2569
 4020SOL    HW123696   1.238   2.960   7.624  0.5016  0.8179  0.3797
 4020SOL    HW223697   1.311   3.006   7.745 -0.8215  0.7215  0.1387
 4021SOL     OW23698   3.354   0.499   3.779  0.1299  0.7943  0.0661
 4021SOL    HW123699   3.437   0.541   3.755 -0.0536  1.2333  0.1891
 4021SOL    HW223700   3.294   0.573   3.792  3.1321  3.1056  0.8982
 4022SOL     OW23701   3.309   2.870   1.957  0.1702 -0.1579 -0.0977
 4022SOL    HW123702   3.346   2.813   2.025 -2.9863 -0.7621  1.1093
 4022SOL    HW223703   3.392   2.902   1.922 -1.4399  2.1156 -1.7827
 4023SOL     OW23704   0.351   4.429   0.446 -0.5655  0.1024 -0.1907
 4023SOL    HW123705   0.277   4.372   0.467  1.2841 -2.7664 -1.3777
 4023SOL    HW223706   0.420   4.363   0.458 -2.7454 -2.1564 -0.1893
 4024SOL     OW23707   0.937   1.216   1.526 -0.0039  0.4153  0.0332
 4024SOL    HW123708   0.943   1.264   1.608  1.3485 -0.3956  0.4002
 4024SOL    HW223709   0.992   1.264   1.464 -0.3196  0.9185  0.1433
 4025SOL     OW23710   1.573   2.884  14.305 -0.3432  0.4856  0.6145
 4025SOL    HW123711   1.594   2.808  14.360 -1.6705 -0.0117  0.4536
 4025SOL    HW223712   1.518   2.939  14.361 -1.2000  0.0789  0.1831
 4026SOL     OW23713   4.248   3.152   3.576  0.3977 -0.0599  0.7033
 4026SOL    HW123714   4.178   3.108   3.624 -0.4396  1.2470  0.6835
 4026SOL    HW223715   4.196   3.207   3.519  2.8458 -0.0191 -1.5120
 4027SOL     OW23716   0.007   4.495   3.348  0.5990 -0.4970  0.3710
 4027SOL    HW123717   0.033   4.406   3.326 -0.7718 -0.8521  0.2023
 4027SOL    HW223718   0.054   4.545   3.281 -1.3296 -1.2099 -1.4853
 4028SOL     OW23719   2.733   1.441  17.174  0.0267  0.4277  0.1873
 4028SOL    HW123720   2.746   1.481  17.088 -1.4915  0.4346 -0.0376
 4028SOL    HW223721   2.725   1.348  17.153 -0.8061  0.6897 -0.6538
 4029SOL     OW23722   1.601   4.350   3.619 -0.1286  0.1161  0.2261
 4029SOL    HW123723   1.619   4.334   3.526 -1.5262  1.0946 -0.2151
 4029SOL    HW223724   1.632   4.438   3.637 -0.3499  0.7728 -2.5614
 4030SOL     OW23725   3.400   1.815   1.185  0.7147 -0.1388 -0.7039
 4030SOL    HW123726   3.367   1.731   1.156  0.3634 -0.0006 -0.6982
 4030SOL    HW223727   3.361   1.885   1.133  2.7862  0.1598 -1.8487
 4031SOL     OW23728   4.616   0.670   3.746 -0.3841  0.0667  0.5316
 4031SOL    HW123729   4.554   0.604   3.713 -1.9618  1.0178  1.6207
 4031SOL    HW223730   4.608   0.664   3.841 -3.3143 -0.9384  0.1982
 4032SOL     OW23731   4.181   0.851   9.425 -0.1457  0.6249 -0.0438
 4032SOL    HW123732   4.259   0.795   9.422  0.8873  2.0655 -0.4897
 4032SOL    HW223733   4.119   0.785   9.456 -1.0992  2.1374  1.2809
 4033SOL     OW23734   4.009   1.577  15.795  0.1961 -0.7274  0.0933
 4033SOL    HW123735   4.021   1.491  15.837 -0.0773 -0.6975  0.2365
 4033SOL    HW223736   4.019   1.567  15.701 -2.1233 -4.1636  0.2036
 4034SOL     OW23737   1.009   1.005   3.648  0.0295 -0.1712 -0.0101
 4034SOL    HW123738   1.056   1.015   3.565  0.9347  1.8624  0.7460
 4034SOL    HW223739   1.081   1.015   3.710 -1.6418 -0.3998  1.9817
 4035SOL     OW23740   1.756   1.825   5.643 -0.5591 -0.1954 -0.1571
 4035SOL    HW123741   1.827   1.774   5.684 -0.0473  0.7324  0.1070
 4035SOL    HW223742   1.783   1.821   5.551 -1.0323 -0.2204 -0.2944
 4036SOL     OW23743   2.341   0.211   3.798  0.2187  0.2217  0.2109
 4036SOL    HW123744   2.261   0.173   3.763  0.8342 -0.6056 -0.3087
 4036SOL    HW223745   2.367   0.143   3.859  1.0263 -0.9686 -1.4460
 4037SOL     OW23746   2.957   0.719   5.045  0.3853 -0.6026 -0.0022
 4037SOL    HW123747   3.033   0.661   5.044  2.4986  2.1825 -0.2909
 4037SOL    HW223748   2.982   0.778   5.115  0.9414  1.6470 -2.1118
 4038SOL     OW23749   0.958   4.617   5.369 -0.3117  0.5555  0.0558
 4038SOL    HW123750   0.972   4.565   5.290 -0.6186 -1.3222  1.2424
 4038SOL    HW223751   1.031   4.673   5.344  2.2724 -1.7206  2.4860
 4039SOL     OW23752   2.546   3.302  16.892  0.4180  0.1356  0.6242
 4039SOL    HW123753   2.565   3.259  16.808 -1.1845  1.5220 -0.4563
 4039SOL    HW223754   2.451   3.306  16.899  0.4181 -0.5445  1.0222
 4040SOL     OW23755   4.010   2.490   5.883  0.2598  0.5186  0.0676
 4040SOL    HW123756   4.070   2.549   5.928  1.1933 -1.3700  1.3030
 4040SOL    HW223757   4.022   2.404   5.923  0.9565 -0.1272 -1.5185
 4041SOL     OW23758   0.035   0.646   8.362 -0.2577 -0.1917  0.2370
 4041SOL    HW123759   0.117   0.693   8.348 -0.2102  0.8713  4.2693
 4041SOL    HW223760   0.058   0.576   8.423 -0.9234  2.0115  2.9927
 4042SOL     OW23761   0.931   4.522   8.761 -0.5521  0.1734 -0.0810
 4042SOL    HW123762   1.003   4.520   8.698 -0.3527 -0.2250  0.1575
 4042SOL    HW223763   0.909   4.429   8.772  2.0576 -0.2493  1.5341
 4043SOL     OW23764   3.254   4.373   8.215  0.7148  0.5416 -0.3407
 4043SOL    HW123765   3.292   4.286   8.227  0.7595  0.2346 -2.5529
 4043SOL    HW223766   3.271   4.420   8.297 -0.4651  1.4939 -0.6331
 4044SOL     OW23767   2.757   3.819  16.236 -0.7148 -0.1597  0.5020
 4044SOL    HW123768   2.669   3.856  16.235 -0.1065  1.3102  1.9137
 4044SOL    HW223769   2.740   3.749  16.172  0.3607 -0.0903  0.1455
 4045SOL     OW23770   4.582   0.251  16.338  0.0496 -0.3396 -0.3858
 4045SOL    HW123771   4.502   0.287  16.374 -0.1583 -0.8140 -0.3746
 4045SOL    HW223772   4.557   0.160  16.356  0.0949 -0.2842 -0.0400
 4046SOL     OW23773   2.880   4.720   4.695  1.0899  0.6845 -0.0047
 4046SOL    HW123774   2.840   4.634   4.680  0.5089  0.7879  0.9190
 4046SOL    HW223775   2.804   0.042   4.681  0.6733  0.2622  0.5459
 4047SOL     OW23776   0.816   1.434  11.247 -0.3926  0.3354  0.5849
 4047SOL    HW123777   0.910   1.430  11.228 -0.3567 -0.2222  0.8692
 4047SOL    HW223778   0.815   1.497  11.318 -1.1606  2.8444 -1.6739
 4048SOL     OW23779   2.712   2.566   6.123 -0.0775 -0.4094  0.3627
 4048SOL    HW123780   2.799   2.534   6.143  0.0452 -0.7414 -0.7563
 4048SOL    HW223781   2.690   2.592   6.213 -0.2312 -2.1550  0.8318
 4049SOL     OW23782   0.025   1.534  11.771 -0.1575  0.2126 -0.3823
 4049SOL    HW123783   0.042   1.614  11.820 -0.9208  0.8849 -1.2336
 4049SOL    HW223784   0.065   1.478  11.838  0.2169  0.8460 -0.0810
 4050SOL     OW23785   2.140   4.308   6.227  0.5089 -0.3944  0.2446
 4050SOL    HW123786   2.127   4.403   6.222 -0.1338 -0.3984  1.8005
 4050SOL    HW223787   2.211   4.295   6.289  0.4094 -3.2224 -0.2482
 4051SOL     OW23788   3.751   2.500   3.481 -0.5875 -0.5244 -0.2758
 4051SOL    HW123789   3.689   2.470   3.548  1.0848 -1.4047  0.8843
 4051SOL    HW223790   3.738   2.422   3.427  1.0112 -0.8064 -0.2611
 4052SOL     OW23791   3.538   3.090   5.475 -0.3314  0.0464 -0.2913
 4052SOL    HW123792   3.549   3.172   5.523 -1.2628  0.8561 -1.4665
 4052SOL    HW223793   3.625   3.052   5.464  0.0004  0.5751  0.5099
 4053SOL     OW23794   4.150   2.566  16.650 -0.1714  0.2589 -0.6837
 4053SOL    HW123795   4.088   2.554  16.723  1.4694  0.6658  0.7766
 4053SOL    HW223796   4.164   2.659  16.669  1.5632 -0.4610  1.4865
 4054SOL     OW23797   1.938   1.427   8.609 -0.5664 -0.1685 -0.0844
 4054SOL    HW123798   1.968   1.341   8.578 -2.7813 -1.4269  1.2360
 4054SOL    HW223799   1.864   1.405   8.666 -0.3552 -0.6053  0.0231
 4055SOL     OW23800   0.874   2.261  10.038 -0.3350  0.3620 -0.1718
 4055SOL    HW123801   0.922   2.330  10.084 -2.6541  0.7821  1.6001
 4055SOL    HW223802   0.876   2.201  10.113 -1.4944 -0.8719 -1.1174
 4056SOL     OW23803   1.246   0.755   0.260  0.0581 -0.7832 -0.3445
 4056SOL    HW123804   1.326   0.807   0.268 -1.0952  0.7079  1.5051
 4056SOL    HW223805   1.178   0.802   0.309  3.6791  1.8611  2.1551
 4057SOL     OW23806   2.989   3.599  10.809  0.0273  0.4474 -0.0842
 4057SOL    HW123807   2.968   3.677  10.759  1.4108  1.9356  1.6569
 4057SOL    HW223808   3.002   3.633  10.897  2.1686  0.1038 -0.2602
 4058SOL     OW23809   1.702   2.898   6.804 -0.1537 -0.0985 -0.2386
 4058SOL    HW123810   1.771   2.846   6.845 -1.2226 -1.4820 -0.1845
 4058SOL    HW223811   1.635   2.892   6.872  0.4377 -0.9736  0.2678
 4059SOL     OW23812   0.482   0.540   6.302  0.5475  0.3286 -0.0628
 4059SOL    HW123813   0.547   0.470   6.296  0.8702  0.7229 -1.2747
 4059SOL    HW223814   0.488   0.589   6.220 -1.4252  0.4805 -0.1173
 4060SOL     OW23815   4.657   2.487   6.950 -0.5305 -0.5119 -0.1716
 4060SOL    HW123816   4.719   2.419   6.922  0.7260  0.7433 -0.4624
 4060SOL    HW223817   4.682   2.497   7.042  2.8828  1.3781 -1.2759
 4061SOL     OW23818   2.567   0.548   2.737  0.1228  0.8538 -0.5792
 4061SOL    HW123819   2.628   0.488   2.694 -0.9950 -0.7819  0.1368
 4061SOL    HW223820   2.609   0.561   2.822 -0.1387  0.8990 -0.4550
 4062SOL     OW23821   4.515   3.226   9.456  0.9459 -0.1575 -0.8194
 4062SOL    HW123822   4.550   3.156   9.401  1.0077 -0.9812  0.2447
 4062SOL    HW223823   4.591   3.283   9.463 -0.2203  1.2711  0.3428
 4063SOL     OW23824   3.869   4.051   3.601  0.2414  0.8963 -0.0706
 4063SOL    HW123825   3.789   4.063   3.651  1.3477 -1.2266  2.2359
 4063SOL    HW223826   3.931   4.097   3.658  1.1457 -2.2291  1.4625
 4064SOL     OW23827   3.220   3.522  16.119 -0.0019 -0.7579 -0.3335
 4064SOL    HW123828   3.167   3.601  16.128  0.6212 -0.2954 -0.7434
 4064SOL    HW223829   3.221   3.513  16.024 -1.0824  1.2614 -0.5353
 4065SOL     OW23830   4.478   3.145   7.823  0.1716  0.2339  0.4262
 4065SOL    HW123831   4.406   3.082   7.816  1.1296 -0.8494  0.4192
 4065SOL    HW223832   4.536   3.104   7.887 -0.3408  0.2104  0.8746
 4066SOL     OW23833   3.421   3.224  12.289  0.0041 -0.1975 -0.2790
 4066SOL    HW123834   3.492   3.205  12.228 -1.2225 -0.2302 -1.6851
 4066SOL    HW223835   3.352   3.235  12.224  0.6199  0.2286 -0.8550
 4067SOL     OW23836   2.920   1.296   2.870  0.0295  0.4517  0.3450
 4067SOL    HW123837   2.923   1.236   2.945 -1.9649  1.5542  1.3177
 4067SOL    HW223838   2.827   1.290   2.846  0.3330  1.2315 -1.0027
 4068SOL     OW23839   1.093   0.974  16.713  0.5801 -0.0295 -0.1213
 4068SOL    HW123840   1.020   1.017  16.667  1.9609 -1.1019 -3.3382
 4068SOL    HW223841   1.051   0.960  16.798  2.3434 -1.6209  0.4778
 4069SOL     OW23842   4.351   4.419   7.549  0.4892  0.4392  0.4436
 4069SOL    HW123843   4.431   4.384   7.588 -0.6403 -0.3535  1.9977
 4069SOL    HW223844   4.300   4.339   7.539 -2.0551  2.1464 -0.2052
 4070SOL     OW23845   3.189   0.162   9.543 -0.1536  0.1384  0.0154
 4070SOL    HW123846   3.124   0.112   9.593  0.5126  1.1617  1.8993
 4070SOL    HW223847   3.262   0.100   9.540  0.9582  1.4178  1.0799
 4071SOL     OW23848   2.783   2.928   0.958  0.7013 -0.0389 -0.0764
 4071SOL    HW123849   2.820   3.016   0.961  0.2862  0.0150  3.2542
 4071SOL    HW223850   2.717   2.933   0.888  1.5128  1.4547 -0.7370
 4072SOL     OW23851   3.360   0.182   6.859 -0.3290  0.4228  0.6244
 4072SOL    HW123852   3.438   0.232   6.838 -0.4113  0.3075  0.0425
 4072SOL    HW223853   3.340   0.223   6.944  1.0066  0.4046  0.9451
 4073SOL     OW23854   0.697   0.670   8.653 -0.3333  0.1994  0.5425
 4073SOL    HW123855   0.767   0.704   8.709  1.0830 -0.2837 -0.9179
 4073SOL    HW223856   0.664   0.593   8.697  1.8268 -0.5070  0.9192
 4074SOL     OW23857   2.397   1.911   5.652 -0.2292 -0.2663  0.6163
 4074SOL    HW123858   2.387   1.833   5.707 -0.8983 -0.3407  0.3907
 4074SOL    HW223859   2.317   1.965   5.658 -0.0445  0.3894 -3.3042
 4075SOL     OW23860   2.336   2.147   7.921 -1.0013 -0.1935  0.4849
 4075SOL    HW123861   2.342   2.062   7.877  1.0031 -0.5031  1.3971
 4075SOL    HW223862   2.286   2.124   8.000  1.7511 -0.1731  2.2377
 4076SOL     OW23863   2.156   2.918   7.468  0.2337 -0.3951 -0.4750
 4076SOL    HW123864   2.218   2.927   7.542  1.4178 -0.6780 -1.4279
 4076SOL    HW223865   2.148   2.823   7.460  1.4424 -0.5863  0.5536
 4077SOL     OW23866   4.467   2.919  15.128 -0.1258 -0.0343  0.0210
 4077SOL    HW123867   4.524   2.944  15.056  0.0677 -0.6124 -0.0329
 4077SOL    HW223868   4.381   2.939  15.093  0.4807  0.8033 -0.9637
 4078SOL     OW23869   1.061   0.913  10.809  0.3885  0.1645 -0.1102
 4078SOL    HW123870   1.027   0.843  10.864  0.6542  0.5746  0.5705
 4078SOL    HW223871   1.105   0.972  10.870  1.0161 -0.2655 -0.1567
 4079SOL     OW23872   1.536   2.763   1.739 -0.2522  0.0940  0.1742
 4079SOL    HW123873   1.535   2.801   1.826 -0.7330 -1.1846  0.7236
 4079SOL    HW223874   1.552   2.839   1.683  1.2689  2.2775  3.6211
 4080SOL     OW23875   3.586   1.264   6.198  0.3065  0.0109  0.1039
 4080SOL    HW123876   3.644   1.318   6.251 -0.3850 -1.0149  1.8891
 4080SOL    HW223877   3.633   1.182   6.211 -0.7696 -0.2987  1.9555
 4081SOL     OW23878   0.054   1.158  12.070  0.1591 -0.5369  0.3611
 4081SOL    HW123879   4.729   1.117  12.008 -0.5224 -0.8583  1.2189
 4081SOL    HW223880   0.077   1.244  12.034  0.9421 -2.4131 -3.5871
 4082SOL     OW23881   3.574   0.915   7.097  0.5321  0.8153 -0.8657
 4082SOL    HW123882   3.614   0.919   7.010 -0.6661  1.5436 -1.3783
 4082SOL    HW223883   3.605   0.999   7.131 -0.0513  0.5511  0.3123
 4083SOL     OW23884   0.488   1.084   5.015 -0.2068  0.3203  0.2740
 4083SOL    HW123885   0.489   1.017   4.947 -0.2204 -0.7823  1.3634
 4083SOL    HW223886   0.428   1.037   5.073  0.8050 -0.6959  0.4905
 4084SOL     OW23887   1.069   3.798   5.717 -0.3987 -0.1289  0.0471
 4084SOL    HW123888   1.019   3.849   5.781 -0.9287  0.7282 -1.0246
 4084SOL    HW223889   1.151   3.840   5.744 -0.6645 -0.7168  1.7436
 4085SOL     OW23890   3.649   4.058   1.030  0.2925  0.2095 -0.1244
 4085SOL    HW123891   3.674   4.141   1.071  1.2938 -0.6675  1.0444
 4085SOL    HW223892   3.664   4.003   1.107 -0.5752  1.8792  1.2415
 4086SOL     OW23893   2.395   1.435   5.090  0.0367 -0.3638 -0.0568
 4086SOL    HW123894   2.345   1.378   5.149  0.6831 -0.1519  0.6925
 4086SOL    HW223895   2.426   1.491   5.162  1.0986  0.3373 -1.0773
 4087SOL     OW23896   3.883   4.421  10.742  0.3907 -0.4087  0.5952
 4087SOL    HW123897   3.955   4.392  10.685 -0.7742 -2.9005  0.3726
 4087SOL    HW223898   3.845   4.494  10.694 -0.6661 -2.5321 -1.8059
 4088SOL     OW23899   3.279   2.735   2.331  0.2837 -0.2232  0.4968
 4088SOL    HW123900   3.345   2.716   2.264 -0.7264 -0.9919 -0.2794
 4088SOL    HW223901   3.280   2.831   2.329  1.0429 -0.3080 -2.3509
 4089SOL     OW23902   3.592   1.062   5.908  0.6316 -0.4891 -0.4047
 4089SOL    HW123903   3.677   1.081   5.868  1.3759 -3.1478 -0.0587
 4089SOL    HW223904   3.619   1.047   5.999 -0.9220 -0.2868  0.0871
 4090SOL     OW23905   2.137   3.221   0.862  0.1632  0.2489 -0.0259
 4090SOL    HW123906   2.042   3.223   0.853  0.2244 -0.1697 -0.8858
 4090SOL    HW223907   2.151   3.141   0.913 -1.6420  0.8466  1.4022
 4091SOL     OW23908   4.693   1.379   3.058 -0.1965 -0.0757 -0.1908
 4091SOL    HW123909   4.599   1.361   3.068  0.2436 -0.6641  2.8582
 4091SOL    HW223910   4.728   1.329   3.131  1.5489  0.5987 -0.5822
 4092SOL     OW23911   3.854   0.628  13.975  0.1730 -0.2167  0.4562
 4092SOL    HW123912   3.793   0.646  13.904  1.8307  0.6006 -0.7798
 4092SOL    HW223913   3.806   0.560  14.022 -0.7530  0.7052  0.8398
 4093SOL     OW23914   1.677   0.011   8.998 -0.0698  0.2343 -0.0893
 4093SOL    HW123915   1.729   0.049   8.927 -1.5143  1.0209 -0.7290
 4093SOL    HW223916   1.596   0.062   9.004 -1.3006 -1.4794 -2.0467
 4094SOL     OW23917   3.636   3.630  10.481 -0.7124 -0.3169 -0.3310
 4094SOL    HW123918   3.634   3.596  10.570 -1.6157 -2.3283 -1.1349
 4094SOL    HW223919   3.694   3.567  10.438 -0.3877  0.2881 -0.7857
 4095SOL     OW23920   1.681   0.964   6.878  0.4861 -0.4800  0.5567
 4095SOL    HW123921   1.715   1.051   6.855  0.2318 -0.2401  1.1060
 4095SOL    HW223922   1.683   0.922   6.792 -2.1774  1.3732 -0.4203
 4096SOL     OW23923   3.073   1.646   0.123  0.1483  0.2520  0.4284
 4096SOL    HW123924   3.113   1.658   0.037  0.3998  1.8709  0.7572
 4096SOL    HW223925   3.145   1.593   0.156  1.0066  0.6748 -0.7362
 4097SOL     OW23926   3.425   1.058   0.552 -0.6796 -0.3609 -0.0362
 4097SOL    HW123927   3.432   1.010   0.634  1.5790 -2.4589 -1.4551
 4097SOL    HW223928   3.341   1.021   0.526 -0.2726 -1.5599  0.3658
 4098SOL     OW23929   2.380   1.808   5.411 -0.2286 -0.1645 -0.5390
 4098SOL    HW123930   2.383   1.850   5.497  0.4433  0.1062 -0.6974
 4098SOL    HW223931   2.438   1.865   5.361  0.8499 -0.6653  0.1458
 4099SOL     OW23932   2.260   4.350  13.640  0.3347 -0.4420 -0.1241
 4099SOL    HW123933   2.196   4.323  13.706 -1.1796  0.4475 -1.2406
 4099SOL    HW223934   2.309   4.269  13.627 -0.9759 -1.4292  1.0838
 4100SOL     OW23935   1.339   2.254   1.845  0.1282 -0.0123  0.0844
 4100SOL    HW123936   1.404   2.301   1.897 -0.0081  1.3506 -0.9819
 4100SOL    HW223937   1.381   2.224   1.765  0.7891  1.8172 -0.2354
 4101SOL     OW23938   4.669   2.647   3.732  0.1383  0.1046 -0.3726
 4101SOL    HW123939   4.618   2.618   3.656 -0.7794  2.9480 -0.8478
 4101SOL    HW223940   4.625   2.730   3.748  1.5899  1.2005 -2.1544
 4102SOL     OW23941   2.886   4.468   8.844 -0.5481  0.4088 -0.3363
 4102SOL    HW123942   2.936   4.550   8.837  0.6584 -0.1212  1.8260
 4102SOL    HW223943   2.889   4.439   8.753  1.7348  0.2240 -0.2230
 4103SOL     OW23944   3.472   3.340   7.579  1.0086 -0.4253  0.5629
 4103SOL    HW123945   3.387   3.377   7.557  0.5072 -2.1459 -0.3901
 4103SOL    HW223946   3.447   3.249   7.595 -1.7730  0.2409 -0.0007
 4104SOL     OW23947   4.426   3.205  15.653  0.4445 -0.2349  0.1503
 4104SOL    HW123948   4.509   3.252  15.641 -0.1098  1.0001  1.2776
 4104SOL    HW223949   4.437   3.157  15.735 -1.8184 -0.9961  0.0163
 4105SOL     OW23950   2.254   0.661   2.947  0.4635 -0.1665  0.3794
 4105SOL    HW123951   2.170   0.668   2.991 -0.7814 -1.3061 -1.8010
 4105SOL    HW223952   2.237   0.580   2.899 -0.8947  0.2663  0.1443
 4106SOL     OW23953   1.780   4.485   8.679 -0.0142  0.5075  0.3369
 4106SOL    HW123954   1.845   4.487   8.609  0.5564 -0.3816  0.8520
 4106SOL    HW223955   1.717   4.552   8.651  1.2283  2.3861  2.0002
 4107SOL     OW23956   1.106   2.810   6.864 -0.0779 -0.0962 -0.0839
 4107SOL    HW123957   1.138   2.862   6.791 -4.5728  2.7873 -0.0695
 4107SOL    HW223958   1.124   2.878   6.930  2.7250 -0.0525 -0.8931
 4108SOL     OW23959   1.394   4.450   7.112  0.3450  0.3634  0.4073
 4108SOL    HW123960   1.304   4.423   7.130  0.0298  0.0332 -1.6886
 4108SOL    HW223961   1.417   4.422   7.024  2.2071  0.5680  0.8094
 4109SOL     OW23962   4.397   2.649   7.567  0.5014  0.1678 -0.4156
 4109SOL    HW123963   4.419   2.584   7.501  3.6350  0.3785  0.3942
 4109SOL    HW223964   4.311   2.613   7.587 -0.2995  2.0836 -0.3522
 4110SOL     OW23965   2.570   3.375   8.877 -0.6340  0.7153  0.1470
 4110SOL    HW123966   2.565   3.459   8.832 -1.4797  0.3273 -0.4839
 4110SOL    HW223967   2.632   3.383   8.950 -0.7740  0.9039  0.2463
 4111SOL     OW23968   4.387   3.782   3.965 -0.6292 -0.1528 -1.0116
 4111SOL    HW123969   4.455   3.850   3.971 -1.8708  0.9419  0.5355
 4111SOL    HW223970   4.313   3.836   3.937 -1.0900 -0.8028 -1.0337
 4112SOL     OW23971   1.124   0.767   1.565  0.1357 -0.2861  0.3831
 4112SOL    HW123972   1.152   0.856   1.588  3.5168 -1.3941  0.5771
 4112SOL    HW223973   1.031   0.790   1.560 -0.0862 -1.6063 -1.5344
 4113SOL     OW23974   4.004   1.941   4.095 -0.1026 -0.0526 -0.3311
 4113SOL    HW123975   4.081   1.934   4.152  1.2874  0.6189 -2.1343
 4113SOL    HW223976   3.943   1.999   4.139 -1.3902 -0.0825 -2.0883
 4114SOL     OW23977   4.146   3.000  11.095  0.3672 -0.5516  0.7767
 4114SOL    HW123978   4.228   2.955  11.115  2.2322  1.7307 -1.6142
 4114SOL    HW223979   4.130   3.024  11.186 -1.4485 -0.2492  0.3840
 4115SOL     OW23980   4.526   4.315  12.457  0.3767  0.4242  0.1378
 4115SOL    HW123981   4.596   4.278  12.511  1.0506  2.8277  0.9420
 4115SOL    HW223982   4.540   4.400  12.499 -1.1823  2.4158 -3.3652
 4116SOL     OW23983   0.911   1.474   7.675  0.4422  0.4547  0.0057
 4116SOL    HW123984   0.896   1.396   7.622  1.4528  0.1465  0.1727
 4116SOL    HW223985   1.005   1.470   7.693  0.3884  2.2222  0.7518
 4117SOL     OW23986   2.848   3.643   3.467  1.0488  0.1947  0.1724
 4117SOL    HW123987   2.886   3.730   3.462 -0.7339  1.0307  1.1818
 4117SOL    HW223988   2.814   3.630   3.379 -1.8246 -1.1394  1.4525
 4118SOL     OW23989   1.001   0.746  14.385  0.4131 -0.5519  0.0185
 4118SOL    HW123990   1.049   0.675  14.428 -0.5309 -0.5953  1.0092
 4118SOL    HW223991   0.912   0.712  14.397  1.4437 -3.1385  0.4456
 4119SOL     OW23992   2.181   1.124   4.298 -0.3057 -0.3375 -0.7261
 4119SOL    HW123993   2.170   1.057   4.231 -4.0359 -0.5594  0.1515
 4119SOL    HW223994   2.266   1.101   4.337 -0.8020  2.2319  1.9413
 4120SOL     OW23995   2.109   1.547  16.853  0.0802  0.5466  0.8595
 4120SOL    HW123996   2.137   1.504  16.934  0.3228 -1.3513 -0.2462
 4120SOL    HW223997   2.161   1.507  16.783  0.5516 -0.6353  1.8778
 4121SOL     OW23998   3.767   1.196   3.964  0.0823 -0.0315 -0.0406
 4121SOL    HW123999   3.842   1.255   3.968 -0.0027 -0.0609  1.9817
 4121SOL    HW224000   3.742   1.206   3.872 -0.8736  1.1467  0.3523
 4122SOL     OW24001   3.391   0.540   6.165  0.0686 -0.2915  0.0673
 4122SOL    HW124002   3.385   0.466   6.226  0.9277 -0.5172 -0.1161
 4122SOL    HW224003   3.441   0.501   6.093  1.1129  0.1040  0.5709
 4123SOL     OW24004   4.432   0.790   7.622 -0.0729  0.4426  0.5674
 4123SOL    HW124005   4.380   0.803   7.701  0.3368 -1.1756  1.1025
 4123SOL    HW224006   4.408   0.706   7.582 -3.1193  2.2768 -1.4537
 4124SOL     OW24007   3.078   1.453   8.344  0.1219 -0.1946 -0.1774
 4124SOL    HW124008   3.159   1.409   8.370 -0.0893 -0.3527  0.2145
 4124SOL    HW224009   3.079   1.515   8.416  1.4432  0.5762 -0.8554
 4125SOL     OW24010   3.628   3.373   1.040  0.3749  0.3747  0.0087
 4125SOL    HW124011   3.576   3.304   0.998 -1.3546  2.0547 -0.6079
 4125SOL    HW224012   3.706   3.358   0.987 -0.3627 -1.1705 -0.6523
 4126SOL     OW24013   1.204   3.148   1.698 -0.4526 -0.0195  0.4027
 4126SOL    HW124014   1.125   3.106   1.663  0.4808  0.7891 -2.6844
 4126SOL    HW224015   1.192   3.243   1.687 -0.0465 -0.0151 -0.0085
 4127SOL     OW24016   0.310   2.593  11.518  0.7497  0.4437  0.0445
 4127SOL    HW124017   0.337   2.581  11.427  2.8695 -0.9239  0.8485
 4127SOL    HW224018   0.279   2.506  11.542 -0.4538  0.9491  0.3416
 4128SOL     OW24019   3.811   4.627   8.349 -0.3237  0.3232 -0.2645
 4128SOL    HW124020   3.741   4.634   8.414 -0.4852 -1.9840 -0.2191
 4128SOL    HW224021   3.799   4.713   8.309 -0.3573 -0.4552 -1.8936
 4129SOL     OW24022   3.780   1.508   8.528 -0.7695  0.2646 -0.0281
 4129SOL    HW124023   3.803   1.446   8.597  1.4041 -0.4653 -1.4011
 4129SOL    HW224024   3.822   1.468   8.452  2.0711 -0.3044  1.8420
 4130SOL     OW24025   1.852   0.519   4.907  0.3048 -0.1005  0.1330
 4130SOL    HW124026   1.761   0.549   4.909  1.0896  2.2669 -0.0981
 4130SOL    HW224027   1.849   0.473   4.823  0.4012 -0.5457  0.3729
 4131SOL     OW24028   3.905   1.926   7.640  0.1157  0.7821 -0.1625
 4131SOL    HW124029   3.881   1.925   7.732 -0.6440 -0.0504 -0.3720
 4131SOL    HW224030   3.926   2.019   7.628  0.5308  0.9339  1.6989
 4132SOL     OW24031   3.733   3.090   6.399 -0.0137 -0.1613 -0.4132
 4132SOL    HW124032   3.654   3.127   6.438  0.8350 -0.4159  1.5383
 4132SOL    HW224033   3.744   3.009   6.449 -0.3068 -0.1783 -0.3758
 4133SOL     OW24034   2.794   3.720   0.450 -0.0414  0.0055 -0.1781
 4133SOL    HW124035   2.788   3.805   0.406 -1.3330  1.3466  2.6154
 4133SOL    HW224036   2.776   3.753   0.538  1.2143 -1.2404  0.5357
 4134SOL     OW24037   0.455   3.555   3.664 -0.6171  0.5714 -0.3453
 4134SOL    HW124038   0.488   3.477   3.619 -1.1676 -0.1554  0.5211
 4134SOL    HW224039   0.472   3.622   3.598 -0.4478 -0.1307 -1.0230
 4135SOL     OW24040   3.173   0.582   0.565 -0.4583  0.2929  0.0227
 4135SOL    HW124041   3.126   0.498   0.561  0.6164 -0.2661 -0.7314
 4135SOL    HW224042   3.132   0.630   0.637  1.8778  2.5470 -0.1731
 4136SOL     OW24043   1.246   1.945   0.032 -0.0627  0.3582  0.3113
 4136SOL    HW124044   1.319   1.894   0.067  0.2867  1.0719  0.6267
 4136SOL    HW224045   1.247   2.021   0.092 -1.8406  0.2089  0.5190
 4137SOL     OW24046   4.300   2.651   3.895  0.4117 -0.5202 -1.0574
 4137SOL    HW124047   4.335   2.580   3.949  1.0043  0.9626  0.5278
 4137SOL    HW224048   4.282   2.607   3.812  1.1185  0.7853 -1.9064
 4138SOL     OW24049   3.147   2.076   4.089 -0.1281 -0.4995 -0.1034
 4138SOL    HW124050   3.067   2.058   4.138 -0.7116  0.7159 -0.6234
 4138SOL    HW224051   3.121   2.024   4.013 -1.3432 -0.5696  0.3633
 4139SOL     OW24052   1.823   1.723   7.016 -0.2398 -0.2291 -1.0109
 4139SOL    HW124053   1.825   1.642   6.965  0.2429 -0.7197 -0.1972
 4139SOL    HW224054   1.868   1.771   6.946  0.9520  1.3692  0.8509
 4140SOL     OW24055   1.777   2.466   6.081 -0.1527 -0.3108 -0.0392
 4140SOL    HW124056   1.684   2.490   6.085  0.3746  1.5211  1.3224
 4140SOL    HW224057   1.777   2.373   6.104 -2.0520 -0.0128  1.1713
 4141SOL     OW24058   1.585   3.349   2.042  0.6852 -0.1402  0.2069
 4141SOL    HW124059   1.618   3.272   1.996  1.6361  0.9031 -0.8343
 4141SOL    HW224060   1.499   3.315   2.068  0.5280  1.0616  1.2490
 4142SOL     OW24061   3.033   4.206   6.925  0.4181 -0.1632  0.3051
 4142SOL    HW124062   2.938   4.204   6.931  0.2704  2.0460 -1.3638
 4142SOL    HW224063   3.035   4.299   6.900 -1.3847  0.1578  1.3429
 4143SOL     OW24064   2.421   1.552   3.759 -0.6565 -0.1710  0.0489
 4143SOL    HW124065   2.364   1.626   3.739  1.5989  1.8592  1.1767
 4143SOL    HW224066   2.495   1.554   3.699 -0.1379  0.4013  0.7077
 4144SOL     OW24067   1.286   1.690   0.262 -0.3220  0.0780  0.6120
 4144SOL    HW124068   1.326   1.608   0.232 -0.1963 -0.2511  1.6966
 4144SOL    HW224069   1.364   1.735   0.294 -1.2279  3.4702 -1.9464
 4145SOL     OW24070   4.293   3.349   0.484  0.3067  0.1341  0.5031
 4145SOL    HW124071   4.247   3.410   0.426  0.4980  0.9648  1.2229
 4145SOL    HW224072   4.361   3.324   0.422  0.9731 -0.9471  1.6718
 4146SOL     OW24073   1.076   4.467   9.606  0.0074  0.3214  0.4011
 4146SOL    HW124074   1.127   4.439   9.530 -1.7352  1.3347 -1.1504
 4146SOL    HW224075   1.019   4.392   9.622  0.0744 -0.0034 -0.8303
 4147SOL     OW24076   1.453   2.857  13.618 -0.3262  0.3013 -0.3128
 4147SOL    HW124077   1.510   2.816  13.553 -1.7250 -0.0527 -1.3169
 4147SOL    HW224078   1.469   2.948  13.595  0.0407  0.5424  0.9217
 4148SOL     OW24079   1.026   1.731   4.481 -0.2940  0.6485 -0.2200
 4148SOL    HW124080   0.956   1.677   4.516  0.9105 -0.7596  0.0282
 4148SOL    HW224081   1.002   1.809   4.529 -1.7144 -0.4949  0.9082
 4149SOL     OW24082   0.893   4.611   5.642  0.2141  0.1953 -0.1209
 4149SOL    HW124083   0.927   4.593   5.554  0.1488  0.4138 -0.1918
 4149SOL    HW224084   0.942   4.551   5.698 -0.4003 -0.5059 -0.3319
 4150SOL     OW24085   0.473   1.434   8.284  0.4170  0.1411  0.0637
 4150SOL    HW124086   0.556   1.474   8.262  0.0676  0.9376  0.2074
 4150SOL    HW224087   0.463   1.382   8.204  0.1152  0.3128 -0.0102
 4151SOL     OW24088   4.206   0.846  10.156  0.2708  0.1291  0.3454
 4151SOL    HW124089   4.288   0.813  10.192  1.2577 -0.6097 -2.5514
 4151SOL    HW224090   4.191   0.786  10.083  1.8356 -1.1254  1.0427
 4152SOL     OW24091   0.750   4.367   9.864 -0.0891  0.0021  0.2471
 4152SOL    HW124092   0.684   4.386   9.931 -0.4870  0.5438 -0.2967
 4152SOL    HW224093   0.808   4.307   9.910 -1.9060 -2.2041 -0.3566
 4153SOL     OW24094   1.489   2.128   5.571  0.3722  0.5163  0.1951
 4153SOL    HW124095   1.526   2.210   5.606 -0.5959  0.5851  1.0782
 4153SOL    HW224096   1.486   2.155   5.479 -0.7036 -0.7079 -0.1271
 4154SOL     OW24097   0.073   3.673   3.809  0.3288 -0.1443  0.9221
 4154SOL    HW124098   0.111   3.609   3.748  3.5347  1.6312  1.0461
 4154SOL    HW224099   4.721   3.682   3.768  0.7569  1.8462  0.4839
 4155SOL     OW24100   1.829   4.664   6.166 -0.2648  0.1539  0.2385
 4155SOL    HW124101   1.781   4.669   6.248  0.8161  0.9915  0.8154
 4155SOL    HW224102   1.916   4.630   6.191 -1.0409 -2.9824 -1.2619
 4156SOL     OW24103   0.508   3.993   4.696 -0.4945  0.7298 -0.0832
 4156SOL    HW124104   0.595   3.956   4.682  0.1345  2.3403 -0.3951
 4156SOL    HW224105   0.501   3.994   4.791 -2.3688  3.0626 -0.2402
 4157SOL     OW24106   2.605   1.256  13.884  0.2634 -0.4559  0.5818
 4157SOL    HW124107   2.525   1.204  13.886 -0.2112  0.1691 -1.4837
 4157SOL    HW224108   2.573   1.346  13.889  2.7538  0.2357  3.8163
 4158SOL     OW24109   0.482   2.528   5.502 -0.5390 -0.1512 -0.2571
 4158SOL    HW124110   0.568   2.487   5.498  0.1347  1.2751 -0.0555
 4158SOL    HW224111   0.482   2.583   5.580  1.0163  2.0831 -1.8417
 4159SOL     OW24112   1.920   2.122   6.349  0.4032 -0.6342 -0.3659
 4159SOL    HW124113   1.887   2.056   6.411  0.6838  0.5990  1.0882
 4159SOL    HW224114   2.005   2.084   6.325  2.1412  1.3439  2.7689
 4160SOL     OW24115   3.681   3.974   8.444  0.0901  0.0563 -0.7284
 4160SOL    HW124116   3.590   3.950   8.464 -0.1983  0.9438 -0.9456
 4160SOL    HW224117   3.728   3.895   8.468 -2.8176 -1.1608  1.0180
 4161SOL     OW24118   4.611   3.040  16.363  0.0198 -0.0785  0.9312
 4161SOL    HW124119   4.643   2.952  16.383 -1.6169 -0.8696  0.0207
 4161SOL    HW224120   4.517   3.022  16.359  0.2474 -0.4677 -2.3677
 4162SOL     OW24121   0.320   4.416   8.900  0.0898 -0.4729 -0.0778
 4162SOL    HW124122   0.386   4.353   8.927 -0.8288 -0.1490  2.9284
 4162SOL    HW224123   0.364   4.463   8.829  1.3314 -0.5186  0.6585
 4163SOL     OW24124   4.255   4.500   3.616  0.5719 -0.5325  0.1303
 4163SOL    HW124125   4.333   4.539   3.654  0.2157 -1.8409  2.1718
 4163SOL    HW224126   4.202   4.483   3.694 -1.6342 -1.3606 -1.5453
 4164SOL     OW24127   1.432   1.681  15.223  0.1805  0.1556 -0.2173
 4164SOL    HW124128   1.426   1.675  15.128  0.5759  1.0693 -0.3040
 4164SOL    HW224129   1.493   1.754  15.234  0.3319 -0.0562  0.3669
 4165SOL     OW24130   0.391   3.848   2.525  0.6780 -0.2989  0.1979
 4165SOL    HW124131   0.388   3.862   2.430  1.6438  0.9260  0.3462
 4165SOL    HW224132   0.483   3.847   2.549  0.7513 -0.4668 -0.0833
 4166SOL     OW24133   3.904   4.153   8.544 -0.1249  1.0715  0.1925
 4166SOL    HW124134   3.982   4.154   8.488  1.1274  1.2066  1.9468
 4166SOL    HW224135   3.860   4.075   8.510 -0.4203  1.0959  0.5226
 4167SOL     OW24136   0.358   3.183   7.570  0.5566 -0.2578 -0.5008
 4167SOL    HW124137   0.428   3.243   7.594  1.3228 -0.9947 -0.8844
 4167SOL    HW224138   0.303   3.239   7.515  0.4424  0.8147  0.7111
 4168SOL     OW24139   0.844   3.804  16.128 -0.1068 -0.3330  0.2406
 4168SOL    HW124140   0.892   3.751  16.191  0.8776 -0.1492 -0.3588
 4168SOL    HW224141   0.870   3.888  16.167 -0.5044  0.1107 -0.4485
 4169SOL     OW24142   2.287   3.280  10.645  0.0337 -0.0283 -0.4846
 4169SOL    HW124143   2.359   3.257  10.586 -1.3253 -0.1475 -2.1024
 4169SOL    HW224144   2.337   3.317  10.717 -3.6937  2.5477  0.8269
 4170SOL     OW24145   0.018   0.735   4.270 -0.2077 -0.2143  0.5868
 4170SOL    HW124146   0.112   0.740   4.256 -0.2085  1.1802  1.0301
 4170SOL    HW224147   0.017   0.754   4.364 -2.1881  1.3426  0.2434
 4171SOL     OW24148   0.490   2.479  15.769  0.1264  0.2796 -0.1114
 4171SOL    HW124149   0.531   2.532  15.838 -1.6950  2.3740 -0.6531
 4171SOL    HW224150   0.412   2.440  15.808  0.5836  2.0397  2.5726
 4172SOL     OW24151   4.514   2.431   2.072 -0.4462  0.5667 -0.0333
 4172SOL    HW124152   4.568   2.509   2.077  1.3739 -0.8026  1.5098
 4172SOL    HW224153   4.550   2.389   2.150 -1.2429  0.3515  0.2274
 4173SOL     OW24154   2.023   0.263  12.383 -0.0097 -0.0866 -0.0332
 4173SOL    HW124155   1.964   0.337  12.398  0.7750  0.2362  1.4523
 4173SOL    HW224156   1.993   0.212  12.457  2.1190 -1.9078 -0.4248
 4174SOL     OW24157   3.671   3.457   1.297  0.4258  0.0204 -0.0865
 4174SOL    HW124158   3.654   3.422   1.210  0.5811  1.7264 -0.8133
 4174SOL    HW224159   3.586   3.496   1.318  0.8399  0.0694  1.4779
 4175SOL     OW24160   3.277   2.031   6.388  0.6037  0.0731  0.5040
 4175SOL    HW124161   3.189   2.066   6.374  0.6398 -0.2442 -0.5386
 4175SOL    HW224162   3.289   1.973   6.312 -2.7846  1.1333 -0.8133
 4176SOL     OW24163   3.565   3.314   4.359 -0.0565  0.2905 -0.7324
 4176SOL    HW124164   3.645   3.344   4.401 -1.3915  1.2502  1.1280
 4176SOL    HW224165   3.598   3.317   4.269  2.8216 -0.7631  0.2831
 4177SOL     OW24166   1.927   2.964   4.322  0.1541 -0.4439 -0.3192
 4177SOL    HW124167   1.901   2.878   4.289  0.3004  0.5693 -3.0620
 4177SOL    HW224168   1.864   2.969   4.393  0.6049  3.1439 -0.1691
 4178SOL     OW24169   0.181   1.799   1.240 -0.2616  0.0058 -0.2732
 4178SOL    HW124170   0.129   1.742   1.296  0.6988 -1.0820 -0.4832
 4178SOL    HW224171   0.146   1.790   1.151 -3.0104  2.6638  0.5700
 4179SOL     OW24172   2.405   2.460   8.580  0.3074  0.7193  0.1257
 4179SOL    HW124173   2.348   2.525   8.622  0.9858  1.2527  0.2424
 4179SOL    HW224174   2.388   2.478   8.488  1.4101  2.5900  0.2700
 4180SOL     OW24175   2.299   0.811   7.111  0.0306 -0.3041  0.5697
 4180SOL    HW124176   2.343   0.893   7.089  0.5512 -0.6315  0.3908
 4180SOL    HW224177   2.307   0.751   7.038 -1.6054 -2.7135  2.3406
 4181SOL     OW24178   4.062   4.318   7.318  0.3392  0.1111  0.1025
 4181SOL    HW124179   4.060   4.327   7.414 -0.9312 -1.6811  0.2353
 4181SOL    HW224180   4.122   4.390   7.300 -1.0588  0.5868 -2.6656
 4182SOL     OW24181   1.935   2.154   8.455  0.0709  0.6330 -0.8073
 4182SOL    HW124182   1.915   2.069   8.415  0.2764 -0.2598  0.9746
 4182SOL    HW224183   2.030   2.144   8.446 -0.0016 -2.8463  2.3264
 4183SOL     OW24184   3.474   3.378   9.575 -0.7358 -0.3900 -0.0495
 4183SOL    HW124185   3.555   3.409   9.616 -1.3686  2.5174 -0.9615
 4183SOL    HW224186   3.486   3.285   9.591  0.3436 -0.4554 -1.2715
 4184SOL     OW24187   0.236   1.249  16.691  0.2535  0.2831 -0.1334
 4184SOL    HW124188   0.280   1.170  16.723 -0.8441 -0.3286 -0.1478
 4184SOL    HW224189   0.322   1.291  16.684  1.0677 -0.8642  3.1150
 4185SOL     OW24190   0.877   0.604   3.431 -0.0685 -0.5210 -0.2643
 4185SOL    HW124191   0.918   0.553   3.362 -1.4895 -2.3289  0.2251
 4185SOL    HW224192   0.955   0.656   3.451 -0.4969  0.2065 -0.4992
 4186SOL     OW24193   3.322   1.192   8.487  0.2805 -0.4723  0.3500
 4186SOL    HW124194   3.253   1.212   8.550  1.2138 -1.1047  1.5818
 4186SOL    HW224195   3.350   1.282   8.473 -0.4314 -0.4953 -1.1937
 4187SOL     OW24196   0.866   0.358   9.202 -0.5242 -0.4761 -0.7215
 4187SOL    HW124197   0.806   0.328   9.271 -1.4194  1.0986 -0.8224
 4187SOL    HW224198   0.946   0.308   9.217 -0.8279 -0.9709 -0.7477
 4188SOL     OW24199   0.033   3.868   9.745 -0.7237  0.4078  0.3138
 4188SOL    HW124200   0.114   3.891   9.790  1.7654 -2.7070 -2.5849
 4188SOL    HW224201   0.063   3.816   9.671 -2.6582 -0.0164 -0.1623
 4189SOL     OW24202   0.387   0.406  10.367  0.0369 -0.3692 -0.3848
 4189SOL    HW124203   0.480   0.388  10.378  0.9664  3.6758 -1.8699
 4189SOL    HW224204   0.380   0.379  10.276 -1.2696  0.2431 -0.4708
 4190SOL     OW24205   3.353   1.842   2.794 -0.1132 -0.2532  0.0863
 4190SOL    HW124206   3.433   1.811   2.751 -0.4035  0.1500 -0.7500
 4190SOL    HW224207   3.287   1.800   2.737  1.0059  1.5930 -2.5713
 4191SOL     OW24208   4.489   3.838  11.166 -0.3747 -0.1897 -0.3292
 4191SOL    HW124209   4.437   3.821  11.087 -2.6375  0.2643  1.0707
 4191SOL    HW224210   4.576   3.807  11.138  0.7039  2.3070  0.2082
 4192SOL     OW24211   2.645   4.214   5.012  0.0828  0.0208  0.6308
 4192SOL    HW124212   2.588   4.199   5.088 -1.1480  0.2252 -0.2688
 4192SOL    HW224213   2.614   4.300   4.985 -1.6025 -0.4752  0.9926
 4193SOL     OW24214   2.149   0.335   0.458 -0.5014 -0.2916 -0.1585
 4193SOL    HW124215   2.183   0.404   0.401 -0.5448  0.1862  0.3913
 4193SOL    HW224216   2.091   0.390   0.512 -0.3830  0.3634 -0.6933
 4194SOL     OW24217   0.580   2.368   1.475  0.0573  0.0144 -0.1576
 4194SOL    HW124218   0.616   2.305   1.537  0.7075 -0.3515 -0.9085
 4194SOL    HW224219   0.583   2.448   1.527  1.1601  0.0843 -0.3406
 4195SOL     OW24220   3.190   3.168   6.560  0.1634 -0.6529  0.4223
 4195SOL    HW124221   3.252   3.229   6.599 -0.6533 -0.9460  2.1900
 4195SOL    HW224222   3.232   3.082   6.574 -0.1961 -1.3363 -2.6909
 4196SOL     OW24223   3.343   3.223  14.225 -0.1733  0.6780  0.4967
 4196SOL    HW124224   3.349   3.262  14.312  0.4738  0.1588  0.6830
 4196SOL    HW224225   3.402   3.150  14.243 -0.3014 -0.0930 -2.1509
 4197SOL     OW24226   2.705   0.204   2.337 -0.2997 -0.7003  0.2705
 4197SOL    HW124227   2.783   0.157   2.368  1.7267  0.9222 -2.3083
 4197SOL    HW224228   2.673   0.232   2.423 -0.4272  0.1617 -0.0605
 4198SOL     OW24229   1.708   0.647   3.129  0.4693  0.4471  0.1989
 4198SOL    HW124230   1.688   0.716   3.066 -1.2212 -1.4355 -1.3203
 4198SOL    HW224231   1.641   0.670   3.193  1.1247  2.5620  0.1135
 4199SOL     OW24232   0.214   3.861   3.677 -0.2752  0.3589  0.4124
 4199SOL    HW124233   0.167   3.784   3.709  0.3127 -0.8434 -1.6140
 4199SOL    HW224234   0.308   3.843   3.677 -0.8087 -2.4128  2.0210
 4200SOL     OW24235   4.466   3.388   7.554 -0.2276 -0.9090  1.0028
 4200SOL    HW124236   4.485   3.297   7.531 -1.5569 -2.0294  4.2895
 4200SOL    HW224237   4.522   3.396   7.631 -1.4247  0.9641  1.6882
 4201SOL     OW24238   1.962   3.936   4.445 -0.6908 -0.1734 -0.1656
 4201SOL    HW124239   2.021   3.926   4.519 -1.4941  0.3530  0.5379
 4201SOL    HW224240   1.961   4.032   4.437 -1.7395 -0.0141  1.8723
 4202SOL     OW24241   4.369   1.574   1.909  0.6669  0.1062  0.2804
 4202SOL    HW124242   4.322   1.524   1.975  1.2173 -0.3363  0.3405
 4202SOL    HW224243   4.301   1.588   1.843  1.5684 -0.0981 -0.6859
 4203SOL     OW24244   1.694   3.064   4.070 -0.4848 -0.0312  0.4453
 4203SOL    HW124245   1.711   2.971   4.087  1.4328  0.2264 -0.0632
 4203SOL    HW224246   1.672   3.088   4.160  1.2256 -1.8132  1.3432
 4204SOL     OW24247   4.159   0.650   2.563  0.3480  0.0240  0.1384
 4204SOL    HW124248   4.229   0.585   2.558  1.2060  1.0287 -0.6332
 4204SOL    HW224249   4.129   0.644   2.654 -0.1859 -0.4072 -0.0638
 4205SOL     OW24250   3.808   1.529   5.488  0.3004 -0.1745  0.0128
 4205SOL    HW124251   3.761   1.577   5.420  2.5581  0.7729 -0.8862
 4205SOL    HW224252   3.866   1.598   5.519 -2.1090  1.1565  1.4985
 4206SOL     OW24253   0.610   1.762   4.216 -0.3132 -0.3743  0.6472
 4206SOL    HW124254   0.630   1.817   4.292  3.6358 -1.1469  0.1881
 4206SOL    HW224255   0.677   1.794   4.155 -2.3751  0.0266 -1.4088
 4207SOL     OW24256   2.951   1.061   4.692 -0.3661 -0.0224  0.4617
 4207SOL    HW124257   2.974   1.009   4.615 -2.4094  0.5283 -0.5113
 4207SOL    HW224258   2.977   0.999   4.760  0.0815  0.4653  0.7397
 4208SOL     OW24259   0.468   0.903  15.708  0.2884  0.2319 -0.1441
 4208SOL    HW124260   0.478   0.915  15.613 -1.0089 -0.8406 -0.4238
 4208SOL    HW224261   0.426   0.983  15.741 -0.0074  0.1579 -0.3325
 4209SOL     OW24262   3.387   2.155   3.290 -0.7245  0.1853 -0.0081
 4209SOL    HW124263   3.310   2.191   3.336 -1.1806 -1.2452  0.3433
 4209SOL    HW224264   3.399   2.217   3.217  1.4659  1.2172  1.2219
 4210SOL     OW24265   4.488   3.332  15.988 -0.1195 -0.1664 -0.7571
 4210SOL    HW124266   4.547   3.257  16.001 -1.2840 -0.7335  1.2554
 4210SOL    HW224267   4.426   3.317  16.059  0.7885 -1.5480 -0.2629
 4211SOL     OW24268   0.558   1.697   3.898  0.2145  0.3194 -0.7186
 4211SOL    HW124269   0.638   1.737   3.932 -0.3843  0.8936  0.0091
 4211SOL    HW224270   0.490   1.747   3.943  0.8715  0.2693  0.3459
 4212SOL     OW24271   2.457   2.973   4.437 -0.5985  0.0708 -0.3712
 4212SOL    HW124272   2.412   2.923   4.369  1.2061 -2.0990  0.0187
 4212SOL    HW224273   2.386   3.012   4.486 -0.3935  3.3455 -2.6987
 4213SOL     OW24274   4.677   2.664   1.966  0.1849  0.2293 -0.4060
 4213SOL    HW124275   4.695   2.679   2.059  0.3675 -0.7890 -0.2778
 4213SOL    HW224276   4.593   2.706   1.945  0.9077  1.3627 -1.0158
 4214SOL     OW24277   2.857   4.024  13.220  0.1705  0.1985 -0.1619
 4214SOL    HW124278   2.922   3.957  13.239 -0.6327 -0.1995  1.2016
 4214SOL    HW224279   2.916   4.083  13.173  0.4273 -0.7299 -0.9984
 4215SOL     OW24280   3.204   0.616   5.937 -0.0433 -0.1520  0.4787
 4215SOL    HW124281   3.266   0.645   6.005 -1.0459  2.0034  0.4922
 4215SOL    HW224282   3.218   0.522   5.926  1.2382 -0.1795  2.3108
 4216SOL     OW24283   4.015   4.343   4.643  0.0729  0.0841 -0.4196
 4216SOL    HW124284   4.045   4.257   4.616 -1.3062  0.0266 -1.7862
 4216SOL    HW224285   4.041   4.338   4.735  0.2033 -1.2575 -0.5360
 4217SOL     OW24286   0.779   2.150   8.863  0.0406  0.3625 -0.5001
 4217SOL    HW124287   0.777   2.087   8.934  4.1240  1.0294  0.2562
 4217SOL    HW224288   0.716   2.213   8.898  1.7887  1.7831  0.1267
 4218SOL     OW24289   0.390   0.032   7.935  0.4765 -0.0123  0.8830
 4218SOL    HW124290   0.376   0.111   7.989 -0.9264  1.1477 -1.1708
 4218SOL    HW224291   0.363   4.713   8.010  2.7381 -3.6090 -0.8975
 4219SOL     OW24292   0.524   2.164   2.695  0.4172  0.3393  0.4293
 4219SOL    HW124293   0.562   2.252   2.703  1.0074 -0.1153  2.7527
 4219SOL    HW224294   0.526   2.136   2.787  1.3462 -1.3291 -0.1078
 4220SOL     OW24295   1.662   1.540  11.785 -0.1014 -0.1168 -0.1947
 4220SOL    HW124296   1.697   1.453  11.802 -3.2740 -1.0960  1.2477
 4220SOL    HW224297   1.568   1.531  11.796 -0.1777 -1.1975 -1.7576
 4221SOL     OW24298   1.743   0.438   0.377 -0.0986  0.5824  0.5984
 4221SOL    HW124299   1.736   0.383   0.300 -0.2433  0.0489  0.9947
 4221SOL    HW224300   1.673   0.412   0.437  1.0433 -3.0695  0.3268
 4222SOL     OW24301   3.395   3.323   6.667 -0.1715  0.2208  0.4254
 4222SOL    HW124302   3.456   3.249   6.662  0.7038  0.9023  1.0756
 4222SOL    HW224303   3.357   3.323   6.755  0.7524 -0.7446  0.8157
 4223SOL     OW24304   1.417   1.499   0.731  0.2455 -0.0036  0.4977
 4223SOL    HW124305   1.369   1.470   0.808  1.2835  0.9572  1.5159
 4223SOL    HW224306   1.427   1.413   0.691  1.8462  1.0238 -1.3259
 4224SOL     OW24307   2.367   1.216   0.723  0.2415  0.1576  0.2255
 4224SOL    HW124308   2.435   1.212   0.656 -2.1837  0.1022 -2.2113
 4224SOL    HW224309   2.297   1.246   0.665 -1.5504 -0.7454  1.9330
 4225SOL     OW24310   0.365   0.215   4.072  0.2058  0.6507  0.2872
 4225SOL    HW124311   0.278   0.256   4.075  0.4599  1.1374  0.9524
 4225SOL    HW224312   0.378   0.215   3.977 -1.0194  1.6116  0.1053
 4226SOL     OW24313   0.607   4.170   4.288 -0.4438  0.0288 -0.0880
 4226SOL    HW124314   0.569   4.095   4.334 -1.0417  0.1017 -0.4605
 4226SOL    HW224315   0.530   4.212   4.249 -0.4025  0.2447  0.0668
 4227SOL     OW24316   3.027   3.844  14.309  0.1318  0.3137 -0.4170
 4227SOL    HW124317   2.977   3.870  14.232  0.7304 -0.7994 -1.1877
 4227SOL    HW224318   2.965   3.874  14.374  1.6011  0.4104  0.9470
 4228SOL     OW24319   2.292   0.570  14.973 -0.3944 -0.3331  0.2865
 4228SOL    HW124320   2.210   0.522  14.973 -1.1492  0.9716  2.4297
 4228SOL    HW224321   2.259   0.656  14.946 -0.6148  0.1300  2.0701
 4229SOL     OW24322   1.446   2.956  10.151  0.0891 -0.0006  0.4142
 4229SOL    HW124323   1.408   2.949  10.238  1.2343 -0.8845  0.8350
 4229SOL    HW224324   1.377   2.926  10.091  1.2213 -4.6666  1.4151
 4230SOL     OW24325   1.573   2.580   1.045 -0.7159  0.0650 -0.2446
 4230SOL    HW124326   1.579   2.507   1.107  1.5523  1.8002  1.5519
 4230SOL    HW224327   1.538   2.649   1.101 -2.9220  0.2830 -1.8736
 4231SOL     OW24328   2.063   2.621  12.257  0.2398 -0.0098 -0.2689
 4231SOL    HW124329   2.074   2.544  12.313 -0.1948  0.9473  1.1203
 4231SOL    HW224330   2.065   2.573  12.174 -0.3186 -1.0360  0.3056
 4232SOL     OW24331   0.362   0.029   3.030  0.5380 -0.8061  0.3296
 4232SOL    HW124332   0.388   4.725   2.945  0.7866  1.2853 -0.5258
 4232SOL    HW224333   0.314   0.103   2.993  0.7202 -1.6721 -1.6557
 4233SOL     OW24334   4.649   0.077   1.248  0.8455 -0.4009 -0.4818
 4233SOL    HW124335   4.628   0.153   1.196 -0.2345 -0.8312 -0.6630
 4233SOL    HW224336   4.661   0.021   1.172 -0.3627 -0.3985 -0.6723
 4234SOL     OW24337   0.788   4.018   7.672  0.7003  0.3515  0.7598
 4234SOL    HW124338   0.874   4.060   7.677  0.6815  0.5476 -0.3917
 4234SOL    HW224339   0.737   4.062   7.739  0.7660  2.7635 -0.7721
 4235SOL     OW24340   0.839   0.725  17.560 -0.3272  0.4445  0.2409
 4235SOL    HW124341   0.784   0.693  17.489  0.8726 -1.3106  0.1271
 4235SOL    HW224342   0.908   0.660  17.568 -1.8247 -1.0148  1.3263
 4236SOL     OW24343   1.864   3.565  14.364 -0.0110  0.0743 -0.2408
 4236SOL    HW124344   1.838   3.543  14.274 -1.6508 -1.5966  0.6332
 4236SOL    HW224345   1.959   3.554  14.362  0.2413  2.5365 -1.3560
 4237SOL     OW24346   0.694   4.021   3.024  0.0041  0.4628 -0.6380
 4237SOL    HW124347   0.776   4.043   3.068 -0.4463  1.1220 -0.1143
 4237SOL    HW224348   0.727   4.052   2.940  0.1232 -0.1450 -0.8147
 4238SOL     OW24349   4.672   1.770  11.026  0.2813 -0.2388 -0.5228
 4238SOL    HW124350   0.007   1.824  11.065  0.2941 -0.7789  0.2052
 4238SOL    HW224351   4.682   1.682  11.062  1.2522  0.5682  1.1870
 4239SOL     OW24352   0.704   0.035   5.767  0.0901  0.2428 -0.5424
 4239SOL    HW124353   0.715   0.096   5.695  0.7253  0.8642  0.0813
 4239SOL    HW224354   0.761   4.695   5.745  0.4361 -0.0466  1.3122
 4240SOL     OW24355   1.694   1.751   2.741  0.5144 -0.1370  0.0445
 4240SOL    HW124356   1.624   1.783   2.798 -0.6638  0.3856 -1.6851
 4240SOL    HW224357   1.755   1.727   2.810  1.1928 -1.6095 -1.0580
 4241SOL     OW24358   0.804   4.529  17.716  0.1414 -0.4562  0.1105
 4241SOL    HW124359   0.838   4.611  17.683  0.5501 -0.2043  1.1689
 4241SOL    HW224360   0.759   4.505  17.634 -0.5125  1.2878 -0.0324
 4242SOL     OW24361   4.110   0.367   5.955 -0.6516  0.6159 -0.2102
 4242SOL    HW124362   4.069   0.412   6.029  0.6511  1.0173  0.2668
 4242SOL    HW224363   4.103   0.280   5.993  0.7833  0.4527 -0.3182
 4243SOL     OW24364   1.809   3.971   9.021 -0.4104  0.0941  0.4302
 4243SOL    HW124365   1.771   3.981   9.109 -0.7676 -1.1544  0.4268
 4243SOL    HW224366   1.769   4.042   8.972  0.6079  0.0108 -0.5111
 4244SOL     OW24367   0.376   3.353   2.151 -0.3203 -0.2799 -1.1155
 4244SOL    HW124368   0.361   3.437   2.108  2.2924  1.0647  0.6420
 4244SOL    HW224369   0.295   3.339   2.201  0.2417 -0.3783 -0.2409
 4245SOL     OW24370   2.792   1.905   6.657 -0.4932  0.2780  0.2456
 4245SOL    HW124371   2.739   1.944   6.727 -0.3421  1.2249 -0.1754
 4245SOL    HW224372   2.876   1.890   6.701 -0.5574 -0.0872  0.2459
 4246SOL     OW24373   4.621   2.422   4.415  0.0696 -0.2397  0.7304
 4246SOL    HW124374   4.535   2.456   4.440 -1.3276 -1.5814 -2.2545
 4246SOL    HW224375   4.664   2.412   4.500  2.3728  1.3300 -0.2609
 4247SOL     OW24376   1.152   4.448   5.188  0.2304  0.4092 -0.2839
 4247SOL    HW124377   1.230   4.401   5.217 -0.1291 -0.3062 -0.4764
 4247SOL    HW224378   1.189   4.489   5.109 -0.3744  0.3714 -0.5873
 4248SOL     OW24379   4.316   4.111   4.133  0.2892  0.0748 -0.2544
 4248SOL    HW124380   4.354   4.149   4.054 -1.7946 -1.5825 -2.0795
 4248SOL    HW224381   4.225   4.139   4.118 -0.5677 -1.7245  1.5818
 4249SOL     OW24382   1.594   1.676   0.626 -0.2315 -0.0271  0.0939
 4249SOL    HW124383   1.637   1.694   0.710 -1.3816 -1.5439  0.9995
 4249SOL    HW224384   1.521   1.621   0.653 -0.1392  0.6367  1.6683
 4250SOL     OW24385   1.936   4.211   7.171 -0.6556 -0.2888  0.1252
 4250SOL    HW124386   1.936   4.306   7.166 -2.6047 -0.3591 -1.3006
 4250SOL    HW224387   2.028   4.188   7.160 -0.6703 -0.4101  0.2538
 4251SOL     OW24388   1.626   0.398   2.367 -0.3713 -0.0767 -0.0458
 4251SOL    HW124389   1.656   0.355   2.287  0.5910  1.8860 -0.7617
 4251SOL    HW224390   1.662   0.345   2.438  1.9900  1.7888  0.1843
 4252SOL     OW24391   1.437   3.004   6.019  0.4476 -0.2027 -0.7376
 4252SOL    HW124392   1.390   3.064   5.962 -1.3240 -0.4539  0.4621
 4252SOL    HW224393   1.459   3.054   6.097 -1.0720 -0.2235 -0.2897
 4253SOL     OW24394   2.648   3.027   3.616  0.2050  0.1262 -0.2545
 4253SOL    HW124395   2.589   2.959   3.586  0.8699 -0.6918  0.3027
 4253SOL    HW224396   2.735   2.990   3.599 -0.5444 -1.8872  0.3405
 4254SOL     OW24397   3.221   3.314   2.498  0.1936  0.0547 -0.1951
 4254SOL    HW124398   3.253   3.235   2.454 -2.0125 -1.4473  0.8438
 4254SOL    HW224399   3.269   3.325   2.580 -2.1125  1.4952  0.9621
 4255SOL     OW24400   3.057   0.241   0.422  0.2333 -0.0655  0.1204
 4255SOL    HW124401   3.144   0.202   0.426  1.0404  1.6889 -0.5562
 4255SOL    HW224402   3.012   0.213   0.501 -1.3218  0.5777 -0.5337
 4256SOL     OW24403   2.940   4.295   9.680 -0.1446 -0.1507 -0.0981
 4256SOL    HW124404   2.854   4.254   9.670  0.3887 -1.3409  0.2077
 4256SOL    HW224405   2.986   4.240   9.744  0.1863 -1.2699 -1.2940
 4257SOL     OW24406   0.335   0.605   5.064  0.4747 -0.8178 -0.6605
 4257SOL    HW124407   0.405   0.574   5.006  0.3061 -0.8852 -0.8268
 4257SOL    HW224408   0.307   0.524   5.106 -0.9201 -0.2498 -0.4985
 4258SOL     OW24409   4.620   1.987   8.407 -0.8715 -0.4072  0.1653
 4258SOL    HW124410   4.708   2.015   8.382  0.1258 -2.9475  0.7454
 4258SOL    HW224411   4.641   1.927   8.479 -0.7886  0.5780  0.9640
 4259SOL     OW24412   3.650   1.511   1.294  0.2912 -0.0027  0.1329
 4259SOL    HW124413   3.729   1.502   1.241  1.6223  2.2013  1.7736
 4259SOL    HW224414   3.634   1.428   1.339  2.8830  1.0185  2.9192
 4260SOL     OW24415   4.090   1.782   6.831 -0.9527 -0.0181 -0.7058
 4260SOL    HW124416   4.102   1.868   6.871  1.2432 -1.7193  2.2921
 4260SOL    HW224417   4.136   1.720   6.886  0.4076  0.9138 -0.7782
 4261SOL     OW24418   4.416   0.242   6.302 -0.9790 -0.3619  0.1958
 4261SOL    HW124419   4.488   0.191   6.339 -0.4536  0.0563 -0.2445
 4261SOL    HW224420   4.393   0.195   6.222 -0.3200  0.7995 -0.6688
 4262SOL     OW24421   3.755   2.052   5.607 -0.5912 -0.1215  0.0427
 4262SOL    HW124422   3.777   2.085   5.694  2.6908 -4.8795  1.0269
 4262SOL    HW224423   3.688   2.113   5.578  1.5577  1.9345 -0.6095
 4263SOL     OW24424   2.085   1.302   9.484  0.2216 -0.4381  0.2819
 4263SOL    HW124425   2.009   1.358   9.468  0.7307  0.4552  1.0188
 4263SOL    HW224426   2.154   1.366   9.464 -0.2855 -0.5330 -1.8431
 4264SOL     OW24427   1.540   2.603   2.654  0.0854 -0.0813  0.1012
 4264SOL    HW124428   1.553   2.664   2.727 -0.1444  1.4441 -1.1403
 4264SOL    HW224429   1.583   2.651   2.583 -0.8679  0.8379  0.1421
 4265SOL     OW24430   0.732   0.291   3.205 -0.0850  0.3499  0.2462
 4265SOL    HW124431   0.756   0.344   3.129  1.9683 -2.2891 -0.9576
 4265SOL    HW224432   0.794   0.217   3.203  0.4976  0.8456 -0.0155
 4266SOL     OW24433   0.139   0.588   9.062 -0.4154  0.6135 -0.6526
 4266SOL    HW124434   0.223   0.603   9.105 -0.5444  1.5684 -0.7225
 4266SOL    HW224435   0.141   0.493   9.049 -0.5946  0.4963  0.2013
 4267SOL     OW24436   0.258   1.041   3.661 -0.1062 -0.0498 -0.0656
 4267SOL    HW124437   0.259   1.135   3.678 -1.4737 -0.1106  0.3495
 4267SOL    HW224438   0.204   1.037   3.583 -0.1505 -1.2060  0.0191
 4268SOL     OW24439   0.309   4.571   5.253  0.3640  0.3499 -0.1111
 4268SOL    HW124440   0.216   4.572   5.276  0.2611  0.0660 -0.4993
 4268SOL    HW224441   0.320   4.659   5.218 -0.4877  0.7674  0.6743
 4269SOL     OW24442   4.152   3.144   8.283 -0.1693  0.1996  1.0420
 4269SOL    HW124443   4.099   3.078   8.327  0.3261 -0.5670  0.4739
 4269SOL    HW224444   4.096   3.155   8.205  0.1872 -1.1474  0.5929
 4270SOL     OW24445   2.836   0.572   6.314 -0.4510 -0.9727  0.3969
 4270SOL    HW124446   2.797   0.640   6.369 -1.2655 -1.4208  0.3826
 4270SOL    HW224447   2.917   0.611   6.282 -2.0995  0.2313 -2.3356
 4271SOL     OW24448   1.247   0.073  13.237 -0.2657  0.0023 -0.0299
 4271SOL    HW124449   1.239   4.712  13.241  1.6417 -0.2398 -1.6537
 4271SOL    HW224450   1.313   0.096  13.171  1.2078 -0.9451  1.1196
 4272SOL     OW24451   1.615   3.279   5.534  0.1027 -0.3443  0.0217
 4272SOL    HW124452   1.672   3.347   5.571  0.9145 -1.6263  1.1513
 4272SOL    HW224453   1.660   3.266   5.451  2.5508  1.8231  1.0139
 4273SOL     OW24454   0.952   0.404  17.308  0.1364  0.3904 -0.3599
 4273SOL    HW124455   1.002   0.357  17.242 -1.3736  0.1386 -1.3123
 4273SOL    HW224456   0.872   0.352  17.306 -1.4062  2.8842 -4.1803
 4274SOL     OW24457   4.539   3.300   3.280 -0.1504  0.1327 -0.4951
 4274SOL    HW124458   4.546   3.225   3.338  0.0030 -0.1191 -0.8384
 4274SOL    HW224459   4.532   3.364   3.351  3.4692 -1.0286  0.9160
 4275SOL     OW24460   4.081   1.476   8.599 -0.1814 -0.5666  0.2269
 4275SOL    HW124461   4.141   1.492   8.526 -1.2293 -0.3438 -0.5984
 4275SOL    HW224462   4.034   1.403   8.558  2.6326 -1.4429 -1.4365
 4276SOL     OW24463   2.165   3.504   2.561  0.8733  0.0822 -0.0268
 4276SOL    HW124464   2.096   3.515   2.496  2.0891  0.3737 -1.2691
 4276SOL    HW224465   2.238   3.550   2.520  1.9282 -1.4650  0.1098
 4277SOL     OW24466   0.147   4.279   7.578  0.2104  0.3420 -0.4897
 4277SOL    HW124467   0.180   4.244   7.660 -2.2335  1.1707  0.8591
 4277SOL    HW224468   0.180   4.368   7.586  2.7591 -0.8007  1.5016
 4278SOL     OW24469   3.803   2.591   3.222 -0.0413 -0.3455 -0.1550
 4278SOL    HW124470   3.754   2.576   3.304 -1.7644  2.6108 -0.6308
 4278SOL    HW224471   3.890   2.614   3.253  0.3549 -2.2349  0.1556
 4279SOL     OW24472   2.130   0.691   0.921  0.2543  0.2893 -0.2297
 4279SOL    HW124473   2.065   0.736   0.975 -0.9569 -0.5450 -1.0052
 4279SOL    HW224474   2.095   0.714   0.834 -0.7432 -1.1474 -0.2000
 4280SOL     OW24475   2.422   3.355   9.767 -0.6837  0.6872 -0.4039
 4280SOL    HW124476   2.506   3.384   9.733  0.1238  0.4912  1.4236
 4280SOL    HW224477   2.459   3.301   9.836 -0.4250  1.6520  0.2159
 4281SOL     OW24478   3.551   1.575   8.278 -0.3326  0.6875  0.5017
 4281SOL    HW124479   3.498   1.616   8.209 -1.4642 -2.0494 -0.2279
 4281SOL    HW224480   3.626   1.571   8.219 -2.1683 -3.2069 -1.5303
 4282SOL     OW24481   0.934   2.693  12.888 -0.2107 -0.3408  0.0545
 4282SOL    HW124482   0.913   2.605  12.921  3.1722 -1.3785 -0.6033
 4282SOL    HW224483   1.005   2.666  12.830  1.0165 -0.3010  1.5552
 4283SOL     OW24484   1.283   3.979   5.252 -0.4757 -0.5081  0.2095
 4283SOL    HW124485   1.284   3.886   5.271 -0.6392 -0.5723 -0.1057
 4283SOL    HW224486   1.208   3.989   5.194  0.4602  0.7453 -0.8085
 4284SOL     OW24487   2.262   0.608  12.999 -0.9059  0.1767  0.0934
 4284SOL    HW124488   2.322   0.670  13.041  0.8760 -1.9977  0.7724
 4284SOL    HW224489   2.245   0.548  13.072  0.0822  1.1919  1.1710
 4285SOL     OW24490   2.898   1.777  16.249  0.0431 -0.3577 -0.3075
 4285SOL    HW124491   2.820   1.753  16.199 -1.3139  2.3616  0.4952
 4285SOL    HW224492   2.956   1.704  16.230 -0.5624 -0.5890 -1.2816
 4286SOL     OW24493   1.586   0.673  14.004 -0.4924 -0.5376  0.0485
 4286SOL    HW124494   1.607   0.580  14.010 -0.6912 -0.4758  1.7442
 4286SOL    HW224495   1.553   0.668  13.914 -1.0428  0.4974  0.1967
 4287SOL     OW24496   0.521   0.641   4.556  0.4962 -0.1358  0.7693
 4287SOL    HW124497   0.434   0.679   4.547  0.9282  0.5424 -0.6053
 4287SOL    HW224498   0.577   0.717   4.575  0.9282  0.0232 -1.1107
 4288SOL     OW24499   0.384   0.102  10.396  0.0083 -0.3340  0.1292
 4288SOL    HW124500   0.418   0.191  10.388  1.9699 -1.0214  0.7334
 4288SOL    HW224501   0.304   0.120  10.445 -0.5903 -1.6004 -0.4041
 4289SOL     OW24502   1.328   4.711  12.756 -0.3999 -0.0622  0.5221
 4289SOL    HW124503   1.289   0.015  12.678  1.5247  2.6595  0.8663
 4289SOL    HW224504   1.360   4.631  12.714 -0.9001 -0.7911  1.5139
 4290SOL     OW24505   0.274   0.961   2.655  0.1576 -0.1537 -0.1883
 4290SOL    HW124506   0.241   1.015   2.727 -2.2762  0.5663 -1.8716
 4290SOL    HW224507   0.355   0.932   2.698 -0.9401  0.4650  2.3152
 4291SOL     OW24508   0.454   1.872  12.824 -0.0581  0.3094  0.2854
 4291SOL    HW124509   0.535   1.844  12.867 -0.6251 -0.1674  1.0428
 4291SOL    HW224510   0.440   1.797  12.766 -0.0574  0.1323  0.5096
 4292SOL     OW24511   4.042   3.111   9.403  0.0368 -0.0153 -0.1901
 4292SOL    HW124512   4.106   3.166   9.359 -0.0926 -0.0352 -0.4038
 4292SOL    HW224513   3.991   3.085   9.326  0.2311 -2.0083  0.3462
 4293SOL     OW24514   0.880   0.105   2.327  0.1079 -0.8827  0.4636
 4293SOL    HW124515   0.973   0.088   2.336  0.7730  1.6851 -1.4258
 4293SOL    HW224516   0.880   0.200   2.313  2.5230 -0.7876  1.1861
 4294SOL     OW24517   4.416   1.858   8.103 -0.4163 -0.1769 -0.0970
 4294SOL    HW124518   4.434   1.950   8.086 -1.2678 -0.2228 -1.2760
 4294SOL    HW224519   4.503   1.819   8.111 -0.1898  0.3975  0.1969
 4295SOL     OW24520   1.414   1.302   7.729  0.4558 -0.6062  0.3309
 4295SOL    HW124521   1.480   1.342   7.672 -0.2703 -0.8902 -0.7261
 4295SOL    HW224522   1.399   1.362   7.802  2.9791 -2.3897  2.2761
 4296SOL     OW24523   2.943   4.546   5.351 -0.2161  0.0009  0.1232
 4296SOL    HW124524   2.975   4.635   5.358  0.8564 -0.3186 -0.6632
 4296SOL    HW224525   3.007   4.519   5.416 -0.7925  1.7738  1.4139
 4297SOL     OW24526   4.103   2.081   5.327  0.2779 -0.5930  0.4930
 4297SOL    HW124527   4.194   2.105   5.310  1.0408 -3.9158 -0.2012
 4297SOL    HW224528   4.086   2.086   5.421  1.6200 -1.3758  0.7826
 4298SOL     OW24529   1.200   1.496  14.278  0.3262  0.4557  0.5621
 4298SOL    HW124530   1.181   1.588  14.260 -1.5475  0.1758  1.1596
 4298SOL    HW224531   1.142   1.444  14.222  0.8928 -0.1384  0.5236
 4299SOL     OW24532   3.066   0.354   1.412 -0.0926 -0.1176 -0.3957
 4299SOL    HW124533   3.101   0.414   1.346  0.4197  0.1067  0.0764
 4299SOL    HW224534   3.020   0.415   1.470  2.3680  1.8958 -0.6000
 4300SOL     OW24535   0.832   4.604   9.436  0.7587  0.6143  0.1151
 4300SOL    HW124536   0.842   4.634   9.527  1.5566 -1.4316  0.6976
 4300SOL    HW224537   0.850   4.512   9.453  2.4021  0.6836 -1.2083
 4301SOL     OW24538   1.121   0.346  12.568 -0.1252 -0.1153 -0.2113
 4301SOL    HW124539   1.088   0.422  12.617  2.0109  0.3477  0.4870
 4301SOL    HW224540   1.204   0.372  12.527 -0.6721 -0.6648 -1.6617
 4302SOL     OW24541   0.222   0.864   4.995 -0.2376 -0.3479  0.3144
 4302SOL    HW124542   0.216   0.796   5.062  2.3267  1.2450  2.1657
 4302SOL    HW224543   0.175   0.930   5.045 -2.6076 -0.2465 -2.0707
 4303SOL     OW24544   3.278   0.469   2.215  0.1644  0.0226 -0.7339
 4303SOL    HW124545   3.215   0.494   2.283  0.4631  0.9055 -0.7757
 4303SOL    HW224546   3.298   0.552   2.172  0.9171  0.5859  0.7119
 4304SOL     OW24547   2.698   1.282   9.848  0.3640 -0.2644  0.2194
 4304SOL    HW124548   2.692   1.251   9.758 -1.1870 -1.7977  0.8430
 4304SOL    HW224549   2.777   1.336   9.850 -0.1086  0.4324 -0.5724
 4305SOL     OW24550   2.196   4.617  13.268 -0.5561 -0.0707 -0.1500
 4305SOL    HW124551   2.280   4.570  13.274  0.1437  0.8397 -2.9757
 4305SOL    HW224552   2.146   4.580  13.341 -2.1882  0.1221 -1.1798
 4306SOL     OW24553   3.728   3.631   3.546  0.2643 -0.0743 -0.2439
 4306SOL    HW124554   3.773   3.561   3.499 -0.3296  1.8643 -3.7071
 4306SOL    HW224555   3.787   3.705   3.532  0.7758 -0.2502  0.9839
 4307SOL     OW24556   3.577   1.817   4.594  0.7434  0.4161  0.6600
 4307SOL    HW124557   3.527   1.742   4.626  0.3699  0.8863  1.1826
 4307SOL    HW224558   3.575   1.867   4.676  0.2229  0.2856  0.7317
 4308SOL     OW24559   3.353   0.794   2.666 -0.0206 -0.0726 -0.1183
 4308SOL    HW124560   3.382   0.871   2.617 -1.2414 -0.1216 -0.9110
 4308SOL    HW224561   3.425   0.787   2.729  1.0372  1.2135 -1.1789
 4309SOL     OW24562   0.274   3.122   9.375 -0.3382  0.1998 -0.4052
 4309SOL    HW124563   0.256   3.062   9.303  0.9512 -0.6958  0.0205
 4309SOL    HW224564   0.192   3.139   9.421  1.0809  3.9909  0.6707
 4310SOL     OW24565   2.496   1.192   6.803  0.1960 -0.0688  0.0124
 4310SOL    HW124566   2.486   1.167   6.895 -0.3409 -1.3039 -0.3952
 4310SOL    HW224567   2.408   1.183   6.768  0.5204 -1.3676 -0.4675
 4311SOL     OW24568   0.749   3.710   7.046  0.0016  0.4681 -0.1302
 4311SOL    HW124569   0.699   3.777   7.092 -0.1363  0.7057 -0.6201
 4311SOL    HW224570   0.796   3.670   7.119  2.2100  1.1387 -1.1637
 4312SOL     OW24571   0.890   3.993   1.816  0.5598  0.3011 -0.1113
 4312SOL    HW124572   0.910   3.977   1.724 -1.2618  0.1613 -0.4745
 4312SOL    HW224573   0.868   3.907   1.851 -1.7851  0.7805 -0.3709
 4313SOL     OW24574   2.233   3.052   6.106 -0.4138  0.2409  0.1168
 4313SOL    HW124575   2.228   2.978   6.167  1.3836 -0.0241 -0.0688
 4313SOL    HW224576   2.143   3.047   6.074 -0.3904 -0.2232  0.1263
 4314SOL     OW24577   2.500   1.891   9.911  0.1655  0.0458  0.1822
 4314SOL    HW124578   2.488   1.985   9.926 -0.3048  0.2447 -1.4311
 4314SOL    HW224579   2.585   1.890   9.867  0.1819  2.6400  0.1495
 4315SOL     OW24580   1.436   1.378   2.514 -0.0964 -0.2754 -0.0244
 4315SOL    HW124581   1.421   1.371   2.420  3.1275  1.5314 -0.6657
 4315SOL    HW224582   1.438   1.472   2.529  0.9596 -0.3746  0.4330
 4316SOL     OW24583   0.767   1.099  12.515 -0.0586 -0.2626  0.4896
 4316SOL    HW124584   0.739   1.082  12.425  1.9976 -1.2589  0.0451
 4316SOL    HW224585   0.682   1.118  12.555 -0.3503 -1.0829  0.2722
 4317SOL     OW24586   0.142   3.703  13.564  0.1980 -0.3068 -0.0696
 4317SOL    HW124587   0.124   3.766  13.494 -0.4622 -0.5820 -0.1452
 4317SOL    HW224588   0.152   3.623  13.512 -0.0041 -0.8358  0.7147
 4318SOL     OW24589   4.202   3.606  15.118 -0.3619 -0.2054  0.4265
 4318SOL    HW124590   4.244   3.587  15.034 -1.9898 -1.4281 -0.1032
 4318SOL    HW224591   4.189   3.700  15.103 -0.1515 -0.2690 -0.1349
 4319SOL     OW24592   2.849   3.012   9.858 -0.1829 -0.3491  0.0683
 4319SOL    HW124593   2.776   3.037   9.801 -0.2587 -0.3998  0.1441
 4319SOL    HW224594   2.899   2.955   9.799 -0.3032  1.7464 -2.0414
 4320SOL     OW24595   0.642   3.524   6.718  0.2682 -0.0623 -0.1921
 4320SOL    HW124596   0.676   3.465   6.651  0.6053  0.9736 -0.9315
 4320SOL    HW224597   0.656   3.472   6.798  2.5623  0.5716 -0.1711
 4321SOL     OW24598   1.088   2.973   5.982 -0.6277 -0.2967  0.0085
 4321SOL    HW124599   1.147   3.047   5.968 -2.2353  0.9455 -0.3502
 4321SOL    HW224600   1.064   2.991   6.073 -2.3191 -2.4830 -0.0194
 4322SOL     OW24601   1.046   3.354   3.440 -0.5071  0.4012  0.1444
 4322SOL    HW124602   1.108   3.347   3.512  0.0070 -0.2729 -0.3615
 4322SOL    HW224603   1.025   3.264   3.415 -2.8937  0.9130  0.2412
 4323SOL     OW24604   1.132   0.459   2.102  0.4464  0.1917  0.2798
 4323SOL    HW124605   1.125   0.466   2.007  1.4810  1.0626  0.2730
 4323SOL    HW224606   1.164   0.369   2.115  2.1120  0.8881  1.0436
 4324SOL     OW24607   3.081   3.298  12.772  0.0947  0.1536 -0.0037
 4324SOL    HW124608   3.064   3.279  12.679  2.3572 -0.6097 -0.2556
 4324SOL    HW224609   3.104   3.210  12.802 -2.2068 -0.9005 -1.2730
 4325SOL     OW24610   1.062   4.712   7.767  0.1586 -0.1809  0.7113
 4325SOL    HW124611   1.077   0.047   7.703 -0.7280 -0.7571 -0.1201
 4325SOL    HW224612   1.119   4.639   7.741 -2.1103 -1.8381  0.3594
 4326SOL     OW24613   0.505   4.152   7.070  0.0988  0.1944  0.3663
 4326SOL    HW124614   0.465   4.167   7.155  1.6731 -2.5926  1.6006
 4326SOL    HW224615   0.430   4.139   7.013  1.5845  0.4051 -1.6437
 4327SOL     OW24616   2.089   0.790  14.348 -0.2900 -0.2130  0.2782
 4327SOL    HW124617   2.035   0.833  14.282  0.4899 -0.8455 -0.7740
 4327SOL    HW224618   2.117   0.868  14.396 -0.2085  0.1608 -0.3772
 4328SOL     OW24619   1.022   4.193   1.548 -1.2705  0.1908  0.0393
 4328SOL    HW124620   0.934   4.154   1.550 -0.7671 -0.8125  1.8365
 4328SOL    HW224621   1.080   4.117   1.544 -1.0317  0.3958 -0.4238
 4329SOL     OW24622   0.618   2.477   8.713  0.4328  0.2529  0.0350
 4329SOL    HW124623   0.587   2.423   8.786  2.6856 -1.8358 -0.5655
 4329SOL    HW224624   0.711   2.457   8.712 -0.0926 -2.3026  1.1208
 4330SOL     OW24625   0.850   1.606  16.813 -0.2620  0.3924 -0.5664
 4330SOL    HW124626   0.853   1.702  16.813 -0.2414  0.3902 -1.1649
 4330SOL    HW224627   0.911   1.585  16.884 -0.3796  2.5536  0.1853
 4331SOL     OW24628   3.933   3.049  15.530  0.4937 -0.1861  0.0281
 4331SOL    HW124629   3.966   2.963  15.504 -1.1250 -1.6033  2.6122
 4331SOL    HW224630   3.895   3.026  15.615  1.3154  0.3588  0.5370
 4332SOL     OW24631   1.704   1.424  14.951 -0.1022 -0.5279 -0.1507
 4332SOL    HW124632   1.789   1.417  14.995 -1.4082 -1.2931  2.2619
 4332SOL    HW224633   1.698   1.335  14.915  0.1815 -0.3370 -0.6803
 4333SOL     OW24634   2.372   2.585   8.321  0.1329  0.4805  0.5279
 4333SOL    HW124635   2.388   2.580   8.226  2.3355 -1.6258  1.0172
 4333SOL    HW224636   2.341   2.675   8.333 -2.1802 -0.3347  0.7873
 4334SOL     OW24637   1.821   4.451   5.784 -0.5053  0.4962 -1.0445
 4334SOL    HW124638   1.739   4.465   5.736  1.1121  1.6162 -3.4247
 4334SOL    HW224639   1.879   4.415   5.718 -0.9293 -1.8849 -0.1024
 4335SOL     OW24640   0.159   1.399  12.005 -0.2797  0.3542 -0.6253
 4335SOL    HW124641   0.145   1.478  12.057 -0.9615  0.9492 -1.7123
 4335SOL    HW224642   0.221   1.350  12.059 -0.0931  0.0238 -1.1407
 4336SOL     OW24643   0.809   2.804   4.440  0.3245 -0.2495 -0.0646
 4336SOL    HW124644   0.751   2.742   4.396 -0.0834  1.3983 -1.8262
 4336SOL    HW224645   0.758   2.822   4.519  0.7018  0.0499  0.1114
 4337SOL     OW24646   0.554   2.698   4.338  0.1992 -0.2535  0.1568
 4337SOL    HW124647   0.502   2.778   4.346  2.3292  1.0451  0.9667
 4337SOL    HW224648   0.515   2.640   4.403 -0.5421  0.8233  0.6677
 4338SOL     OW24649   0.616   0.224   1.595  0.1902 -0.4523  0.2480
 4338SOL    HW124650   0.665   0.260   1.520  0.4481  1.3416  1.2880
 4338SOL    HW224651   0.685   0.187   1.650  0.3074 -1.3005 -0.4705
 4339SOL     OW24652   2.829   3.802  10.698 -0.1901  0.7111 -0.1552
 4339SOL    HW124653   2.785   3.877  10.739 -1.8184  0.4828 -1.4881
 4339SOL    HW224654   2.762   3.784  10.632  0.6791  0.5973 -1.0066
 4340SOL     OW24655   0.516   3.593   6.152  0.2243 -0.4560 -0.0854
 4340SOL    HW124656   0.440   3.633   6.194 -0.1383  0.5749 -1.7192
 4340SOL    HW224657   0.521   3.525   6.219 -0.2364  0.6845  1.1119
 4341SOL     OW24658   3.080   4.335   3.203 -0.3039  0.5893 -0.2508
 4341SOL    HW124659   3.170   4.358   3.225 -0.6410 -0.3848  2.2755
 4341SOL    HW224660   3.049   4.424   3.188  2.1133  1.4874  0.1071
 4342SOL     OW24661   4.375   2.172   5.285 -0.5190 -0.6154 -0.2897
 4342SOL    HW124662   4.462   2.196   5.316 -0.3817 -0.1093 -1.0847
 4342SOL    HW224663   4.382   2.192   5.192 -2.7051  1.4201 -0.0194
 4343SOL     OW24664   1.341   2.940  16.223 -0.2806 -0.3002 -0.2167
 4343SOL    HW124665   1.419   2.997  16.220 -0.8576  0.5669  1.4905
 4343SOL    HW224666   1.299   2.968  16.141 -2.2823  1.5301  1.4255
 4344SOL     OW24667   3.175   3.398  12.313 -0.0616  0.2115  0.3762
 4344SOL    HW124668   3.177   3.485  12.354 -0.0419 -0.2497  1.3660
 4344SOL    HW224669   3.112   3.402  12.241 -0.0628 -1.2836  0.2929
 4345SOL     OW24670   2.960   1.624  16.522  0.1133  0.0256  0.1371
 4345SOL    HW124671   3.027   1.562  16.494  0.3984 -0.3510  1.6336
 4345SOL    HW224672   3.009   1.705  16.508  1.1483 -0.5996  0.1240
 4346SOL     OW24673   1.194   3.748   6.907  0.3461 -0.1100 -0.3504
 4346SOL    HW124674   1.111   3.701   6.895  0.4626 -0.8247  1.5867
 4346SOL    HW224675   1.234   3.767   6.823  0.3792 -0.2230 -0.3604
 4347SOL     OW24676   0.255   4.715   3.714  0.8967 -0.1395  0.5573
 4347SOL    HW124677   0.222   0.004   3.627 -0.4905 -0.2379  1.0460
 4347SOL    HW224678   0.248   4.620   3.722 -1.5471  0.0935  1.1064
 4348SOL     OW24679   4.355   0.823  12.437 -0.0844  0.3866  0.1616
 4348SOL    HW124680   4.313   0.759  12.379 -0.7297  0.6200  0.3740
 4348SOL    HW224681   4.281   0.870  12.475  0.5443 -2.0387  4.2715
 4349SOL     OW24682   3.618   4.701   1.758  0.2021 -0.1989  0.0025
 4349SOL    HW124683   3.588   0.057   1.749  0.9888 -0.1094 -1.8282
 4349SOL    HW224684   3.562   4.649   1.700 -1.5188  0.6829  0.8949
 4350SOL     OW24685   3.759   2.264   6.874 -0.0629  0.1463  0.3723
 4350SOL    HW124686   3.763   2.326   6.801 -1.7722 -2.7336 -2.0997
 4350SOL    HW224687   3.739   2.319   6.950  1.9549  0.2154  0.8531
 4351SOL     OW24688   1.739   4.070   5.232 -0.2511  0.0057 -0.0054
 4351SOL    HW124689   1.701   4.047   5.317 -1.3474 -0.8179 -0.7219
 4351SOL    HW224690   1.803   4.138   5.255  0.0904 -0.8094  1.4871
 4352SOL     OW24691   1.055   0.224   4.148 -0.4410 -0.5888 -0.1759
 4352SOL    HW124692   1.020   0.272   4.223  1.2503 -0.3625  0.4433
 4352SOL    HW224693   0.996   0.149   4.151 -0.6957 -0.3194  1.3280
 4353SOL     OW24694   2.779   1.072   2.014 -0.0591 -0.2149 -0.6019
 4353SOL    HW124695   2.693   1.076   1.974 -0.2301  1.1856 -0.0798
 4353SOL    HW224696   2.777   0.985   2.054  0.0660  0.0659  0.0201
 4354SOL     OW24697   0.146   0.356   7.348  0.1431 -0.1163 -0.2791
 4354SOL    HW124698   0.065   0.326   7.389  0.7661  0.5071  1.4053
 4354SOL    HW224699   0.125   0.439   7.305 -0.7829 -0.7670 -1.0811
 4355SOL     OW24700   0.096   0.026   5.478 -0.1818 -0.3636  0.0349
 4355SOL    HW124701   0.056   0.091   5.420 -0.0632 -0.1681  0.1726
 4355SOL    HW224702   0.179   0.072   5.489 -0.1803  0.1599 -2.2800
 4356SOL     OW24703   0.425   0.719   3.952  0.4540 -0.9305  0.0974
 4356SOL    HW124704   0.411   0.781   4.024 -0.7727 -0.3785 -0.6250
 4356SOL    HW224705   0.346   0.736   3.902 -0.7622  0.9256  2.6151
 4357SOL     OW24706   4.380   0.157   2.902 -0.0518  0.0675  0.2350
 4357SOL    HW124707   4.404   0.090   2.966  0.3289 -0.1418 -0.1294
 4357SOL    HW224708   4.300   0.175   2.951  0.5127  0.3831  1.0339
 4358SOL     OW24709   2.706   3.932   4.738 -0.0474  0.2979  0.4738
 4358SOL    HW124710   2.790   3.960   4.701  0.4691 -1.5533  0.2506
 4358SOL    HW224711   2.720   3.837   4.737  0.9520  0.4484 -0.4441
 4359SOL     OW24712   0.015   0.110  17.080 -0.2509 -0.1729 -0.7276
 4359SOL    HW124713   4.671   0.158  17.052  0.6423  3.2273  2.5206
 4359SOL    HW224714   0.042   0.174  17.147  0.2312 -2.2060  1.0171
 4360SOL     OW24715   1.430   3.633   7.287 -0.0579 -0.1740 -0.3159
 4360SOL    HW124716   1.486   3.704   7.256  0.5473 -1.1041 -1.3652
 4360SOL    HW224717   1.353   3.667   7.242 -0.8197 -0.2865  0.9023
 4361SOL     OW24718   0.057   1.362   5.294 -0.3544  0.2322 -0.3239
 4361SOL    HW124719   0.071   1.455   5.311  2.0861 -0.3450  0.7664
 4361SOL    HW224720   4.699   1.359   5.322 -0.8796 -0.9192 -2.1869
 4362SOL     OW24721   0.881   1.835   2.440  0.0349  0.6376  0.6240
 4362SOL    HW124722   0.852   1.745   2.452  0.3295  0.4618  0.0301
 4362SOL    HW224723   0.806   1.882   2.477  0.6735 -0.3151  3.0979
 4363SOL     OW24724   2.418   3.025   3.238  0.7839  0.3685 -0.2318
 4363SOL    HW124725   2.387   3.069   3.159  1.0824  0.1617 -0.4644
 4363SOL    HW224726   2.488   2.968   3.205 -0.6801 -1.1491 -0.7074
 4364SOL     OW24727   3.086   2.323   7.299 -0.1349  0.6042  0.8836
 4364SOL    HW124728   3.005   2.372   7.285  0.3688  1.2765  0.3487
 4364SOL    HW224729   3.086   2.261   7.225 -0.1287  0.4525  1.0095
 4365SOL     OW24730   1.120   4.464   8.590 -0.4723  0.1384 -0.2325
 4365SOL    HW124731   1.153   4.374   8.581  0.4892  0.6899 -2.0087
 4365SOL    HW224732   1.076   4.474   8.506  0.1678 -4.3078 -1.1379
 4366SOL     OW24733   0.695   1.911   7.898  0.0857  0.3825  0.4422
 4366SOL    HW124734   0.639   1.853   7.950 -0.9330  0.0748 -0.9942
 4366SOL    HW224735   0.737   1.843   7.845  0.9995  0.8987  0.5043
 4367SOL     OW24736   3.329   3.482  13.625 -0.3165  0.3690 -0.0916
 4367SOL    HW124737   3.313   3.521  13.539 -2.3539 -2.1995 -0.8628
 4367SOL    HW224738   3.328   3.564  13.675  1.6188 -0.5500  1.4874
 4368SOL     OW24739   2.653   2.931  15.001  0.4874 -0.2508 -0.3731
 4368SOL    HW124740   2.626   3.013  14.959 -0.7676 -0.5255 -0.1002
 4368SOL    HW224741   2.707   2.962  15.074 -0.1833  0.4968 -0.2073
 4369SOL     OW24742   4.731   1.385   3.551  0.2796 -0.5358  0.6086
 4369SOL    HW124743   4.698   1.303   3.587 -0.7156  0.1794  1.3277
 4369SOL    HW224744   4.647   1.425   3.571  1.0953  1.8315 -0.5955
 4370SOL     OW24745   0.250   3.576   7.174 -0.0779  0.0449  0.2503
 4370SOL    HW124746   0.189   3.596   7.245  1.1778 -0.9810  1.6162
 4370SOL    HW224747   0.188   3.539   7.111  2.1380 -2.5149 -0.4542
 4371SOL     OW24748   2.976   1.785   2.977  0.2648 -0.3837 -0.3210
 4371SOL    HW124749   2.912   1.829   2.921 -0.9394 -0.2135  1.1659
 4371SOL    HW224750   3.051   1.844   2.982  0.6202 -0.9830  1.6575
 4372SOL     OW24751   4.380   0.124   1.652  0.1909  0.1182  0.3837
 4372SOL    HW124752   4.320   0.050   1.656  0.0927  0.2914  2.3801
 4372SOL    HW224753   4.408   0.112   1.561  2.8129 -1.6971  1.4357
 4373SOL     OW24754   2.293   0.988   8.790 -0.1381 -0.0499 -0.4570
 4373SOL    HW124755   2.256   1.015   8.874 -4.0600 -0.6730 -1.9975
 4373SOL    HW224756   2.218   0.978   8.732  0.9921  0.1800 -1.9691
 4374SOL     OW24757   2.860   4.667  16.862  0.5680  0.0625  0.1037
 4374SOL    HW124758   2.846   4.666  16.767 -1.3598  1.0733  0.3720
 4374SOL    HW224759   2.772   4.651  16.895  0.0914  0.0719 -1.1370
 4375SOL     OW24760   4.524   0.714   6.966 -0.2140  0.6071  0.1570
 4375SOL    HW124761   4.594   0.743   6.908 -1.5971 -1.1794 -2.3845
 4375SOL    HW224762   4.569   0.652   7.023 -0.7762  0.5846  0.5830
 4376SOL     OW24763   2.131   1.587   4.962  0.2072  0.1266 -0.3948
 4376SOL    HW124764   2.057   1.645   4.946  0.3982  0.6715  0.7226
 4376SOL    HW224765   2.088   1.502   4.968 -0.7825  0.6678  0.2162
 4377SOL     OW24766   0.065   1.862   4.918 -0.2585 -0.2313 -0.0373
 4377SOL    HW124767   0.081   1.769   4.900 -0.8745 -0.5000  0.7925
 4377SOL    HW224768   0.068   1.856   5.013  0.1329  1.7870  0.0683
 4378SOL     OW24769   0.971   1.674   1.837  0.0615 -0.3844  0.3190
 4378SOL    HW124770   0.991   1.707   1.750  2.4219  0.3984  1.1587
 4378SOL    HW224771   1.025   1.729   1.894 -0.6703 -3.3271  3.8809
 4379SOL     OW24772   0.498   3.293   4.505  0.0985  0.2144  0.0068
 4379SOL    HW124773   0.467   3.377   4.538  0.5925 -0.0102  1.0611
 4379SOL    HW224774   0.415   3.248   4.492  0.2664 -0.1617  0.2172
 4380SOL     OW24775   3.248   2.332   4.025 -0.1491  0.1895  0.1021
 4380SOL    HW124776   3.203   2.257   4.065  0.9291  0.3491  1.5874
 4380SOL    HW224777   3.318   2.288   3.975 -0.9476 -0.3117 -0.5837
 4381SOL     OW24778   4.621   0.306   7.489  0.1983 -0.2981 -0.1406
 4381SOL    HW124779   4.554   0.350   7.436  0.5050  2.0602  1.4337
 4381SOL    HW224780   4.583   0.219   7.486  0.7048 -0.5089 -0.4846
 4382SOL     OW24781   4.429   3.596   5.669 -0.4445 -0.0450  0.6294
 4382SOL    HW124782   4.492   3.667   5.682 -0.6155  0.0461  0.9528
 4382SOL    HW224783   4.480   3.519   5.692 -0.4247  0.4200  2.1087
 4383SOL     OW24784   2.874   4.086  10.501 -0.4387  0.3887  0.0068
 4383SOL    HW124785   2.819   4.046  10.568 -0.0552  0.2053  0.2109
 4383SOL    HW224786   2.961   4.083  10.541 -0.7767 -0.3120  0.6938
 4384SOL     OW24787   4.136   0.917  12.578 -0.2977  0.6660 -0.0664
 4384SOL    HW124788   4.187   0.902  12.658 -0.9615 -1.1168  0.0104
 4384SOL    HW224789   4.125   1.012  12.583 -1.5829  0.4044  2.1154
 4385SOL     OW24790   0.158   1.563   9.129  0.5470 -0.3438 -0.0977
 4385SOL    HW124791   0.200   1.643   9.095 -1.4046  1.1058  0.9107
 4385SOL    HW224792   0.155   1.508   9.052  2.5400  0.4214 -0.7359
 4386SOL     OW24793   3.151   0.669  15.555  0.5808  0.3171 -0.1156
 4386SOL    HW124794   3.134   0.578  15.581 -1.1462  0.8155  0.5199
 4386SOL    HW224795   3.235   0.657  15.511  1.5966 -0.2249  1.9716
 4387SOL     OW24796   4.620   0.842   7.239 -0.4022 -0.3808  0.5911
 4387SOL    HW124797   4.669   0.915   7.276 -0.7973  1.9451 -3.3743
 4387SOL    HW224798   4.679   0.773   7.269 -0.5610 -0.1456  1.4419
 4388SOL     OW24799   3.629   1.402  16.358  0.5446 -0.1642 -0.2759
 4388SOL    HW124800   3.612   1.443  16.272  0.3944 -0.2763 -0.3006
 4388SOL    HW224801   3.577   1.452  16.420 -0.3941  0.1625 -1.3216
 4389SOL     OW24802   2.971   1.969   8.919  0.3137  0.6896  0.5943
 4389SOL    HW124803   3.006   1.997   9.003  0.9666  0.9778  0.2275
 4389SOL    HW224804   2.894   2.024   8.909  0.2652  0.2160 -1.6552
 4390SOL     OW24805   1.418   4.573  16.922  0.3660 -0.4969 -0.6938
 4390SOL    HW124806   1.382   4.641  16.865  1.3140  0.5121 -0.1058
 4390SOL    HW224807   1.360   4.499  16.903  3.1351 -2.7294 -0.3486
 4391SOL     OW24808   1.544   0.570   7.762 -0.4441 -0.3862  0.3289
 4391SOL    HW124809   1.597   0.499   7.798  1.9493  0.4628 -1.5063
 4391SOL    HW224810   1.593   0.585   7.681 -1.0407  1.8181  0.3567
 4392SOL     OW24811   4.517   0.723   2.684 -0.4835 -0.2233 -0.3607
 4392SOL    HW124812   4.592   0.677   2.723 -0.6270  0.3649  0.6023
 4392SOL    HW224813   4.467   0.756   2.758  2.0790  2.6429  0.1054
 4393SOL     OW24814   3.905   0.247   6.679 -0.2735 -0.1967  0.8289
 4393SOL    HW124815   3.973   0.260   6.612 -0.7070  2.0408  0.8377
 4393SOL    HW224816   3.900   0.151   6.676 -0.2615 -0.2166  1.3867
 4394SOL     OW24817   2.168   3.158  17.611  0.2191  0.1573  0.2105
 4394SOL    HW124818   2.162   3.249  17.584  0.5767 -0.0585 -0.5648
 4394SOL    HW224819   2.190   3.172  17.704  0.2951 -0.1146  0.2338
 4395SOL     OW24820   4.018   2.652   9.568  0.1806  0.1468 -0.3389
 4395SOL    HW124821   4.105   2.640   9.529  0.6001  0.9360  0.3375
 4395SOL    HW224822   4.025   2.746   9.584 -0.0723 -0.2297  2.0237
 4396SOL     OW24823   1.493   2.353   7.846 -0.1125 -0.1045  0.3279
 4396SOL    HW124824   1.554   2.281   7.859 -0.9906 -1.0025 -0.4962
 4396SOL    HW224825   1.525   2.419   7.907  0.3294 -2.4705  2.6791
 4397SOL     OW24826   3.772   1.660   2.700  0.4724 -0.9832  0.0926
 4397SOL    HW124827   3.844   1.708   2.660  0.6441  0.3038  1.9178
 4397SOL    HW224828   3.694   1.696   2.658  1.3910 -0.0942 -0.8614
 4398SOL     OW24829   2.909   1.728  15.311 -0.4572 -0.1731 -0.0026
 4398SOL    HW124830   2.968   1.726  15.236  0.4037 -0.5154  0.6817
 4398SOL    HW224831   2.956   1.662  15.362  0.8194  1.1392  0.5213
 4399SOL     OW24832   3.037   0.409   2.046  0.2906  0.1226  0.2229
 4399SOL    HW124833   3.121   0.399   2.091  0.6262  1.7316 -0.0536
 4399SOL    HW224834   2.974   0.428   2.115 -0.0601  1.1750 -0.3820
 4400SOL     OW24835   1.869   0.972   3.553 -0.1684 -0.2308 -0.6094
 4400SOL    HW124836   1.791   1.004   3.508 -2.6359 -0.9279  3.1727
 4400SOL    HW224837   1.827   0.902   3.603 -0.7077 -0.0805 -0.8620
 4401SOL     OW24838   1.611   4.378  15.214 -0.8641 -0.2903  0.1371
 4401SOL    HW124839   1.556   4.299  15.214 -0.5241 -0.5344 -2.1720
 4401SOL    HW224840   1.643   4.391  15.303 -2.8400  0.6012  0.7263
 4402SOL     OW24841   2.617   0.171   4.092 -0.1619 -0.0976 -0.1050
 4402SOL    HW124842   2.537   0.153   4.043  0.4337 -0.2067 -1.0531
 4402SOL    HW224843   2.672   0.130   4.024 -1.3011 -1.5102 -0.1682
 4403SOL     OW24844   3.108   4.689   8.189 -0.3208 -0.3795 -0.6425
 4403SOL    HW124845   3.179   4.635   8.222  1.2717  2.6546  0.8922
 4403SOL    HW224846   3.076   4.629   8.122  3.0834 -1.6895 -1.1150
 4404SOL     OW24847   4.724   4.371  16.713  0.7204 -0.1374 -0.7088
 4404SOL    HW124848   4.725   4.340  16.804 -1.2208 -0.1319 -0.6973
 4404SOL    HW224849   4.635   4.405  16.711  0.2731 -1.4181 -1.9321
 4405SOL     OW24850   3.936   2.057  11.740 -0.0668  0.0627  0.7241
 4405SOL    HW124851   3.923   1.966  11.767 -1.7054 -0.0366 -0.4281
 4405SOL    HW224852   3.897   2.102  11.815  1.2517 -1.1592  2.1468
 4406SOL     OW24853   0.757   0.687   6.185 -0.8537  0.1984 -0.4287
 4406SOL    HW124854   0.789   0.597   6.175  1.7431  0.9371  1.4539
 4406SOL    HW224855   0.702   0.698   6.107  0.4394  1.5949 -1.1523
 4407SOL     OW24856   4.161   3.812   0.740  0.0978 -0.0893 -0.4397
 4407SOL    HW124857   4.209   3.889   0.769 -2.3935  0.7861  1.3238
 4407SOL    HW224858   4.232   3.748   0.749  0.0097 -0.2681 -1.0036
 4408SOL     OW24859   3.550   1.881  17.470 -0.0409 -0.1905  0.5230
 4408SOL    HW124860   3.553   1.855  17.562 -0.1552 -5.0420 -0.8280
 4408SOL    HW224861   3.538   1.796  17.426  0.7925 -1.0437  1.9372
 4409SOL     OW24862   1.512   0.802   5.151 -0.1356  0.0830  0.0730
 4409SOL    HW124863   1.602   0.825   5.131 -0.3635  0.9885  0.0669
 4409SOL    HW224864   1.485   0.880   5.200  1.8618 -0.0118  1.3088
 4410SOL     OW24865   4.219   4.341   8.211  0.2634  0.2430  0.2417
 4410SOL    HW124866   4.204   4.309   8.300  0.2582 -1.3639 -0.3431
 4410SOL    HW224867   4.138   4.315   8.168 -0.0109 -0.1252  0.9876
 4411SOL     OW24868   1.913   3.126   4.711  0.2130  0.1943  0.3268
 4411SOL    HW124869   1.916   3.219   4.731 -0.4818  0.9118 -3.0323
 4411SOL    HW224870   1.821   3.102   4.711  0.1464  0.4462 -1.0989
 4412SOL     OW24871   0.099   1.658  12.216 -0.2637 -0.0272 -0.1693
 4412SOL    HW124872   0.018   1.702  12.243 -1.0264 -1.8568  0.4892
 4412SOL    HW224873   0.164   1.655  12.287  0.8567 -0.8511 -1.2269
 4413SOL     OW24874   3.049   2.535   4.130  0.5132 -0.1552  0.6408
 4413SOL    HW124875   2.980   2.516   4.194  0.3705 -0.1858  0.4795
 4413SOL    HW224876   3.127   2.515   4.181  0.9733 -2.6752 -1.0731
 4414SOL     OW24877   4.088   0.995   0.740 -0.0916 -0.6497 -0.5361
 4414SOL    HW124878   4.014   1.052   0.721 -0.4584 -1.5101 -1.7031
 4414SOL    HW224879   4.069   0.967   0.829 -0.2175  0.7740 -0.1267
 4415SOL     OW24880   2.750   1.567  15.123 -0.2081  0.3973  0.4282
 4415SOL    HW124881   2.814   1.503  15.152 -0.1245  1.7565  3.2252
 4415SOL    HW224882   2.709   1.590  15.206 -1.6656  1.9781 -0.7146
 4416SOL     OW24883   0.116   1.687   7.916 -0.2455  0.1307  0.8603
 4416SOL    HW124884   0.120   1.777   7.948 -0.3193  0.6820 -0.7126
 4416SOL    HW224885   0.206   1.664   7.894 -0.8892 -0.4705 -1.1141
 4417SOL     OW24886   0.648   0.615  14.790 -0.5770  0.1238  0.3140
 4417SOL    HW124887   0.722   0.664  14.826  0.9781 -1.0171 -1.3475
 4417SOL    HW224888   0.602   0.571  14.861  0.5477 -0.6860  0.5489
 4418SOL     OW24889   2.203   2.386   5.292 -0.1430 -0.1118 -0.1060
 4418SOL    HW124890   2.290   2.411   5.324  0.1143  0.8924 -1.5892
 4418SOL    HW224891   2.160   2.459   5.337 -0.0926  0.9752 -1.8391
 4419SOL     OW24892   4.584   3.487   4.754  0.1054  0.4199 -0.3175
 4419SOL    HW124893   4.590   3.533   4.670  1.0050 -0.6038 -0.8085
 4419SOL    HW224894   4.631   3.406   4.736  0.6272  1.0488 -1.7931
 4420SOL     OW24895   3.222   2.775   8.951  0.3221 -0.3094  0.5731
 4420SOL    HW124896   3.201   2.851   9.005  2.2456  0.9866 -0.4898
 4420SOL    HW224897   3.309   2.739   8.968  1.0897  0.7207 -1.1538
 4421SOL     OW24898   3.955   1.695   1.707 -0.0328  0.6411 -0.0843
 4421SOL    HW124899   4.030   1.635   1.709  0.0443  0.7534  0.3813
 4421SOL    HW224900   3.984   1.770   1.654 -0.6772 -0.8060 -2.5116
 4422SOL     OW24901   0.638   3.510   8.824  0.4552  0.1605 -0.3733
 4422SOL    HW124902   0.632   3.432   8.878 -3.0880  0.8517  0.2692
 4422SOL    HW224903   0.715   3.487   8.772  1.5770  3.4798 -0.2125
 4423SOL     OW24904   0.298   2.583   1.015 -0.3147  0.4148 -0.1899
 4423SOL    HW124905   0.278   2.674   1.036 -0.0828 -0.0943  2.1537
 4423SOL    HW224906   0.311   2.589   0.920  1.7847 -1.2890 -0.0152
 4424SOL     OW24907   2.616   0.151  15.518 -0.1355 -0.0554 -0.0380
 4424SOL    HW124908   2.667   0.211  15.573 -1.6790  1.5161 -0.3310
 4424SOL    HW224909   2.663   0.073  15.546 -0.7154 -1.2069 -2.3336
 4425SOL     OW24910   0.042   0.053   5.032 -0.2138 -0.0062  1.0094
 4425SOL    HW124911   4.697   0.006   5.059  0.9466 -1.8531  1.2445
 4425SOL    HW224912   0.052   0.015   4.945  0.0836 -0.0350  1.0551
 4426SOL     OW24913   2.144   2.395   6.480 -0.4257  0.4696  0.5344
 4426SOL    HW124914   2.050   2.377   6.481 -0.5673  1.1052 -0.7031
 4426SOL    HW224915   2.152   2.411   6.574  1.2762  0.9861  0.3068
 4427SOL     OW24916   3.003   0.399   3.648 -0.0113 -0.2748 -0.5784
 4427SOL    HW124917   3.036   0.478   3.604  0.9626 -1.8057 -2.5467
 4427SOL    HW224918   2.945   0.435   3.715  1.0986  0.1939  0.1272
 4428SOL     OW24919   0.719   2.136   6.202  0.2659  0.0839 -0.2720
 4428SOL    HW124920   0.679   2.076   6.265  0.4167 -1.8228 -1.9877
 4428SOL    HW224921   0.643   2.178   6.162 -0.4296 -2.3717 -1.5355
 4429SOL     OW24922   0.113   2.495   8.070  0.6272 -0.0817  0.1421
 4429SOL    HW124923   0.197   2.514   8.029  0.7154  1.3403  0.9681
 4429SOL    HW224924   0.147   2.456   8.150  1.2753 -0.8872 -0.5362
 4430SOL     OW24925   4.292   4.683   2.686  0.0748 -0.3884  0.3291
 4430SOL    HW124926   4.307   0.001   2.766  1.8672 -0.7657  0.2403
 4430SOL    HW224927   4.251   4.606   2.726 -0.2390  0.2339  1.2133
 4431SOL     OW24928   0.645   1.689   5.739  0.3180  0.0812 -0.1214
 4431SOL    HW124929   0.634   1.736   5.657  1.8469 -1.4507 -1.2037
 4431SOL    HW224930   0.580   1.622   5.719 -0.1585 -0.1103  2.0946
 4432SOL     OW24931   1.396   3.235   7.816  0.3036 -0.1740 -0.1429
 4432SOL    HW124932   1.467   3.299   7.813 -0.5057  0.6917 -0.9928
 4432SOL    HW224933   1.438   3.163   7.771  0.0598 -1.8972  2.3986
 4433SOL     OW24934   3.867   2.430   6.280  0.2859  0.3882  0.2300
 4433SOL    HW124935   3.776   2.446   6.307  0.3234 -0.1009  0.6395
 4433SOL    HW224936   3.866   2.338   6.254  1.8275  1.0403 -2.1060
 4434SOL     OW24937   1.282   2.071   2.977 -0.1406 -0.0632 -0.5757
 4434SOL    HW124938   1.278   2.146   3.036  2.7892  0.4675 -1.0570
 4434SOL    HW224939   1.222   2.075   2.903  0.0424  0.2030 -0.7084
 4435SOL     OW24940   0.209   2.468   9.578  0.0651  0.2672 -0.4500
 4435SOL    HW124941   0.142   2.405   9.607  1.6365 -1.5152 -0.7172
 4435SOL    HW224942   0.289   2.425   9.606  0.1821  0.5411 -0.3663
 4436SOL     OW24943   3.708   1.312   6.677  0.3058 -0.0484 -0.0725
 4436SOL    HW124944   3.768   1.380   6.708  0.6725 -1.1561  1.6636
 4436SOL    HW224945   3.757   1.230   6.685 -0.5963 -0.4458  1.3699
 4437SOL     OW24946   4.085   2.919   2.150  0.6053  0.4763  0.4648
 4437SOL    HW124947   3.995   2.906   2.121  1.2888  0.2439 -1.4985
 4437SOL    HW224948   4.118   2.955   2.068 -2.4246  1.3014 -0.3696
 4438SOL     OW24949   0.772   3.272   1.977  0.1535 -0.1148  0.2246
 4438SOL    HW124950   0.805   3.182   1.974  1.1653  0.2400  0.6029
 4438SOL    HW224951   0.702   3.260   1.914  0.4111  1.9105 -0.4491
 4439SOL     OW24952   0.604   1.572   2.197  0.5926  0.1370 -0.2078
 4439SOL    HW124953   0.602   1.605   2.287 -3.2055 -1.2983  0.2686
 4439SOL    HW224954   0.675   1.508   2.204  0.4818 -0.0628 -0.8891
 4440SOL     OW24955   4.265   2.912   8.765  0.1561  0.5175  0.2969
 4440SOL    HW124956   4.218   2.963   8.698  1.5921  0.3240 -0.8649
 4440SOL    HW224957   4.252   2.966   8.843  1.1707  0.2044  0.6724
 4441SOL     OW24958   0.386   3.352  15.945 -0.6229 -0.1107 -0.7568
 4441SOL    HW124959   0.450   3.283  15.927  1.2744  1.3791  0.2435
 4441SOL    HW224960   0.353   3.331  16.032  0.5125 -3.0554 -1.0361
 4442SOL     OW24961   1.272   3.543   3.744 -0.0939  0.2205 -1.2785
 4442SOL    HW124962   1.204   3.478   3.762 -0.1184  0.7737  0.7052
 4442SOL    HW224963   1.237   3.627   3.773  0.6619  0.5111 -1.2172
 4443SOL     OW24964   2.746   0.594   1.228 -0.6136  0.4312  0.0177
 4443SOL    HW124965   2.693   0.659   1.182 -1.3812 -1.0216 -1.1682
 4443SOL    HW224966   2.828   0.600   1.178 -0.6013 -0.6771 -0.0954
 4444SOL     OW24967   2.139   1.263   3.269 -0.9517  0.1092  0.0993
 4444SOL    HW124968   2.133   1.171   3.292  0.9990 -0.2968 -0.9508
 4444SOL    HW224969   2.197   1.300   3.336  0.2861 -2.0784  0.2125
 4445SOL     OW24970   1.974   0.664   3.343 -0.1847  0.8482  0.1053
 4445SOL    HW124971   1.931   0.748   3.326 -0.8302  0.5953  0.4534
 4445SOL    HW224972   1.908   0.594   3.335  0.6363 -0.1464  2.0929
 4446SOL     OW24973   3.252   1.216   1.700 -0.6525  0.1840  0.2037
 4446SOL    HW124974   3.278   1.305   1.675  0.4963 -0.0530  0.5438
 4446SOL    HW224975   3.329   1.163   1.679  1.1698  1.8497  2.7965
 4447SOL     OW24976   4.005   4.325   6.021  0.7428 -0.5381 -0.2530
 4447SOL    HW124977   4.055   4.244   6.023 -1.0619 -1.6405 -0.1830
 4447SOL    HW224978   4.049   4.383   5.959  1.1358 -1.5812 -0.9456
 4448SOL     OW24979   3.924   4.027   7.332  0.0706 -0.1329 -0.3641
 4448SOL    HW124980   3.935   4.115   7.297  2.7857  0.1160  1.1350
 4448SOL    HW224981   4.011   3.991   7.313  0.3199 -0.0642  0.6450
 4449SOL     OW24982   4.366   0.357   6.622  0.3379 -0.3417 -0.3264
 4449SOL    HW124983   4.433   0.403   6.573 -2.4059  5.1354  1.0526
 4449SOL    HW224984   4.380   0.394   6.709 -0.7306 -0.8183  0.0538
 4450SOL     OW24985   4.653   0.834   3.542  0.2455 -0.2640 -0.0111
 4450SOL    HW124986   4.725   0.800   3.488 -0.2290 -2.7751  0.9117
 4450SOL    HW224987   4.674   0.787   3.623  0.6957 -0.9170 -0.5024
 4451SOL     OW24988   3.684   0.864  10.969  0.0525  0.4269  0.1590
 4451SOL    HW124989   3.731   0.821  10.898 -0.9464 -1.3781  0.6005
 4451SOL    HW224990   3.596   0.827  10.980 -0.4703  0.9031 -2.4281
 4452SOL     OW24991   1.879   2.973   3.767  0.1926  0.0888  0.1315
 4452SOL    HW124992   1.816   3.039   3.737 -1.2728 -1.4140 -0.1145
 4452SOL    HW224993   1.936   3.024   3.824  0.7411  1.1156 -1.3486
 4453SOL     OW24994   3.771   0.535   8.459 -0.7372 -0.1188 -0.2934
 4453SOL    HW124995   3.853   0.573   8.429 -0.0852 -0.6070  0.8871
 4453SOL    HW224996   3.800   0.499   8.543  1.4812  1.0674 -0.5691
 4454SOL     OW24997   0.504   3.842   3.691 -0.0970 -0.1296 -0.1079
 4454SOL    HW124998   0.513   3.777   3.760  0.4963 -0.4096 -0.4533
 4454SOL    HW224999   0.568   3.909   3.714  0.3258 -0.7175  0.4375
 4455SOL     OW25000   4.406   4.417   1.023 -1.1061 -0.3872  0.1605
 4455SOL    HW125001   4.380   4.469   1.099 -0.8664  1.5057 -1.0480
 4455SOL    HW225002   4.435   4.337   1.067  1.3678  0.1791 -0.4185
 4456SOL     OW25003   2.558   3.426   5.689  0.2906  0.6505  0.3122
 4456SOL    HW125004   2.645   3.461   5.710  1.1289 -1.3702  0.2197
 4456SOL    HW225005   2.583   3.373   5.613  1.8454  0.2720  1.0884
 4457SOL     OW25006   2.067   0.404   3.608 -0.5306  0.1053  0.6564
 4457SOL    HW125007   2.004   0.433   3.542 -0.1549 -0.5500 -0.0059
 4457SOL    HW225008   2.091   0.491   3.638  1.4746 -0.2413  0.0485
 4458SOL     OW25009   0.185   2.455   8.602  0.2413  0.1387  0.1754
 4458SOL    HW125010   0.146   2.368   8.598 -1.8811  1.2406 -3.0772
 4458SOL    HW225011   0.265   2.451   8.549 -1.8268  0.1069 -2.9199
 4459SOL     OW25012   0.640   1.442   7.189 -0.0001  0.5507 -0.5434
 4459SOL    HW125013   0.714   1.404   7.141 -0.1649  1.6342 -1.6867
 4459SOL    HW225014   0.578   1.441   7.116  0.2469 -0.1156 -0.7364
 4460SOL     OW25015   1.047   0.640   8.199 -0.2574 -0.5606  0.2082
 4460SOL    HW125016   1.077   0.692   8.124 -1.8160 -0.9445 -0.6914
 4460SOL    HW225017   1.035   0.553   8.162  1.9330 -1.2463  1.0997
 4461SOL     OW25018   4.194   4.164  10.002  0.0795  0.4908  0.2049
 4461SOL    HW125019   4.105   4.139  10.030  0.1156  1.1069  0.8717
 4461SOL    HW225020   4.211   4.094   9.939  0.8067  2.7290 -2.0726
 4462SOL     OW25021   2.765   1.735   4.050 -0.4695  0.8188  0.4942
 4462SOL    HW125022   2.675   1.761   4.072 -0.9459  1.1440 -1.7745
 4462SOL    HW225023   2.773   1.643   4.074 -0.8973 -0.1135 -2.9538
 4463SOL     OW25024   4.387   0.528   9.772 -0.3493  0.3615  0.1768
 4463SOL    HW125025   4.433   0.582   9.707  0.7357 -2.0054 -1.0282
 4463SOL    HW225026   4.383   0.448   9.720 -0.1252  0.7434 -0.4345
 4464SOL     OW25027   1.559   0.582   6.520 -0.4342 -0.1196  0.5224
 4464SOL    HW125028   1.505   0.651   6.558  0.7879  2.1321 -1.7980
 4464SOL    HW225029   1.586   0.531   6.596 -0.2711 -2.8183 -1.3486
 4465SOL     OW25030   4.727   2.943   6.716  0.2712 -0.1343  0.3335
 4465SOL    HW125031   4.730   3.008   6.787  1.0137 -0.4200  0.5612
 4465SOL    HW225032   4.631   2.945   6.712  0.2196 -0.4182  1.3846
 4466SOL     OW25033   1.769   2.622   7.004 -0.3584 -0.3763  0.0094
 4466SOL    HW125034   1.838   2.558   6.985  0.2059 -0.0709  1.0712
 4466SOL    HW225035   1.746   2.600   7.094  1.9994  0.1760  0.7534
 4467SOL     OW25036   3.520   0.458   4.267  0.2185  0.8018 -0.6451
 4467SOL    HW125037   3.536   0.538   4.216 -0.5039  0.0417 -2.0800
 4467SOL    HW225038   3.480   0.398   4.204  0.7825 -0.6160  0.3479
 4468SOL     OW25039   1.938   4.001  15.547  0.0872 -0.4739 -0.1200
 4468SOL    HW125040   1.878   3.993  15.621  1.3818  1.7658  1.1975
 4468SOL    HW225041   1.885   4.035  15.475 -0.1765 -0.0380  0.2815
 4469SOL     OW25042   1.368   0.488   8.815  0.1314  0.0180  0.1155
 4469SOL    HW125043   1.341   0.397   8.800 -2.8587  0.7259  1.3724
 4469SOL    HW225044   1.322   0.502   8.898 -0.9788 -0.6637 -0.3850
 4470SOL     OW25045   0.740   2.919   5.560  0.3187  0.7370 -0.2071
 4470SOL    HW125046   0.651   2.906   5.529  0.9307 -2.0984 -0.7724
 4470SOL    HW225047   0.711   2.981   5.627 -0.1283  2.1402 -1.6741
 4471SOL     OW25048   3.135   2.075   0.806 -0.6412  0.1814 -0.9958
 4471SOL    HW125049   3.073   2.001   0.804 -1.6318  1.0179 -1.0498
 4471SOL    HW225050   3.134   2.106   0.716 -0.0155  0.4235 -0.9173
 4472SOL     OW25051   3.868   1.293   8.656  0.2281  0.3176 -0.0134
 4472SOL    HW125052   3.938   1.231   8.638 -0.2590 -0.6662  1.4817
 4472SOL    HW225053   3.794   1.255   8.609 -1.6724  0.7771  2.5803
 4473SOL     OW25054   2.167   3.991  12.574  0.2360 -0.1935 -0.3257
 4473SOL    HW125055   2.132   3.905  12.552  1.1766 -0.2733 -1.5541
 4473SOL    HW225056   2.193   4.017  12.485  0.2667 -1.3157 -0.6461
 4474SOL     OW25057   0.180   2.070   2.001 -0.1877  0.2396  0.2213
 4474SOL    HW125058   0.210   2.158   2.023  0.2476 -0.1960  1.3682
 4474SOL    HW225059   0.149   2.068   1.910  0.3269 -3.1263  0.1063
 4475SOL     OW25060   1.735   4.079   9.265 -0.2368 -0.0292 -0.3589
 4475SOL    HW125061   1.674   4.036   9.325 -0.8485  0.2248 -0.7981
 4475SOL    HW225062   1.702   4.169   9.271 -0.4107 -0.1184  0.0233
 4476SOL     OW25063   0.194   4.049   1.637  0.8012 -0.5594  0.5999
 4476SOL    HW125064   0.228   3.971   1.680  1.6694 -0.3632  0.2716
 4476SOL    HW225065   0.211   4.109   1.709 -1.8309  0.5366  0.3152
 4477SOL     OW25066   4.486   1.086   8.630 -0.2751 -0.1221  0.2753
 4477SOL    HW125067   4.463   1.166   8.678 -0.3632 -1.0984  1.8907
 4477SOL    HW225068   4.526   1.036   8.701  1.8524  1.2927  0.0782
 4478SOL     OW25069   3.932   0.961   0.936 -0.4870 -0.1101  0.1618
 4478SOL    HW125070   3.972   0.985   1.020 -2.0333  0.6775  0.6736
 4478SOL    HW225071   3.841   0.949   0.962 -0.5048 -2.1374 -0.8146
 4479SOL     OW25072   3.466   4.533   1.208 -0.6808  0.0091  0.2870
 4479SOL    HW125073   3.429   4.454   1.247 -3.7224  1.4732  0.4491
 4479SOL    HW225074   3.417   4.594   1.264 -0.3985  0.4598  0.0376
 4480SOL     OW25075   0.147   0.021   7.110 -0.2717  0.2044 -0.6901
 4480SOL    HW125076   0.058   0.037   7.142 -0.0209 -0.2681  0.2360
 4480SOL    HW225077   0.140   0.058   7.022  0.9805  1.0959 -0.4165
 4481SOL     OW25078   2.062   4.499   2.148  0.1664  0.5447 -0.1606
 4481SOL    HW125079   2.131   4.460   2.094 -0.8487 -1.7991  0.2143
 4481SOL    HW225080   2.104   4.582   2.171 -0.3791  1.4621 -2.5000
 4482SOL     OW25081   1.360   1.555  13.128 -0.0286 -0.2855 -0.3911
 4482SOL    HW125082   1.396   1.588  13.210 -0.2290 -2.3083  0.5289
 4482SOL    HW225083   1.418   1.479  13.125  2.0043  1.1558  2.3959
 4483SOL     OW25084   4.718   2.765   8.059 -0.0184  0.5626 -0.2585
 4483SOL    HW125085   4.659   2.753   8.133 -0.4601  2.7743 -0.2511
 4483SOL    HW225086   0.010   2.673   8.050 -1.3064 -0.1316  2.9427
 4484SOL     OW25087   0.263   1.144   8.835 -0.1282  0.2291 -0.0641
 4484SOL    HW125088   0.188   1.189   8.797  1.0996  3.0535  0.8349
 4484SOL    HW225089   0.343   1.190   8.809 -0.9218  0.7116 -1.5881
 4485SOL     OW25090   1.946   0.426   4.379  0.3642  0.2958  0.1431
 4485SOL    HW125091   2.042   0.433   4.384  0.4831 -0.3380 -1.2349
 4485SOL    HW225092   1.921   0.497   4.320 -0.7424  1.1157  1.6221
 4486SOL     OW25093   3.029   3.350  10.734 -0.5670  0.8489 -0.4363
 4486SOL    HW125094   2.967   3.366  10.662  1.4805  1.2301 -2.1279
 4486SOL    HW225095   3.041   3.430  10.785  1.1427 -0.5096  1.3035
 4487SOL     OW25096   2.203   4.109   8.695  0.4274 -1.0985  0.1357
 4487SOL    HW125097   2.220   4.202   8.679  0.7092 -1.0696  0.6201
 4487SOL    HW225098   2.114   4.120   8.728  0.1792  1.2269 -1.2254
 4488SOL     OW25099   0.490   4.089  10.433  0.1755 -0.0136 -0.4560
 4488SOL    HW125100   0.527   4.001  10.429  1.2399  0.3147  2.3699
 4488SOL    HW225101   0.543   4.140  10.372  0.2208  2.6790  1.8029
 4489SOL     OW25102   3.881   4.459  16.489 -0.1520 -0.2027 -0.3651
 4489SOL    HW125103   3.848   4.421  16.570  1.3746  1.4558  1.0247
 4489SOL    HW225104   3.972   4.430  16.481  0.2337  1.1140 -0.8657
 4490SOL     OW25105   2.135   1.566   3.122 -0.3782 -0.8871  0.4514
 4490SOL    HW125106   2.126   1.527   3.210 -1.3162 -1.8906 -0.0841
 4490SOL    HW225107   2.227   1.592   3.121 -0.0370 -2.1287 -0.7277
 4491SOL     OW25108   1.753   0.828   4.375 -0.2950 -0.1857 -0.5489
 4491SOL    HW125109   1.820   0.869   4.321 -1.8862  2.2550 -0.6848
 4491SOL    HW225110   1.806   0.772   4.431 -1.4028  2.2856  2.9139
 4492SOL     OW25111   1.251   1.190  13.147 -0.0190 -0.1184  0.0707
 4492SOL    HW125112   1.334   1.142  13.141 -0.4399 -0.9580  1.0204
 4492SOL    HW225113   1.213   1.146  13.222 -0.4191  0.6728  0.3269
 4493SOL     OW25114   1.321   1.850   7.107  0.0186  0.0719  0.4154
 4493SOL    HW125115   1.376   1.913   7.153  0.1294 -1.0458  1.8305
 4493SOL    HW225116   1.316   1.889   7.020  1.3443  1.0755  0.7993
 4494SOL     OW25117   2.932   0.904   0.934  0.0465  0.3780 -0.2454
 4494SOL    HW125118   2.946   0.903   0.839 -0.6430 -1.7378 -0.3226
 4494SOL    HW225119   2.904   0.815   0.955 -0.4715  0.5495 -0.2019
 4495SOL     OW25120   3.918   2.832   5.225  0.4686 -0.6355 -0.0570
 4495SOL    HW125121   3.823   2.838   5.211  0.6100  3.3444  0.7357
 4495SOL    HW225122   3.946   2.892   5.156  0.7224 -0.7533 -0.0552
 4496SOL     OW25123   1.101   3.425  14.195  0.0823  0.3350 -0.2953
 4496SOL    HW125124   1.025   3.461  14.149  0.2168 -1.5490 -2.0076
 4496SOL    HW225125   1.097   3.451  14.287  0.1534  1.4996 -0.6178
 4497SOL     OW25126   1.344   1.136   2.595 -0.1546 -0.2520 -0.4003
 4497SOL    HW125127   1.264   1.164   2.639 -0.6959  1.7261 -2.6791
 4497SOL    HW225128   1.383   1.219   2.570  1.3534 -0.5231  1.0261
 4498SOL     OW25129   1.427   1.173   2.139  0.4239 -0.0053  0.3437
 4498SOL    HW125130   1.382   1.123   2.071  1.2283  0.8393 -0.8143
 4498SOL    HW225131   1.444   1.112   2.211  1.8014  0.8438  0.7226
 4499SOL     OW25132   4.089   0.179   9.255  0.0976 -0.3357  0.4081
 4499SOL    HW125133   4.118   0.095   9.219  1.6774  0.0879  0.6891
 4499SOL    HW225134   4.043   0.216   9.180 -0.4392  0.7927  1.2937
 4500SOL     OW25135   1.494   0.726   4.867  0.6937 -0.0589 -0.2735
 4500SOL    HW125136   1.558   0.795   4.850 -1.1446  1.7696  0.2341
 4500SOL    HW225137   1.483   0.739   4.961  1.7717 -0.2498 -0.1214
 4501SOL     OW25138   0.514   1.051   1.684  0.0112  0.3064 -0.2671
 4501SOL    HW125139   0.424   1.022   1.665 -0.3475  0.5810  1.0121
 4501SOL    HW225140   0.510   1.090   1.772 -1.3395 -0.5840  0.0759
 4502SOL     OW25141   1.754   3.581   2.507 -0.6693 -0.4124 -0.2961
 4502SOL    HW125142   1.719   3.645   2.445 -0.8940 -4.6056 -4.4990
 4502SOL    HW225143   1.702   3.506   2.478 -1.2013 -0.6222  1.2252
 4503SOL     OW25144   2.985   0.696   9.018  0.0983 -0.4188  0.2519
 4503SOL    HW125145   2.964   0.783   8.983  1.6665  0.9008  2.6122
 4503SOL    HW225146   3.080   0.700   9.028  0.0837 -0.1318  0.2749
 4504SOL     OW25147   1.732   3.607   3.115  0.4268  0.0163  0.0980
 4504SOL    HW125148   1.704   3.530   3.163 -0.3181  0.1173 -0.1828
 4504SOL    HW225149   1.825   3.586   3.113  0.6997  1.6725 -3.5375
 4505SOL     OW25150   1.015   0.108  11.472  0.2848 -0.2601  0.4549
 4505SOL    HW125151   0.959   0.154  11.535 -1.6640  0.4201 -1.7656
 4505SOL    HW225152   0.964   0.087  11.394  0.0410  0.4086  0.4271
 4506SOL     OW25153   1.149   1.175  15.687 -0.1055 -0.0643 -0.1902
 4506SOL    HW125154   1.106   1.142  15.608 -2.1197  2.7999 -0.3267
 4506SOL    HW225155   1.185   1.256  15.651 -0.4724  0.8436  1.4735
 4507SOL     OW25156   0.006   4.570   8.670 -0.0255  0.0611 -0.3333
 4507SOL    HW125157   0.073   4.502   8.674  2.2067  2.2551 -0.4866
 4507SOL    HW225158   0.051   4.645   8.708  1.7029 -0.8022 -0.7024
 4508SOL     OW25159   3.860   3.292   4.869  0.6938  0.0448 -0.2773
 4508SOL    HW125160   3.822   3.375   4.838 -0.0791 -0.0283  0.4904
 4508SOL    HW225161   3.952   3.309   4.847  1.1083  0.7559  2.0172
 4509SOL     OW25162   0.458   4.205   9.009 -0.0298 -0.1434 -0.0659
 4509SOL    HW125163   0.462   4.115   9.040 -1.9072  0.4736  2.0413
 4509SOL    HW225164   0.534   4.192   8.952  0.8129 -0.5592  1.1491
 4510SOL     OW25165   0.559   2.431   4.771 -0.6757  0.4518 -0.4204
 4510SOL    HW125166   0.547   2.380   4.851 -0.2222  1.1580  0.0956
 4510SOL    HW225167   0.565   2.359   4.708 -1.0313 -1.1095  1.3462
 4511SOL     OW25168   1.604   0.369   7.475  0.0595 -0.1506  0.4052
 4511SOL    HW125169   1.688   0.329   7.497 -0.3466  0.5522  3.2641
 4511SOL    HW225170   1.554   0.365   7.557 -1.1707 -3.8535 -0.5233
 4512SOL     OW25171   2.701   0.357   9.861 -0.3688 -0.1389  0.3549
 4512SOL    HW125172   2.608   0.356   9.835 -0.4008  0.7208  0.4446
 4512SOL    HW225173   2.704   0.268   9.896 -1.0055  0.1356  1.1019
 4513SOL     OW25174   0.959   4.291  10.346  0.3059  0.6069  0.0895
 4513SOL    HW125175   0.939   4.351  10.417 -1.0312 -0.9723  1.0469
 4513SOL    HW225176   1.049   4.265  10.366  0.5899  0.4162 -1.4150
 4514SOL     OW25177   3.431   0.849   1.115  0.6329 -0.4334  0.1907
 4514SOL    HW125178   3.462   0.768   1.074  0.3061 -2.4574  3.8813
 4514SOL    HW225179   3.341   0.853   1.083  1.1572  0.2845 -1.1520
 4515SOL     OW25180   0.423   0.390  10.086 -0.1571  0.2293 -0.9522
 4515SOL    HW125181   0.338   0.418  10.054 -0.5172 -0.2176 -0.4008
 4515SOL    HW225182   0.430   0.300  10.053  1.2756  0.4920 -1.3410
 4516SOL     OW25183   3.295   1.373  16.811  0.1185 -0.2766 -0.0018
 4516SOL    HW125184   3.309   1.281  16.836 -1.0766 -0.0915  1.3230
 4516SOL    HW225185   3.328   1.408  16.894 -1.1826 -0.7743  0.7246
 4517SOL     OW25186   4.460   3.740   8.389 -0.1872  0.2203  0.4919
 4517SOL    HW125187   4.502   3.660   8.360 -0.2829  0.1906  0.4346
 4517SOL    HW225188   4.483   3.737   8.482  0.8715 -2.9918  0.1333
 4518SOL     OW25189   4.637   4.482   8.997  0.6321  0.3081  0.1361
 4518SOL    HW125190   4.624   4.399   9.043  2.1699  0.9239  1.7084
 4518SOL    HW225191   4.696   4.457   8.926 -0.9608 -1.8572 -0.4315
 4519SOL     OW25192   1.743   0.498   9.824 -0.4212 -0.4405  0.4394
 4519SOL    HW125193   1.660   0.474   9.783 -0.4778  0.6006 -0.0379
 4519SOL    HW225194   1.798   0.478   9.748 -1.3082  0.2870 -0.3890
 4520SOL     OW25195   1.813   3.466   2.172 -0.5183 -0.3531  0.0684
 4520SOL    HW125196   1.752   3.407   2.127  1.1109 -3.8358  2.3930
 4520SOL    HW225197   1.804   3.552   2.132  0.4418 -0.3927 -0.2253
 4521SOL     OW25198   2.636   1.635   4.825 -0.4732 -0.3397 -0.2941
 4521SOL    HW125199   2.616   1.610   4.915  2.5227 -2.0473 -0.1123
 4521SOL    HW225200   2.573   1.581   4.777 -1.1414  1.1141 -1.0446
 4522SOL     OW25201   0.783   2.333   2.293  0.1709 -0.1037 -0.2606
 4522SOL    HW125202   0.872   2.298   2.292  0.0076 -0.5124 -0.7416
 4522SOL    HW225203   0.793   2.423   2.323  0.0851  0.2332 -1.2344
 4523SOL     OW25204   3.847   2.125   5.243 -0.8421 -0.0006  0.2836
 4523SOL    HW125205   3.923   2.102   5.296  1.0950 -0.5488 -2.7400
 4523SOL    HW225206   3.843   2.059   5.173  1.2536 -1.2808  1.3918
 4524SOL     OW25207   3.258   3.314   4.057 -0.0006 -0.6609 -0.1035
 4524SOL    HW125208   3.283   3.333   4.147 -2.3567 -2.5084  0.9354
 4524SOL    HW225209   3.187   3.251   4.066 -1.3319  1.0996  1.5534
 4525SOL     OW25210   3.007   2.816   4.664  0.4492 -0.2329  0.2920
 4525SOL    HW125211   2.970   2.742   4.712  2.3069  0.5426  2.9418
 4525SOL    HW225212   2.996   2.778   4.578  2.2143 -0.2552  0.0719
 4526SOL     OW25213   3.579   4.385   2.947  0.2062 -0.0732  0.3577
 4526SOL    HW125214   3.594   4.384   2.853  0.7209 -1.1027  0.4433
 4526SOL    HW225215   3.595   4.295   2.978 -0.7703  0.1683  1.5474
 4527SOL     OW25216   3.361   3.016   6.956 -0.5568 -0.0631 -0.5361
 4527SOL    HW125217   3.376   2.959   6.880  0.6034 -0.8770  0.2879
 4527SOL    HW225218   3.425   2.982   7.018 -1.0128  1.2876  0.6639
 4528SOL     OW25219   2.256   3.832   8.676  0.1584  0.2654 -0.3658
 4528SOL    HW125220   2.308   3.832   8.756 -0.2847 -0.5226 -0.0858
 4528SOL    HW225221   2.245   3.927   8.662 -0.5604  0.6874  3.2043
 4529SOL     OW25222   2.702   1.058   9.163  0.1831 -0.3308  0.3866
 4529SOL    HW125223   2.661   1.138   9.131  1.2521  0.0776  0.0593
 4529SOL    HW225224   2.739   1.042   9.076 -3.2678 -3.1736 -0.5964
 4530SOL     OW25225   2.778   1.576   9.132  0.2769  0.2502  0.3600
 4530SOL    HW125226   2.824   1.644   9.182  0.2785 -0.0089  0.7107
 4530SOL    HW225227   2.772   1.507   9.198 -1.4635 -0.7924 -0.8709
 4531SOL     OW25228   4.442   0.931   4.155 -0.3255  0.4632  0.0554
 4531SOL    HW125229   4.425   1.025   4.162  1.0876  0.5701  2.0805
 4531SOL    HW225230   4.450   0.917   4.249  1.4615  0.1674 -0.1369
 4532SOL     OW25231   4.149   3.860   9.381 -0.2082  0.3464 -0.1966
 4532SOL    HW125232   4.215   3.890   9.444  0.1815 -0.8805 -0.0142
 4532SOL    HW225233   4.072   3.861   9.438  0.1700  0.3284  0.3156
 4533SOL     OW25234   3.233   1.077   5.454  0.4664 -0.2764 -0.2433
 4533SOL    HW125235   3.274   1.102   5.537 -1.8550  0.3150  0.7349
 4533SOL    HW225236   3.154   1.034   5.488  1.4719 -2.7577 -1.0444
 4534SOL     OW25237   3.292   2.794  16.954 -0.4259  0.0511  0.4470
 4534SOL    HW125238   3.246   2.791  17.039 -1.1866  0.6312  0.0618
 4534SOL    HW225239   3.316   2.887  16.950  1.5454 -0.4442  1.0829
 4535SOL     OW25240   1.837   4.293   3.948  0.4071  0.2092 -0.5375
 4535SOL    HW125241   1.864   4.262   3.862  1.0837 -0.2358 -0.1720
 4535SOL    HW225242   1.840   4.386   3.926  0.4163  0.1567 -0.7506
 4536SOL     OW25243   0.106   0.045   1.491  0.1286  0.0359 -0.8361
 4536SOL    HW125244   0.043   0.059   1.421 -1.3319  0.5339  0.5965
 4536SOL    HW225245   0.141   0.131   1.514 -3.9588  2.0499 -2.3496
 4537SOL     OW25246   4.710   1.158   7.966  0.1422 -0.3329 -0.4786
 4537SOL    HW125247   0.023   1.083   7.927 -2.6134 -2.5620  0.5413
 4537SOL    HW225248   4.623   1.120   7.974  0.6827 -0.9744  2.2856
 4538SOL     OW25249   3.650   4.584   4.604  0.0478  0.4858 -0.5471
 4538SOL    HW125250   3.684   4.510   4.655 -1.4967  1.8843  2.5110
 4538SOL    HW225251   3.565   4.597   4.646  0.8754  1.3871  0.8370
 4539SOL     OW25252   3.625   1.851   5.492 -0.8135  0.0922 -0.2224
 4539SOL    HW125253   3.682   1.915   5.534 -1.0387 -1.3067  2.2096
 4539SOL    HW225254   3.603   1.897   5.411  1.5236  0.4492 -0.6581
 4540SOL     OW25255   3.213   2.809  16.368 -0.1406  0.2055 -0.3886
 4540SOL    HW125256   3.308   2.797  16.359 -0.1842  0.9353 -1.7227
 4540SOL    HW225257   3.173   2.731  16.330 -0.7055  0.5395 -0.4676
 4541SOL     OW25258   4.050   2.273  11.228 -0.3617  0.0031  0.1718
 4541SOL    HW125259   3.983   2.342  11.231 -0.5599 -0.1719 -0.2415
 4541SOL    HW225260   4.020   2.199  11.281 -2.1206  0.0317 -0.7724
 4542SOL     OW25261   0.530   1.777   4.891  0.0489  0.4825  0.6227
 4542SOL    HW125262   0.445   1.772   4.934  0.5947 -0.1987  1.6347
 4542SOL    HW225263   0.542   1.872   4.889  2.3246  0.1824 -0.3779
 4543SOL     OW25264   4.032   4.528   2.261 -0.2460  0.5214  0.3028
 4543SOL    HW125265   3.968   4.462   2.232 -0.3869  0.0029  1.7580
 4543SOL    HW225266   4.083   4.491   2.333  0.9946 -0.8422 -1.2551
 4544SOL     OW25267   0.778   0.896  10.794  0.8982 -0.5534 -0.7049
 4544SOL    HW125268   0.869   0.923  10.806  0.9517  0.4170 -3.3841
 4544SOL    HW225269   0.772   0.897  10.699  0.0067  0.7015 -0.6297
 4545SOL     OW25270   2.178   2.339  13.931  0.5191 -0.6716 -0.0542
 4545SOL    HW125271   2.205   2.417  13.883  1.8285 -0.9563  0.2408
 4545SOL    HW225272   2.247   2.338  13.997  0.9751  0.9621 -0.4915
 4546SOL     OW25273   2.579   3.844   2.197 -0.0482 -0.3762  0.2790
 4546SOL    HW125274   2.488   3.841   2.169 -0.6415  0.6276  2.1066
 4546SOL    HW225275   2.592   3.756   2.233 -2.3768 -1.0066 -0.4367
 4547SOL     OW25276   4.248   3.712  12.056 -0.2686  0.4859 -0.4240
 4547SOL    HW125277   4.193   3.749  11.986 -0.6708 -0.6576 -0.7206
 4547SOL    HW225278   4.323   3.770  12.053 -0.4042  0.5875 -1.8540
 4548SOL     OW25279   4.207   4.201   8.446 -0.0998 -0.5001 -0.1681
 4548SOL    HW125280   4.285   4.163   8.485 -0.6477 -0.8051  0.6115
 4548SOL    HW225281   4.168   4.119   8.417  1.8261 -1.3283 -0.4257
 4549SOL     OW25282   2.328   2.247  11.012  0.0447 -0.1497  0.3053
 4549SOL    HW125283   2.238   2.264  10.983  0.0847  0.0730  0.3145
 4549SOL    HW225284   2.321   2.161  11.052 -2.3788 -0.2495 -0.3344
 4550SOL     OW25285   3.486   0.319  16.859 -0.0379 -0.4136 -0.3144
 4550SOL    HW125286   3.432   0.382  16.906 -1.7443 -1.3134 -1.0725
 4550SOL    HW225287   3.445   0.245  16.904 -1.3754  1.2379  1.1898
 4551SOL     OW25288   4.431   0.666  17.235  0.3451 -0.0012  0.7217
 4551SOL    HW125289   4.363   0.733  17.227  1.3242  0.9118 -0.1253
 4551SOL    HW225290   4.389   0.584  17.260 -1.5519 -0.0804 -2.7815
 4552SOL     OW25291   3.912   3.018   0.935  0.4935 -0.1714  0.0775
 4552SOL    HW125292   3.957   3.089   0.889 -0.1900  0.2834  0.1196
 4552SOL    HW225293   3.985   2.959   0.957 -1.6856 -2.2277  1.8236
 4553SOL     OW25294   2.295   0.120   1.250  0.1242 -0.5394  0.1750
 4553SOL    HW125295   2.236   0.140   1.177 -2.3039 -2.2422  1.6352
 4553SOL    HW225296   2.328   0.036   1.218 -0.0674 -1.4617  2.3914
 4554SOL     OW25297   2.268   1.784  13.049  0.2638  0.1531  0.0568
 4554SOL    HW125298   2.237   1.700  13.015 -1.0963  1.4833 -1.9936
 4554SOL    HW225299   2.307   1.766  13.134 -1.2026  1.1231  0.9412
 4555SOL     OW25300   1.968   0.540  15.194 -0.0805  0.6355  0.7086
 4555SOL    HW125301   2.018   0.487  15.131 -0.4025  1.5046 -0.2933
 4555SOL    HW225302   1.921   0.601  15.136 -0.9953 -1.2665 -0.5536
 4556SOL     OW25303   3.830   2.842   8.629  0.1277  0.1195 -0.5584
 4556SOL    HW125304   3.773   2.801   8.694  0.0237  1.8073  0.4140
 4556SOL    HW225305   3.914   2.833   8.675 -1.0677 -0.7632  1.4553
 4557SOL     OW25306   1.833   0.310   0.874 -0.1274  0.6171  0.3205
 4557SOL    HW125307   1.814   0.393   0.918 -0.2473  0.0378  1.3752
 4557SOL    HW225308   1.929   0.314   0.876 -0.0481  0.4510 -2.9731
 4558SOL     OW25309   2.546   3.754   9.920  0.1342  0.1528 -0.1791
 4558SOL    HW125310   2.615   3.820   9.924  0.3131 -0.1744  1.7726
 4558SOL    HW225311   2.541   3.720  10.009  1.4252  1.4460  0.3860
 4559SOL     OW25312   2.795   3.189  13.175 -0.2673 -0.2114  0.4111
 4559SOL    HW125313   2.810   3.164  13.266 -2.6141  4.5851  2.0590
 4559SOL    HW225314   2.871   3.155  13.127 -1.3446 -0.1148 -1.3712
 4560SOL     OW25315   3.227   1.882   6.754  0.4510 -0.3404 -0.4723
 4560SOL    HW125316   3.320   1.872   6.773  0.5168  2.4198  0.7431
 4560SOL    HW225317   3.206   1.824   6.681  1.6799  1.1347 -2.0028
 4561SOL     OW25318   2.059   4.036   2.618 -0.1606 -0.2690  0.4623
 4561SOL    HW125319   2.119   3.992   2.678  1.8981 -0.1285 -1.4890
 4561SOL    HW225320   2.018   3.966   2.568 -0.9769  0.6833 -0.2046
 4562SOL     OW25321   2.791   1.727   3.715  0.1253 -0.2683  0.1859
 4562SOL    HW125322   2.736   1.753   3.789 -0.3017 -1.8300  0.4163
 4562SOL    HW225323   2.867   1.690   3.759  0.4965  3.3890  2.6562
 4563SOL     OW25324   1.939   2.435   2.822 -0.3496  0.3303  0.1804
 4563SOL    HW125325   1.999   2.387   2.765 -1.2122  0.8693 -1.1614
 4563SOL    HW225326   1.885   2.477   2.756  1.2045  2.3411  0.2017
 4564SOL     OW25327   2.415   1.705   4.522  0.2784  0.0571  0.3335
 4564SOL    HW125328   2.356   1.757   4.468  0.7139  0.0650 -0.1386
 4564SOL    HW225329   2.454   1.777   4.571 -1.2638  1.2819 -0.2344
 4565SOL     OW25330   3.831   1.350   6.932 -0.3843 -0.0494 -0.7478
 4565SOL    HW125331   3.857   1.259   6.947 -1.2410  0.1287  1.8042
 4565SOL    HW225332   3.762   1.348   6.998 -0.0958  1.2927 -0.4138
 4566SOL     OW25333   1.983   2.023   2.986 -0.1186  0.5583 -0.3614
 4566SOL    HW125334   1.980   1.928   2.987  0.8244  0.5474  1.8931
 4566SOL    HW225335   1.960   2.050   3.075  0.5039  0.6408 -0.2298
 4567SOL     OW25336   1.572   0.873   7.575  0.4430 -0.8226  0.0293
 4567SOL    HW125337   1.641   0.808   7.588  0.3344 -0.6176  1.7274
 4567SOL    HW225338   1.618   0.923   7.508 -2.5627 -0.2734 -1.6254
 4568SOL     OW25339   3.023   0.836   2.184 -0.7133 -0.0152  0.2807
 4568SOL    HW125340   3.058   0.847   2.096  2.7033 -0.7046  1.5317
 4568SOL    HW225341   3.084   0.893   2.232  0.6790 -0.1200 -1.3729
 4569SOL     OW25342   1.025   3.445   6.380 -0.3104 -0.6502  0.4330
 4569SOL    HW125343   0.964   3.371   6.375  0.6381 -1.3151 -1.2589
 4569SOL    HW225344   1.032   3.456   6.475  1.5963  0.9109  0.1095
 4570SOL     OW25345   1.605   1.676   7.793 -0.1638  0.0839 -0.1279
 4570SOL    HW125346   1.613   1.581   7.797 -0.0112  0.1005 -0.0076
 4570SOL    HW225347   1.633   1.694   7.883 -3.6587  0.6284  0.8816
 4571SOL     OW25348   2.651   2.319   2.483 -0.6732  0.3829  0.4484
 4571SOL    HW125349   2.642   2.328   2.577 -2.1820 -0.4465  0.3877
 4571SOL    HW225350   2.636   2.227   2.461  1.4457  0.2691 -0.6257
 4572SOL     OW25351   1.070   2.066  10.843 -0.1475 -0.2349  0.2782
 4572SOL    HW125352   1.100   1.986  10.887  2.0554  0.7089  0.4424
 4572SOL    HW225353   1.105   2.138  10.894  2.8814 -0.0833 -2.0091
 4573SOL     OW25354   2.620   4.137  14.521 -0.9212  0.8370 -0.1245
 4573SOL    HW125355   2.668   4.188  14.587  1.2373 -1.2011 -0.1279
 4573SOL    HW225356   2.541   4.113  14.569 -1.2728  1.8456 -0.1899
 4574SOL     OW25357   1.124   3.353   7.181  0.5453  0.0058  0.0065
 4574SOL    HW125358   1.173   3.381   7.103  2.6576 -3.3175  0.1441
 4574SOL    HW225359   1.126   3.425   7.245 -1.3356 -0.8153  0.9946
 4575SOL     OW25360   0.772   4.259  17.249  0.3636  0.1818 -0.1777
 4575SOL    HW125361   0.781   4.257  17.344  0.2471 -0.0758 -0.1713
 4575SOL    HW225362   0.843   4.205  17.214 -0.8636 -1.4285 -0.1891
 4576SOL     OW25363   1.511   3.696   6.293 -0.3514 -0.3317  0.1034
 4576SOL    HW125364   1.433   3.717   6.242 -0.2274 -0.3690 -0.1007
 4576SOL    HW225365   1.503   3.773   6.350 -1.3140  0.1295 -0.6617
 4577SOL     OW25366   1.389   0.876  17.587  0.1279 -0.2716  0.5356
 4577SOL    HW125367   1.375   0.786  17.615 -0.8799 -0.5424 -0.8460
 4577SOL    HW225368   1.299   0.907  17.592  0.7879  1.7124  0.0921
 4578SOL     OW25369   3.080   2.825   7.366 -0.1356 -0.3823 -0.2890
 4578SOL    HW125370   3.038   2.787   7.288 -0.8481  0.3967 -0.2915
 4578SOL    HW225371   3.154   2.764   7.365 -0.6950 -1.0654 -1.0989
 4579SOL     OW25372   0.837   1.944   2.156  0.6024  0.3009  0.0190
 4579SOL    HW125373   0.839   1.904   2.243  4.2844  0.9384  0.2270
 4579SOL    HW225374   0.889   1.881   2.106 -1.9507 -2.0324  0.2752
 4580SOL     OW25375   3.986   2.515   9.110 -0.0803 -0.4401 -0.4059
 4580SOL    HW125376   4.009   2.429   9.074  2.3940 -0.1522  0.5126
 4580SOL    HW225377   4.053   2.577   9.083 -1.7753  1.5738  0.0171
 4581SOL     OW25378   4.327   3.336   9.044 -0.1278  0.0929  0.5022
 4581SOL    HW125379   4.399   3.393   9.016  0.1813  0.4034  1.9521
 4581SOL    HW225380   4.251   3.386   9.016  1.2350  2.1487  0.4777
 4582SOL     OW25381   0.842   0.537   0.528 -0.2012  0.2217 -0.2583
 4582SOL    HW125382   0.882   0.536   0.441 -0.8894 -1.3996 -0.5480
 4582SOL    HW225383   0.925   0.550   0.574  0.3012  1.0876 -1.4064
 4583SOL     OW25384   1.458   3.052   3.935  0.4245 -0.5178  0.1409
 4583SOL    HW125385   1.418   3.099   4.008 -2.3129 -1.8197 -0.5261
 4583SOL    HW225386   1.546   3.037   3.968 -0.3627 -1.2066  1.9443
 4584SOL     OW25387   2.641   3.663  16.028  0.9453 -0.4620 -0.1671
 4584SOL    HW125388   2.718   3.646  15.973 -0.3232 -0.5350 -1.9047
 4584SOL    HW225389   2.613   3.747  15.991  1.4665 -0.5145 -0.6981
 4585SOL     OW25390   3.980   4.426   6.536  0.1206 -0.0528  0.1438
 4585SOL    HW125391   3.911   4.423   6.602 -0.4193 -0.7898 -0.4628
 4585SOL    HW225392   3.982   4.517   6.506  1.6505  0.2838  1.2555
 4586SOL     OW25393   2.320   1.321  14.185 -0.1196  0.0574  0.1130
 4586SOL    HW125394   2.283   1.406  14.163  0.7523  0.4595  0.2090
 4586SOL    HW225395   2.316   1.279  14.099  2.0554 -1.1907  0.6263
 4587SOL     OW25396   2.322   1.069   1.203 -0.3184  0.2749 -0.4362
 4587SOL    HW125397   2.272   0.990   1.223  1.1141 -0.8883 -1.4408
 4587SOL    HW225398   2.345   1.049   1.112  1.3602  0.2688 -0.0099
 4588SOL     OW25399   3.110   1.114   7.021 -0.2815 -0.4519  0.6078
 4588SOL    HW125400   3.171   1.049   7.057 -1.5708 -2.7425 -1.3899
 4588SOL    HW225401   3.092   1.160   7.103  0.4900 -1.6618  1.4702
 4589SOL     OW25402   3.355   0.107  16.972 -0.1955  0.3585  0.6329
 4589SOL    HW125403   3.332   0.128  17.062 -0.1555  0.8785  0.5180
 4589SOL    HW225404   3.270   0.079  16.938  0.6864 -2.7502  0.9840
 4590SOL     OW25405   0.432   4.182   1.397  0.0594  0.0451  0.1638
 4590SOL    HW125406   0.372   4.220   1.462  1.5768  0.8556  1.0885
 4590SOL    HW225407   0.377   4.169   1.319  0.8426 -2.1951  0.0062
 4591SOL     OW25408   1.888   0.501   6.679 -0.1637 -0.2897  0.3497
 4591SOL    HW125409   1.934   0.439   6.622  0.2373  1.9115 -1.6908
 4591SOL    HW225410   1.903   0.580   6.627 -2.2199  0.0199  0.2335
 4592SOL     OW25411   3.511   0.133   2.174 -0.2860 -0.0936  1.1401
 4592SOL    HW125412   3.470   0.185   2.243  0.4219  1.9849  0.0257
 4592SOL    HW225413   3.450   0.144   2.101  0.6853 -1.1101  0.1810
 4593SOL     OW25414   2.360   1.435  15.302 -0.9759  0.1365  0.7093
 4593SOL    HW125415   2.275   1.391  15.297 -0.6262 -0.5041  0.3882
 4593SOL    HW225416   2.333   1.527  15.303 -0.4020  0.2944  1.1731
 4594SOL     OW25417   3.479   3.656   9.468 -0.5655 -0.0623 -1.0014
 4594SOL    HW125418   3.473   3.565   9.497  3.1504  0.0748  0.2083
 4594SOL    HW225419   3.455   3.644   9.376 -2.7339 -1.8269 -0.1949
 4595SOL     OW25420   2.652   0.323   6.904  0.2349 -0.0212 -0.0626
 4595SOL    HW125421   2.580   0.374   6.941 -0.1243  0.1323 -0.9760
 4595SOL    HW225422   2.727   0.350   6.956  2.3134 -0.6798 -2.6809
 4596SOL     OW25423   2.836   3.460   5.740  0.2748  0.0558  0.2945
 4596SOL    HW125424   2.898   3.482   5.669  0.8270 -1.6138  0.2590
 4596SOL    HW225425   2.883   3.508   5.808 -0.2037  0.9246  0.0114
 4597SOL     OW25426   0.619   4.170   5.574  0.1065  0.4198  0.7886
 4597SOL    HW125427   0.675   4.247   5.586  0.8172 -0.0038  0.1909
 4597SOL    HW225428   0.678   4.110   5.530 -0.9933  1.0794 -1.5706
 4598SOL     OW25429   3.095   4.597   9.109  0.0170 -0.1737  0.9410
 4598SOL    HW125430   3.131   4.577   9.195 -0.1551  1.2761  1.3546
 4598SOL    HW225431   3.001   4.592   9.125  0.1459 -4.3029  0.3682
 4599SOL     OW25432   1.851   1.608   8.417  0.2112 -0.6298 -0.4042
 4599SOL    HW125433   1.835   1.569   8.331  1.1239 -3.0986  0.5463
 4599SOL    HW225434   1.888   1.532   8.461 -0.2190 -0.6726 -0.1199
 4600SOL     OW25435   3.188   0.320   4.393 -0.0152  0.2882 -0.1646
 4600SOL    HW125436   3.268   0.267   4.399 -1.1428 -1.3206  0.8805
 4600SOL    HW225437   3.138   0.290   4.469 -1.9659  0.3973 -1.3976
 4601SOL     OW25438   1.139   2.576   6.695  0.3587 -0.2353 -0.4401
 4601SOL    HW125439   1.143   2.563   6.789 -0.4480  3.5013  0.0848
 4601SOL    HW225440   1.231   2.598   6.681  0.1544  0.9209  0.1212
 4602SOL     OW25441   1.745   1.701   7.448  0.1689 -0.0220 -0.0422
 4602SOL    HW125442   1.723   1.622   7.398  0.4397 -0.1407  0.0301
 4602SOL    HW225443   1.800   1.753   7.390 -0.1511  0.3156 -0.0404
 4603SOL     OW25444   4.357   3.428   6.820  0.3646 -0.0025  0.1692
 4603SOL    HW125445   4.416   3.431   6.896 -0.0814  0.1563  0.5082
 4603SOL    HW225446   4.371   3.336   6.798 -0.8061 -0.7723  2.6776
 4604SOL     OW25447   3.658   3.660   6.724  0.0352 -0.9122  0.3128
 4604SOL    HW125448   3.749   3.639   6.747  0.8257  2.2075  0.0459
 4604SOL    HW225449   3.660   3.748   6.686 -1.1567 -1.5220 -1.1585
 4605SOL     OW25450   1.216   4.000   1.646 -0.0054  0.3444  0.2239
 4605SOL    HW125451   1.155   3.933   1.615  0.5675 -0.1037  0.0602
 4605SOL    HW225452   1.246   3.959   1.727  0.8481 -0.6684 -0.6021
 4606SOL     OW25453   4.567   2.899   3.762  0.0709  0.2050  0.0063
 4606SOL    HW125454   4.593   2.990   3.773  0.6249 -0.0868  1.1667
 4606SOL    HW225455   4.514   2.882   3.840  2.0308 -0.3213  1.2151
 4607SOL     OW25456   3.357   1.699   1.542  0.6488 -0.0854  1.3855
 4607SOL    HW125457   3.404   1.776   1.575 -0.0333  1.7417 -1.8499
 4607SOL    HW225458   3.419   1.627   1.538 -0.9229 -1.5304  3.2788
 4608SOL     OW25459   3.885   4.391  13.430 -0.4462  0.3670  0.5195
 4608SOL    HW125460   3.889   4.487  13.437  1.4398  0.2961  0.2440
 4608SOL    HW225461   3.956   4.363  13.488  2.0018 -0.3017 -2.7775
 4609SOL     OW25462   4.113   3.850   7.861  0.2800  0.2252 -0.0894
 4609SOL    HW125463   4.202   3.844   7.897  1.0376  0.2890 -1.9787
 4609SOL    HW225464   4.095   3.942   7.882  1.1053  0.1612  0.9050
 4610SOL     OW25465   4.497   4.606   5.891 -0.1089  0.0227  0.1171
 4610SOL    HW125466   4.466   4.587   5.802 -2.1953  2.7018  0.2893
 4610SOL    HW225467   4.588   4.616   5.864 -0.3599  1.3290 -0.2285
 4611SOL     OW25468   2.828   0.249   5.662  0.3001  0.2181  0.3344
 4611SOL    HW125469   2.778   0.323   5.697 -1.9085 -1.1224  0.0140
 4611SOL    HW225470   2.786   0.228   5.579  0.6985  0.5144  0.0574
 4612SOL     OW25471   2.098   1.056   0.225  0.4752 -0.1176 -0.2349
 4612SOL    HW125472   2.012   1.026   0.254  0.0626 -1.6839 -3.1934
 4612SOL    HW225473   2.101   1.040   0.131 -0.4300 -0.8100 -0.1465
 4613SOL     OW25474   0.446   0.723  10.376  0.5233  0.5156 -0.2339
 4613SOL    HW125475   0.520   0.667  10.354  1.3837  1.0148  1.3158
 4613SOL    HW225476   0.374   0.683  10.328  0.5733 -0.6414  0.6502
 4614SOL     OW25477   3.661   0.979   6.443 -0.3536 -0.0104 -0.7163
 4614SOL    HW125478   3.707   0.988   6.360 -0.6738 -0.9430 -0.9953
 4614SOL    HW225479   3.734   1.011   6.495 -1.5883  0.1138  0.9507
 4615SOL     OW25480   3.877   1.499   3.016 -0.2279  0.1642 -0.1436
 4615SOL    HW125481   3.930   1.516   2.938  0.8850 -2.7267 -0.0120
 4615SOL    HW225482   3.936   1.504   3.092 -0.2417  1.3874 -0.2087
 4616SOL     OW25483   4.088   0.516   2.197  0.5032  0.4704 -0.4310
 4616SOL    HW125484   4.087   0.459   2.120  1.2813  1.6829 -1.3366
 4616SOL    HW225485   4.174   0.488   2.228  0.4209 -1.1614 -1.6637
 4617SOL     OW25486   3.597   1.967  16.111  0.4677 -0.5764  0.1310
 4617SOL    HW125487   3.642   2.048  16.086  0.8627 -0.7171  0.4026
 4617SOL    HW225488   3.505   1.996  16.108  0.7993  0.5208  0.4547
 4618SOL     OW25489   1.971   3.527   3.252 -0.3334 -0.0531  0.0932
 4618SOL    HW125490   2.004   3.437   3.249 -2.2652 -0.7338 -0.4082
 4618SOL    HW225491   2.052   3.567   3.283 -1.5796  0.0917  3.1214
 4619SOL     OW25492   1.423   4.544  15.045 -0.0540 -0.3607 -0.1753
 4619SOL    HW125493   1.494   4.525  15.105 -0.6469  0.6554  0.8467
 4619SOL    HW225494   1.365   4.602  15.093 -1.1224 -0.5241 -1.2542
 4620SOL     OW25495   2.084   0.255   5.092 -0.3749 -0.2243 -0.0287
 4620SOL    HW125496   2.116   0.249   5.182  2.4204  1.4283 -0.9018
 4620SOL    HW225497   2.032   0.335   5.101  0.9494  0.6334 -0.0393
 4621SOL     OW25498   3.355   3.463   7.961 -0.0341  0.5928 -0.1015
 4621SOL    HW125499   3.315   3.421   8.037 -0.3886 -0.2334 -0.7501
 4621SOL    HW225500   3.444   3.428   7.959 -1.4219 -2.8101 -2.3132
 4622SOL     OW25501   4.678   4.470   6.602  0.1827  0.3176  0.3832
 4622SOL    HW125502   4.585   4.455   6.585  0.0699  0.6099  0.7409
 4622SOL    HW225503   4.714   4.386   6.576 -0.4429 -0.5110  2.2345
 4623SOL     OW25504   1.363   0.458   6.820 -0.8831  0.6272  0.3269
 4623SOL    HW125505   1.440   0.430   6.771  0.4148  2.4776  1.3300
 4623SOL    HW225506   1.384   0.547   6.848  0.9528  0.1254  0.5146
 4624SOL     OW25507   2.793   4.065   6.201 -0.0469 -0.0200 -0.3496
 4624SOL    HW125508   2.880   4.098   6.225 -0.3547  1.2879 -1.0171
 4624SOL    HW225509   2.763   4.116   6.126 -0.4383  1.6554  0.9368
 4625SOL     OW25510   3.698   3.514   2.785 -0.1991  0.7414 -0.3710
 4625SOL    HW125511   3.746   3.534   2.704  1.3356 -0.8484  0.1328
 4625SOL    HW225512   3.710   3.420   2.798 -0.8065  0.7345  0.0994
 4626SOL     OW25513   3.954   3.933  17.496  0.3932  0.1080  0.0295
 4626SOL    HW125514   3.905   3.998  17.446  3.1278  0.4691 -2.2020
 4626SOL    HW225515   4.017   3.983  17.548  0.5472 -1.3340  1.2319
 4627SOL     OW25516   1.644   2.675  14.437 -0.0062  0.5943 -0.1381
 4627SOL    HW125517   1.676   2.609  14.375 -1.8618 -0.9852  0.5787
 4627SOL    HW225518   1.704   2.662  14.510 -3.0199  0.1349  2.2493
 4628SOL     OW25519   2.595   0.668   3.965 -0.1801 -0.2905  0.0519
 4628SOL    HW125520   2.585   0.639   3.874  0.4015  1.9178 -0.7161
 4628SOL    HW225521   2.571   0.585   4.006 -0.8666 -0.5851 -0.9560
 4629SOL     OW25522   3.239   0.208  17.196  0.1586 -0.0974  0.1746
 4629SOL    HW125523   3.172   0.198  17.263 -0.6173  0.8047 -0.4534
 4629SOL    HW225524   3.273   0.297  17.207 -1.5686  0.3103  2.1948
 4630SOL     OW25525   2.066   2.646  16.645  0.1592 -0.5451  0.1359
 4630SOL    HW125526   2.077   2.582  16.716  3.2209  2.3200  2.2282
 4630SOL    HW225527   1.976   2.628  16.619  0.8261 -1.5351 -1.4923
 4631SOL     OW25528   1.308   0.592   3.284 -0.0932  0.0462 -0.2152
 4631SOL    HW125529   1.347   0.664   3.234 -0.5376 -0.3759 -1.1618
 4631SOL    HW225530   1.341   0.513   3.240 -1.6219 -0.5240 -0.3092
 4632SOL     OW25531   1.194   4.269   2.162 -0.4545  0.7588  0.5272
 4632SOL    HW125532   1.198   4.185   2.208 -0.1667 -0.5764 -1.9203
 4632SOL    HW225533   1.153   4.237   2.082  0.3803 -2.0095  1.1986
 4633SOL     OW25534   0.859   2.078   7.409  0.5075 -0.7402 -0.2929
 4633SOL    HW125535   0.820   2.156   7.449 -1.0993 -0.6000 -2.1687
 4633SOL    HW225536   0.944   2.107   7.376  0.1762 -1.8684 -2.1258
 4634SOL     OW25537   4.629   2.370   8.902 -0.0366  0.1087 -0.1724
 4634SOL    HW125538   4.642   2.289   8.951  0.5284  0.6642  0.5899
 4634SOL    HW225539   4.720   2.394   8.887 -0.0628  0.8921  0.8914
 4635SOL     OW25540   3.228   2.241  13.031  0.4243 -0.1019 -0.0648
 4635SOL    HW125541   3.237   2.319  13.085  1.2734 -0.5378  0.4278
 4635SOL    HW225542   3.319   2.223  13.006  0.4094 -0.9166  0.4712
 4636SOL     OW25543   4.432   0.015  14.820  0.1977 -0.3589  0.8455
 4636SOL    HW125544   4.417   0.002  14.726  2.8275 -1.4349  0.5575
 4636SOL    HW225545   4.527   0.019  14.804  0.0594  1.3944  0.4380
 4637SOL     OW25546   4.221   4.658   2.118  0.2819 -0.1889  0.3159
 4637SOL    HW125547   4.193   0.015   2.132 -0.8469 -0.5441  0.3761
 4637SOL    HW225548   4.147   4.611   2.158  0.0376 -2.1194 -2.4414
 4638SOL     OW25549   1.600   4.519  10.733  0.6241 -0.0463  0.0429
 4638SOL    HW125550   1.630   4.516  10.824  1.4392  1.2271 -0.1835
 4638SOL    HW225551   1.626   4.607  10.707  3.1741 -0.7392  0.2293
 4639SOL     OW25552   4.283   0.271  11.905  0.3048 -0.4069 -0.7887
 4639SOL    HW125553   4.260   0.352  11.949 -1.3005 -0.5512 -1.3526
 4639SOL    HW225554   4.377   0.268  11.920  0.2543  0.5354 -0.3061
 4640SOL     OW25555   3.346   1.958   5.549  0.0980  0.0939 -0.5328
 4640SOL    HW125556   3.423   1.902   5.552  0.2142  0.1990 -1.6939
 4640SOL    HW225557   3.309   1.935   5.464  1.6178 -0.6743 -0.9660
 4641SOL     OW25558   4.310   1.310   5.659 -0.6154  0.1731  0.1073
 4641SOL    HW125559   4.389   1.267   5.626  0.0142  2.6381 -1.5552
 4641SOL    HW225560   4.301   1.250   5.733  0.3758 -0.1036  0.0110
 4642SOL     OW25561   1.862   3.736   3.400  1.0418  0.1155  0.0902
 4642SOL    HW125562   1.876   3.669   3.334 -1.0807 -1.9641  1.7572
 4642SOL    HW225563   1.816   3.691   3.471 -1.2117  1.6055 -0.4418
 4643SOL     OW25564   4.083   0.411   9.513 -0.4445 -0.1386 -0.3672
 4643SOL    HW125565   4.154   0.375   9.460 -0.4552  1.2174 -1.2883
 4643SOL    HW225566   4.015   0.348   9.489 -0.1680  0.0748 -1.7115
 4644SOL     OW25567   2.056   3.415   5.731 -0.1586 -0.3491  0.0211
 4644SOL    HW125568   2.112   3.492   5.734 -1.5816  0.8015 -3.5752
 4644SOL    HW225569   2.118   3.342   5.742 -0.6252 -0.5769  1.1510
 4645SOL     OW25570   3.333   4.703  11.942  0.3038  0.6592  0.0639
 4645SOL    HW125571   3.324   0.056  11.905  2.8563  0.9980  0.2574
 4645SOL    HW225572   3.424   4.680  11.921  0.6030  0.5643  1.4622
 4646SOL     OW25573   1.410   1.942  16.560  0.2215  0.4414 -0.2156
 4646SOL    HW125574   1.422   1.966  16.652  0.7620 -0.5349 -0.0374
 4646SOL    HW225575   1.324   1.899  16.559  0.5811 -0.2945  1.0351
 4647SOL     OW25576   0.289   1.325   6.023 -1.2876  0.2585  0.4073
 4647SOL    HW125577   0.228   1.258   6.052 -2.0787  0.4207 -0.8625
 4647SOL    HW225578   0.338   1.341   6.103 -1.1330  1.7543  0.0172
 4648SOL     OW25579   0.323   4.145  10.670  0.3094  0.4057 -0.2326
 4648SOL    HW125580   0.389   4.146  10.601 -2.9286 -0.8425 -3.3340
 4648SOL    HW225581   0.371   4.101  10.740  0.5020  0.3346 -0.4091
 4649SOL     OW25582   4.048   2.035   5.605  0.0393  0.3125  0.1953
 4649SOL    HW125583   3.963   2.075   5.589  0.4283  1.6932  1.4752
 4649SOL    HW225584   4.092   2.106   5.652 -0.5589  0.6954  0.1739
 4650SOL     OW25585   0.384   1.890   0.752  0.5998 -0.1778 -0.1388
 4650SOL    HW125586   0.394   1.901   0.657  0.1053  1.1753 -0.0345
 4650SOL    HW225587   0.460   1.836   0.771  0.9915 -0.3546 -2.2388
 4651SOL     OW25588   4.006   4.496   3.329 -0.2244 -0.0843 -0.5509
 4651SOL    HW125589   3.992   4.580   3.286 -1.8126  1.0676  2.2682
 4651SOL    HW225590   4.095   4.475   3.302 -0.3394 -2.6039  1.0305
 4652SOL     OW25591   0.515   4.134  15.396  0.0674  0.0283 -0.2460
 4652SOL    HW125592   0.462   4.115  15.474 -0.5271  1.1910 -0.3581
 4652SOL    HW225593   0.447   4.157  15.333 -0.6571  1.8842  1.2130
 4653SOL     OW25594   0.137   3.144   1.482 -0.4077  0.0875  0.4218
 4653SOL    HW125595   0.057   3.197   1.490 -1.3245 -1.5113  1.8332
 4653SOL    HW225596   0.147   3.119   1.574 -1.8863 -0.1461  0.5203
 4654SOL     OW25597   1.920   0.052   1.164 -0.1572  0.1708  0.4047
 4654SOL    HW125598   1.988   0.098   1.115  0.6117 -0.5523  0.7936
 4654SOL    HW225599   1.845   0.092   1.120 -0.6580 -0.0660  1.0332
 4655SOL     OW25600   4.322   0.089   3.373  0.1206 -0.1691 -0.3671
 4655SOL    HW125601   4.312   0.095   3.278 -2.4294  0.4436 -0.0462
 4655SOL    HW225602   4.383   0.016   3.380  0.1234 -0.0608  0.7050
 4656SOL     OW25603   0.358   1.971  17.125  0.4852  0.6661 -0.5855
 4656SOL    HW125604   0.426   1.985  17.060  1.7805 -0.4577  0.5429
 4656SOL    HW225605   0.284   2.001  17.072 -0.3076 -1.2422 -0.5332
 4657SOL     OW25606   2.149   1.033   2.781 -0.5732 -0.3524  0.3964
 4657SOL    HW125607   2.194   1.117   2.768 -2.4994  0.3954 -1.4258
 4657SOL    HW225608   2.218   0.982   2.737  0.1611  1.0877 -0.1195
 4658SOL     OW25609   0.213   1.654  12.985 -0.1303 -0.4371  0.2028
 4658SOL    HW125610   0.293   1.661  13.036 -0.6897 -2.6195  1.4106
 4658SOL    HW225611   0.248   1.646  12.896  1.3412  0.7452  0.6917
 4659SOL     OW25612   2.780   3.693   2.512  0.5332 -0.3351  0.1158
 4659SOL    HW125613   2.872   3.672   2.495  0.6219 -0.9531  1.3506
 4659SOL    HW225614   2.749   3.603   2.512 -0.1846 -0.0886  0.6463
 4660SOL     OW25615   3.673   4.672   1.431  0.2340  0.2480  0.0364
 4660SOL    HW125616   3.706   4.605   1.371 -0.4149  0.7992 -0.9316
 4660SOL    HW225617   3.581   4.668   1.406 -0.2571  0.3619  1.8611
 4661SOL     OW25618   1.274   0.436  11.393 -0.0903 -0.1496 -0.2323
 4661SOL    HW125619   1.301   0.352  11.357 -0.6553  0.3199 -1.7536
 4661SOL    HW225620   1.337   0.492  11.347 -0.0837 -0.1286 -0.1980
 4662SOL     OW25621   3.368   4.548   1.648  0.0663 -0.4246  0.1199
 4662SOL    HW125622   3.385   4.471   1.703 -0.7487 -0.7297 -0.0542
 4662SOL    HW225623   3.356   4.509   1.562  0.6853 -2.0760  0.7705
 4663SOL     OW25624   4.713   0.804   6.788  0.5484 -0.4218  0.9146
 4663SOL    HW125625   4.721   0.899   6.799  2.0018 -0.3746 -0.4706
 4663SOL    HW225626   4.691   0.812   6.695  0.4609 -0.8863  0.8979
 4664SOL     OW25627   4.314   0.107   3.898  0.1354 -0.5859 -0.2118
 4664SOL    HW125628   4.271   0.172   3.843 -0.1967 -1.3958 -0.9209
 4664SOL    HW225629   4.384   0.158   3.938 -0.8813  0.3084  0.4110
 4665SOL     OW25630   2.684   2.780   8.419  0.0495 -0.0281 -0.6119
 4665SOL    HW125631   2.631   2.852   8.453 -3.6040 -2.4469 -1.1557
 4665SOL    HW225632   2.682   2.729   8.501  0.1540  0.2036 -0.4636
 4666SOL     OW25633   0.669   2.777   7.292 -0.9552 -0.5399  0.4856
 4666SOL    HW125634   0.603   2.736   7.349 -3.3807  3.9299  0.9260
 4666SOL    HW225635   0.615   2.842   7.248 -0.2732 -0.9304 -0.9083
 4667SOL     OW25636   4.425   4.036   6.115  0.0993 -0.5452  0.0022
 4667SOL    HW125637   4.461   4.080   6.192  2.0107 -1.8491 -0.1482
 4667SOL    HW225638   4.474   3.954   6.118  1.6913  0.3630 -1.6759
 4668SOL     OW25639   2.286   4.556   2.478 -0.3035  0.0984 -0.8193
 4668SOL    HW125640   2.330   4.505   2.411  0.9301 -0.8908  0.7446
 4668SOL    HW225641   2.265   4.488   2.542 -0.5818 -1.1332 -2.2372
 4669SOL     OW25642   1.172   2.222   7.073  0.3652  0.0463 -0.4404
 4669SOL    HW125643   1.123   2.238   6.992 -0.4745 -0.7063 -0.0797
 4669SOL    HW225644   1.254   2.192   7.034  1.0374 -0.3603  1.3103
 4670SOL     OW25645   2.685   1.268   1.247  0.2000 -0.3167 -0.2629
 4670SOL    HW125646   2.734   1.340   1.208 -0.0352  0.2542  0.4959
 4670SOL    HW225647   2.747   1.203   1.215  0.1650 -0.1512 -0.6654
 4671SOL     OW25648   2.436   3.248   6.722  1.1705  0.0883 -0.1680
 4671SOL    HW125649   2.371   3.317   6.728 -0.5707 -1.3045 -3.5745
 4671SOL    HW225650   2.401   3.202   6.646 -0.5358 -0.1491  0.7614
 4672SOL     OW25651   3.772   1.453   9.430  0.1743 -0.2715  0.0375
 4672SOL    HW125652   3.687   1.497   9.422 -0.2066 -0.6957  1.7669
 4672SOL    HW225653   3.796   1.417   9.345 -0.6691 -0.9946  0.1001
 4673SOL     OW25654   2.446   0.469  10.583  0.2066 -0.1549 -0.2726
 4673SOL    HW125655   2.351   0.471  10.575  0.1998 -0.8963 -0.3732
 4673SOL    HW225656   2.475   0.454  10.493 -2.2251  2.0894 -1.4255
 4674SOL     OW25657   1.465   1.043   3.809  0.5049 -0.5324 -0.0309
 4674SOL    HW125658   1.488   1.135   3.796  0.4914 -0.4739  0.3551
 4674SOL    HW225659   1.457   1.041   3.905 -2.3283 -1.6241 -0.2698
 4675SOL     OW25660   2.530   2.554   6.380 -0.2962 -0.3304  0.1609
 4675SOL    HW125661   2.482   2.530   6.459  1.6175 -1.9644  0.8170
 4675SOL    HW225662   2.617   2.519   6.397 -0.3667 -0.5859  0.0123
 4676SOL     OW25663   3.291   3.476   5.558  0.0262  0.4775 -0.5714
 4676SOL    HW125664   3.312   3.383   5.554 -2.0504 -0.0814  1.6486
 4676SOL    HW225665   3.294   3.499   5.650 -1.9266  1.5310 -0.7767
 4677SOL     OW25666   3.959   4.556   4.940  0.1359  0.6442  0.2806
 4677SOL    HW125667   4.042   4.599   4.919 -0.1441  0.9483 -0.1845
 4677SOL    HW225668   4.003   4.529   5.020 -2.1648 -1.0940  0.9726
 4678SOL     OW25669   2.591   4.327  17.591 -0.1281  0.4218 -0.5700
 4678SOL    HW125670   2.560   4.246  17.631  1.9528 -0.0080  0.1282
 4678SOL    HW225671   2.563   4.387  17.661 -0.0779  0.2189 -0.3748
 4679SOL     OW25672   4.341   2.846   0.226 -0.3589 -0.2327 -0.0853
 4679SOL    HW125673   4.339   2.883   0.314  0.1559 -2.5146  0.8860
 4679SOL    HW225674   4.431   2.814   0.216  0.0442  0.1865  2.1210
 4680SOL     OW25675   4.395   1.245   2.886  0.8234 -0.3904  0.1200
 4680SOL    HW125676   4.353   1.161   2.898  1.8735 -0.7238  1.5079
 4680SOL    HW225677   4.392   1.285   2.973  0.3662 -3.2925  1.4043
 4681SOL     OW25678   1.952   1.590   2.274  0.0567 -0.0578 -0.3183
 4681SOL    HW125679   1.916   1.679   2.283 -0.1920 -0.1373 -0.5259
 4681SOL    HW225680   1.954   1.546   2.359 -2.2360  0.4137 -0.0283
 4682SOL     OW25681   0.948   0.395   8.107  0.5565  0.2975 -0.2771
 4682SOL    HW125682   0.889   0.323   8.082 -1.0434  1.2175  0.8071
 4682SOL    HW225683   0.899   0.437   8.178  2.1457  0.3549  0.7861
 4683SOL     OW25684   0.479   4.190   3.192  0.1809 -0.1144 -0.1411
 4683SOL    HW125685   0.573   4.182   3.174  0.0178  0.2017 -1.1422
 4683SOL    HW225686   0.437   4.121   3.140 -0.0273 -0.7645  0.8933
 4684SOL     OW25687   2.953   2.550  12.013 -0.0102 -0.1556  0.2633
 4684SOL    HW125688   3.040   2.581  11.989  0.1663  0.2370  1.4478
 4684SOL    HW225689   2.920   2.519  11.928 -2.7102  1.9925  0.5358
 4685SOL     OW25690   0.872   0.043   5.116  0.3573 -0.7128  0.2065
 4685SOL    HW125691   0.876   0.031   5.021  1.1554 -0.9316  0.2654
 4685SOL    HW225692   0.961   0.066   5.143 -0.3201  1.5488  0.5100
 4686SOL     OW25693   0.256   0.838   7.182  0.0013 -0.3656  0.0336
 4686SOL    HW125694   0.349   0.858   7.188  0.5209 -3.0203  0.5666
 4686SOL    HW225695   0.223   0.919   7.143  1.0667  0.2455  0.3946
 4687SOL     OW25696   2.725   0.860   8.142 -0.1073  0.6783  0.1286
 4687SOL    HW125697   2.773   0.870   8.059 -0.6279 -1.5197 -0.4524
 4687SOL    HW225698   2.786   0.898   8.205 -0.7522  0.2593  1.0082
 4688SOL     OW25699   4.579   1.519   5.837  0.5599 -1.0375  0.3509
 4688SOL    HW125700   4.624   1.580   5.896 -0.0080 -0.1158 -0.1660
 4688SOL    HW225701   4.658   1.468   5.820 -0.0791 -2.0869  0.5382
 4689SOL     OW25702   3.781   2.586  13.768 -0.1815  0.1075  0.1370
 4689SOL    HW125703   3.832   2.592  13.688 -0.0413 -4.4048 -0.1005
 4689SOL    HW225704   3.857   2.589  13.827  0.8687  1.3129 -1.2796
 4690SOL     OW25705   2.138   0.023  12.852 -0.1464 -0.1803  0.7033
 4690SOL    HW125706   2.233   0.029  12.854 -0.0331 -1.5783 -1.1612
 4690SOL    HW225707   2.118   0.083  12.780 -1.0064  0.2592  1.2968
 4691SOL     OW25708   1.975   3.938   3.526 -0.4525 -0.5234  0.1859
 4691SOL    HW125709   1.926   3.867   3.485 -2.2076  0.1464  1.1356
 4691SOL    HW225710   2.069   3.920   3.515 -0.5193 -1.1400  0.6146
 4692SOL     OW25711   3.914   2.196   7.226  0.1913 -0.6884  0.1340
 4692SOL    HW125712   4.001   2.154   7.226  0.1487 -0.7880 -0.7312
 4692SOL    HW225713   3.927   2.257   7.153  2.8358 -0.3729  0.8604
 4693SOL     OW25714   3.749   1.113  11.043  0.5632 -0.3730 -0.0635
 4693SOL    HW125715   3.818   1.124  11.109  1.3844 -2.0543 -0.6355
 4693SOL    HW225716   3.730   1.020  11.055 -0.9491  0.2572  2.4087
 4694SOL     OW25717   4.464   2.180   4.628 -0.2495  0.3537  0.3327
 4694SOL    HW125718   4.371   2.191   4.647 -0.6254 -2.8136  0.3023
 4694SOL    HW225719   4.502   2.204   4.713  0.0587 -0.5083  0.4349
 4695SOL     OW25720   1.067   4.185   1.948 -0.4891  0.5067  0.2046
 4695SOL    HW125721   1.065   4.245   1.873  3.3677  0.9048  0.4239
 4695SOL    HW225722   1.072   4.095   1.915  1.2434  0.6698  0.0178
 4696SOL     OW25723   4.427   1.192   1.995  0.1607  0.4324 -0.1659
 4696SOL    HW125724   4.468   1.193   2.081  1.4550  2.7963 -0.7994
 4696SOL    HW225725   4.363   1.263   2.006 -0.2774  0.1539 -0.9286
 4697SOL     OW25726   2.136   2.489  17.659  0.3404 -0.1868 -0.2073
 4697SOL    HW125727   2.179   2.439  17.728 -3.3452 -0.5012  1.8472
 4697SOL    HW225728   2.196   2.564  17.656 -0.6244  0.5682 -1.0865
 4698SOL     OW25729   4.540   1.532   4.245  0.0858 -0.7743  0.4297
 4698SOL    HW125730   4.578   1.500   4.327 -1.4073 -0.9770  1.0543
 4698SOL    HW225731   4.527   1.625   4.264 -0.9573 -0.5489 -1.3996
 4699SOL     OW25732   2.829   3.297   8.377 -0.1073  0.4119 -0.1474
 4699SOL    HW125733   2.778   3.225   8.340  0.9038 -0.8207  0.8246
 4699SOL    HW225734   2.901   3.249   8.418  1.1704  1.2838 -1.4286
 4700SOL     OW25735   4.527   2.170   3.358  0.2253 -0.4638  0.0169
 4700SOL    HW125736   4.509   2.076   3.365  0.1829 -0.5519 -1.3229
 4700SOL    HW225737   4.623   2.176   3.363  0.0976 -0.0756  1.8900
 4701SOL     OW25738   2.175   1.616   5.285  0.0688 -0.2128 -0.2218
 4701SOL    HW125739   2.236   1.679   5.324  1.8152 -1.9097 -0.1939
 4701SOL    HW225740   2.170   1.635   5.192  2.4022  0.9029 -0.1299
 4702SOL     OW25741   2.236   2.506   4.021 -0.1631 -0.4003  0.5558
 4702SOL    HW125742   2.284   2.423   4.027 -2.4406 -1.7725 -0.2423
 4702SOL    HW225743   2.313   2.562   4.018  0.5668 -1.5644 -2.2442
 4703SOL     OW25744   1.705   3.325   0.336 -0.0454  0.1663 -0.0129
 4703SOL    HW125745   1.732   3.284   0.253 -0.8326 -1.0155  0.3061
 4703SOL    HW225746   1.741   3.266   0.402 -1.1191 -0.0883  0.3513
 4704SOL     OW25747   3.203   1.222   4.794 -0.7350  0.3497  0.3382
 4704SOL    HW125748   3.131   1.185   4.743  1.0516 -0.7036 -1.4173
 4704SOL    HW225749   3.205   1.154   4.861  1.4740  0.9787  0.9372
 4705SOL     OW25750   2.662   4.519   0.739 -0.2041 -0.0876 -0.4234
 4705SOL    HW125751   2.681   4.482   0.652 -1.2238  0.3291 -0.8200
 4705SOL    HW225752   2.685   4.446   0.796  1.5259  1.8855  1.4301
 4706SOL     OW25753   3.784   1.992   0.777 -0.4240  0.6887 -0.2262
 4706SOL    HW125754   3.699   2.017   0.811 -0.6464  0.6466 -0.7521
 4706SOL    HW225755   3.838   2.067   0.804  0.7511 -0.4835  0.6425
 4707SOL     OW25756   1.200   2.645  12.793  0.1174 -0.9169  0.3848
 4707SOL    HW125757   1.202   2.604  12.706  3.0518  0.1742 -0.0468
 4707SOL    HW225758   1.259   2.589  12.843 -0.8918 -1.9457  0.4210
 4708SOL     OW25759   0.931   3.049   6.535  0.4355  0.4053  0.9346
 4708SOL    HW125760   0.922   2.953   6.529 -0.1519  0.5071  0.0983
 4708SOL    HW225761   0.994   3.045   6.607 -0.8694 -1.3816  1.9939
 4709SOL     OW25762   1.042   2.995   1.533 -0.1685  0.0698 -0.2545
 4709SOL    HW125763   1.040   3.043   1.450  0.7064  1.1785  0.3686
 4709SOL    HW225764   0.990   2.915   1.522  0.1901 -0.3690  1.3110
 4710SOL     OW25765   1.511   2.143   1.682 -0.1400 -0.5773  0.3749
 4710SOL    HW125766   1.510   2.058   1.638 -0.6113 -0.2568 -0.2304
 4710SOL    HW225767   1.545   2.120   1.768 -3.1496 -2.8644  0.9331
 4711SOL     OW25768   3.408   0.980  10.711 -0.5375 -0.7325 -0.1636
 4711SOL    HW125769   3.318   1.011  10.705 -0.9390 -0.9232  4.5673
 4711SOL    HW225770   3.415   0.995  10.806 -0.5003  2.3096 -0.6543
 4712SOL     OW25771   4.071   2.760   5.475  0.1884  0.0347 -0.4368
 4712SOL    HW125772   4.019   2.756   5.395  0.7727 -1.5329 -0.7499
 4712SOL    HW225773   4.051   2.674   5.512  1.5168  0.8885  2.2564
 4713SOL     OW25774   2.201   2.478   7.230 -0.2848  0.0519  0.0637
 4713SOL    HW125775   2.203   2.573   7.216 -2.7300  0.2366  0.8777
 4713SOL    HW225776   2.114   2.454   7.199  0.2648 -0.3353 -1.1750
 4714SOL     OW25777   2.997   1.914   0.136  0.2756  0.0253 -0.3413
 4714SOL    HW125778   3.072   1.943   0.085  1.1343 -1.7519 -0.0873
 4714SOL    HW225779   3.018   1.821   0.128  1.2859  0.1619  0.7396
 4715SOL     OW25780   0.740   4.512   3.253  0.3404  0.1113  0.4733
 4715SOL    HW125781   0.651   4.545   3.259  0.3783  0.1807  0.6489
 4715SOL    HW225782   0.727   4.441   3.317  1.4215 -0.9318 -0.4585
 4716SOL     OW25783   1.901   2.940   5.110 -0.1390  0.3199  0.2361
 4716SOL    HW125784   1.817   2.976   5.081  0.6011  0.1166 -2.2026
 4716SOL    HW225785   1.882   2.925   5.202  1.2228  0.8935  0.6029
 4717SOL     OW25786   3.017   0.887   1.791 -0.7653  0.7982 -0.4351
 4717SOL    HW125787   3.106   0.877   1.823 -0.8015  1.9361  0.0349
 4717SOL    HW225788   2.961   0.837   1.850 -0.8683  2.4602  0.8830
 4718SOL     OW25789   3.428   0.086   6.359 -0.5197  0.3462  0.0113
 4718SOL    HW125790   3.339   0.065   6.389 -0.1657 -1.1581  0.0197
 4718SOL    HW225791   3.405   0.143   6.286  1.0025  2.7725  1.4271
 4719SOL     OW25792   4.509   3.153   0.171  0.8680 -0.1400  0.2411
 4719SOL    HW125793   4.511   3.120   0.261 -0.8121 -1.7421 -0.2964
 4719SOL    HW225794   4.446   3.225   0.162  0.6263 -0.2596  0.9718
 4720SOL     OW25795   3.856   4.658  15.267 -0.2419 -0.0575 -0.7209
 4720SOL    HW125796   3.927   4.700  15.219  0.3411 -2.6471 -2.1549
 4720SOL    HW225797   3.818   0.002  15.307  0.0817  0.0120 -0.5418
 4721SOL     OW25798   3.180   0.845   2.865 -0.0438  0.3715  0.1768
 4721SOL    HW125799   3.221   0.823   2.950 -0.3048 -0.3842  0.1096
 4721SOL    HW225800   3.250   0.822   2.804 -0.2770  0.8659 -0.2692
 4722SOL     OW25801   1.751   2.302   4.056 -0.2622  0.1964  0.8009
 4722SOL    HW125802   1.797   2.386   4.064  0.5800 -0.1186 -0.6242
 4722SOL    HW225803   1.726   2.301   3.964  1.2606 -1.0399  0.3960
 4723SOL     OW25804   2.175   4.111   2.335  0.5825  0.3050 -0.3853
 4723SOL    HW125805   2.130   4.097   2.419  3.0520 -0.0487  0.8705
 4723SOL    HW225806   2.267   4.116   2.361  0.2121 -0.8398  1.2002
 4724SOL     OW25807   0.689   2.819  12.851 -0.2898 -0.2485  0.2284
 4724SOL    HW125808   0.667   2.831  12.943 -0.9781 -0.5554  0.1054
 4724SOL    HW225809   0.749   2.746  12.862  2.7967  2.1993 -0.3066
 4725SOL     OW25810   0.739   3.620   5.702  0.0408 -0.1308 -0.0316
 4725SOL    HW125811   0.693   3.694   5.662 -1.3756 -1.1734 -0.3428
 4725SOL    HW225812   0.685   3.610   5.780 -0.3086  0.9106 -0.1483
 4726SOL     OW25813   1.616   1.880   7.157  0.3716 -0.7034 -0.4424
 4726SOL    HW125814   1.551   1.939   7.118  1.8304  2.6586  2.2053
 4726SOL    HW225815   1.678   1.849   7.090  2.5206  1.7111  0.3934
 4727SOL     OW25816   1.881   1.702   3.451 -0.4245  0.0791 -0.3365
 4727SOL    HW125817   1.923   1.695   3.537  0.1073  2.7711 -0.3423
 4727SOL    HW225818   1.851   1.793   3.461 -0.0781  0.0213  1.3499
 4728SOL     OW25819   3.058   3.042   0.508 -0.3250  0.5210  0.3682
 4728SOL    HW125820   3.144   3.027   0.470 -0.9911  1.3261 -1.4451
 4728SOL    HW225821   3.061   2.994   0.591 -0.8004 -0.7954 -0.3786
 4729SOL     OW25822   0.295   4.450  10.093  0.2822  0.5004  0.1522
 4729SOL    HW125823   0.276   4.544  10.100  1.2764  0.7012  0.1783
 4729SOL    HW225824   0.223   4.408  10.141 -0.6681  1.3344 -0.5235
 4730SOL     OW25825   0.606   1.151   7.732  0.1554 -0.3278 -0.4868
 4730SOL    HW125826   0.567   1.072   7.696  0.7907 -1.7733  1.9657
 4730SOL    HW225827   0.680   1.123   7.785 -0.8380 -0.7904  0.6684
 4731SOL     OW25828   4.520   3.417   7.042  1.0283 -0.4711  0.5262
 4731SOL    HW125829   4.569   3.335   7.053 -1.1748 -1.7685  0.6043
 4731SOL    HW225830   4.523   3.458   7.128  0.2529 -0.0706  0.3625
 4732SOL     OW25831   2.268   1.822   3.750 -0.7954 -0.2066 -0.0331
 4732SOL    HW125832   2.310   1.835   3.835 -1.0701  1.1511 -0.0981
 4732SOL    HW225833   2.285   1.906   3.707  3.8288 -0.6956  0.8901
 4733SOL     OW25834   4.220   1.887   8.831 -0.2160  0.6693  0.5230
 4733SOL    HW125835   4.242   1.849   8.916  4.7778 -1.8220 -1.9297
 4733SOL    HW225836   4.144   1.943   8.850  0.0226  1.6529 -1.4061
 4734SOL     OW25837   3.970   0.720  12.481  0.2473  0.4512 -0.2895
 4734SOL    HW125838   4.008   0.807  12.497  0.3969  0.1118  1.1477
 4734SOL    HW225839   4.047   0.672  12.450  0.3202  1.4700 -1.7191
 4735SOL     OW25840   0.840   4.123  13.681 -0.4847 -0.0110 -0.3834
 4735SOL    HW125841   0.865   4.065  13.754  0.7738 -1.4358 -1.9303
 4735SOL    HW225842   0.851   4.066  13.605  2.4610 -0.9556  0.7155
 4736SOL     OW25843   0.169   4.397  12.547  0.2383  0.2379 -0.1716
 4736SOL    HW125844   0.253   4.383  12.503 -0.8844 -1.7268 -1.6743
 4736SOL    HW225845   0.137   4.307  12.554 -0.2206  0.5934  2.0939
 4737SOL     OW25846   4.596   0.933  12.451  0.0135  0.3507  0.5026
 4737SOL    HW125847   4.507   0.902  12.436 -0.7406  2.5648  0.3301
 4737SOL    HW225848   4.635   0.848  12.466  1.0235  0.8694  0.8082
 4738SOL     OW25849   4.628   2.545   4.853  0.1373 -0.1576 -0.1353
 4738SOL    HW125850   4.629   2.617   4.789  0.5506 -1.5974 -1.7527
 4738SOL    HW225851   4.536   2.528   4.874 -0.2597 -1.4179 -2.9418
 4739SOL     OW25852   2.737   1.964   3.129 -0.9315 -1.0604  0.1676
 4739SOL    HW125853   2.754   2.058   3.129 -0.5262 -1.1302 -2.0142
 4739SOL    HW225854   2.705   1.951   3.040  1.9726  2.5496 -1.3867
 4740SOL     OW25855   0.222   1.319   2.475  0.2969 -0.2817  0.1304
 4740SOL    HW125856   0.159   1.247   2.481 -0.6251  0.3946 -1.3006
 4740SOL    HW225857   0.231   1.323   2.380 -0.5571  1.3598  0.1130
 4741SOL     OW25858   2.433   3.611   6.965 -0.3400  0.2079  0.5873
 4741SOL    HW125859   2.427   3.705   6.946  1.4592  0.4560  1.2983
 4741SOL    HW225860   2.434   3.603   7.060  0.4825  0.3925  0.5924
 4742SOL     OW25861   4.314   3.340   7.917  0.2641  0.3036 -0.1705
 4742SOL    HW125862   4.296   3.376   7.830  0.2153  3.0138  0.9694
 4742SOL    HW225863   4.391   3.288   7.896 -0.3362  0.3906 -2.5914
 4743SOL     OW25864   3.177   4.592  15.916  0.0175  0.5018 -0.1178
 4743SOL    HW125865   3.152   4.517  15.970 -0.9910 -0.0078 -1.2812
 4743SOL    HW225866   3.258   4.629  15.949 -0.0189  0.9123 -0.4832
 4744SOL     OW25867   3.805   0.436   9.807 -0.4469 -0.7600 -0.0405
 4744SOL    HW125868   3.885   0.488   9.813  0.7662 -2.8334  1.9005
 4744SOL    HW225869   3.846   0.349   9.806 -3.4453 -2.1471 -1.2455
 4745SOL     OW25870   2.529   0.898   6.916  0.0453  0.0023 -0.3000
 4745SOL    HW125871   2.581   0.829   6.956 -0.4565 -0.4139 -0.3619
 4745SOL    HW225872   2.468   0.846   6.864 -0.3031 -0.4459  0.5667
 4746SOL     OW25873   3.197   1.148   9.280 -0.0989  0.1651  0.4252
 4746SOL    HW125874   3.140   1.074   9.295  1.4732 -1.1401 -0.0210
 4746SOL    HW225875   3.132   1.213   9.253 -0.6334 -1.5756 -2.4440
 4747SOL     OW25876   1.689   0.998   3.303 -0.7371  0.1562  0.2509
 4747SOL    HW125877   1.727   0.995   3.215 -3.1184  0.0634 -0.7806
 4747SOL    HW225878   1.722   1.088   3.301  0.8326 -0.4287 -0.4924
 4748SOL     OW25879   0.394   1.205   9.712  0.1100  0.1527  0.3539
 4748SOL    HW125880   0.314   1.210   9.660 -1.7001 -0.0462  3.1397
 4748SOL    HW225881   0.397   1.297   9.738  2.0669 -0.0910  0.9944
 4749SOL     OW25882   1.347   2.715   8.086  0.3331 -0.2747 -0.3612
 4749SOL    HW125883   1.282   2.773   8.047 -1.8288 -1.7919  0.9373
 4749SOL    HW225884   1.296   2.647   8.130  0.2233  1.4233  2.1457
 4750SOL     OW25885   3.214   3.901   7.073  0.5338 -0.0686  0.1080
 4750SOL    HW125886   3.233   3.816   7.033  2.9507  0.5688 -0.1452
 4750SOL    HW225887   3.291   3.955   7.053  1.8273 -1.7864  0.4262
 4751SOL     OW25888   3.949   1.356   8.929 -0.2240  0.1408  0.1531
 4751SOL    HW125889   3.934   1.351   8.834 -0.5908  0.3030  0.2017
 4751SOL    HW225890   4.036   1.317   8.932 -0.6823 -0.7525  1.5695
 4752SOL     OW25891   0.925   1.088   5.282  0.8337  0.0032 -0.1946
 4752SOL    HW125892   0.930   1.087   5.378  0.6150  1.9246 -0.1775
 4752SOL    HW225893   0.833   1.102   5.261  1.2530 -0.6163 -2.4309
 4753SOL     OW25894   0.331   0.961   6.332  0.0815  0.1121  0.0431
 4753SOL    HW125895   0.354   1.019   6.404  1.5254 -1.7752  1.0988
 4753SOL    HW225896   0.348   0.883   6.385  0.5464  0.3585  0.2600
 4754SOL     OW25897   0.813   3.426   8.602 -0.4156  0.8207 -0.1542
 4754SOL    HW125898   0.748   3.356   8.604  0.1375  0.3018 -0.3748
 4754SOL    HW225899   0.839   3.432   8.510 -0.0008  1.1715 -0.0138
 4755SOL     OW25900   4.236   2.357   4.762  0.4471 -0.2339  0.7036
 4755SOL    HW125901   4.165   2.299   4.735 -1.0578  3.2204 -2.5980
 4755SOL    HW225902   4.211   2.428   4.703 -0.0950 -1.7234 -0.8716
 4756SOL     OW25903   3.837   0.115  17.098  0.3419  0.1149  0.3084
 4756SOL    HW125904   3.922   0.092  17.135 -0.3188 -1.1721  1.0268
 4756SOL    HW225905   3.768   0.105  17.163  2.2200 -2.1603  1.9501
 4757SOL     OW25906   2.280   4.205   4.401  0.1447  0.0342 -0.2009
 4757SOL    HW125907   2.290   4.226   4.308  3.8276 -1.3233 -0.1067
 4757SOL    HW225908   2.340   4.265   4.445  0.3489 -0.9430  0.8370
 4758SOL     OW25909   1.938   2.496   4.035 -0.1818 -0.2815 -0.2993
 4758SOL    HW125910   1.918   2.546   3.956  3.0443  0.3466 -0.6887
 4758SOL    HW225911   2.033   2.494   4.036 -0.2279 -1.0782  2.4601
 4759SOL     OW25912   2.302   1.184   7.419  0.0147 -0.3393 -0.2225
 4759SOL    HW125913   2.230   1.125   7.442 -0.4790  0.2131 -0.3492
 4759SOL    HW225914   2.363   1.130   7.370  0.4386  1.0313 -1.1895
 4760SOL     OW25915   1.381   3.107  14.196 -0.1081 -0.3528 -0.3704
 4760SOL    HW125916   1.296   3.072  14.170 -0.2101  0.5055 -1.1965
 4760SOL    HW225917   1.429   3.121  14.114  0.1219  0.7726 -0.0482
 4761SOL     OW25918   2.495   4.266   6.201  0.1517  0.2453  0.1624
 4761SOL    HW125919   2.459   4.215   6.129 -0.2541  0.6868  0.0565
 4761SOL    HW225920   2.583   4.293   6.174 -1.2714  4.2782 -0.3894
 4762SOL     OW25921   1.797   0.293   6.402 -0.0505 -0.2657 -0.1212
 4762SOL    HW125922   1.885   0.330   6.407 -1.0452  2.2273 -0.8264
 4762SOL    HW225923   1.801   0.236   6.326  0.7349 -0.2023 -0.1290
 4763SOL     OW25924   2.843   4.510   1.272 -0.2927 -0.1338  0.1433
 4763SOL    HW125925   2.904   4.543   1.338 -0.9463  0.2984  0.5337
 4763SOL    HW225926   2.762   4.510   1.323 -0.7179 -1.2455 -0.5361
 4764SOL     OW25927   0.489   2.095   8.518 -0.6124  0.6525 -0.2639
 4764SOL    HW125928   0.401   2.062   8.532 -0.1421 -1.0680 -1.2850
 4764SOL    HW225929   0.537   2.012   8.521 -1.1655  0.4287  1.8726
 4765SOL     OW25930   4.487   1.691  14.464 -0.2540  0.0934  0.0265
 4765SOL    HW125931   4.569   1.665  14.507 -1.5917 -3.1249  0.5762
 4765SOL    HW225932   4.417   1.676  14.527  0.8582  2.2230  1.7753
 4766SOL     OW25933   3.426   3.804  16.234  0.1393 -0.3690 -0.5074
 4766SOL    HW125934   3.338   3.841  16.236 -1.6015 -4.4597 -0.1782
 4766SOL    HW225935   3.428   3.777  16.142  0.5072 -0.7872 -0.3736
 4767SOL     OW25936   2.969   1.994   3.505 -0.1470 -0.2773  0.0346
 4767SOL    HW125937   2.882   1.990   3.545 -0.3011  0.6127 -0.2180
 4767SOL    HW225938   2.963   2.076   3.458  0.1587  0.2925  0.9877
 4768SOL     OW25939   2.675   4.417   2.602  0.0482  0.1070 -0.5090
 4768SOL    HW125940   2.648   4.468   2.526 -0.4445  1.0945  0.3359
 4768SOL    HW225941   2.629   4.334   2.590 -1.1151  0.5578  0.8176
 4769SOL     OW25942   2.369   0.516   8.599 -0.0139 -0.0656  0.1569
 4769SOL    HW125943   2.375   0.612   8.601  1.5146 -0.1752  0.7627
 4769SOL    HW225944   2.438   0.504   8.534 -0.6869  0.1414 -0.5968
 4770SOL     OW25945   0.319   0.998   4.607  0.8707  0.3343 -0.7194
 4770SOL    HW125946   0.401   1.005   4.558 -0.0991  0.8491 -2.2772
 4770SOL    HW225947   0.344   0.950   4.686  0.1467 -1.0918 -1.3431
 4771SOL     OW25948   1.300   0.167  10.742 -0.1156  0.1395  0.0508
 4771SOL    HW125949   1.228   0.229  10.742 -0.3243 -0.1027 -0.3306
 4771SOL    HW225950   1.316   0.147  10.650 -2.0258 -1.7817  0.1273
 4772SOL     OW25951   4.725   0.139   2.210 -0.6895 -0.2909 -0.2512
 4772SOL    HW125952   0.074   0.186   2.206 -1.7922  1.5032 -2.0948
 4772SOL    HW225953   4.666   0.205   2.175  1.6638  0.9089 -1.8792
 4773SOL     OW25954   1.561   2.929  10.763  0.3218  0.0159  0.3747
 4773SOL    HW125955   1.534   3.004  10.816  3.0037  0.5809  0.9573
 4773SOL    HW225956   1.475   2.906  10.730 -0.4084  0.3020  2.0797
 4774SOL     OW25957   3.588   0.982   3.376  0.3710  0.3445 -0.0361
 4774SOL    HW125958   3.680   0.995   3.401  0.4712 -1.9719  0.7950
 4774SOL    HW225959   3.553   1.071   3.376  0.6117  0.4518 -1.7226
 4775SOL     OW25960   1.911   4.062   5.711 -0.2616  0.2027  0.1081
 4775SOL    HW125961   1.897   4.143   5.662 -0.1546  0.1808  0.0412
 4775SOL    HW225962   1.820   4.053   5.739  0.3216 -1.2994  1.5173
 4776SOL     OW25963   1.833   2.338  10.601 -0.0580  0.3026 -0.6398
 4776SOL    HW125964   1.825   2.386  10.684  0.9779 -0.2325 -0.2228
 4776SOL    HW225965   1.907   2.375  10.552  0.0307  0.7897 -0.1434
 4777SOL     OW25966   1.468   0.517   2.618  0.3272 -0.1659  0.3680
 4777SOL    HW125967   1.442   0.435   2.661 -3.1694  0.8997  0.2521
 4777SOL    HW225968   1.434   0.510   2.529 -0.6300  0.0981  0.7077
 4778SOL     OW25969   3.364   3.061  13.093  1.2143  0.0144  0.0020
 4778SOL    HW125970   3.454   3.048  13.065  2.0385 -0.8008  3.0541
 4778SOL    HW225971   3.350   3.150  13.058  0.4265 -0.5147 -1.0360
 4779SOL     OW25972   1.164   3.876   3.167  0.4716 -0.3629 -0.4564
 4779SOL    HW125973   1.224   3.819   3.119  1.7879  1.4996 -1.0070
 4779SOL    HW225974   1.230   3.939   3.197 -0.1412 -0.0759  0.2855
 4780SOL     OW25975   2.160   0.490   1.656  0.2750  0.3968  0.9411
 4780SOL    HW125976   2.183   0.401   1.627  1.9969  0.3257  2.5101
 4780SOL    HW225977   2.074   0.469   1.693  1.6112 -1.7943  2.8321
 4781SOL     OW25978   0.448   1.775  17.440 -0.1401  0.2447  0.4616
 4781SOL    HW125979   0.523   1.744  17.492  0.4028  0.8267  0.0266
 4781SOL    HW225980   0.451   1.870  17.440 -0.5864  0.2587  0.1496
 4782SOL     OW25981   3.373   1.450   8.439 -0.1762 -0.4624 -0.9488
 4782SOL    HW125982   3.424   1.515   8.390  1.6875 -2.5039 -1.7287
 4782SOL    HW225983   3.364   1.496   8.523  1.7637 -1.9380  0.0818
 4783SOL     OW25984   2.987   0.023   2.845 -0.7528  0.0092  0.2727
 4783SOL    HW125985   3.075   0.058   2.862 -1.1303  1.5726 -1.0250
 4783SOL    HW225986   3.019   4.709   2.769  0.8278 -0.3004  1.1208
 4784SOL     OW25987   0.599   2.614   5.044 -0.1015 -0.0804  0.3474
 4784SOL    HW125988   0.530   2.548   5.051 -1.2078  0.7797 -2.3244
 4784SOL    HW225989   0.557   2.695   5.073  1.2444  0.7141  0.0970
 4785SOL     OW25990   1.965   0.542  10.295 -0.1970  0.2565 -0.2979
 4785SOL    HW125991   1.987   0.449  10.288 -0.3668  0.1851  0.1196
 4785SOL    HW225992   2.054   0.568  10.272  0.0846  1.2898  1.8899
 4786SOL     OW25993   2.201   2.178  13.739  0.6095 -0.5579 -0.0738
 4786SOL    HW125994   2.180   2.242  13.807  3.3242  1.8911 -1.5546
 4786SOL    HW225995   2.189   2.233  13.662 -0.0485  0.7189  0.9329
 4787SOL     OW25996   4.355   2.882  11.629 -0.0100  0.1630  0.4630
 4787SOL    HW125997   4.401   2.935  11.563  2.0782  0.5837  2.2849
 4787SOL    HW225998   4.355   2.940  11.705 -1.1296 -0.5735  1.0267
 4788SOL     OW25999   3.854   0.852   5.862 -0.3112 -0.0260 -0.3510
 4788SOL    HW126000   3.933   0.802   5.844 -0.6244 -0.3373 -0.8431
 4788SOL    HW226001   3.877   0.945   5.853 -1.0411  0.1589 -0.3202
 4789SOL     OW26002   1.905   3.464   6.368  0.5612 -0.4411 -0.5823
 4789SOL    HW126003   1.914   3.549   6.324  0.6235  1.2669  2.7290
 4789SOL    HW226004   1.826   3.478   6.419 -0.0274  0.8508 -1.8379
 4790SOL     OW26005   3.346   0.466   8.770 -0.7545 -0.2829 -0.3066
 4790SOL    HW126006   3.327   0.462   8.676  2.3883  1.0899 -1.0005
 4790SOL    HW226007   3.409   0.394   8.774 -1.3882 -0.7629  1.0481
 4791SOL     OW26008   2.695   2.236   2.781  0.0675  0.1101  0.4270
 4791SOL    HW126009   2.777   2.263   2.822 -0.5272  1.3779  0.7870
 4791SOL    HW226010   2.724   2.150   2.753 -0.8262 -0.4359  1.1847
 4792SOL     OW26011   4.136   1.371  10.051  0.0317 -0.4143  0.5916
 4792SOL    HW126012   4.041   1.378  10.047  0.0606  0.5217  1.4001
 4792SOL    HW226013   4.144   1.334  10.139  1.0730  1.1318  1.1500
 4793SOL     OW26014   2.456   3.626  13.789  0.2890  0.0989  0.3103
 4793SOL    HW126015   2.436   3.716  13.816 -1.0045  0.1111 -0.7081
 4793SOL    HW226016   2.546   3.636  13.758  0.1182 -2.7827 -1.0704
 4794SOL     OW26017   2.504   2.797   2.655  0.4422 -0.2404 -0.4777
 4794SOL    HW126018   2.420   2.783   2.609  1.9740 -0.3597 -3.2406
 4794SOL    HW226019   2.501   2.890   2.679  1.5524 -0.0916 -0.9278
 4795SOL     OW26020   3.097   1.491   2.817  0.1955 -0.2699  0.7033
 4795SOL    HW126021   3.169   1.502   2.879 -0.0207 -1.3522  1.1492
 4795SOL    HW226022   3.052   1.416   2.855 -0.1432 -1.0797 -1.3335
 4796SOL     OW26023   4.279   4.051   0.809 -0.2979  0.0353  0.4706
 4796SOL    HW126024   4.243   4.068   0.896 -0.9008  3.7141 -0.5046
 4796SOL    HW226025   4.220   4.111   0.764  0.1883 -0.9879 -1.4934
 4797SOL     OW26026   3.028   4.203   8.551  0.1936 -0.1036  0.0824
 4797SOL    HW126027   3.103   4.262   8.565  1.9972 -2.3521 -0.2285
 4797SOL    HW226028   2.991   4.240   8.471 -0.5346 -0.5884  0.1942
 4798SOL     OW26029   0.543   0.517   5.635 -1.0692 -0.6218  0.1969
 4798SOL    HW126030   0.499   0.478   5.711  3.3445 -0.0104  3.0413
 4798SOL    HW226031   0.552   0.436   5.586  0.2807 -0.0732 -0.4394
 4799SOL     OW26032   3.746   4.483   6.711 -0.4873  0.2806  0.1400
 4799SOL    HW126033   3.815   4.521   6.766 -1.1475  0.8701  0.5629
 4799SOL    HW226034   3.726   4.555   6.651  0.2949  0.2452 -0.1596
 4800SOL     OW26035   1.449   4.464   3.068 -0.1919  0.5489 -0.1001
 4800SOL    HW126036   1.418   4.392   3.013  0.7085 -1.9620  2.6801
 4800SOL    HW226037   1.497   4.412   3.132 -0.1689 -0.6260 -1.0860
 4801SOL     OW26038   1.614   0.690   6.032 -0.1533  0.1280 -0.5672
 4801SOL    HW126039   1.643   0.742   5.957  0.5880  0.0855 -0.3061
 4801SOL    HW226040   1.636   0.608   5.989  1.7554 -0.0921  0.8424
 4802SOL     OW26041   2.312   0.008   5.822  0.0383  0.3339  0.6544
 4802SOL    HW126042   2.304   4.667   5.881  1.0354 -0.4521 -0.2154
 4802SOL    HW226043   2.227   0.020   5.780  1.1000  1.4822 -1.1399
 4803SOL     OW26044   0.475   2.707  12.678  0.5585  0.2491  0.5930
 4803SOL    HW126045   0.544   2.754  12.723  2.2076 -0.3250 -1.3414
 4803SOL    HW226046   0.424   2.682  12.754 -1.4269 -1.2286 -1.2173
 4804SOL     OW26047   2.354   4.189   4.808  0.3115 -0.1198  0.4597
 4804SOL    HW126048   2.439   4.220   4.839  0.5174  0.3974 -0.6500
 4804SOL    HW226049   2.369   4.095   4.808 -0.4297 -0.2388  1.8014
 4805SOL     OW26050   3.090   1.486   7.928 -0.4620  0.4091 -0.1074
 4805SOL    HW126051   3.182   1.508   7.938 -1.0179  1.6579  2.1305
 4805SOL    HW226052   3.071   1.536   7.848  0.4220 -1.0482 -1.2278
 4806SOL     OW26053   2.448   1.862   6.080 -0.0429 -0.4858 -0.0472
 4806SOL    HW126054   2.487   1.855   5.992 -1.4818  0.1499 -0.7398
 4806SOL    HW226055   2.363   1.819   6.072 -1.2031  1.8432 -0.3371
 4807SOL     OW26056   4.526   3.139   4.658 -1.1874 -0.0917  0.2857
 4807SOL    HW126057   4.510   3.053   4.697 -0.6974 -0.3777 -0.1523
 4807SOL    HW226058   4.553   3.188   4.736  0.0063 -1.3777  0.6794
 4808SOL     OW26059   0.073   4.281   3.192 -0.0538 -0.3049 -0.0141
 4808SOL    HW126060   0.102   4.190   3.189  1.6135  0.3142 -2.3246
 4808SOL    HW226061   0.144   4.321   3.142 -0.0339 -0.6453 -0.2554
 4809SOL     OW26062   1.179   0.808   5.399  0.0750  0.1655  0.5611
 4809SOL    HW126063   1.264   0.853   5.393 -1.1094  2.3717  0.5742
 4809SOL    HW226064   1.138   0.879   5.448  0.1507  0.8635 -0.3939
 4810SOL     OW26065   2.384   1.665   1.764 -0.3282  0.3270  0.5837
 4810SOL    HW126066   2.478   1.685   1.768 -0.5142  1.3785 -0.2623
 4810SOL    HW226067   2.382   1.622   1.678  0.0191  1.2917  0.0926
 4811SOL     OW26068   3.483   3.493  14.295  0.1110  0.2844 -0.2909
 4811SOL    HW126069   3.483   3.450  14.210 -0.2163  0.5243 -0.4095
 4811SOL    HW226070   3.545   3.441  14.347  0.9721  0.8803 -0.7054
 4812SOL     OW26071   3.209   2.294  10.792 -0.1997  0.0371 -0.0494
 4812SOL    HW126072   3.284   2.241  10.767 -1.2018 -0.8301 -1.2007
 4812SOL    HW226073   3.251   2.340  10.865 -1.4088  2.1578 -0.6805
 4813SOL     OW26074   1.958   0.592   7.763  0.2584  0.4393 -0.5569
 4813SOL    HW126075   2.029   0.565   7.705 -2.1513 -2.4974 -2.1464
 4813SOL    HW226076   2.015   0.609   7.838  0.6830 -2.1342 -0.2685
 4814SOL     OW26077   2.792   1.261   5.442 -0.6107  0.0072  0.1123
 4814SOL    HW126078   2.820   1.333   5.499  2.3956 -0.0589 -1.2587
 4814SOL    HW226079   2.757   1.317   5.372 -2.1618 -0.4521  0.5340
 4815SOL     OW26080   0.926   1.361   4.745  0.1798  0.3496  0.1968
 4815SOL    HW126081   1.014   1.378   4.778 -0.2858  0.6267  1.2759
 4815SOL    HW226082   0.900   1.442   4.701  0.8922 -0.2800 -1.3795
 4816SOL     OW26083   2.331   1.220   2.656  0.1433 -0.0979 -0.2579
 4816SOL    HW126084   2.399   1.286   2.640  1.0164 -0.9699 -0.1013
 4816SOL    HW226085   2.354   1.164   2.582 -1.4908 -0.3647 -0.5734
 4817SOL     OW26086   0.729   4.212   3.971  0.2762 -0.1505  0.0703
 4817SOL    HW126087   0.650   4.199   3.919 -0.3341  0.4994  0.8327
 4817SOL    HW226088   0.726   4.139   4.032 -2.0076  0.2093  0.3814
 4818SOL     OW26089   2.550   1.837  12.455  0.2002 -0.0841 -0.0577
 4818SOL    HW126090   2.583   1.867  12.370  1.1542  2.2063  1.1349
 4818SOL    HW226091   2.498   1.911  12.486 -1.8353 -1.3135 -0.5417
 4819SOL     OW26092   2.036   0.748   0.656  0.0914 -0.2408  0.4324
 4819SOL    HW126093   1.994   0.825   0.693  0.3253 -1.8722  4.0743
 4819SOL    HW226094   2.079   0.799   0.587  2.2095 -0.6433  1.4375
 4820SOL     OW26095   1.776   3.866   7.458 -0.5006  0.5293 -0.4190
 4820SOL    HW126096   1.714   3.907   7.518  1.0030 -0.3102  1.7073
 4820SOL    HW226097   1.745   3.775   7.465  2.0715 -0.3930 -1.1349
 4821SOL     OW26098   3.585   2.995  16.050  0.1361  0.5574 -0.0421
 4821SOL    HW126099   3.659   2.972  16.106 -0.8411  0.6288  1.2573
 4821SOL    HW226100   3.620   3.072  16.005  1.0231 -0.6857 -1.4724
 4822SOL     OW26101   1.468   1.242  14.581 -0.5585 -0.3944 -0.0133
 4822SOL    HW126102   1.384   1.288  14.580 -0.2107  0.2520  0.1724
 4822SOL    HW226103   1.450   1.181  14.510  2.2762 -0.2789 -0.8111
 4823SOL     OW26104   4.335   1.947   4.963  0.0198  0.9320  0.3640
 4823SOL    HW126105   4.287   1.901   4.894 -0.1470 -0.3650  1.3550
 4823SOL    HW226106   4.411   1.889   4.963  0.6127  1.7088 -0.7966
 4824SOL     OW26107   0.347   4.052   6.188 -1.0766 -0.1467 -0.7085
 4824SOL    HW126108   0.297   3.971   6.198 -1.0110 -0.1310 -0.2089
 4824SOL    HW226109   0.408   4.024   6.119 -0.5774  1.7015 -1.0153
 4825SOL     OW26110   0.784   0.469   4.080 -0.1297  0.3376 -0.5266
 4825SOL    HW126111   0.815   0.559   4.084  4.6215 -1.3999  1.5940
 4825SOL    HW226112   0.730   0.472   4.001 -1.7180 -1.2426  0.4609
 4826SOL     OW26113   3.561   0.936   2.886  0.3325 -0.8044  0.2580
 4826SOL    HW126114   3.618   1.011   2.870  0.0122 -0.9932 -1.7242
 4826SOL    HW226115   3.492   0.971   2.943  0.9747  0.8966 -0.0144
 4827SOL     OW26116   1.867   1.206   4.118 -0.0271  0.3983  0.0113
 4827SOL    HW126117   1.934   1.254   4.068 -1.2215  1.5037 -0.5186
 4827SOL    HW226118   1.835   1.277   4.174  2.1307  1.6891 -0.3871
 4828SOL     OW26119   2.687   4.168   5.973  0.4891  0.1824 -0.1234
 4828SOL    HW126120   2.660   4.252   5.934  0.1765 -0.0575 -0.4316
 4828SOL    HW226121   2.659   4.106   5.906  1.3270  0.3200 -0.5966
 4829SOL     OW26122   4.257   0.744   8.830  0.2530  0.0680  0.3180
 4829SOL    HW126123   4.285   0.652   8.819 -1.5468 -0.3776 -0.5742
 4829SOL    HW226124   4.300   0.767   8.912  1.5042 -0.2403 -0.2333
 4830SOL     OW26125   0.575   3.877   8.222 -0.4860  0.1708 -0.4740
 4830SOL    HW126126   0.575   3.944   8.291 -0.0223 -0.9942  0.6640
 4830SOL    HW226127   0.492   3.834   8.238  0.0217 -0.8364 -0.5701
 4831SOL     OW26128   4.621   2.774   4.692  0.3693  0.3738  0.4145
 4831SOL    HW126129   4.704   2.792   4.647 -1.5681 -0.1494 -3.3890
 4831SOL    HW226130   4.558   2.814   4.632 -0.9617 -1.6196  0.4726
 4832SOL     OW26131   4.285   4.084   2.163 -0.0271  0.0231  0.0889
 4832SOL    HW126132   4.277   4.012   2.101 -3.0329  0.8061 -0.4601
 4832SOL    HW226133   4.361   4.058   2.215  0.8238  0.6281 -0.8393
 4833SOL     OW26134   1.555   0.603   8.479  0.2259 -0.1846 -0.3609
 4833SOL    HW126135   1.519   0.595   8.391 -1.7654  1.1292  0.3401
 4833SOL    HW226136   1.561   0.509   8.496  0.0477 -0.4052 -1.4988
 4834SOL     OW26137   1.355   0.694   6.062 -0.6714 -0.2488  0.1359
 4834SOL    HW126138   1.304   0.723   5.987 -2.8731 -0.0858  1.7009
 4834SOL    HW226139   1.443   0.691   6.025  0.1266  2.3263  1.8748
 4835SOL     OW26140   4.183   2.683  13.767  0.6673 -0.3302  0.4954
 4835SOL    HW126141   4.238   2.647  13.697 -2.3687 -0.7123 -1.6953
 4835SOL    HW226142   4.171   2.778  13.764  1.2181 -0.2892 -0.3580
 4836SOL     OW26143   1.911   4.287  16.299 -0.2308  0.5256  0.4348
 4836SOL    HW126144   1.843   4.272  16.233 -0.4181 -0.1658  0.7936
 4836SOL    HW226145   1.865   4.334  16.368  0.4474  0.2876  1.0446
 4837SOL     OW26146   2.282   3.816  13.006  0.3124  0.2554  0.2875
 4837SOL    HW126147   2.268   3.736  12.955  0.7561  1.0453 -1.0758
 4837SOL    HW226148   2.198   3.829  13.050  0.2062  0.3469  0.0548
 4838SOL     OW26149   2.014   4.104   6.080 -0.2973 -0.0295 -0.4034
 4838SOL    HW126150   1.919   4.097   6.090 -0.0478 -0.9753  1.3002
 4838SOL    HW226151   2.044   4.195   6.088 -1.6572  0.4254 -0.4611
 4839SOL     OW26152   2.578   4.290   4.224  0.2469 -0.5388  0.2341
 4839SOL    HW126153   2.571   4.331   4.310  0.9999 -0.9979  0.5213
 4839SOL    HW226154   2.488   4.275   4.197  0.5279 -0.2907 -0.8117
 4840SOL     OW26155   4.251   1.136   1.781  0.0508  0.1422 -0.4759
 4840SOL    HW126156   4.330   1.126   1.834  0.8443 -2.3553 -2.1075
 4840SOL    HW226157   4.239   1.048   1.745  1.3634 -0.7464  1.2452
 4841SOL     OW26158   0.641   1.744   2.739 -0.1090  0.0814  0.2565
 4841SOL    HW126159   0.623   1.670   2.682  2.6604  0.1403 -0.7187
 4841SOL    HW226160   0.612   1.708   2.822  0.4077 -0.7187  0.0919
 4842SOL     OW26161   3.768   0.481   2.318  0.1545 -0.1639 -0.0915
 4842SOL    HW126162   3.852   0.521   2.298  1.1148 -1.8547  0.6567
 4842SOL    HW226163   3.760   0.422   2.243  0.1956  0.3029 -0.4623
 4843SOL     OW26164   3.365   1.424   2.538 -0.5376 -0.2965  0.1624
 4843SOL    HW126165   3.330   1.350   2.588  0.7756 -1.4559 -0.6522
 4843SOL    HW226166   3.407   1.466   2.613 -0.7672 -0.3989  0.3495
 4844SOL     OW26167   2.660   1.351   4.162 -0.5872 -0.1539  0.1911
 4844SOL    HW126168   2.601   1.422   4.138  1.5133  1.3964 -0.4177
 4844SOL    HW226169   2.717   1.387   4.230  0.3662  0.5896 -0.9992
 4845SOL     OW26170   2.688   2.837   0.699  0.0817 -0.3521  0.3526
 4845SOL    HW126171   2.595   2.821   0.714  0.2164 -2.0069 -0.5961
 4845SOL    HW226172   2.685   2.932   0.708  1.1111 -0.7005  4.3827
 4846SOL     OW26173   3.994   2.623  13.933 -0.5301 -0.0287  0.3961
 4846SOL    HW126174   4.011   2.697  13.991 -0.1097  0.2682 -0.1002
 4846SOL    HW226175   4.064   2.633  13.868 -2.3199 -0.5303 -1.6405
 4847SOL     OW26176   2.418   1.601  12.187  0.2204 -0.1418 -0.0686
 4847SOL    HW126177   2.387   1.660  12.255 -1.4760 -0.1693 -0.8259
 4847SOL    HW226178   2.466   1.653  12.122 -1.7998  3.3020  1.2230
 4848SOL     OW26179   2.380   0.080   4.772  0.2026 -0.3856  1.0500
 4848SOL    HW126180   2.339   0.130   4.701 -0.5265 -2.8674 -0.2767
 4848SOL    HW226181   2.315   0.072   4.842  2.7161  0.5893  3.4614
 4849SOL     OW26182   4.190   2.856   2.409  0.1285 -0.4148 -0.2037
 4849SOL    HW126183   4.150   2.886   2.327 -2.7912  0.5573  1.5497
 4849SOL    HW226184   4.277   2.832   2.378 -0.8772 -1.3706 -2.2772
 4850SOL     OW26185   2.163   3.387   9.540 -0.2723  0.3016  0.3771
 4850SOL    HW126186   2.161   3.466   9.487  0.2995  0.1430  0.1148
 4850SOL    HW226187   2.248   3.391   9.584  0.1247 -0.3230 -0.3407
 4851SOL     OW26188   2.544   3.465   3.329  0.2808  0.3481  0.3706
 4851SOL    HW126189   2.615   3.470   3.265 -0.7946 -0.9520 -0.9364
 4851SOL    HW226190   2.556   3.375   3.361 -1.3653 -0.7846 -2.1392
 4852SOL     OW26191   0.096   1.634   5.335 -0.0656  0.2019  0.0950
 4852SOL    HW126192   0.037   1.709   5.320 -2.0112 -1.5018 -0.7159
 4852SOL    HW226193   0.159   1.661   5.401 -2.0061 -0.0099  2.0435
 4853SOL     OW26194   3.773   2.463  12.115  0.2822  0.2609  0.0102
 4853SOL    HW126195   3.730   2.381  12.092 -3.1682  1.4912  2.0573
 4853SOL    HW226196   3.784   2.505  12.029 -1.1986 -2.3515 -1.4892
 4854SOL     OW26197   0.757   3.887   4.756 -0.0389  0.2227 -0.0742
 4854SOL    HW126198   0.846   3.910   4.728 -0.6331  1.9880 -0.4862
 4854SOL    HW226199   0.765   3.791   4.752  0.0952  0.1979  0.8715
 4855SOL     OW26200   4.111   3.856   2.409  0.2472 -0.3262 -0.2002
 4855SOL    HW126201   4.078   3.783   2.357 -1.1623  1.1565 -1.3719
 4855SOL    HW226202   4.191   3.815   2.444  1.9228  3.5282  0.4782
 4856SOL     OW26203   1.388   2.706   6.750 -0.0310  0.7184 -0.4175
 4856SOL    HW126204   1.432   2.720   6.834 -1.9934  1.8319  0.4310
 4856SOL    HW226205   1.315   2.768   6.756  0.9076  1.5413  2.2433
 4857SOL     OW26206   0.562   1.707   7.995  0.0416  0.4644  0.1721
 4857SOL    HW126207   0.480   1.672   7.961  0.5758 -0.1951 -0.4385
 4857SOL    HW226208   0.617   1.632   8.018 -0.5088  0.0716  0.2237
 4858SOL     OW26209   0.325   3.963   7.218 -0.0817  0.1073  0.2963
 4858SOL    HW126210   0.339   4.034   7.281  2.1951 -1.9300  2.0854
 4858SOL    HW226211   0.229   3.960   7.216 -0.0866 -0.0796  0.8717
 4859SOL     OW26212   4.332   3.918   4.383  0.3401  0.6733 -0.0606
 4859SOL    HW126213   4.420   3.931   4.418  0.6185 -0.6798 -0.2392
 4859SOL    HW226214   4.315   3.968   4.304 -3.3132  1.0194  0.9242
 4860SOL     OW26215   0.163   2.389  12.052  0.2143 -0.1338 -0.5068
 4860SOL    HW126216   0.176   2.440  11.972 -1.2303 -1.2018 -1.4097
 4860SOL    HW226217   0.245   2.412  12.097 -0.8053  0.2657  1.1350
 4861SOL     OW26218   2.109   1.828   2.635 -0.3779  0.2827 -0.2985
 4861SOL    HW126219   2.107   1.733   2.626 -0.3036  0.0461  2.1103
 4861SOL    HW226220   2.118   1.839   2.730 -0.2468 -1.6421 -0.0971
 4862SOL     OW26221   1.518   1.618   5.030 -0.2383  0.4369 -0.0917
 4862SOL    HW126222   1.579   1.599   4.959 -0.0135  1.0865 -0.0747
 4862SOL    HW226223   1.433   1.640   4.991 -0.4747  1.4638  0.9782
 4863SOL     OW26224   3.900   0.702   3.522  0.0516 -0.3554  0.2283
 4863SOL    HW126225   3.905   0.797   3.531 -1.0026 -0.1090 -1.6929
 4863SOL    HW226226   3.930   0.702   3.431 -0.2205  0.0811  0.1387
 4864SOL     OW26227   2.536   4.503   3.506 -0.0103  0.4575 -0.5044
 4864SOL    HW126228   2.566   4.557   3.579  1.3486 -0.0355 -0.7009
 4864SOL    HW226229   2.497   4.570   3.450  2.0706  1.3398 -0.8884
 4865SOL     OW26230   0.994   1.345  15.840  0.4261  0.1130 -0.1199
 4865SOL    HW126231   1.046   1.301  15.773 -2.4037 -0.8553 -1.6796
 4865SOL    HW226232   1.056   1.395  15.893  1.1101  1.4784 -2.2436
 4866SOL     OW26233   4.358   1.616   9.681 -0.4769  0.3841 -0.1587
 4866SOL    HW126234   4.286   1.561   9.711 -2.2037  2.3770 -0.6817
 4866SOL    HW226235   4.379   1.556   9.610  2.4813 -0.1821  1.1616
 4867SOL     OW26236   0.477   0.430   3.007  0.0798 -0.2367 -0.3857
 4867SOL    HW126237   0.567   0.410   2.982  0.0224  0.1451 -0.8955
 4867SOL    HW226238   0.440   0.451   2.921 -3.7573 -3.4993  0.5124
 4868SOL     OW26239   0.881   4.419   7.716 -0.3825  0.3019  0.1657
 4868SOL    HW126240   0.877   4.496   7.658  0.4975  1.0980  1.1766
 4868SOL    HW226241   0.926   4.355   7.661 -2.5658 -1.8301  0.8630
 4869SOL     OW26242   2.158   4.728   2.227  0.0280  0.5467  0.2639
 4869SOL    HW126243   2.153   0.084   2.261 -0.3678  0.2331  1.0407
 4869SOL    HW226244   2.195   4.691   2.307  0.5350 -0.9453 -0.6759
 4870SOL     OW26245   2.665   1.678   1.752  0.2068 -0.9076  0.4805
 4870SOL    HW126246   2.754   1.672   1.786 -0.2815  1.2598  2.1937
 4870SOL    HW226247   2.636   1.752   1.805 -0.9001  0.7699 -2.4838
 4871SOL     OW26248   0.659   3.579   7.395  0.2842 -0.2292 -0.3911
 4871SOL    HW126249   0.565   3.571   7.411  0.6192  0.7299  2.0701
 4871SOL    HW226250   0.687   3.643   7.460 -1.3850  0.9220 -0.8082
 4872SOL     OW26251   2.259   4.059  12.298 -0.5611 -0.4892 -0.0123
 4872SOL    HW126252   2.211   4.077  12.217  0.4228  0.2596 -0.4361
 4872SOL    HW226253   2.288   3.971  12.275 -1.5712 -0.4548 -1.4032
 4873SOL     OW26254   3.428   3.671   5.436 -0.0612  0.5636 -0.0152
 4873SOL    HW126255   3.367   3.606   5.470 -1.4233 -1.1339 -5.6003
 4873SOL    HW226256   3.363   3.742   5.432 -2.7254 -1.8608 -0.3681
 4874SOL     OW26257   0.011   0.303   7.071 -0.1922  0.0242 -0.3814
 4874SOL    HW126258   4.694   0.222   7.074 -0.8291  0.4585  0.6054
 4874SOL    HW226259   0.077   0.274   7.008 -0.8118 -0.3890 -0.8325
 4875SOL     OW26260   1.761   4.218   2.463 -0.0334  0.1829 -0.2943
 4875SOL    HW126261   1.813   4.283   2.511  0.5054  1.2117 -2.2535
 4875SOL    HW226262   1.759   4.256   2.375  1.9491  1.5907  0.2664
 4876SOL     OW26263   0.623   2.909   6.721 -0.1457 -0.7428 -0.4109
 4876SOL    HW126264   0.659   2.996   6.739 -0.1468 -0.9110  0.4173
 4876SOL    HW226265   0.676   2.850   6.775 -1.4581 -0.4399  1.1998
 4877SOL     OW26266   0.829   0.136   5.539 -0.6637  0.1657  0.2490
 4877SOL    HW126267   0.879   0.061   5.571 -1.6777 -0.6970 -0.2275
 4877SOL    HW226268   0.827   0.100   5.451  0.7165  2.5342 -0.7362
 4878SOL     OW26269   0.985   3.175   2.262  0.6046  0.2059 -0.0639
 4878SOL    HW126270   1.036   3.197   2.340 -2.4561  3.7384  0.9556
 4878SOL    HW226271   1.042   3.185   2.186  0.3526 -1.8015 -0.5354
 4879SOL     OW26272   2.498   2.676   4.236 -0.2553  0.1586  0.7765
 4879SOL    HW126273   2.425   2.737   4.230  1.4334  2.0315 -0.5272
 4879SOL    HW226274   2.568   2.737   4.214 -1.6050  0.5172 -2.4514
 4880SOL     OW26275   4.185   3.802   9.100  0.1402  0.1852  0.3179
 4880SOL    HW126276   4.176   3.828   9.192  0.2413 -0.1116  0.4099
 4880SOL    HW226277   4.090   3.794   9.089 -0.0985  1.1088  1.6744
 4881SOL     OW26278   0.904   0.433   2.264  0.3109 -0.2039 -0.0484
 4881SOL    HW126279   0.975   0.460   2.207 -0.7419  1.5683 -0.4965
 4881SOL    HW226280   0.842   0.388   2.206 -1.9222 -0.4288  2.4808
 4882SOL     OW26281   1.693   3.407   0.651 -0.0215  0.2504  0.6296
 4882SOL    HW126282   1.637   3.378   0.579 -0.7483 -0.1053  1.3365
 4882SOL    HW226283   1.667   3.342   0.717  2.8505 -0.0417  1.4500
 4883SOL     OW26284   3.802   3.820  17.706  0.0683 -0.1341 -0.7691
 4883SOL    HW126285   3.851   3.835  17.625  0.1174  0.1337 -0.6903
 4883SOL    HW226286   3.783   3.912  17.726  0.5029  0.4026 -2.8344
 4884SOL     OW26287   0.426   2.595   0.472 -0.0352  0.6220  0.3695
 4884SOL    HW126288   0.355   2.548   0.427  1.4800  0.7543 -2.1160
 4884SOL    HW226289   0.489   2.525   0.490 -2.4531 -1.3196  1.2884
 4885SOL     OW26290   0.128   4.298   8.559  0.3646  0.2136  0.2069
 4885SOL    HW126291   0.050   4.242   8.553  1.8686 -1.8022 -0.1337
 4885SOL    HW226292   0.141   4.297   8.654 -3.8560  1.2654  0.8013
 4886SOL     OW26293   4.440   4.544   6.951 -0.1998  0.0808  0.3773
 4886SOL    HW126294   4.532   4.556   6.927  0.1724 -0.8828  1.2883
 4886SOL    HW226295   4.425   4.450   6.938 -0.9167  0.0740  1.3024
 4887SOL     OW26296   0.630   4.331   5.907 -0.0702 -0.5193 -0.2498
 4887SOL    HW126297   0.556   4.346   5.848 -0.9865 -2.0537  0.4962
 4887SOL    HW226298   0.648   4.238   5.895  1.4413 -0.6152  2.8063
 4888SOL     OW26299   3.313   0.502  16.967  0.6979 -0.1213  0.5125
 4888SOL    HW126300   3.307   0.568  17.036  1.2507  1.5202 -1.0144
 4888SOL    HW226301   3.222   0.492  16.942  0.5501 -0.1320  1.0775
 4889SOL     OW26302   3.639   1.809   5.036  1.0347 -0.0773 -0.4682
 4889SOL    HW126303   3.649   1.887   4.982 -1.3151  1.2396  0.9959
 4889SOL    HW226304   3.544   1.795   5.043  1.1030 -0.0452  0.5478
 4890SOL     OW26305   1.831   4.262   7.876 -0.0713  0.5761 -0.1637
 4890SOL    HW126306   1.876   4.347   7.878 -0.3060  0.7180 -0.9645
 4890SOL    HW226307   1.765   4.295   7.816 -1.4177  0.5389  1.3111
 4891SOL     OW26308   2.143   3.711  13.824 -0.2141 -0.5017 -0.5629
 4891SOL    HW126309   2.191   3.666  13.753  1.7640  0.9116 -0.1101
 4891SOL    HW226310   2.184   3.796  13.839  1.6675 -1.2494 -1.4752
 4892SOL     OW26311   4.408   4.669   0.918 -0.3054  0.4164 -0.2832
 4892SOL    HW126312   4.409   4.586   0.966  3.1584  0.7367  0.2275
 4892SOL    HW226313   4.469   4.715   0.977 -1.3341  2.6418 -0.9383
 4893SOL     OW26314   2.446   2.472   5.412  0.6656  0.0240  0.8429
 4893SOL    HW126315   2.539   2.449   5.414  1.4152  2.9494 -0.0791
 4893SOL    HW226316   2.424   2.481   5.505 -0.7643 -1.1100  0.6161
 4894SOL     OW26317   3.123   3.403   9.935  0.3185  0.0404  0.2481
 4894SOL    HW126318   3.193   3.468   9.922  0.9647 -0.2786  2.1412
 4894SOL    HW226319   3.068   3.442  10.003  0.0146  0.4539 -0.2330
 4895SOL     OW26320   2.058   1.977   3.358 -0.2668  0.0770 -0.3570
 4895SOL    HW126321   2.061   2.073   3.355 -1.1436  0.0760 -1.5273
 4895SOL    HW226322   1.985   1.952   3.300 -1.0826  0.8425  0.3279
 4896SOL     OW26323   3.677   2.507   4.724  0.5110 -0.1709  0.0417
 4896SOL    HW126324   3.701   2.502   4.816 -0.6045 -1.0528  0.2900
 4896SOL    HW226325   3.599   2.451   4.720 -0.1798  0.8102 -0.3672
 4897SOL     OW26326   3.723   4.085   3.266 -0.3852 -1.0157 -0.6785
 4897SOL    HW126327   3.786   4.037   3.212  0.0159 -2.3810  1.0053
 4897SOL    HW226328   3.743   4.177   3.248 -1.8109 -0.4201  0.7035
 4898SOL     OW26329   3.173   0.464   6.475  0.3556 -0.4301  0.3941
 4898SOL    HW126330   3.228   0.458   6.553  1.5715  0.1454 -0.4249
 4898SOL    HW226331   3.116   0.388   6.482 -1.2400  0.6699 -0.7376
 4899SOL     OW26332   0.909   4.236   8.843  0.3243  0.0469  0.5766
 4899SOL    HW126333   0.925   4.196   8.928 -3.9158 -2.9376 -0.0251
 4899SOL    HW226334   0.973   4.190   8.789 -1.3922 -1.5833 -0.0504
 4900SOL     OW26335   0.628   0.784  11.005  0.0307 -0.0413  0.1601
 4900SOL    HW126336   0.710   0.764  11.050  0.3597 -0.5186 -0.6384
 4900SOL    HW226337   0.668   0.831  10.931 -0.9351 -0.2885 -0.5325
 4901SOL     OW26338   4.042   1.751   3.770  0.2736  0.0369  0.3654
 4901SOL    HW126339   3.997   1.667   3.774 -1.3420  0.9204  0.6685
 4901SOL    HW226340   3.959   1.798   3.780  0.8032  1.7348 -2.8930
 4902SOL     OW26341   1.576   2.721  13.411  0.3625  0.3286  0.1072
 4902SOL    HW126342   1.585   2.650  13.475  2.9895  0.8884  0.3394
 4902SOL    HW226343   1.631   2.674  13.348  1.4365 -0.9446  1.9889
 4903SOL     OW26344   2.190   4.409  16.445 -0.4003 -0.2513  0.0472
 4903SOL    HW126345   2.121   4.406  16.511 -1.6697 -3.2192 -1.4275
 4903SOL    HW226346   2.188   4.319  16.413 -1.3369  0.2971 -1.4479
 4904SOL     OW26347   2.356   2.449  11.607 -0.3567 -0.0908 -0.2171
 4904SOL    HW126348   2.315   2.372  11.645  0.3160 -0.6180 -0.5466
 4904SOL    HW226349   2.361   2.415  11.518  0.0193 -1.2468  0.2538
 4905SOL     OW26350   2.708   3.211   3.351 -0.3759  0.0833  0.5422
 4905SOL    HW126351   2.707   3.143   3.283  0.3081  0.9758 -0.3679
 4905SOL    HW226352   2.706   3.159   3.432 -2.1437  1.1798  1.1950
 4906SOL     OW26353   2.566   1.798   9.049 -0.8348 -0.1633 -0.1046
 4906SOL    HW126354   2.621   1.857   9.101 -0.6091 -0.5109  0.0570
 4906SOL    HW226355   2.629   1.726   9.050  0.0093  0.5812  0.3468
 4907SOL     OW26356   0.543   3.630   2.354  0.4447  0.2953 -0.1545
 4907SOL    HW126357   0.590   3.634   2.438  1.5398  0.5108 -0.7801
 4907SOL    HW226358   0.571   3.547   2.315 -0.5237  0.9810 -2.2594
 4908SOL     OW26359   2.997   0.415   9.006  0.2410 -0.4639 -0.4537
 4908SOL    HW126360   2.989   0.345   9.071 -0.9873 -0.2422 -0.3594
 4908SOL    HW226361   3.008   0.489   9.066 -1.2660 -0.2766 -0.4140
 4909SOL     OW26362   2.560   1.958   1.251  0.5055  0.1332 -0.3704
 4909SOL    HW126363   2.507   1.900   1.306 -0.8155  0.3573 -1.4102
 4909SOL    HW226364   2.558   2.039   1.301 -0.5002  0.6517 -1.2564
 4910SOL     OW26365   2.566   4.322  17.288  0.2073  0.2097  0.4978
 4910SOL    HW126366   2.658   4.320  17.314  0.9888  0.2866 -2.2100
 4910SOL    HW226367   2.524   4.382  17.349 -1.7844  0.7866 -1.4349
 4911SOL     OW26368   3.127   1.156  12.897  0.3017 -0.0748 -0.0743
 4911SOL    HW126369   3.066   1.087  12.922  1.3293 -0.5702  1.0698
 4911SOL    HW226370   3.078   1.229  12.935  0.1336 -0.2302  0.0026
 4912SOL     OW26371   0.836   0.479   7.151 -0.2728  0.4342 -0.5534
 4912SOL    HW126372   0.875   0.425   7.220 -1.9748  0.4658  0.4530
 4912SOL    HW226373   0.796   0.412   7.095  0.5954  0.2613 -0.9517
 4913SOL     OW26374   1.864   2.600  17.716 -0.7515 -0.1204 -0.5945
 4913SOL    HW126375   1.871   2.635   0.070  0.7495 -0.8417 -0.4303
 4913SOL    HW226376   1.952   2.570  17.690 -1.0776 -1.8470  0.2803
 4914SOL     OW26377   4.047   3.626   2.211  0.0529 -0.4777 -0.0609
 4914SOL    HW126378   3.998   3.544   2.209 -0.6955 -0.1125  2.9981
 4914SOL    HW226379   4.012   3.660   2.129 -1.3255  0.0654  0.7683
 4915SOL     OW26380   4.065   2.567   1.653  0.7046 -0.2137  0.7120
 4915SOL    HW126381   4.009   2.549   1.578  1.3662  1.4483 -0.1781
 4915SOL    HW226382   4.141   2.510   1.641  0.0183 -0.6915 -1.2874
 4916SOL     OW26383   1.371   0.519  14.199  0.0153 -0.3026  0.1932
 4916SOL    HW126384   1.396   0.448  14.258  0.3850 -0.0287  0.3662
 4916SOL    HW226385   1.428   0.587  14.233  0.2963  0.9062 -2.6947
 4917SOL     OW26386   1.955   0.400   1.787  0.1376  0.4692  0.6649
 4917SOL    HW126387   1.877   0.452   1.809 -0.1637  0.2602  0.0803
 4917SOL    HW226388   1.958   0.343   1.864 -2.6825 -1.9555 -1.0287
 4918SOL     OW26389   0.191   1.577   3.190 -0.1106  0.0187 -0.2279
 4918SOL    HW126390   0.206   1.494   3.235 -1.6822 -0.2979 -0.2678
 4918SOL    HW226391   0.223   1.556   3.102 -1.3505  1.6488 -1.0789
 4919SOL     OW26392   2.769   1.512   6.624 -0.3811 -0.4217  0.4859
 4919SOL    HW126393   2.767   1.560   6.707  0.2180  0.0956  0.2079
 4919SOL    HW226394   2.792   1.424   6.653  0.8013 -0.3799 -0.3455
 4920SOL     OW26395   4.113   0.706   1.465  0.1408 -0.3239  0.1906
 4920SOL    HW126396   4.207   0.698   1.449  0.5552  0.4243  2.1973
 4920SOL    HW226397   4.106   0.688   1.558  0.2938 -2.0346 -0.1405
 4921SOL     OW26398   4.074   3.008   3.283 -0.4143  0.1386 -0.5091
 4921SOL    HW126399   4.022   2.995   3.363  3.0697 -1.3163  1.5023
 4921SOL    HW226400   4.014   2.978   3.215 -1.0736  0.5592 -0.1135
 4922SOL     OW26401   4.015   2.211   3.208  0.2790 -0.2279 -0.1795
 4922SOL    HW126402   4.006   2.117   3.197 -1.1952 -0.0188 -0.7272
 4922SOL    HW226403   4.078   2.227   3.279 -0.5593 -1.2770  0.8001
 4923SOL     OW26404   1.418   2.188  10.309 -0.1089  0.4901  0.6410
 4923SOL    HW126405   1.344   2.233  10.268  0.9376  0.9125 -0.7958
 4923SOL    HW226406   1.400   2.096  10.291  0.3596  0.5449 -0.1008
 4924SOL     OW26407   2.410   4.289  14.975 -1.0834 -0.3797  0.6046
 4924SOL    HW126408   2.395   4.278  14.881  2.5200 -2.2192  0.2734
 4924SOL    HW226409   2.499   4.322  14.973 -0.5819 -1.9163 -2.0185
 4925SOL     OW26410   0.933   1.199  16.089  0.4373 -0.1289 -0.0997
 4925SOL    HW126411   0.986   1.150  16.025  0.1921  0.4398 -0.7332
 4925SOL    HW226412   0.901   1.276  16.043 -0.7425  0.4146  1.6781
 4926SOL     OW26413   3.872   2.989   1.433 -0.6121 -0.3288  0.2829
 4926SOL    HW126414   3.941   3.055   1.423  2.0544 -3.2773 -0.5870
 4926SOL    HW226415   3.838   2.995   1.344  0.8862  2.8102 -0.0996
 4927SOL     OW26416   1.191   4.447   1.392 -0.5022  0.2336  0.2640
 4927SOL    HW126417   1.229   4.456   1.479  1.3412  1.5151 -0.6720
 4927SOL    HW226418   1.241   4.374   1.356 -0.5778  0.4607 -0.3110
 4928SOL     OW26419   3.699   2.499   9.122 -0.7593  0.3478  0.3648
 4928SOL    HW126420   3.729   2.492   9.213 -2.3530 -0.8632  0.7951
 4928SOL    HW226421   3.787   2.513   9.085 -1.6026  0.8209 -1.4649
 4929SOL     OW26422   2.196   0.821   6.149 -0.6155 -0.4090  0.0977
 4929SOL    HW126423   2.210   0.910   6.119 -1.9848 -0.9113 -1.9681
 4929SOL    HW226424   2.241   0.823   6.234  0.9392 -0.5472 -0.7287
 4930SOL     OW26425   0.681   2.767   5.902 -0.4435 -0.3400  0.0095
 4930SOL    HW126426   0.773   2.744   5.913 -0.9788 -3.4604 -1.9225
 4930SOL    HW226427   0.649   2.704   5.967 -1.9803  1.0235  0.5597
 4931SOL     OW26428   3.879   0.311   2.601  0.0454  0.7837  0.1568
 4931SOL    HW126429   3.803   0.253   2.601  0.2923  0.4808 -2.4588
 4931SOL    HW226430   3.859   0.385   2.544  0.3065 -0.5255 -1.6217
 4932SOL     OW26431   1.609   2.888   1.990  0.2557  0.7447 -0.4367
 4932SOL    HW126432   1.629   2.905   2.082  2.7870 -0.2140 -0.8178
 4932SOL    HW226433   1.572   2.971   1.961  0.5502  1.0439  0.0483
 4933SOL     OW26434   4.483   4.444   9.812  0.1913 -0.2291 -0.6049
 4933SOL    HW126435   4.388   4.436   9.808  0.4015 -1.7160 -2.7027
 4933SOL    HW226436   4.498   4.380   9.742 -0.3729  0.8976 -1.7542
 4934SOL     OW26437   1.393   1.521  11.844  0.3524 -0.1026  0.4637
 4934SOL    HW126438   1.306   1.527  11.804 -0.1502 -0.9397  1.4516
 4934SOL    HW226439   1.375   1.444  11.897 -1.2266 -0.7025 -0.9181
 4935SOL     OW26440   2.319   1.965  10.245 -0.6490  0.1052  0.3146
 4935SOL    HW126441   2.251   1.937  10.306 -1.6164  1.8011  0.0349
 4935SOL    HW226442   2.294   2.053  10.217 -0.5200 -1.2411 -4.0081
 4936SOL     OW26443   1.277   0.431   6.175  0.4224 -0.5436  0.0687
 4936SOL    HW126444   1.307   0.513   6.215 -1.8482  1.4422 -2.2898
 4936SOL    HW226445   1.256   0.463   6.087  0.8641 -1.1592 -0.2608
 4937SOL     OW26446   4.453   2.916  16.076 -0.2960  0.2859  0.7005
 4937SOL    HW126447   4.386   2.943  16.014  1.3565  1.2419 -0.6856
 4937SOL    HW226448   4.409   2.848  16.127  0.3452 -0.7030 -0.0684
 4938SOL     OW26449   2.817   0.508  13.702  0.4957 -0.5785 -0.2126
 4938SOL    HW126450   2.844   0.563  13.627  0.5039 -2.6440 -1.7285
 4938SOL    HW226451   2.842   0.425  13.661  1.0205 -0.6216  0.1986
 4939SOL     OW26452   3.584   2.867  15.700  0.1279 -0.0233 -0.3103
 4939SOL    HW126453   3.553   2.800  15.761  2.2426 -1.8261 -1.1840
 4939SOL    HW226454   3.509   2.890  15.645  0.7589  0.8350 -0.7999
 4940SOL     OW26455   2.904   4.478   2.779  0.0121 -0.3437 -0.5037
 4940SOL    HW126456   2.981   4.458   2.726  1.0563 -0.7374  1.1356
 4940SOL    HW226457   2.837   4.445   2.720 -0.7898  2.5441 -1.1624
 4941SOL     OW26458   1.198   4.732  16.405 -0.4347  0.2016 -0.2838
 4941SOL    HW126459   1.264   4.664  16.418  0.6629  1.2007 -0.6568
 4941SOL    HW226460   1.237   0.043  16.330  0.0564  0.0680 -0.1134
 4942SOL     OW26461   2.060   4.387   8.837  0.4392  0.3500 -0.1767
 4942SOL    HW126462   2.006   4.416   8.764  1.8061 -1.2500 -1.8588
 4942SOL    HW226463   2.130   4.453   8.840  0.3494  0.4002  0.8278
 4943SOL     OW26464   3.412   3.348  15.914  0.2686  0.2474 -0.6688
 4943SOL    HW126465   3.410   3.271  15.859 -0.0784  0.2655 -0.6794
 4943SOL    HW226466   3.368   3.409  15.854 -0.0003  0.7703  0.0554
 4944SOL     OW26467   1.478   1.777   6.241  0.2052 -0.3478  0.1090
 4944SOL    HW126468   1.432   1.847   6.195 -0.6238 -0.4777  0.7477
 4944SOL    HW226469   1.418   1.758   6.313 -1.0964 -0.7904 -1.1029
 4945SOL     OW26470   4.371   0.843   8.526 -0.1734  0.1597  0.4644
 4945SOL    HW126471   4.430   0.780   8.485  0.1121  0.4966  0.3576
 4945SOL    HW226472   4.420   0.914   8.566 -0.4375  0.9546 -0.6151
 4946SOL     OW26473   4.198   4.675   9.167 -0.1891 -0.2348  0.2556
 4946SOL    HW126474   4.204   4.647   9.076  0.8037 -2.4906  1.0244
 4946SOL    HW226475   4.144   4.602   9.198  0.7693 -1.5625 -1.2557
 4947SOL     OW26476   3.924   0.281   1.691  0.5015  0.8685  0.4140
 4947SOL    HW126477   3.867   0.277   1.615 -0.4280 -0.1749  1.1734
 4947SOL    HW226478   3.860   0.256   1.758  1.2642 -3.2005 -0.3884
 4948SOL     OW26479   1.420   0.807   6.653  0.1428 -0.1793  0.0225
 4948SOL    HW126480   1.424   0.884   6.595 -1.5567  2.6480  3.6694
 4948SOL    HW226481   1.329   0.794   6.678 -0.2664  0.5717 -1.0590
 4949SOL     OW26482   0.088   4.195   6.244  0.4012 -0.3086 -0.0836
 4949SOL    HW126483   0.177   4.164   6.228 -0.6826 -2.5065 -1.7357
 4949SOL    HW226484   0.032   4.134   6.197  0.8980 -1.5907  1.0006
 4950SOL     OW26485   2.133   3.757  12.131  0.0310  0.0172 -0.4216
 4950SOL    HW126486   2.091   3.719  12.054 -1.6124  0.9256  0.0115
 4950SOL    HW226487   2.080   3.837  12.131 -0.8410 -0.5628 -0.5203
 4951SOL     OW26488   1.116   3.640   2.598 -0.4488  0.5264 -0.7069
 4951SOL    HW126489   1.113   3.735   2.589 -0.8323  0.6637  0.9246
 4951SOL    HW226490   1.079   3.627   2.685 -1.4248  0.7779 -1.0867
 4952SOL     OW26491   0.225   1.915   5.692 -0.5741  0.2764 -0.3284
 4952SOL    HW126492   0.171   1.943   5.766  0.4904 -0.3002  0.6687
 4952SOL    HW226493   0.268   1.997   5.669  0.1914 -0.4183 -1.3848
 4953SOL     OW26494   2.255   2.360   0.302 -0.3121  0.5999  0.0892
 4953SOL    HW126495   2.180   2.351   0.361 -0.5979  1.1543 -0.1916
 4953SOL    HW226496   2.271   2.453   0.316  1.1764 -0.0247  2.4928
 4954SOL     OW26497   2.979   2.138  10.877  0.4411  0.4341  0.1160
 4954SOL    HW126498   3.064   2.137  10.834  0.1550  0.6369 -0.4497
 4954SOL    HW226499   2.980   2.221  10.925  2.4354  0.2370  0.4105
 4955SOL     OW26500   2.845   2.063   4.593  0.3510  0.4833 -0.2273
 4955SOL    HW126501   2.797   2.143   4.616 -0.0073  0.3029 -0.3435
 4955SOL    HW226502   2.824   1.995   4.657 -1.8867 -1.0299 -2.5503
 4956SOL     OW26503   4.361   1.087   4.627  0.6749  0.0817 -0.3589
 4956SOL    HW126504   4.286   1.099   4.686  0.3259  0.7246 -0.9345
 4956SOL    HW226505   4.391   1.177   4.613  1.7916  0.2414  3.0891
 4957SOL     OW26506   1.927   1.864   8.425  0.2034 -0.3788  0.0176
 4957SOL    HW126507   2.010   1.835   8.463 -0.0999 -0.2277  0.8016
 4957SOL    HW226508   1.884   1.779   8.429  0.8991 -0.6122  2.7713
 4958SOL     OW26509   3.155   3.085  15.883 -0.4541  0.3549 -0.1861
 4958SOL    HW126510   3.173   3.156  15.945 -0.9290  0.5861 -0.3116
 4958SOL    HW226511   3.181   3.007  15.932 -0.4614 -0.2502 -1.1503
 4959SOL     OW26512   3.060   3.026   2.629  0.1053  0.2026 -0.3324
 4959SOL    HW126513   3.071   3.028   2.534  2.1050 -0.1750 -0.1039
 4959SOL    HW226514   2.970   3.058   2.638  0.3384  0.8849 -0.3943
 4960SOL     OW26515   0.726   3.565   2.922 -0.0128  0.9197  0.3311
 4960SOL    HW126516   0.687   3.652   2.915 -4.5051 -1.1064  0.0665
 4960SOL    HW226517   0.695   3.527   3.005 -1.4497  1.4671  0.0426
 4961SOL     OW26518   4.530   1.995   7.215 -0.1372 -0.2267 -0.4818
 4961SOL    HW126519   4.589   2.002   7.290  0.7582  0.7955 -1.2916
 4961SOL    HW226520   4.531   2.088   7.191 -0.1844  0.0618  0.6301
 4962SOL     OW26521   0.161   1.357   7.799  0.0238 -0.2981  0.0611
 4962SOL    HW126522   0.199   1.427   7.853 -2.7549  0.3351  1.1754
 4962SOL    HW226523   0.223   1.284   7.807 -0.3231 -0.4257  1.5001
 4963SOL     OW26524   2.945   4.200  16.549  0.2870  0.3645  0.1974
 4963SOL    HW126525   3.037   4.209  16.576 -0.0308 -0.8260  1.6448
 4963SOL    HW226526   2.953   4.194  16.454  0.6932  0.2663  0.2388
 4964SOL     OW26527   3.218   0.902   1.976 -0.2657 -0.2079 -0.3171
 4964SOL    HW126528   3.215   0.995   2.000 -1.1565 -0.3578  0.1467
 4964SOL    HW226529   3.312   0.891   1.963 -0.3488 -0.9670 -0.2836
 4965SOL     OW26530   4.316   0.489  17.518  0.6913  0.2236 -0.0051
 4965SOL    HW126531   4.394   0.539  17.542  0.9227 -1.4025  2.6919
 4965SOL    HW226532   4.285   0.449  17.599 -0.4247  0.4320 -0.3299
 4966SOL     OW26533   3.742   0.871   1.878 -0.3278 -0.3137 -0.0156
 4966SOL    HW126534   3.765   0.779   1.878 -0.7548 -0.4160 -0.5860
 4966SOL    HW226535   3.775   0.898   1.792 -1.0651  0.1006 -0.1727
 4967SOL     OW26536   0.079   2.680   3.119 -0.2217 -0.1065  0.2345
 4967SOL    HW126537   0.090   2.599   3.168 -3.2322 -0.8446 -0.2912
 4967SOL    HW226538   4.719   2.699   3.129 -0.2042 -0.1213  0.4146
 4968SOL     OW26539   0.009   4.698  16.833  0.1932 -0.0839  0.1110
 4968SOL    HW126540   0.015   4.604  16.852  1.8629  0.0167  0.1421
 4968SOL    HW226541   0.035   4.729  16.920  0.3318 -1.1229  0.4447
 4969SOL     OW26542   0.725   0.086  10.212 -0.4653  0.4530  0.1237
 4969SOL    HW126543   0.638   0.049  10.225 -0.6231  0.3573 -1.2652
 4969SOL    HW226544   0.785   0.018  10.244 -1.7272 -0.8685 -0.3238
 4970SOL     OW26545   3.947   3.645   8.083  0.3883  0.1228 -0.0573
 4970SOL    HW126546   3.877   3.635   8.147  0.2029  1.6425 -0.0220
 4970SOL    HW226547   4.022   3.677   8.134  0.6784  1.1541 -1.1169
 4971SOL     OW26548   4.168   3.678   5.370  0.4644  0.6646 -0.2887
 4971SOL    HW126549   4.093   3.673   5.429  0.5843 -1.6635 -0.3225
 4971SOL    HW226550   4.210   3.755   5.409  1.1393 -0.7510  1.8155
 4972SOL     OW26551   3.146   2.438   3.019 -0.0657 -0.2380  0.3826
 4972SOL    HW126552   3.165   2.473   2.932  0.2508  1.7278  1.2344
 4972SOL    HW226553   3.234   2.425   3.053  0.0539  1.2522  0.6450
 4973SOL     OW26554   1.487   2.406  17.551 -0.1406  0.6629 -0.2386
 4973SOL    HW126555   1.472   2.444  17.638  0.6623 -1.0598  0.6474
 4973SOL    HW226556   1.578   2.378  17.567 -0.0938  1.1058  0.2864
 4974SOL     OW26557   1.634   1.859  12.424  0.5846  0.3244  0.7898
 4974SOL    HW126558   1.582   1.916  12.480 -2.2607  0.8245 -2.3420
 4974SOL    HW226559   1.578   1.854  12.346  1.7288  0.0240 -0.0065
 4975SOL     OW26560   2.720   1.532   2.894 -0.7201  0.3683  0.4857
 4975SOL    HW126561   2.750   1.605   2.840 -2.9040  2.3990  2.0431
 4975SOL    HW226562   2.750   1.463   2.835  2.0451  0.7363  1.4489
 4976SOL     OW26563   0.076   4.524   9.900 -0.2459  0.1031 -0.0217
 4976SOL    HW126564   0.027   4.589   9.851 -1.6234 -1.3482 -0.5722
 4976SOL    HW226565   0.157   4.569   9.923  0.7824 -0.0743 -3.2867
 4977SOL     OW26566   3.949   1.029   4.957  0.2892 -0.0584  0.0158
 4977SOL    HW126567   3.942   1.032   5.052  2.0040  2.6225  0.0714
 4977SOL    HW226568   4.044   1.037   4.966  0.1668  0.6979  0.6680
 4978SOL     OW26569   4.478   1.728   6.249  0.3965  1.1280  0.0276
 4978SOL    HW126570   4.573   1.733   6.258  0.5342 -0.9380 -0.2841
 4978SOL    HW226571   4.449   1.656   6.304  0.0472  1.7660  0.6737
 4979SOL     OW26572   2.000   4.450   8.056  0.2711  0.1085 -0.3137
 4979SOL    HW126573   2.004   4.425   8.148  1.3805  0.9531 -0.1312
 4979SOL    HW226574   1.917   4.498   8.055  0.4811  0.4630 -1.6860
 4980SOL     OW26575   3.780   1.550  12.557 -0.6038 -0.1516 -0.1070
 4980SOL    HW126576   3.835   1.479  12.525  0.5706  0.5272  0.3689
 4980SOL    HW226577   3.772   1.529  12.650  3.0558  1.7673  0.6570
 4981SOL     OW26578   2.473   1.709   1.357  0.1573 -0.2405  0.3851
 4981SOL    HW126579   2.468   1.640   1.290  0.3836  0.9891 -0.8834
 4981SOL    HW226580   2.443   1.664   1.436 -0.1718 -0.2693  0.2445
 4982SOL     OW26581   1.423   3.449   4.031  0.4088 -0.2910 -0.2708
 4982SOL    HW126582   1.487   3.384   4.002  0.6053 -0.8692  1.4500
 4982SOL    HW226583   1.475   3.519   4.070 -0.3731 -0.4995  1.1488
 4983SOL     OW26584   3.174   3.985   2.884 -0.0513 -0.3100  0.9652
 4983SOL    HW126585   3.199   3.893   2.884 -0.4734 -0.4246  1.2652
 4983SOL    HW226586   3.229   4.012   2.958  0.9514 -0.7583  0.3931
 4984SOL     OW26587   3.933   4.704   3.159 -0.0421 -0.1010  1.0423
 4984SOL    HW126588   3.870   4.662   3.100  0.6357 -0.6193  0.6849
 4984SOL    HW226589   3.935   0.062   3.134 -1.2417 -0.5540 -0.7906
 4985SOL     OW26590   4.394   3.520   3.842 -0.4648  0.0670 -0.0207
 4985SOL    HW126591   4.348   3.542   3.761 -0.5582 -2.2536 -0.5930
 4985SOL    HW226592   4.385   3.603   3.890  2.0053  0.7548 -0.7316
 4986SOL     OW26593   3.821   0.173  15.368 -0.2052 -0.6995 -0.1642
 4986SOL    HW126594   3.753   0.237  15.345  0.1881 -0.1005  0.3293
 4986SOL    HW226595   3.833   0.193  15.461 -0.2813  0.2296 -0.3461
 4987SOL     OW26596   0.148   3.265   0.584 -0.8258 -0.4350 -0.2487
 4987SOL    HW126597   0.183   3.267   0.495  1.7576  0.3130  0.7605
 4987SOL    HW226598   0.171   3.354   0.612 -2.1266 -0.2387  0.1935
 4988SOL     OW26599   4.034   4.545  12.082 -0.6491  0.5873 -0.5441
 4988SOL    HW126600   3.994   4.584  12.160  3.8854 -0.4416  2.2671
 4988SOL    HW226601   4.032   4.620  12.023  1.3362  1.0831  0.0137
 4989SOL     OW26602   3.243   4.566   5.848 -0.2836 -0.4515  0.3889
 4989SOL    HW126603   3.206   4.483   5.877  2.0992 -1.3873  0.7411
 4989SOL    HW226604   3.332   4.539   5.873 -0.6207 -2.3592 -0.4575
 4990SOL     OW26605   2.818   1.563   5.201  0.1678  0.4964 -0.1671
 4990SOL    HW126606   2.732   1.604   5.201 -0.2513 -0.3938 -0.8719
 4990SOL    HW226607   2.825   1.555   5.297  1.6280  2.5248 -0.0990
 4991SOL     OW26608   0.499   0.800   6.515 -0.3142  0.1341  0.0398
 4991SOL    HW126609   0.505   0.816   6.609 -2.0066  2.6913 -0.3140
 4991SOL    HW226610   0.480   0.706   6.521 -1.3589  0.2836 -0.9413
 4992SOL     OW26611   4.577   1.632   5.591 -0.0987 -0.2336 -0.5292
 4992SOL    HW126612   4.563   1.589   5.675 -0.3927 -1.0790 -1.0063
 4992SOL    HW226613   4.643   1.570   5.559 -0.2946 -0.4499 -0.5147
 4993SOL     OW26614   0.628   3.333   5.646 -0.2964 -0.4076  0.0956
 4993SOL    HW126615   0.691   3.303   5.711  1.3725 -0.0195 -1.3251
 4993SOL    HW226616   0.675   3.412   5.618 -2.0699  1.0151  1.1433
 4994SOL     OW26617   0.349   2.275  12.356  0.0424 -0.4587  0.4310
 4994SOL    HW126618   0.349   2.356  12.408 -0.9360  0.8409 -1.6079
 4994SOL    HW226619   0.265   2.248  12.393 -0.0876 -1.6525 -0.7393
 4995SOL     OW26620   3.246   3.742   0.662 -0.5969 -0.2622 -0.4876
 4995SOL    HW126621   3.193   3.665   0.643  1.6940 -1.4604 -2.0321
 4995SOL    HW226622   3.253   3.732   0.757 -0.9655 -0.1522 -0.4506
 4996SOL     OW26623   3.177   2.148   1.720  0.2230  0.4920 -0.0339
 4996SOL    HW126624   3.084   2.125   1.721 -0.4566  3.1353 -2.2234
 4996SOL    HW226625   3.177   2.209   1.794  0.8189 -0.8469  1.0627
 4997SOL     OW26626   4.021   1.311   2.723 -0.5239  0.3236 -0.0890
 4997SOL    HW126627   4.066   1.380   2.773 -1.4658  1.2798 -0.5481
 4997SOL    HW226628   3.937   1.352   2.703  0.4244  2.0935 -0.4686
 4998SOL     OW26629   3.855   1.828  16.128  0.0066 -0.2435  0.1530
 4998SOL    HW126630   3.811   1.909  16.156  0.2593 -0.8460  2.2779
 4998SOL    HW226631   3.820   1.765  16.191  0.1376 -1.8845 -1.4489
 4999SOL     OW26632   0.346   1.621   7.786 -0.3913  0.9914 -0.0573
 4999SOL    HW126633   0.308   1.637   7.700 -1.5560  1.2138  0.5040
 4999SOL    HW226634   0.403   1.545   7.771 -0.0541  1.5814 -1.8283
 5000SOL     OW26635   4.108   3.977   8.340  0.0644 -0.1967 -0.4988
 5000SOL    HW126636   4.053   4.023   8.276 -0.2163  0.0944 -0.0519
 5000SOL    HW226637   4.129   3.895   8.296  0.4399  0.6378 -1.8633
 5001SOL     OW26638   3.794   2.954   5.470 -0.7694 -0.6277  0.8544
 5001SOL    HW126639   3.823   2.911   5.390  0.6431  1.1532  0.4113
 5001SOL    HW226640   3.776   2.874   5.520 -1.1836 -1.5173 -0.7246
 5002SOL     OW26641   1.049   1.688   0.122 -0.0081  0.2256 -0.0160
 5002SOL    HW126642   0.999   1.769   0.114  1.5110  1.2622  0.8516
 5002SOL    HW226643   1.135   1.719   0.151 -0.2573 -0.0471  0.9965
 5003SOL     OW26644   2.339   0.110  14.424  0.0110  0.5821  0.6806
 5003SOL    HW126645   2.354   0.127  14.331 -0.0942  0.6150  0.6694
 5003SOL    HW226646   2.427   0.115  14.460  0.6554 -0.3296 -0.7755
 5004SOL     OW26647   3.449   0.713   5.076  0.4289  0.0130 -0.0984
 5004SOL    HW126648   3.398   0.766   5.138 -1.4097 -1.8643  0.0065
 5004SOL    HW226649   3.474   0.639   5.130 -1.6802 -1.6334 -1.3767
 5005SOL     OW26650   1.266   4.322  12.014 -0.3689 -0.4535 -0.5356
 5005SOL    HW126651   1.195   4.379  11.983 -0.3286  0.1326  0.4482
 5005SOL    HW226652   1.249   4.308  12.107  3.7089 -1.7676  0.0202
 5006SOL     OW26653   2.814   1.633  14.026  0.0082  0.0911  0.2037
 5006SOL    HW126654   2.744   1.692  13.997  0.8853  1.0403  0.0342
 5006SOL    HW226655   2.886   1.689  14.055  0.4012 -0.3329  0.0544
 5007SOL     OW26656   3.203   1.468   7.101 -0.2535  0.4563 -0.4130
 5007SOL    HW126657   3.235   1.530   7.036  0.4482 -1.0650 -1.5385
 5007SOL    HW226658   3.283   1.416   7.105 -0.0341  0.6673 -1.9328
 5008SOL     OW26659   2.973   2.382   4.702  0.0961  0.0345 -0.3393
 5008SOL    HW126660   3.009   2.381   4.613  2.9100  1.6646  0.7992
 5008SOL    HW226661   2.926   2.465   4.706  0.4697  0.2061  0.6394
 5009SOL     OW26662   3.814   2.678   6.141 -0.3024  0.2171 -0.0976
 5009SOL    HW126663   3.841   2.750   6.199  0.6449 -0.8615  0.8185
 5009SOL    HW226664   3.834   2.605   6.200 -0.6628 -1.3351 -1.8841
 5010SOL     OW26665   1.208   4.480  10.354 -0.2731  0.3541  0.0054
 5010SOL    HW126666   1.216   4.388  10.380  2.6093  0.0087 -2.0280
 5010SOL    HW226667   1.146   4.510  10.420 -1.0222 -0.3637 -0.3829
 5011SOL     OW26668   1.631   2.157   9.766 -0.2011 -0.5494 -0.0282
 5011SOL    HW126669   1.683   2.181   9.843  1.5400  0.2970 -1.4743
 5011SOL    HW226670   1.705   2.162   9.705 -0.9532  2.9842 -0.6081
 5012SOL     OW26671   4.666   3.010   6.167 -0.1383 -0.2068 -0.1079
 5012SOL    HW126672   4.613   2.932   6.180  0.4130 -0.5655 -0.0256
 5012SOL    HW226673   0.008   2.970   6.125  0.9017  0.4375  1.1767
 5013SOL     OW26674   4.541   4.142  13.497 -0.2111 -0.6453  0.1301
 5013SOL    HW126675   4.476   4.208  13.523  0.9992  1.6257 -2.4929
 5013SOL    HW226676   4.585   4.179  13.420 -1.7465  0.0937 -0.4004
 5014SOL     OW26677   2.312   1.221  10.387  0.2444 -0.1230  0.2843
 5014SOL    HW126678   2.262   1.229  10.468  0.2844  0.9766  0.2008
 5014SOL    HW226679   2.326   1.127  10.375 -0.8326 -0.3057  0.4820
 5015SOL     OW26680   0.923   4.324   2.233  0.5710 -0.1323  0.0940
 5015SOL    HW126681   0.924   4.229   2.221 -0.2138 -0.3900  2.1454
 5015SOL    HW226682   1.017   4.332   2.222  0.7225 -2.0387 -0.0595
 5016SOL     OW26683   1.249   3.461   4.397 -0.5899  0.2388 -0.4266
 5016SOL    HW126684   1.266   3.519   4.323  0.8386  1.3997  0.8323
 5016SOL    HW226685   1.154   3.450   4.390 -0.8620  1.1825  1.7386
 5017SOL     OW26686   2.306   4.730   7.855 -0.3593 -0.0761 -0.2295
 5017SOL    HW126687   2.401   4.723   7.849 -0.3051 -1.1761  1.9405
 5017SOL    HW226688   2.295   0.063   7.788 -0.4685  0.6392  0.5042
 5018SOL     OW26689   4.658   3.653  10.201  0.1302 -0.0319 -0.2201
 5018SOL    HW126690   4.597   3.654  10.127  2.5825  0.7660 -2.2045
 5018SOL    HW226691   4.614   3.703  10.270 -0.8021 -0.6139 -0.4011
 5019SOL     OW26692   1.187   3.445   2.407 -0.2208 -0.5883 -0.2372
 5019SOL    HW126693   1.179   3.361   2.452 -1.2025 -0.8698 -0.9262
 5019SOL    HW226694   1.135   3.502   2.463  0.1759 -0.2025 -0.2639
 5020SOL     OW26695   0.957   2.159   7.983  0.7964 -0.1609  0.2807
 5020SOL    HW126696   0.905   2.078   7.986  0.7833 -0.2016 -1.1099
 5020SOL    HW226697   1.009   2.121   7.913  2.0945 -0.8468  1.6283
 5021SOL     OW26698   3.275   3.728   2.858  0.2887  0.0624  0.4312
 5021SOL    HW126699   3.277   3.699   2.949 -1.5795 -0.8686  0.1831
 5021SOL    HW226700   3.366   3.713   2.833 -0.2006 -2.7369  0.3010
 5022SOL     OW26701   4.109   2.521   4.534 -0.3566  0.0981  0.2018
 5022SOL    HW126702   4.081   2.446   4.481 -0.3041  0.1926  0.0431
 5022SOL    HW226703   4.040   2.585   4.516 -1.8469 -1.7316 -0.6253
 5023SOL     OW26704   0.130   0.506  14.589  0.3721  0.2388  0.2651
 5023SOL    HW126705   0.125   0.596  14.555  1.2665  0.3147  0.3427
 5023SOL    HW226706   0.207   0.517  14.644 -0.0999 -0.0625  0.9766
 5024SOL     OW26707   2.521   4.475   9.328  0.6939  0.0899 -0.5233
 5024SOL    HW126708   2.576   4.412   9.375 -0.3407 -0.5655 -0.1724
 5024SOL    HW226709   2.556   4.559   9.357 -0.4555  0.0725  0.9215
 5025SOL     OW26710   4.596   3.876   2.698  0.3607 -0.2921  0.3116
 5025SOL    HW126711   4.610   3.783   2.683 -0.3374 -0.2873 -0.3899
 5025SOL    HW226712   4.684   3.913   2.705  0.2848 -0.1986  0.7732
 5026SOL     OW26713   0.721   1.953   3.200 -0.0607  0.1800 -0.3037
 5026SOL    HW126714   0.659   2.025   3.210  0.5804  1.0516 -2.7195
 5026SOL    HW226715   0.675   1.886   3.150  0.3783  2.1010 -3.2928
 5027SOL     OW26716   1.013   1.446   5.468 -0.3351  0.2278 -0.2098
 5027SOL    HW126717   0.978   1.523   5.512 -0.0789 -1.2331  2.5689
 5027SOL    HW226718   1.001   1.474   5.377 -3.2383  1.4185  0.5292
 5028SOL     OW26719   0.999   0.429   0.340 -0.1540  0.7009  0.3505
 5028SOL    HW126720   1.015   0.401   0.250  1.1383  0.7507  0.5706
 5028SOL    HW226721   1.086   0.421   0.380  0.5130  2.1755 -0.7994
 5029SOL     OW26722   2.277   4.728  15.573  0.3073 -0.2723 -0.0153
 5029SOL    HW126723   2.185   4.734  15.546  0.9632  1.3549 -1.8263
 5029SOL    HW226724   2.276   4.635  15.598 -1.7319 -0.4651 -0.8214
 5030SOL     OW26725   2.448   3.931   4.818  0.2668 -0.3601  0.0508
 5030SOL    HW126726   2.470   3.896   4.904  1.1229 -1.5911 -0.6778
 5030SOL    HW226727   2.534   3.950   4.781  0.5481 -0.8232  0.4736
 5031SOL     OW26728   0.404   1.558   4.207 -0.7397  0.1993  0.2569
 5031SOL    HW126729   0.464   1.625   4.238  1.4893 -1.4950 -0.3909
 5031SOL    HW226730   0.471   1.490   4.194 -2.2083 -1.5799  1.8958
 5032SOL     OW26731   1.634   0.005   6.382  0.5443  0.0649  0.5085
 5032SOL    HW126732   1.597   0.090   6.403 -3.7073 -1.7690  0.4767
 5032SOL    HW226733   1.561   4.685   6.415  0.5158 -1.9197 -2.8487
 5033SOL     OW26734   3.505   0.282  15.827 -0.4652  0.3110  0.3187
 5033SOL    HW126735   3.470   0.319  15.908  0.3402 -0.3257  0.9443
 5033SOL    HW226736   3.592   0.268  15.863 -0.6919 -0.7765  0.4488
 5034SOL     OW26737   2.109   2.093   4.374  0.0632 -0.3746  0.8985
 5034SOL    HW126738   2.073   2.137   4.298 -0.6921 -1.7740  0.4592
 5034SOL    HW226739   2.091   2.163   4.438  1.9516 -1.2675  2.4265
 5035SOL     OW26740   3.522   0.274   8.459 -0.5682 -0.0220  0.0620
 5035SOL    HW126741   3.427   0.262   8.466 -0.5800 -0.8398 -1.5109
 5035SOL    HW226742   3.541   0.260   8.366 -1.4588  2.1856 -0.4435
 5036SOL     OW26743   1.445   4.196  12.381  0.6410 -0.4341 -0.3104
 5036SOL    HW126744   1.412   4.187  12.471 -0.6506  0.0679 -0.7344
 5036SOL    HW226745   1.384   4.259  12.341  2.3648  1.8422  0.6296
 5037SOL     OW26746   3.328   2.933  11.110  0.0348  0.1727  0.1380
 5037SOL    HW126747   3.411   2.909  11.070 -0.2347  0.5038 -0.6058
 5037SOL    HW226748   3.269   2.921  11.036 -1.9381 -0.2476  1.7455
 5038SOL     OW26749   3.101   4.508   2.060 -0.1841  0.3071 -0.2390
 5038SOL    HW126750   3.192   4.536   2.063 -0.2704  0.4745  0.6873
 5038SOL    HW226751   3.117   4.414   2.051 -1.8029 -0.0266  0.2301
 5039SOL     OW26752   0.214   1.472   8.277 -0.2775  0.7628  0.6743
 5039SOL    HW126753   0.306   1.447   8.284 -0.9599 -2.4924 -1.6944
 5039SOL    HW226754   0.193   1.416   8.202 -0.0278  0.7168  0.6410
 5040SOL     OW26755   1.616   3.347   7.545  0.5104 -0.2880 -0.1380
 5040SOL    HW126756   1.583   3.259   7.525  1.6114 -0.3033 -1.8874
 5040SOL    HW226757   1.639   3.343   7.637 -1.7792 -0.2268  0.4486
 5041SOL     OW26758   1.263   0.234   8.854  0.0257  0.4677 -0.0896
 5041SOL    HW126759   1.312   0.205   8.932 -0.2622  0.1866 -0.0120
 5041SOL    HW226760   1.266   0.160   8.794 -0.8226  0.9622 -0.7480
 5042SOL     OW26761   3.386   0.119   3.259 -0.0021  0.1250  0.0689
 5042SOL    HW126762   3.447   0.083   3.323 -0.1843  0.1078  0.2338
 5042SOL    HW226763   3.359   0.044   3.206 -1.3160 -1.4562  2.9358
 5043SOL     OW26764   4.453   3.186   5.945 -0.2462 -0.7067 -0.2205
 5043SOL    HW126765   4.525   3.214   6.001 -2.0077  0.0275  1.6765
 5043SOL    HW226766   4.387   3.255   5.955  0.0033 -0.5618  0.4253
 5044SOL     OW26767   2.147   1.497   6.775  0.1808  0.3843 -0.0753
 5044SOL    HW126768   2.095   1.434   6.725  0.4294 -0.1635  0.3602
 5044SOL    HW226769   2.181   1.559   6.710 -0.6776  1.1189  0.1687
 5045SOL     OW26770   2.608   2.954   5.736 -0.1698  0.0075  0.3318
 5045SOL    HW126771   2.602   2.911   5.821 -1.8958  0.0149  0.2135
 5045SOL    HW226772   2.516   2.961   5.711  0.5884 -0.5053 -2.6441
 5046SOL     OW26773   0.495   0.773   2.546  0.2138 -0.3246 -0.3465
 5046SOL    HW126774   0.564   0.801   2.607  0.8093  0.8123 -1.5398
 5046SOL    HW226775   0.511   0.681   2.566  0.5661  0.3720  2.6305
 5047SOL     OW26776   2.366   2.598   5.186  0.0789  0.2432  0.3208
 5047SOL    HW126777   2.413   2.548   5.252  0.0534 -0.6724 -0.3610
 5047SOL    HW226778   2.410   2.683   5.195  0.4721 -0.0579  1.2361
 5048SOL     OW26779   3.868   3.363  15.599 -0.0304 -0.3533  0.1345
 5048SOL    HW126780   3.857   3.417  15.677 -2.0130 -1.0782  0.3581
 5048SOL    HW226781   3.943   3.400  15.553 -0.0317 -0.5104  0.0035
 5049SOL     OW26782   0.342   1.665   5.080  0.4485  0.1736 -0.3663
 5049SOL    HW126783   0.388   1.582   5.093 -0.6379 -0.5040 -0.8732
 5049SOL    HW226784   0.269   1.626   5.033  2.1378 -1.7218 -1.3983
 5050SOL     OW26785   3.083   3.258   5.087  0.2924  0.0743 -0.2312
 5050SOL    HW126786   3.153   3.194   5.102  0.1451  0.2229  1.0621
 5050SOL    HW226787   3.066   3.253   4.992  0.4154 -2.1335 -0.1438
 5051SOL     OW26788   3.368   3.755  13.708  0.1748 -0.2006  0.1930
 5051SOL    HW126789   3.419   3.806  13.645 -0.2101  1.5615  1.3000
 5051SOL    HW226790   3.419   3.772  13.787 -1.9645 -0.7060  1.6827
 5052SOL     OW26791   1.144   2.430  14.368  0.2753 -0.6252 -0.2154
 5052SOL    HW126792   1.115   2.350  14.411  0.9956  0.0562  1.5672
 5052SOL    HW226793   1.096   2.437  14.286 -0.5993 -1.3556  0.2315
 5053SOL     OW26794   3.896   2.530   2.231 -0.1966  0.1310  0.1644
 5053SOL    HW126795   3.989   2.554   2.234 -0.2775  0.4472  0.1202
 5053SOL    HW226796   3.897   2.464   2.162  0.7032 -0.9753  1.2381
 5054SOL     OW26797   0.403   1.360   6.287  0.2759 -0.0691 -0.2499
 5054SOL    HW126798   0.389   1.309   6.367  0.1741 -1.5139 -1.1930
 5054SOL    HW226799   0.350   1.436   6.309 -0.8890 -0.7971 -0.5864
 5055SOL     OW26800   0.473   4.586   3.235 -0.8456  0.3989 -0.3085
 5055SOL    HW126801   0.478   4.501   3.192 -1.1321 -0.1855  0.8376
 5055SOL    HW226802   0.438   4.651   3.174  0.0261 -1.1271 -2.4417
 5056SOL     OW26803   4.203   0.155   9.541 -0.1670 -0.7212 -0.0838
 5056SOL    HW126804   4.186   0.205   9.462  0.5107 -1.1630 -0.5076
 5056SOL    HW226805   4.266   0.091   9.507  1.7936 -0.0295  2.2049
 5057SOL     OW26806   3.673   2.551   7.381  0.0123  0.0168 -0.0443
 5057SOL    HW126807   3.655   2.599   7.461  0.3909 -1.8825  1.2039
 5057SOL    HW226808   3.589   2.522   7.347 -0.6674 -0.7311  2.3111
 5058SOL     OW26809   3.343   0.566   1.929 -0.6217 -0.2483 -0.3417
 5058SOL    HW126810   3.378   0.654   1.917  1.6171 -0.9476  1.0477
 5058SOL    HW226811   3.422   0.516   1.949  0.3203  0.4822 -2.2314
 5059SOL     OW26812   3.027   4.167   5.399 -0.1567 -0.0151  0.0250
 5059SOL    HW126813   3.089   4.204   5.336  3.3176 -3.0330  1.7309
 5059SOL    HW226814   3.090   4.125   5.457  1.8568  2.5739 -0.2898
 5060SOL     OW26815   1.333   2.902  15.318  0.1589  0.2384  0.6558
 5060SOL    HW126816   1.314   2.996  15.316 -0.9057  0.0110  0.0008
 5060SOL    HW226817   1.285   2.875  15.239  2.8549  0.3416 -1.0260
 5061SOL     OW26818   1.883   1.817  12.491  0.1007 -0.0537 -0.0380
 5061SOL    HW126819   1.902   1.727  12.464 -1.6480 -0.6606  0.7742
 5061SOL    HW226820   1.791   1.828  12.465  0.3507  0.3495 -0.7516
 5062SOL     OW26821   1.018   4.500  14.660  0.0592 -0.2736 -0.2283
 5062SOL    HW126822   0.953   4.535  14.600  1.6632 -0.5413 -2.1155
 5062SOL    HW226823   0.960   4.447  14.715 -0.0320  0.8610  0.7771
 5063SOL     OW26824   2.426   2.817  16.932  0.1448 -0.1676 -0.2046
 5063SOL    HW126825   2.380   2.769  16.863 -0.3049 -0.5196  0.3396
 5063SOL    HW226826   2.363   2.808  17.004 -2.3462 -1.0977 -2.5051
 5064SOL     OW26827   2.905   2.688   0.746 -0.2138  0.3569  0.1443
 5064SOL    HW126828   2.823   2.734   0.728  0.4261  0.6287 -2.0789
 5064SOL    HW226829   2.964   2.756   0.712  1.1143 -1.0942 -0.4757
 5065SOL     OW26830   0.122   2.799   4.584  0.6902 -0.2868  0.2845
 5065SOL    HW126831   0.152   2.814   4.494  0.4155 -1.4101 -0.0076
 5065SOL    HW226832   0.207   2.803   4.627  1.2435 -2.0798 -0.6191
 5066SOL     OW26833   4.178   3.188  10.196  0.1922 -0.3459  0.0651
 5066SOL    HW126834   4.173   3.102  10.240 -2.7232  0.7670  1.9254
 5066SOL    HW226835   4.087   3.215  10.208 -0.4835 -1.7990 -1.8866
 5067SOL     OW26836   3.485   4.548  10.707 -0.3054 -0.4274  0.0179
 5067SOL    HW126837   3.536   4.516  10.633  0.7282 -2.1737  1.4967
 5067SOL    HW226838   3.435   4.624  10.675 -0.2990 -1.2564 -1.9547
 5068SOL     OW26839   2.661   1.536   8.313 -0.0293 -0.3036 -0.2000
 5068SOL    HW126840   2.730   1.485   8.271  1.4657  0.1979  1.6119
 5068SOL    HW226841   2.695   1.532   8.403  0.8787  0.0143 -0.5206
 5069SOL     OW26842   1.203   1.293   9.126  0.4581  0.0565  0.1506
 5069SOL    HW126843   1.224   1.283   9.034  0.7509 -0.3927  0.2659
 5069SOL    HW226844   1.285   1.267   9.169 -0.0529 -0.9296  0.5326
 5070SOL     OW26845   0.966   1.315   7.425 -0.4918  0.9267  0.7219
 5070SOL    HW126846   0.931   1.384   7.368 -0.0490 -0.0001 -0.6646
 5070SOL    HW226847   1.042   1.292   7.372 -1.2407 -0.1259  0.1054
 5071SOL     OW26848   0.619   0.494   0.358 -0.0083  0.4374 -0.2792
 5071SOL    HW126849   0.673   0.479   0.435 -0.4910 -2.5336 -0.5336
 5071SOL    HW226850   0.684   0.478   0.290 -1.4662 -3.8893 -0.6805
 5072SOL     OW26851   1.932   4.400   3.595  0.0053  0.1209  0.0656
 5072SOL    HW126852   1.910   4.307   3.597  0.0398  0.1082 -0.2248
 5072SOL    HW226853   2.026   4.383   3.600 -0.1489 -1.1086 -1.3389
 5073SOL     OW26854   3.461   2.411   6.729  0.3417 -0.6290  0.7289
 5073SOL    HW126855   3.386   2.417   6.669  1.3808 -0.6232 -0.5883
 5073SOL    HW226856   3.532   2.390   6.667  1.3775  1.4249  1.2206
 5074SOL     OW26857   0.518   4.051   1.822 -0.1631 -0.2531 -0.2357
 5074SOL    HW126858   0.574   4.047   1.745  1.9314  0.7918  1.2518
 5074SOL    HW226859   0.495   3.958   1.814  1.4954 -0.6000 -0.8326
 5075SOL     OW26860   2.936   4.691   4.314  0.6111  0.0896  0.1770
 5075SOL    HW126861   2.915   4.598   4.320  0.3064  0.1810  0.4879
 5075SOL    HW226862   2.998   4.699   4.387 -0.1165 -1.6943  0.9915
 5076SOL     OW26863   2.363   1.819  17.270 -0.2829  0.2734 -0.3130
 5076SOL    HW126864   2.361   1.905  17.312  0.2765  0.6624 -1.0695
 5076SOL    HW226865   2.453   1.804  17.241 -0.3825  1.8776 -1.4698
 5077SOL     OW26866   0.104   3.733   1.614  0.0205  0.0063 -0.2378
 5077SOL    HW126867   0.016   3.773   1.613  0.1663  0.2984 -1.2650
 5077SOL    HW226868   0.107   3.646   1.574 -0.1383  0.6219 -1.5847
 5078SOL     OW26869   1.791   0.660   8.372  0.0112  0.0398 -0.6006
 5078SOL    HW126870   1.701   0.634   8.391  0.8307 -1.3912  1.2951
 5078SOL    HW226871   1.820   0.578   8.331  0.1784 -0.3252  0.2343
 5079SOL     OW26872   4.105   0.647   5.142 -0.1914 -0.2005 -0.1031
 5079SOL    HW126873   4.091   0.661   5.236  1.3901  4.1801 -0.4884
 5079SOL    HW226874   4.025   0.679   5.102  0.8800  2.4479 -0.1263
 5080SOL     OW26875   0.336   1.060   2.970 -0.6828 -0.0035  0.5392
 5080SOL    HW126876   0.247   1.064   2.937 -0.5153 -1.2529 -0.0687
 5080SOL    HW226877   0.362   0.987   2.914 -1.5186 -1.0023  1.4517
 5081SOL     OW26878   1.162   2.456   2.201 -0.1770  0.1061  0.2906
 5081SOL    HW126879   1.255   2.437   2.190 -0.4695 -2.0827  1.7296
 5081SOL    HW226880   1.146   2.503   2.119  1.8752 -0.7614 -0.6020
 5082SOL     OW26881   4.198   4.671   4.866  0.1602 -0.5017 -0.2022
 5082SOL    HW126882   4.284   4.710   4.877 -0.0982 -0.3988  1.6127
 5082SOL    HW226883   4.213   4.600   4.804  0.3986 -1.6198  1.1318
 5083SOL     OW26884   2.439   0.474   6.957 -0.3235 -0.1508  0.0408
 5083SOL    HW126885   2.383   0.469   6.880  0.4762 -1.8552 -0.4318
 5083SOL    HW226886   2.384   0.438   7.027  0.1125 -0.5404  0.1849
 5084SOL     OW26887   1.862   0.764  15.461 -0.2812  0.5504  0.0917
 5084SOL    HW126888   1.815   0.750  15.379  1.5182  0.7894 -0.9964
 5084SOL    HW226889   1.899   0.678  15.482  1.7566  1.2148 -0.7234
 5085SOL     OW26890   2.269   3.856  17.653  0.4156  0.0808 -0.0747
 5085SOL    HW126891   2.250   3.763  17.670  0.8242 -0.5614 -3.1739
 5085SOL    HW226892   2.186   3.883  17.615  1.4543 -0.1718 -2.5381
 5086SOL     OW26893   0.694   1.918   4.421  0.1339 -0.1937 -0.0541
 5086SOL    HW126894   0.625   1.914   4.488 -0.7996  0.0581 -0.9886
 5086SOL    HW226895   0.679   2.002   4.378 -0.3076 -0.1954  0.0970
 5087SOL     OW26896   2.091   1.982   4.651  0.5367  0.5984 -0.1927
 5087SOL    HW126897   2.036   2.012   4.723  0.8840  0.4594  0.1282
 5087SOL    HW226898   2.123   2.069   4.626  0.2014  0.2228 -1.9611
 5088SOL     OW26899   1.289   0.414  11.706 -0.0188  0.0205 -1.1528
 5088SOL    HW126900   1.371   0.456  11.679 -0.9751  0.8908 -2.7439
 5088SOL    HW226901   1.294   0.342  11.644  0.3046 -1.4819  0.6454
 5089SOL     OW26902   2.199   3.331  11.924 -0.5369 -0.4928 -0.0716
 5089SOL    HW126903   2.292   3.314  11.909 -0.5615 -1.1540  0.5375
 5089SOL    HW226904   2.170   3.373  11.843  0.5119  0.8432  0.2366
 5090SOL     OW26905   2.174   2.239   3.228 -0.0308  0.2641 -0.3976
 5090SOL    HW126906   2.094   2.260   3.181 -1.4987 -0.4330  1.8218
 5090SOL    HW226907   2.216   2.322   3.247  1.1158 -0.1440 -1.1196
 5091SOL     OW26908   3.171   3.096  12.184  0.7630 -0.1151 -0.2521
 5091SOL    HW126909   3.255   3.051  12.181  0.7534 -0.1536  0.0566
 5091SOL    HW226910   3.131   3.030  12.240 -0.8049  0.3988 -0.7648
 5092SOL     OW26911   3.666   2.162   6.463 -0.2054 -0.5126 -0.0249
 5092SOL    HW126912   3.615   2.090   6.501 -0.8251 -0.4107 -0.6556
 5092SOL    HW226913   3.712   2.120   6.390 -1.6745  0.1877 -1.3655
 5093SOL     OW26914   0.449   3.828   3.999 -0.2725 -0.2475  0.1886
 5093SOL    HW126915   0.361   3.865   3.996 -0.1437  0.2928  3.7577
 5093SOL    HW226916   0.499   3.907   4.018 -1.3456  0.4659  0.0284
 5094SOL     OW26917   2.377   3.606   3.078  0.2051  0.0713 -0.3198
 5094SOL    HW126918   2.438   3.583   3.008  0.0462 -0.0124 -0.4301
 5094SOL    HW226919   2.361   3.522   3.120  0.3038 -0.7578 -1.9330
 5095SOL     OW26920   4.719   3.279   6.034 -0.0878  0.5126  0.6118
 5095SOL    HW126921   0.021   3.196   6.066  0.6728  0.1914 -1.0426
 5095SOL    HW226922   0.056   3.311   5.978  0.1740  1.4994  1.5143
 5096SOL     OW26923   1.260   0.148   2.007 -0.0850  0.0160 -0.0806
 5096SOL    HW126924   1.232   0.088   1.938  1.9359 -0.4721 -0.4771
 5096SOL    HW226925   1.350   0.167   1.979  1.3150 -2.4782  2.8587
 5097SOL     OW26926   2.007   3.776   1.985 -0.1888 -0.0051  0.5028
 5097SOL    HW126927   2.084   3.722   2.004  1.4339  1.6994 -1.2867
 5097SOL    HW226928   2.040   3.819   1.906 -2.0220 -2.4741 -1.6389
 5098SOL     OW26929   1.201   3.712   7.171 -0.2201 -0.7082  0.6145
 5098SOL    HW126930   1.194   3.714   7.076 -2.2753  1.6573  0.8040
 5098SOL    HW226931   1.118   3.728   7.216  1.2603  1.1167  2.6770
 5099SOL     OW26932   0.202   3.029   3.742  0.3013 -0.8032 -0.2170
 5099SOL    HW126933   0.194   2.988   3.656 -0.2702  2.6607 -1.8078
 5099SOL    HW226934   0.295   3.049   3.738  0.4704 -1.6502 -0.3981
 5100SOL     OW26935   3.772   2.348   2.623 -1.1256 -0.4937 -0.0865
 5100SOL    HW126936   3.744   2.433   2.655  1.4937  0.1152  0.5976
 5100SOL    HW226937   3.867   2.361   2.622 -1.0393 -1.1392 -0.3562
 5101SOL     OW26938   2.661   1.348  10.895  0.1427 -0.3601 -0.0242
 5101SOL    HW126939   2.656   1.443  10.884  1.9604 -0.1654  0.9091
 5101SOL    HW226940   2.628   1.311  10.813  1.2596  1.7700 -1.4229
 5102SOL     OW26941   4.610   3.047   8.869 -1.0528 -0.4281 -0.2088
 5102SOL    HW126942   4.702   3.071   8.859 -1.0178 -1.0762 -1.4822
 5102SOL    HW226943   4.613   2.953   8.853 -0.8695 -0.6446  1.1010
 5103SOL     OW26944   1.418   2.340   2.202  0.0906  0.6122 -0.1850
 5103SOL    HW126945   1.477   2.369   2.132 -0.1201 -0.3486 -0.7495
 5103SOL    HW226946   1.481   2.322   2.272 -0.7193  1.3490  0.7473
 5104SOL     OW26947   3.021   0.179   7.195 -0.0634 -0.4831  0.4709
 5104SOL    HW126948   3.043   0.158   7.104  0.3637  0.2354  0.4135
 5104SOL    HW226949   3.025   0.274   7.200  1.0811 -0.3875 -2.1236
 5105SOL     OW26950   2.072   2.262   8.055  0.0469 -0.0499 -0.2381
 5105SOL    HW126951   2.103   2.325   8.121 -3.0849 -0.9812  2.0886
 5105SOL    HW226952   2.081   2.316   7.976  0.4223 -1.8089 -1.3798
 5106SOL     OW26953   3.814   0.497   5.297 -0.3559 -0.1890  0.0957
 5106SOL    HW126954   3.737   0.517   5.244 -1.0453  1.2723  1.6768
 5106SOL    HW226955   3.773   0.452   5.370  0.2492 -2.1006 -0.7331
 5107SOL     OW26956   3.953   0.084   9.616  0.0444  0.1542  0.0333
 5107SOL    HW126957   4.029   0.118   9.568  0.4158 -2.5462 -1.2833
 5107SOL    HW226958   3.981   0.088   9.708  0.1570  1.6975 -0.0648
 5108SOL     OW26959   4.488   1.828   4.253 -0.1697  0.7594 -0.4258
 5108SOL    HW126960   4.504   1.825   4.347 -1.3188  1.1796 -0.2141
 5108SOL    HW226961   4.558   1.888   4.228  1.3398 -0.3415  1.2396
 5109SOL     OW26962   0.564   0.147   4.243 -0.1610 -0.1565 -0.3146
 5109SOL    HW126963   0.556   0.214   4.311 -1.9431  0.8079 -1.4844
 5109SOL    HW226964   0.518   0.194   4.173  3.1312  0.6554 -1.9464
 5110SOL     OW26965   1.347   1.497   7.374  0.0163 -0.3554 -0.8817
 5110SOL    HW126966   1.371   1.576   7.325 -1.6104 -1.4741 -3.5157
 5110SOL    HW226967   1.427   1.484   7.424  1.4554 -1.0274 -3.3737
 5111SOL     OW26968   3.661   4.185   1.529  0.3532  0.4183 -0.3705
 5111SOL    HW126969   3.703   4.166   1.613 -0.7852  3.7640  0.9640
 5111SOL    HW226970   3.582   4.131   1.533  0.0070  0.9117 -0.6102
 5112SOL     OW26971   3.110   0.340   2.931  0.3357 -0.3393 -0.1233
 5112SOL    HW126972   3.176   0.372   2.992 -1.6587  1.6674  0.9630
 5112SOL    HW226973   3.157   0.263   2.898 -0.8018 -0.6747 -0.9760
 5113SOL     OW26974   0.044   2.467   0.958 -0.0473 -0.2359  0.0751
 5113SOL    HW126975   0.102   2.467   1.034 -1.0673  4.8958  0.8086
 5113SOL    HW226976   4.695   2.453   1.003  0.1904 -0.9320  0.3016
 5114SOL     OW26977   0.374   1.582   0.953  0.5948 -0.1116 -0.4804
 5114SOL    HW126978   0.460   1.624   0.942  0.0211  1.5506  1.4014
 5114SOL    HW226979   0.380   1.591   1.048 -0.4147  0.0483 -0.4382
 5115SOL     OW26980   1.636   3.890   3.196  0.7087  0.2036  0.3622
 5115SOL    HW126981   1.699   3.922   3.260  0.7557 -1.7796  1.3104
 5115SOL    HW226982   1.673   3.806   3.171 -0.1930  0.8278 -3.1381
 5116SOL     OW26983   3.114   2.404  10.508  0.2179  0.5840 -0.4776
 5116SOL    HW126984   3.161   2.328  10.542  0.4180  1.1868  0.5963
 5116SOL    HW226985   3.029   2.386  10.550  1.1640  4.1465  2.9437
 5117SOL     OW26986   2.301   4.059   9.272  0.7130  0.3079 -0.1535
 5117SOL    HW126987   2.320   3.968   9.298  0.3938 -0.2524 -1.8638
 5117SOL    HW226988   2.212   4.063   9.239  0.9719  0.7981 -0.8002
 5118SOL     OW26989   3.986   2.374  10.649  0.7200  0.2046  0.3035
 5118SOL    HW126990   4.043   2.315  10.599 -0.1189 -1.2339  1.0596
 5118SOL    HW226991   3.941   2.319  10.713  0.3117  0.4029  0.1916
 5119SOL     OW26992   4.618   4.120   8.477 -0.9891 -0.0821  0.0993
 5119SOL    HW126993   4.654   4.051   8.532 -1.3011 -1.0875 -0.9672
 5119SOL    HW226994   4.619   4.078   8.391  0.5769  2.6847 -1.2468
 5120SOL     OW26995   4.332   2.456   5.857 -0.1804  0.6458  0.0538
 5120SOL    HW126996   4.401   2.462   5.791 -0.4699  0.1484 -0.2897
 5120SOL    HW226997   4.369   2.488   5.940 -0.3130  0.0884  0.3218
 5121SOL     OW26998   1.634   2.372   5.111 -0.2491  0.4197  0.5135
 5121SOL    HW126999   1.602   2.462   5.121 -0.5211  0.2251  1.4339
 5121SOL    HW227000   1.724   2.398   5.091  0.0598  0.8962  2.5542
 5122SOL     OW27001   2.316   2.787   9.276  0.5578  0.5472 -0.4221
 5122SOL    HW127002   2.270   2.703   9.281  0.5941  0.6981  2.2035
 5122SOL    HW227003   2.241   2.845   9.263  0.1530 -0.1319 -1.1659
 5123SOL     OW27004   1.083   2.104  17.065 -0.2558 -0.1308 -0.2179
 5123SOL    HW127005   1.130   2.158  17.002  1.6698 -0.4482  0.9216
 5123SOL    HW227006   1.011   2.070  17.011 -0.8035  2.1750 -0.9284
 5124SOL     OW27007   2.972   0.535   9.656 -0.2947 -0.3164 -0.3587
 5124SOL    HW127008   3.026   0.589   9.713  0.0580 -0.2519 -0.7562
 5124SOL    HW227009   2.931   0.611   9.616  0.0970 -0.9350 -1.9453
 5125SOL     OW27010   1.632   2.357   5.691  0.1910  0.0293  0.4504
 5125SOL    HW127011   1.718   2.351   5.649  0.9681  1.0088  1.9228
 5125SOL    HW227012   1.588   2.432   5.651 -0.7516 -0.2451  0.9617
 5126SOL     OW27013   4.041   2.347   5.468  0.5020 -0.3320 -0.4976
 5126SOL    HW127014   4.002   2.381   5.388 -1.4782  0.0378  0.6370
 5126SOL    HW227015   3.996   2.403   5.531 -0.7629 -0.1476 -1.5887
 5127SOL     OW27016   0.702   1.849  16.392 -0.2157  0.0044  0.0131
 5127SOL    HW127017   0.675   1.781  16.331  0.6758  0.4068 -0.8464
 5127SOL    HW227018   0.614   1.885  16.400 -0.2646 -0.5064  1.6454
 5128SOL     OW27019   1.199   4.615   7.333 -0.1592  0.0413 -0.6408
 5128SOL    HW127020   1.185   4.694   7.384  0.4261  1.1538 -2.1884
 5128SOL    HW227021   1.131   4.632   7.267 -0.2267  1.0037 -0.3179
 5129SOL     OW27022   4.492   1.848   3.022  0.1710 -0.1665 -0.3059
 5129SOL    HW127023   4.586   1.848   3.035  0.4049 -0.0545 -2.0478
 5129SOL    HW227024   4.469   1.901   3.098  1.3864 -0.2346  0.1057
 5130SOL     OW27025   3.549   0.898   8.887 -0.1965 -0.3243  0.0740
 5130SOL    HW127026   3.513   0.960   8.822  1.7053 -0.6045 -1.2366
 5130SOL    HW227027   3.480   0.904   8.953 -0.6029  0.3537 -0.3980
 5131SOL     OW27028   4.643   2.868   2.736  0.2007 -0.0256  0.5907
 5131SOL    HW127029   4.725   2.821   2.721 -1.6076 -3.5597  1.8080
 5131SOL    HW227030   4.600   2.814   2.803  1.5928 -1.1034  0.5914
 5132SOL     OW27031   4.207   3.436   7.671 -0.6821  0.1288  0.4370
 5132SOL    HW127032   4.290   3.454   7.625 -0.4196  1.8776  1.5762
 5132SOL    HW227033   4.154   3.510   7.640 -1.6865 -0.7943 -0.0296
 5133SOL     OW27034   3.612   0.969   4.993  0.1788 -0.0964 -0.0901
 5133SOL    HW127035   3.606   0.976   5.088 -0.7371  1.8055 -0.2848
 5133SOL    HW227036   3.637   0.877   4.989  1.2587  0.1805  0.3486
 5134SOL     OW27037   3.921   2.612   3.691 -0.0657  0.1324 -0.6226
 5134SOL    HW127038   3.864   2.585   3.619  2.6590 -0.4517 -2.5286
 5134SOL    HW227039   3.970   2.530   3.696  0.5899  0.5523 -0.2096
 5135SOL     OW27040   1.089   2.342  16.891 -0.1494 -0.4419 -0.2741
 5135SOL    HW127041   1.051   2.331  16.977 -2.9045  2.2033 -1.1370
 5135SOL    HW227042   1.042   2.423  16.868  1.6601  1.0393  1.2766
 5136SOL     OW27043   1.026   0.038  16.751 -0.0499  0.5512 -0.6114
 5136SOL    HW127044   1.049   4.681  16.729 -0.4818 -0.0153  1.2706
 5136SOL    HW227045   1.111   0.080  16.760  0.1448 -0.2057  1.0962
 5137SOL     OW27046   2.112   2.905   5.376  0.2067  0.0749 -0.0985
 5137SOL    HW127047   2.028   2.916   5.420 -0.3180 -0.1318 -1.0442
 5137SOL    HW227048   2.095   2.971   5.309 -0.4379  0.3499  0.3429
 5138SOL     OW27049   2.571   0.032   7.419 -0.3026 -0.0919 -0.0038
 5138SOL    HW127050   2.573   4.671   7.407 -1.2663 -0.1892  0.6201
 5138SOL    HW227051   2.652   0.038   7.471 -0.7751  0.7265  0.6395
 5139SOL     OW27052   3.943   3.056   4.978 -0.1979 -0.5868  0.0361
 5139SOL    HW127053   3.914   3.141   4.945 -1.2581 -2.0209 -2.7159
 5139SOL    HW227054   3.968   3.006   4.900 -1.0860  2.4726 -2.1706
 5140SOL     OW27055   0.292   4.398   9.416 -0.2405  0.5287  0.2663
 5140SOL    HW127056   0.366   4.453   9.441 -0.4168  0.6736  0.4689
 5140SOL    HW227057   0.219   4.429   9.470  0.0075  0.2080  0.7865
 5141SOL     OW27058   2.879   4.184   3.959  0.6440  0.3137 -0.1578
 5141SOL    HW127059   2.869   4.125   4.033  0.2797  1.0737  0.3983
 5141SOL    HW227060   2.923   4.260   3.996  2.4363 -0.3264 -0.9747
 5142SOL     OW27061   1.282   0.979   2.020 -0.0709 -0.4707  0.5647
 5142SOL    HW127062   1.243   0.899   1.985 -1.8116  0.6116  0.0035
 5142SOL    HW227063   1.342   0.943   2.086  0.4159 -2.0211 -0.7510
 5143SOL     OW27064   2.372   0.850  17.603 -0.0595  0.5944 -0.4586
 5143SOL    HW127065   2.436   0.787  17.638  0.9488  0.9573 -1.6661
 5143SOL    HW227066   2.305   0.797  17.560 -0.1641  1.8956 -1.8745
 5144SOL     OW27067   3.030   3.742   8.441 -0.8079 -0.2844  0.2550
 5144SOL    HW127068   2.971   3.807   8.479 -1.8605 -0.2063 -1.5029
 5144SOL    HW227069   3.096   3.732   8.510 -1.8874 -0.2029  1.3031
 5145SOL     OW27070   2.786   2.358   6.638  0.1675 -0.0091 -0.5017
 5145SOL    HW127071   2.780   2.433   6.579 -0.7454 -0.3807 -0.8672
 5145SOL    HW227072   2.861   2.305   6.613 -0.5421 -2.3683  2.2589
 5146SOL     OW27073   2.407   4.205   6.910  0.0207  0.2748  0.0147
 5146SOL    HW127074   2.407   4.296   6.882 -2.3269 -0.0032 -0.8293
 5146SOL    HW227075   2.346   4.169   6.846 -0.4461  1.2129 -0.0645
 5147SOL     OW27076   3.432   2.136  11.919 -0.4007 -0.6792 -0.9623
 5147SOL    HW127077   3.450   2.129  11.826 -1.7239  0.5104 -1.3116
 5147SOL    HW227078   3.380   2.057  11.937 -1.2756  0.3921  1.1652
 5148SOL     OW27079   0.076   4.245   6.496  0.2876 -0.4915 -0.2004
 5148SOL    HW127080   0.085   4.229   6.402  2.4107  0.7086 -0.1880
 5148SOL    HW227081   0.169   4.239   6.515  0.1357  1.9928  1.2781
 5149SOL     OW27082   2.900   4.644   7.032  0.1503  0.1048  0.2134
 5149SOL    HW127083   2.982   4.693   7.019  1.0030 -1.5896 -0.8081
 5149SOL    HW227084   2.836   4.688   6.976 -0.2790 -0.1250  0.5254
 5150SOL     OW27085   1.481   3.240   1.625 -0.2538 -0.1359  0.5410
 5150SOL    HW127086   1.390   3.226   1.652 -0.1315  2.8403  2.4455
 5150SOL    HW227087   1.481   3.216   1.532 -2.9052  0.4192  0.3825
 5151SOL     OW27088   0.614   3.046   3.361 -0.0045 -0.2546  0.1530
 5151SOL    HW127089   0.710   3.048   3.364  0.1177 -1.2628 -3.0310
 5151SOL    HW227090   0.595   2.953   3.350 -1.1783 -0.1321  1.2353
 5152SOL     OW27091   1.250   1.192   5.830  0.1876  0.0378 -0.8949
 5152SOL    HW127092   1.273   1.272   5.878  0.4695 -0.2501 -0.5479
 5152SOL    HW227093   1.170   1.204   5.780 -0.3276  0.5658  0.0511
 5153SOL     OW27094   1.856   3.624   4.562  0.4420 -0.7942 -0.3059
 5153SOL    HW127095   1.926   3.656   4.505  1.5294 -1.6311  0.5648
 5153SOL    HW227096   1.864   3.530   4.547  0.4628 -1.3499  3.2051
 5154SOL     OW27097   0.426   1.884   2.454  0.2696  0.0073 -0.1161
 5154SOL    HW127098   0.394   1.936   2.381  1.1704 -0.0836 -0.5772
 5154SOL    HW227099   0.436   1.797   2.418  0.8431 -0.4477  1.1223
 5155SOL     OW27100   4.043   0.064   4.325 -0.5049 -0.5108 -0.6679
 5155SOL    HW127101   3.969   0.035   4.272 -0.6065 -2.9041  0.7926
 5155SOL    HW227102   4.055   4.718   4.376  0.0217  0.4593  0.7319
 5156SOL     OW27103   4.266   0.404   4.122  0.2077  0.0546 -0.0082
 5156SOL    HW127104   4.191   0.345   4.116  1.4877 -1.6089  0.3799
 5156SOL    HW227105   4.233   0.475   4.067  1.0503 -0.1032 -0.7210
 5157SOL     OW27106   3.284   4.720   2.436  0.2811 -0.2215 -0.4201
 5157SOL    HW127107   3.250   4.667   2.364 -3.8989  0.9886  0.6950
 5157SOL    HW227108   3.259   0.074   2.407  0.1150 -0.5657 -1.3067
 5158SOL     OW27109   1.293   3.891  13.952 -0.1915 -0.0742  0.0452
 5158SOL    HW127110   1.243   3.951  14.009 -0.9718  0.5351 -1.2633
 5158SOL    HW227111   1.258   3.805  13.975 -1.9710  0.6293  0.0245
 5159SOL     OW27112   2.075   2.864   2.781 -0.2239 -0.1297 -0.2330
 5159SOL    HW127113   2.019   2.862   2.859  0.6835  1.6267  0.4611
 5159SOL    HW227114   2.094   2.957   2.771 -0.2648 -0.2709 -1.6822
 5160SOL     OW27115   4.115   2.847   3.900  0.1580 -0.0301  0.5161
 5160SOL    HW127116   4.156   2.912   3.957 -0.1918  0.6844 -0.0551
 5160SOL    HW227117   4.191   2.789   3.896  0.6006  0.6748 -1.0500
 5161SOL     OW27118   2.684   1.580   6.109 -0.4308 -0.3092  0.3035
 5161SOL    HW127119   2.731   1.538   6.181  0.8826  2.8533  1.2919
 5161SOL    HW227120   2.599   1.583   6.154 -1.7846 -0.9484 -2.2117
 5162SOL     OW27121   4.385   3.177  15.379 -0.3158  0.6100  0.3932
 5162SOL    HW127122   4.476   3.156  15.359 -0.7015 -0.1837 -0.5500
 5162SOL    HW227123   4.377   3.189  15.473 -1.8414 -1.3413  0.5274
 5163SOL     OW27124   1.972   0.155  10.163 -0.3904 -0.3539 -0.0890
 5163SOL    HW127125   1.962   0.218  10.091  2.0715 -0.4798 -0.5709
 5163SOL    HW227126   1.957   0.079  10.107  1.0375  0.8900 -2.1928
 5164SOL     OW27127   3.108   4.330   6.525 -0.1419 -0.1652  0.0310
 5164SOL    HW127128   3.122   4.235   6.519  0.2580 -0.1736  1.0984
 5164SOL    HW227129   3.193   4.350   6.564  0.8495 -3.0355 -0.6498
 5165SOL     OW27130   3.682   1.440   7.180  0.0122  0.1499  0.5100
 5165SOL    HW127131   3.720   1.517   7.138 -2.0175 -1.4228 -4.1636
 5165SOL    HW227132   3.640   1.478   7.257  0.0103  0.8364  0.1683
 5166SOL     OW27133   2.428   1.493   1.547  0.1501 -0.1019  0.3918
 5166SOL    HW127134   2.486   1.438   1.600  0.1717  0.1394  0.6200
 5166SOL    HW227135   2.423   1.443   1.466  2.3896 -0.6364  0.5751
 5167SOL     OW27136   1.521   3.900  14.318  0.5911  0.1347  0.2943
 5167SOL    HW127137   1.614   3.876  14.325  0.9367  1.5982  0.9560
 5167SOL    HW227138   1.487   3.825  14.271  1.1677 -0.4274  0.7767
 5168SOL     OW27139   0.967   0.630   6.453  0.7626  0.1194 -0.1380
 5168SOL    HW127140   0.917   0.553   6.481 -1.4140  1.2874 -0.7720
 5168SOL    HW227141   0.900   0.698   6.455  0.7149  0.0420  0.8320
 5169SOL     OW27142   2.992   4.487   1.721  0.1504 -0.2995  0.3572
 5169SOL    HW127143   3.024   4.577   1.723  2.6668 -1.1519 -1.3926
 5169SOL    HW227144   2.982   4.463   1.629 -0.9602 -1.2543  0.7389
 5170SOL     OW27145   2.028   0.651  13.683  0.0473 -0.0086  0.2873
 5170SOL    HW127146   2.032   0.556  13.681 -0.1198 -0.0007 -0.6263
 5170SOL    HW227147   1.947   0.671  13.730 -0.0732  0.7364 -0.2301
 5171SOL     OW27148   3.163   1.860  15.184 -0.5339 -0.9519 -0.2304
 5171SOL    HW127149   3.109   1.891  15.257 -0.9652 -1.5966 -0.2797
 5171SOL    HW227150   3.250   1.860  15.225  1.1920  1.3158 -3.8984
 5172SOL     OW27151   0.579   2.231   7.044 -0.2337 -0.9051 -0.0754
 5172SOL    HW127152   0.630   2.275   7.112  1.4781 -0.7379 -1.4544
 5172SOL    HW227153   0.633   2.162   7.006  0.6395 -0.7043  0.7961
 5173SOL     OW27154   4.487   1.895   5.740 -0.0178  0.6253 -0.4327
 5173SOL    HW127155   4.523   1.812   5.710  1.2393  0.8582  0.4309
 5173SOL    HW227156   4.404   1.856   5.768 -0.7659  1.0711 -2.0323
 5174SOL     OW27157   4.331   0.499   5.758  0.6418 -0.6357  0.0600
 5174SOL    HW127158   4.334   0.564   5.687  0.4423  0.1926  0.8058
 5174SOL    HW227159   4.303   0.547   5.836  0.4957  1.1823 -1.0902
 5175SOL     OW27160   3.353   3.973  14.081  0.7485  0.6077  0.3664
 5175SOL    HW127161   3.317   3.962  14.168  3.6169 -0.9927  1.3421
 5175SOL    HW227162   3.354   3.886  14.041 -0.2919  1.4957 -1.6077
 5176SOL     OW27163   4.147   4.467  15.494 -0.4716  0.2661 -0.0342
 5176SOL    HW127164   4.192   4.386  15.519 -1.4487  1.1963  4.7091
 5176SOL    HW227165   4.206   4.515  15.435 -0.4163  1.5872  1.1126
 5177SOL     OW27166   4.255   1.804   9.106  0.1937  0.4048  0.6179
 5177SOL    HW127167   4.174   1.853   9.091  0.4561  1.2494  2.0102
 5177SOL    HW227168   4.215   1.719   9.126  0.7679 -1.2278 -5.2111
 5178SOL     OW27169   3.973   0.885   1.681 -0.4026  0.2788 -0.3959
 5178SOL    HW127170   4.061   0.892   1.718  1.1716 -2.4233 -3.6402
 5178SOL    HW227171   3.978   0.936   1.600 -0.8124  0.3590 -0.3729
 5179SOL     OW27172   1.831   2.624  14.633 -0.1516  0.2944  0.0136
 5179SOL    HW127173   1.890   2.573  14.689  0.9081  2.3754  0.8006
 5179SOL    HW227174   1.806   2.693  14.694  0.3539  1.5969 -1.2552
 5180SOL     OW27175   0.371   2.697   7.335  0.0948 -0.2053 -0.4819
 5180SOL    HW127176   0.375   2.778   7.386  1.6562 -0.7768  0.3082
 5180SOL    HW227177   0.375   2.626   7.399 -1.9076  1.4645  1.4984
 5181SOL     OW27178   2.598   0.910  12.022  0.2623  0.5342  0.6054
 5181SOL    HW127179   2.571   0.858  12.098 -2.6865  1.6892  0.3716
 5181SOL    HW227180   2.648   0.975  12.071  2.0692 -0.2530 -0.2183
 5182SOL     OW27181   1.176   0.071   5.381  0.0258 -0.5508  0.2043
 5182SOL    HW127182   1.254   0.048   5.330  0.6214 -1.9331  1.7668
 5182SOL    HW227183   1.207   0.065   5.471 -0.3482 -1.4921  0.2622
 5183SOL     OW27184   3.942   3.796   1.127 -0.9368 -0.3423 -0.5321
 5183SOL    HW127185   3.980   3.709   1.139  0.1756  0.3157  0.6787
 5183SOL    HW227186   3.967   3.840   1.208 -1.3779 -1.6783  0.3263
 5184SOL     OW27187   4.397   4.580   1.915  0.2884  0.0070  0.0002
 5184SOL    HW127188   4.335   4.618   1.853  0.7334 -0.5716 -0.7946
 5184SOL    HW227189   4.338   4.559   1.988 -1.2670 -1.4813 -1.6844
 5185SOL     OW27190   1.745   0.965   7.182 -0.4268  0.4257 -0.1513
 5185SOL    HW127191   1.807   1.036   7.167  0.3112 -0.3262 -0.6587
 5185SOL    HW227192   1.723   0.939   7.092  1.2204  1.3532 -0.8117
 5186SOL     OW27193   4.575   0.661  13.242 -0.1423 -0.5955  0.7312
 5186SOL    HW127194   4.566   0.736  13.183 -2.2844 -1.3508  0.1003
 5186SOL    HW227195   4.607   0.706  13.320 -0.0902  3.2265 -1.5093
 5187SOL     OW27196   4.626   3.256   6.630 -0.3366 -0.0642 -0.0780
 5187SOL    HW127197   4.704   3.246   6.685 -0.1474 -0.1805 -0.3674
 5187SOL    HW227198   4.570   3.186   6.665 -0.6004 -0.4159 -1.2124
 5188SOL     OW27199   2.808   1.286   4.785  0.3549 -0.1097 -0.3635
 5188SOL    HW127200   2.852   1.218   4.734  0.8619  0.2621 -0.4117
 5188SOL    HW227201   2.801   1.359   4.724  0.4381  0.9688  0.9374
 5189SOL     OW27202   4.510   3.976   5.230 -0.1268 -0.3984 -0.1843
 5189SOL    HW127203   4.424   3.994   5.192 -0.3896 -0.2686  0.4789
 5189SOL    HW227204   4.501   4.030   5.308 -0.3148  0.8837 -1.0812
 5190SOL     OW27205   1.779   3.852  14.235  0.4881  0.3191 -0.0966
 5190SOL    HW127206   1.778   3.757  14.230  0.1171  0.3350 -0.4382
 5190SOL    HW227207   1.826   3.868  14.153  1.4264 -0.1188  0.3586
 5191SOL     OW27208   1.512   1.259   3.618  0.2965 -0.0224 -0.4441
 5191SOL    HW127209   1.608   1.258   3.621  0.2473 -0.0759  0.8540
 5191SOL    HW227210   1.495   1.178   3.569  1.3986  0.4551 -1.6203
 5192SOL     OW27211   0.195   3.329   6.354  0.2045 -0.2638 -0.0214
 5192SOL    HW127212   0.126   3.383   6.392 -0.3723  1.6032 -3.6566
 5192SOL    HW227213   0.147   3.249   6.333 -0.3847  0.3036 -0.8749
 5193SOL     OW27214   4.701   0.500   9.827  0.0645 -0.9423  0.3032
 5193SOL    HW127215   4.607   0.493   9.843 -0.5853  4.2345 -1.0395
 5193SOL    HW227216   4.697   0.475   9.734 -1.1696 -1.1104  0.4022
 5194SOL     OW27217   2.798   4.146   4.198 -0.2308  1.0450 -0.0965
 5194SOL    HW127218   2.783   4.080   4.266 -0.4017 -1.2002 -2.2844
 5194SOL    HW227219   2.714   4.191   4.196 -1.2464 -0.9120 -1.2022
 5195SOL     OW27220   3.036   1.234   0.112  0.6654 -0.0375  0.3552
 5195SOL    HW127221   3.031   1.148   0.070  1.2719 -0.4587  1.1458
 5195SOL    HW227222   2.955   1.279   0.086  1.7994  1.7287 -0.1013
 5196SOL     OW27223   4.438   4.652   3.726 -0.2059 -0.4840  0.2488
 5196SOL    HW127224   4.404   4.689   3.807  0.1784 -0.7269  0.5251
 5196SOL    HW227225   4.518   4.705   3.720 -1.0891  0.8488  0.2452
 5197SOL     OW27226   1.739   0.944  17.024 -0.3476 -0.1678  0.5639
 5197SOL    HW127227   1.693   1.004  16.965 -0.4253  0.0365  0.8337
 5197SOL    HW227228   1.805   0.894  16.976  0.7011  1.6221  0.1526
 5198SOL     OW27229   0.538   1.319   0.708  0.6917  0.4347 -0.0892
 5198SOL    HW127230   0.502   1.391   0.656 -2.2499 -0.8329  0.1920
 5198SOL    HW227231   0.464   1.259   0.700 -0.7889  2.3119 -0.1897
 5199SOL     OW27232   4.546   2.508   9.233 -0.3981  0.3904  0.2145
 5199SOL    HW127233   4.495   2.439   9.276 -0.2500  1.4698  2.1151
 5199SOL    HW227234   4.517   2.579   9.289 -0.0456  1.0417 -0.4244
 5200SOL     OW27235   3.332   1.837   5.106  0.4393  0.4530  0.4785
 5200SOL    HW127236   3.260   1.863   5.049 -2.3122 -1.2770  3.2084
 5200SOL    HW227237   3.302   1.750   5.132  1.7384 -0.3077 -0.5156
 5201SOL     OW27238   4.371   1.885   9.729 -0.1169  0.2683 -0.3484
 5201SOL    HW127239   4.443   1.869   9.789 -1.3238  1.7557  1.4782
 5201SOL    HW227240   4.351   1.795   9.702 -2.6127  0.0303  2.3094
 5202SOL     OW27241   2.688   4.464   5.327 -0.2836  0.0521 -0.0261
 5202SOL    HW127242   2.649   4.538   5.280 -0.5127  0.7550  1.2777
 5202SOL    HW227243   2.775   4.496   5.351 -0.1856  0.7650 -1.3630
 5203SOL     OW27244   3.193   0.230   7.708  0.0111  0.3493  0.4503
 5203SOL    HW127245   3.148   0.147   7.722  1.5698 -0.7714 -1.2073
 5203SOL    HW227246   3.251   0.214   7.634 -0.3532 -0.2820  0.2970
 5204SOL     OW27247   0.051   4.713  10.323  0.4021  0.1300 -0.2029
 5204SOL    HW127248   0.096   0.040  10.381  0.8785  0.0213 -0.4574
 5204SOL    HW227249   0.114   4.642  10.318 -1.2750 -1.1859 -2.6094
 5205SOL     OW27250   3.149   4.551   5.590 -0.2290 -0.1687  0.5587
 5205SOL    HW127251   3.225   4.586   5.544  0.1760 -3.2117 -1.0935
 5205SOL    HW227252   3.174   4.560   5.682  0.1615  0.0425  0.4279
 5206SOL     OW27253   2.249   0.994   7.783  0.1427  0.2949 -0.0631
 5206SOL    HW127254   2.280   0.951   7.703 -2.7046 -0.4967 -0.7562
 5206SOL    HW227255   2.177   1.052   7.757  1.1169  1.4132 -0.2727
 5207SOL     OW27256   4.700   2.470   7.287 -0.0795 -0.5578  0.5128
 5207SOL    HW127257   0.001   2.456   7.375  1.9682  2.2810  0.1194
 5207SOL    HW227258   4.722   2.561   7.269 -0.9563 -0.5053 -0.3133
 5208SOL     OW27259   1.399   1.970  12.076 -0.3146  0.3530 -0.4707
 5208SOL    HW127260   1.363   2.053  12.043  0.8509  0.3959 -1.6448
 5208SOL    HW227261   1.430   1.999  12.162 -1.6531  0.1690  0.0835
 5209SOL     OW27262   2.471   3.109   5.972  0.1848  0.1821 -0.1347
 5209SOL    HW127263   2.387   3.074   6.000  0.7008 -0.8258  0.1549
 5209SOL    HW227264   2.481   3.084   5.881 -0.8317 -1.7810  0.2934
 5210SOL     OW27265   3.435   0.875  11.206  0.1856 -0.6015  0.3521
 5210SOL    HW127266   3.421   0.792  11.159 -1.7206  0.1997 -0.4746
 5210SOL    HW227267   3.494   0.847  11.276  0.5984 -1.1769 -0.2148
 5211SOL     OW27268   2.303   2.952  13.527 -0.4067 -0.7247 -0.6891
 5211SOL    HW127269   2.353   2.971  13.606 -2.1413 -0.3305  0.3195
 5211SOL    HW227270   2.348   3.002  13.458 -0.0664  0.2144  0.2212
 5212SOL     OW27271   3.824   3.996  14.601  0.0880  0.5397 -0.0029
 5212SOL    HW127272   3.838   4.071  14.543  0.2369 -0.0202 -0.6952
 5212SOL    HW227273   3.728   4.004  14.605 -0.1331 -2.3647  0.3293
 5213SOL     OW27274   0.920   0.708   2.353 -0.7280 -0.6286  0.1203
 5213SOL    HW127275   0.901   0.757   2.273 -0.1174 -0.9622 -0.2319
 5213SOL    HW227276   0.878   0.625   2.331  1.1983 -2.0505  1.7313
 5214SOL     OW27277   0.933   1.965   4.586  0.0809  0.5844 -0.1573
 5214SOL    HW127278   0.856   1.927   4.543  1.4024 -1.7217 -0.4761
 5214SOL    HW227279   0.901   2.051   4.612  0.5407  0.8131 -0.3316
 5215SOL     OW27280   0.357   1.399   4.883  0.0834  0.6723  0.5322
 5215SOL    HW127281   0.398   1.418   4.968  3.0155 -0.4639 -0.6375
 5215SOL    HW227282   0.275   1.362   4.915 -0.0230  0.4110 -0.0480
 5216SOL     OW27283   4.381   0.079   2.384  0.2481  0.0004  0.2702
 5216SOL    HW127284   4.366   0.073   2.290  0.8282  0.5796  0.1412
 5216SOL    HW227285   4.290   0.087   2.415 -0.1684  0.2578 -1.0167
 5217SOL     OW27286   0.589   4.033   1.076 -0.3144 -0.3575 -0.1269
 5217SOL    HW127287   0.616   4.087   1.151 -0.7906  1.0925 -1.0088
 5217SOL    HW227288   0.674   4.002   1.044  0.4645  1.6011  0.0660
 5218SOL     OW27289   0.147   2.932   3.499  0.0304  0.1127  0.4170
 5218SOL    HW127290   0.159   2.839   3.482 -0.1261  0.2427 -0.3906
 5218SOL    HW227291   0.052   2.942   3.489  0.3880 -0.1234 -2.9606
 5219SOL     OW27292   2.761   3.038   2.539 -0.0458  0.7370 -0.0033
 5219SOL    HW127293   2.700   2.970   2.567 -1.3616  1.8518 -0.1653
 5219SOL    HW227294   2.760   3.018   2.446  2.5153  1.3134 -0.1611
 5220SOL     OW27295   0.919   1.464   2.167 -0.0053  0.2143  0.0105
 5220SOL    HW127296   1.002   1.470   2.120 -1.1781 -0.7404 -2.2198
 5220SOL    HW227297   0.959   1.437   2.249  0.0955 -1.2646 -0.5218
 5221SOL     OW27298   1.230   2.879   5.734  0.0114  0.3904 -0.1170
 5221SOL    HW127299   1.176   2.898   5.811 -0.8179 -1.2867 -0.2995
 5221SOL    HW227300   1.217   2.959   5.684  1.8143  0.7251 -0.0611
 5222SOL     OW27301   3.373   0.415   7.951 -0.0726  0.1310 -0.0062
 5222SOL    HW127302   3.332   0.354   8.012  1.2732 -1.4902 -0.7313
 5222SOL    HW227303   3.308   0.411   7.881  0.0228  1.8717 -0.2074
 5223SOL     OW27304   3.383   3.049   5.875 -0.4271 -0.0258 -0.9469
 5223SOL    HW127305   3.468   3.013   5.899 -0.5803  0.2245 -0.0190
 5223SOL    HW227306   3.373   3.113   5.946  0.1285 -0.1900 -0.7236
 5224SOL     OW27307   3.083   1.597  16.190  0.8247  0.1388 -0.3610
 5224SOL    HW127308   3.163   1.643  16.164  0.7530 -0.5847 -1.8614
 5224SOL    HW227309   3.097   1.506  16.164  1.7286  0.0498  0.4277
 5225SOL     OW27310   4.237   0.374   7.816  0.1355 -0.5429  0.2183
 5225SOL    HW127311   4.218   0.450   7.762  5.0044  1.7375  1.7301
 5225SOL    HW227312   4.270   0.413   7.896 -2.5005  0.5792  0.7540
 5226SOL     OW27313   0.878   1.146   3.145  0.0034  0.5234  0.6176
 5226SOL    HW127314   0.833   1.228   3.164  1.0858  1.4043 -0.5747
 5226SOL    HW227315   0.839   1.093   3.214  0.5359  1.2637  1.4737
 5227SOL     OW27316   2.648   0.024   9.719 -0.2747 -0.7507  0.3716
 5227SOL    HW127317   2.707   4.683   9.719  0.3098 -0.2956 -0.1779
 5227SOL    HW227318   2.635   0.036   9.813 -1.4859 -1.7353  0.3271
 5228SOL     OW27319   3.422   0.539   7.441  0.2446 -0.0353  0.4502
 5228SOL    HW127320   3.479   0.598   7.392 -0.5916 -2.2341 -3.2031
 5228SOL    HW227321   3.478   0.471   7.478  0.6253  0.3577  0.5986
 5229SOL     OW27322   1.224   1.419   3.316  0.1907  0.0437 -0.5023
 5229SOL    HW127323   1.317   1.439   3.311  0.3137 -0.3068  0.3934
 5229SOL    HW227324   1.193   1.482   3.251 -1.0395 -1.5080 -1.4169
 5230SOL     OW27325   4.616   2.373  12.156 -0.5454  0.2271  0.4746
 5230SOL    HW127326   4.638   2.341  12.244  2.4709 -0.7849 -0.6436
 5230SOL    HW227327   4.705   2.403  12.137 -0.4777  0.4598  1.1705
 5231SOL     OW27328   1.568   2.445  13.715 -0.4499  0.0842  0.1121
 5231SOL    HW127329   1.545   2.519  13.770 -0.7080 -0.2348  0.4353
 5231SOL    HW227330   1.639   2.471  13.656 -1.5225 -2.0832 -2.1778
 5232SOL     OW27331   0.628   4.088   6.002 -0.1112 -0.3628 -0.0906
 5232SOL    HW127332   0.658   4.085   6.093  1.3736  1.8214 -0.4968
 5232SOL    HW227333   0.599   3.997   5.996 -1.6957  0.2893 -2.3384
 5233SOL     OW27334   3.050   1.979   1.146 -0.1871 -0.2677 -0.2920
 5233SOL    HW127335   2.974   2.035   1.162  0.9477  1.4866 -1.0788
 5233SOL    HW227336   3.069   1.945   1.234  1.8222 -1.5734 -1.2356
 5234SOL     OW27337   0.694   0.824   2.862 -0.1921 -0.3806 -0.2919
 5234SOL    HW127338   0.776   0.863   2.834 -0.9617  0.6020 -1.1572
 5234SOL    HW227339   0.731   0.780   2.939 -0.3368 -1.3809 -0.7869
 5235SOL     OW27340   4.047   3.546   5.173  0.4024 -0.0170 -0.0689
 5235SOL    HW127341   4.083   3.461   5.201 -0.8021 -0.4866  0.0724
 5235SOL    HW227342   4.091   3.606   5.232  1.6193  0.5519 -1.5478
 5236SOL     OW27343   1.243   2.610   1.990 -0.1425  0.5754  0.1116
 5236SOL    HW127344   1.214   2.693   1.953  1.3186  2.2100  2.6945
 5236SOL    HW227345   1.311   2.636   2.051  0.0909  1.2616 -0.4447
 5237SOL     OW27346   1.139   0.225   8.272  0.6043 -0.2409 -0.1712
 5237SOL    HW127347   1.084   0.232   8.194  1.0977 -0.3946 -0.5298
 5237SOL    HW227348   1.094   0.297   8.317  0.3890 -0.0630 -0.6760
 5238SOL     OW27349   3.303   1.167   2.751  0.3801  0.1091  0.0276
 5238SOL    HW127350   3.217   1.130   2.765  0.9625 -0.4831  1.9766
 5238SOL    HW227351   3.361   1.145   2.824 -0.6778  1.4991  1.3003
 5239SOL     OW27352   3.437   3.702   4.697  0.0624 -0.3585 -0.0783
 5239SOL    HW127353   3.509   3.653   4.659 -0.2207  0.0330 -1.1245
 5239SOL    HW227354   3.383   3.626   4.718 -2.2419  1.3427  0.0947
 5240SOL     OW27355   3.591   3.147   5.153  0.6697  0.0076 -0.5380
 5240SOL    HW127356   3.669   3.172   5.104  1.1009  0.7846  0.5451
 5240SOL    HW227357   3.581   3.222   5.212 -2.0544  0.9984 -2.2775
 5241SOL     OW27358   0.060   2.951   5.294  0.5010 -0.5548  0.2962
 5241SOL    HW127359   0.026   3.003   5.367 -3.8554 -2.2397 -0.4789
 5241SOL    HW227360   0.136   2.996   5.260 -0.6242 -0.6272 -2.3215
 5242SOL     OW27361   4.300   4.036   4.816 -0.3319 -0.2872  0.0174
 5242SOL    HW127362   4.294   3.941   4.810 -0.6186 -0.1817 -1.2155
 5242SOL    HW227363   4.337   4.055   4.903 -2.8667  0.4782  0.9291
 5243SOL     OW27364   3.046   1.189   3.348  0.5318  0.2164 -0.0696
 5243SOL    HW127365   3.028   1.115   3.407 -4.2544 -0.2383 -2.0432
 5243SOL    HW227366   2.984   1.256   3.374  1.3011  0.7081  0.4839
 5244SOL     OW27367   0.382   4.321   2.362  0.3200  0.7985 -0.5391
 5244SOL    HW127368   0.407   4.229   2.367  1.9232  1.1598 -2.0325
 5244SOL    HW227369   0.467   4.364   2.353 -0.4147  2.0969 -1.3931
 5245SOL     OW27370   1.403   3.546  11.804  0.4720  0.2424  0.1415
 5245SOL    HW127371   1.413   3.454  11.828 -2.0874  0.2769  1.3685
 5245SOL    HW227372   1.310   3.552  11.782  0.5211  0.3976 -0.0196
 5246SOL     OW27373   0.273   3.755   4.255 -0.1768  0.2014 -0.1535
 5246SOL    HW127374   0.219   3.712   4.189 -1.4930  1.1017  0.3334
 5246SOL    HW227375   0.355   3.765   4.207 -0.4825  0.7263 -0.5668
 5247SOL     OW27376   0.833   3.670  13.102  0.4397  0.0841 -0.5703
 5247SOL    HW127377   0.827   3.628  13.188  1.9713  1.1517  0.0394
 5247SOL    HW227378   0.845   3.587  13.055 -0.3452 -0.3490 -0.0249
 5248SOL     OW27379   2.294   3.196  14.738 -0.0726  0.4277 -0.0987
 5248SOL    HW127380   2.279   3.122  14.680  0.0297 -0.3858  0.9052
 5248SOL    HW227381   2.251   3.262  14.683  1.8362  0.8547 -1.1013
 5249SOL     OW27382   2.850   2.458  11.784  0.4545  0.2831  0.2486
 5249SOL    HW127383   2.840   2.513  11.706 -2.5414 -1.1573 -0.3620
 5249SOL    HW227384   2.843   2.375  11.738 -1.2812  0.8069 -0.4201
 5250SOL     OW27385   2.912   1.124  12.709 -0.3716  0.5452 -0.2457
 5250SOL    HW127386   2.847   1.187  12.740 -0.0982  2.0412 -2.7032
 5250SOL    HW227387   2.934   1.060  12.777 -0.4232 -0.9245 -1.6062
 5251SOL     OW27388   1.540   1.160  17.429  0.6486  0.1994 -0.5055
 5251SOL    HW127389   1.556   1.083  17.483 -1.0004  1.0581  1.2106
 5251SOL    HW227390   1.606   1.141  17.362  1.2801  1.3653 -0.2056
 5252SOL     OW27391   0.908   3.066   3.313 -0.0650  0.4536 -0.1035
 5252SOL    HW127392   0.934   2.994   3.371  0.5403  0.8221  0.0837
 5252SOL    HW227393   0.958   3.051   3.233 -0.2599  1.8016 -0.4780
 5253SOL     OW27394   1.122   2.858  17.483 -0.1456 -0.0289 -0.1145
 5253SOL    HW127395   1.032   2.849  17.454  0.0766  0.4837 -0.9970
 5253SOL    HW227396   1.162   2.788  17.431 -0.2916 -0.9132  0.9845
 5254SOL     OW27397   4.284   0.860   8.257 -0.2607  0.8345 -0.2938
 5254SOL    HW127398   4.353   0.841   8.193 -0.4688  0.1388 -0.3158
 5254SOL    HW227399   4.338   0.857   8.336  1.6864  3.7365 -1.5303
 5255SOL     OW27400   0.496   0.349   1.824  0.2499 -0.3352 -0.0505
 5255SOL    HW127401   0.464   0.269   1.781 -2.7560  0.5606  0.5257
 5255SOL    HW227402   0.589   0.347   1.802  0.8582 -0.8375  2.6417
 5256SOL     OW27403   3.546   1.314   4.369  0.3197  0.7741 -0.1284
 5256SOL    HW127404   3.567   1.294   4.461  0.4364 -2.7475 -0.9470
 5256SOL    HW227405   3.578   1.237   4.324 -0.7713  2.4448 -3.7292
 5257SOL     OW27406   2.337   3.876   8.925 -0.4468 -0.0480  0.7109
 5257SOL    HW127407   2.250   3.883   8.965 -1.1957  1.8863 -1.2461
 5257SOL    HW227408   2.398   3.894   8.997  1.2660  0.6559 -0.9363
 5258SOL     OW27409   3.079   2.984   4.876  0.2485  0.3609  0.3329
 5258SOL    HW127410   3.055   2.928   4.802  0.3619  1.0396 -0.2164
 5258SOL    HW227411   3.173   2.966   4.888  0.1695 -0.2133  0.1105
 5259SOL     OW27412   1.126   0.213   9.199 -1.1370  0.0804 -0.2250
 5259SOL    HW127413   1.155   0.179   9.115 -0.6264  0.2561 -0.1208
 5259SOL    HW227414   1.105   0.139   9.256  1.6962 -0.2013  0.4662
 5260SOL     OW27415   0.887   0.775   0.195 -0.3187  0.0188 -0.5540
 5260SOL    HW127416   0.915   0.847   0.252 -1.0546  0.1870 -0.4025
 5260SOL    HW227417   0.933   0.700   0.233 -0.5478  0.5715  0.8360
 5261SOL     OW27418   2.940   3.862   8.874 -0.2063  0.1408  0.0869
 5261SOL    HW127419   2.866   3.912   8.840  0.0836 -1.0029 -2.2135
 5261SOL    HW227420   2.906   3.773   8.870 -0.5423  0.1863  1.9674
 5262SOL     OW27421   1.205   4.064   2.349 -0.4782  0.3332  0.6789
 5262SOL    HW127422   1.276   4.012   2.312  2.1548  1.1453  4.5596
 5262SOL    HW227423   1.241   4.066   2.438  2.0669 -1.6165 -0.3140
 5263SOL     OW27424   3.818   3.097  16.416  0.0219  0.1897  0.0592
 5263SOL    HW127425   3.778   3.022  16.373  0.8747 -0.9652  1.2614
 5263SOL    HW227426   3.757   3.099  16.490  2.4549  0.3139  2.0714
 5264SOL     OW27427   4.359   2.933   7.510 -1.2006  0.2258 -0.1634
 5264SOL    HW127428   4.279   2.948   7.560 -3.2658 -0.3271 -3.3017
 5264SOL    HW227429   4.381   2.843   7.533  1.1261  0.5752 -0.9748
 5265SOL     OW27430   2.617   2.891   8.156 -0.3735  0.1235 -0.2901
 5265SOL    HW127431   2.650   2.847   8.235 -3.0204  1.5883  1.6178
 5265SOL    HW227432   2.689   2.922   8.100  1.4136  2.2933  3.2450
 5266SOL     OW27433   0.109   2.192   8.029  0.2103 -0.7307 -0.2480
 5266SOL    HW127434   0.027   2.236   8.050 -0.3300 -2.3836  1.0807
 5266SOL    HW227435   0.134   2.235   7.947 -0.0990 -0.2701 -0.1013
 5267SOL     OW27436   3.216   2.425   8.475 -0.0322  0.3732 -0.1695
 5267SOL    HW127437   3.232   2.496   8.413 -3.0669 -0.1755 -1.5417
 5267SOL    HW227438   3.143   2.463   8.524  0.8157  0.9682  0.6553
 5268SOL     OW27439   2.441   0.212   8.329 -0.1717  0.2916 -0.1416
 5268SOL    HW127440   2.397   0.203   8.244 -0.7274 -0.2702  0.2046
 5268SOL    HW227441   2.525   0.250   8.303 -0.2721  0.5094 -0.1509
 5269SOL     OW27442   0.732   0.620  14.325 -0.2290  0.4672  0.0341
 5269SOL    HW127443   0.676   0.685  14.367 -1.9115  0.7008 -2.6253
 5269SOL    HW227444   0.693   0.612  14.239 -0.6997 -1.5586  0.4312
 5270SOL     OW27445   2.861   3.551  13.139 -0.6408 -0.2823  0.1115
 5270SOL    HW127446   2.915   3.601  13.077  0.8897 -1.1731  0.7232
 5270SOL    HW227447   2.920   3.534  13.213 -1.0357 -0.6691  0.3343
 5271SOL     OW27448   4.607   2.900   3.487  0.3551 -0.0272  0.6952
 5271SOL    HW127449   4.585   2.988   3.455  0.1889 -0.3544 -0.1027
 5271SOL    HW227450   4.579   2.906   3.578  0.5481  3.8329  0.4905
 5272SOL     OW27451   3.379   3.225   0.664 -0.0224 -0.0031 -0.1581
 5272SOL    HW127452   3.435   3.154   0.632  0.0385  0.2390 -0.5909
 5272SOL    HW227453   3.413   3.297   0.610 -2.3730 -0.1243 -1.8099
 5273SOL     OW27454   0.076   1.735  11.947  0.6567  0.4478  1.0911
 5273SOL    HW127455   0.068   1.715  12.040 -0.3833 -1.5949  0.5437
 5273SOL    HW227456   0.011   1.806  11.943  1.8980  1.3774 -2.6799
 5274SOL     OW27457   4.703   3.133   3.838 -0.9905 -0.2102 -0.2388
 5274SOL    HW127458   0.045   3.077   3.821  0.4831  1.7157 -0.0553
 5274SOL    HW227459   0.007   3.209   3.794  1.7603 -0.5917  1.4545
 5275SOL     OW27460   2.491   3.851  13.238  0.0568  0.1643  0.5271
 5275SOL    HW127461   2.523   3.814  13.320 -0.0805 -0.5356  0.2664
 5275SOL    HW227462   2.420   3.908  13.266  0.5769 -0.4300  3.0362
 5276SOL     OW27463   3.238   2.151  12.652  0.8340  0.5599  0.6983
 5276SOL    HW127464   3.159   2.100  12.641  0.0662  1.9759 -0.3262
 5276SOL    HW227465   3.281   2.105  12.725  2.4464  0.0651 -0.5659
 5277SOL     OW27466   4.527   3.560  16.226  0.4475 -0.1403 -0.0933
 5277SOL    HW127467   4.481   3.586  16.146  0.1458 -1.4952 -0.3565
 5277SOL    HW227468   4.452   3.523  16.271  0.5977  0.6123  0.7766
 5278SOL     OW27469   2.564   4.018  12.925  0.0361  0.5329 -0.2913
 5278SOL    HW127470   2.492   4.066  12.883 -0.8479  0.1603  0.7996
 5278SOL    HW227471   2.634   4.044  12.865 -0.0955  0.2120 -0.5844
 5279SOL     OW27472   0.801   0.414   2.970 -0.2107  0.1563  0.0745
 5279SOL    HW127473   0.832   0.328   2.941 -0.4559 -0.1710  0.7747
 5279SOL    HW227474   0.866   0.466   2.924 -0.3588 -0.0268 -0.3435
 5280SOL     OW27475   2.267   0.560  14.376 -0.1944  0.1047  0.7073
 5280SOL    HW127476   2.237   0.529  14.461  1.4872 -0.2739  1.1586
 5280SOL    HW227477   2.216   0.640  14.358  0.2964  0.3076  0.2077
 5281SOL     OW27478   3.014   3.712  13.849  0.3228 -0.0838  0.5594
 5281SOL    HW127479   3.076   3.665  13.905  0.2285 -0.0610  0.6835
 5281SOL    HW227480   2.986   3.789  13.899 -0.1620  0.9846 -1.3561
 5282SOL     OW27481   3.750   3.249  13.031 -0.3084  0.3266  0.0959
 5282SOL    HW127482   3.694   3.176  13.006  1.0343 -0.3478 -0.9337
 5282SOL    HW227483   3.773   3.261  12.939 -1.4330  2.1792  0.0529
 5283SOL     OW27484   2.218   0.453   4.336 -0.0878 -0.0387  0.3135
 5283SOL    HW127485   2.236   0.445   4.242 -2.8860  0.7918 -0.2739
 5283SOL    HW227486   2.251   0.542   4.344 -1.4425  0.6377 -1.7301
 5284SOL     OW27487   2.154   2.375   7.479 -0.5850  0.3782  0.8502
 5284SOL    HW127488   2.194   2.417   7.403 -0.1320  2.0046  1.9984
 5284SOL    HW227489   2.228   2.329   7.518 -0.4218 -1.0958 -1.1956
 5285SOL     OW27490   2.294   3.003   7.204 -0.4227  0.0805  0.2034
 5285SOL    HW127491   2.389   3.009   7.210 -0.5662  1.5585  0.9365
 5285SOL    HW227492   2.275   3.014   7.297 -0.6506 -1.1342  0.2933
 5286SOL     OW27493   3.511   0.553   3.027  0.1734 -0.1784 -0.3174
 5286SOL    HW127494   3.576   0.619   3.053 -0.4873  0.7046 -0.9170
 5286SOL    HW227495   3.561   0.490   2.975  0.6949 -0.5076  0.5750
 5287SOL     OW27496   4.213   2.355   7.633  0.7309  0.1653 -0.0051
 5287SOL    HW127497   4.260   2.394   7.706  1.3920 -0.7708  0.0637
 5287SOL    HW227498   4.268   2.380   7.559  1.9116 -0.8633  0.5393
 5288SOL     OW27499   2.053   2.060  11.582  0.6556  0.8940  0.9903
 5288SOL    HW127500   1.982   2.057  11.647 -0.2657 -0.4588 -0.0783
 5288SOL    HW227501   2.003   2.035  11.504  0.7998 -1.9799  1.8132
 5289SOL     OW27502   2.304   0.967  14.152  0.0486 -0.1884 -0.2715
 5289SOL    HW127503   2.261   0.886  14.123  4.4366 -2.4405 -0.5472
 5289SOL    HW227504   2.334   1.006  14.071 -1.2865  1.0600 -0.1788
 5290SOL     OW27505   1.229   4.721   8.714 -0.0589  0.0938 -0.6069
 5290SOL    HW127506   1.298   4.676   8.665  0.3050  2.2757 -2.0650
 5290SOL    HW227507   1.169   0.003   8.641 -1.5485  0.8524  0.7874
 5291SOL     OW27508   2.189   1.469   1.808  0.1282  0.1226 -0.0349
 5291SOL    HW127509   2.171   1.465   1.902  0.4546 -1.3152 -0.0350
 5291SOL    HW227510   2.258   1.534   1.820 -1.2043  1.6063 -0.3993
 5292SOL     OW27511   4.054   4.719   6.609  0.1382  0.5172  0.2186
 5292SOL    HW127512   4.059   0.023   6.521 -0.7338 -1.6958 -0.7866
 5292SOL    HW227513   4.136   0.016   6.647  0.1469  1.3070 -0.4287
 5293SOL     OW27514   3.500   4.258   5.272  0.0092  0.0218  0.0809
 5293SOL    HW127515   3.576   4.275   5.216 -0.9155  2.0277 -0.5842
 5293SOL    HW227516   3.483   4.165   5.258 -1.1488  0.3379 -0.6437
 5294SOL     OW27517   2.736   3.288   3.637  0.7094  0.1327 -0.3273
 5294SOL    HW127518   2.691   3.204   3.636  0.4342  0.2788 -0.0984
 5294SOL    HW227519   2.788   3.285   3.556 -0.4751  2.8170 -1.2009
 5295SOL     OW27520   0.293   2.848   3.111  1.0336 -0.0471 -0.0460
 5295SOL    HW127521   0.371   2.795   3.125  1.0246 -0.2189 -0.6618
 5295SOL    HW227522   0.221   2.786   3.104  0.6196  0.2253  1.7587
 5296SOL     OW27523   3.659   1.900   7.066  0.3377 -0.0855 -0.3682
 5296SOL    HW127524   3.732   1.930   7.012 -0.8457  2.0245 -0.7896
 5296SOL    HW227525   3.663   1.961   7.139 -2.5082 -1.1143  0.6374
 5297SOL     OW27526   3.115   0.742   5.542  0.3178  0.2519 -0.4040
 5297SOL    HW127527   3.084   0.696   5.620 -1.8380 -0.6174 -1.7797
 5297SOL    HW227528   3.155   0.817   5.587  0.7189 -0.8399  1.0455
 5298SOL     OW27529   0.374   1.800  13.967  0.4106 -0.2518  0.0205
 5298SOL    HW127530   0.451   1.745  13.952 -0.2100 -0.8385 -1.0772
 5298SOL    HW227531   0.301   1.738  13.961 -2.4642  2.9225  1.7862
 5299SOL     OW27532   3.669   3.599   4.591  0.1803 -0.0394  0.1383
 5299SOL    HW127533   3.749   3.549   4.577 -0.8016 -1.1574 -1.4531
 5299SOL    HW227534   3.645   3.639   4.507  0.0020  1.1008  0.7335
 5300SOL     OW27535   4.712   4.608   6.848  0.2492 -0.3221  0.4530
 5300SOL    HW127536   0.037   4.569   6.913 -0.4904  0.3314  1.5193
 5300SOL    HW227537   4.703   4.546   6.776  1.3621  0.7153 -0.5747
 5301SOL     OW27538   0.325   3.038   2.883 -0.5056  0.5417  0.0226
 5301SOL    HW127539   0.420   3.044   2.874 -0.5422 -2.5436 -2.3353
 5301SOL    HW227540   0.325   2.987   2.964  0.4196 -1.0182 -0.9734
 5302SOL     OW27541   1.545   0.642   1.180  0.1280  0.1507 -0.1081
 5302SOL    HW127542   1.552   0.731   1.214 -0.9805 -0.0212  0.5608
 5302SOL    HW227543   1.627   0.604   1.212 -0.4397 -1.9081 -1.0844
 5303SOL     OW27544   0.049   0.560   5.907 -0.7929  0.1006  0.5001
 5303SOL    HW127545   0.016   0.481   5.950 -0.6157 -1.6053 -2.4424
 5303SOL    HW227546   4.725   0.556   5.831  0.7855 -0.8956 -0.6631
 5304SOL     OW27547   0.967   0.186   2.914 -0.2134  0.8087 -0.2613
 5304SOL    HW127548   1.053   0.226   2.919  1.3914 -2.5074 -1.1025
 5304SOL    HW227549   0.984   0.118   2.980  0.8225  1.1133 -0.2117
 5305SOL     OW27550   2.118   2.985   2.411  0.1529  0.1892 -0.7293
 5305SOL    HW127551   2.177   2.947   2.345  0.2193 -1.4753  0.2808
 5305SOL    HW227552   2.175   3.032   2.471 -3.4342  3.7407 -0.1100
 5306SOL     OW27553   1.107   1.286   7.880  0.3214 -0.3173 -0.5151
 5306SOL    HW127554   1.075   1.222   7.817  0.9742  1.8673 -3.0491
 5306SOL    HW227555   1.164   1.342   7.827 -2.3211  0.3140 -2.6841
 5307SOL     OW27556   4.174   2.602   2.472 -0.1836 -0.4720 -0.2445
 5307SOL    HW127557   4.167   2.579   2.380 -2.5083  1.8211 -0.6158
 5307SOL    HW227558   4.184   2.697   2.465 -2.4090  0.0356  3.4232
 5308SOL     OW27559   1.565   2.703  13.819  0.6196  0.0852  0.1596
 5308SOL    HW127560   1.523   2.753  13.749 -1.5751  0.5002  1.7808
 5308SOL    HW227561   1.527   2.746  13.895  2.6183 -2.0620  2.3781
 5309SOL     OW27562   1.553   3.511   5.190  0.6108 -0.2718 -0.4986
 5309SOL    HW127563   1.564   3.528   5.097 -0.9957  0.2754 -0.5872
 5309SOL    HW227564   1.569   3.596   5.230  0.5487 -0.8793  0.8084
 5310SOL     OW27565   2.243   4.269   5.906 -0.0170 -0.0814 -0.5902
 5310SOL    HW127566   2.218   4.216   5.831 -0.2233  0.4989 -0.9305
 5310SOL    HW227567   2.163   4.275   5.958  2.0140  0.2434  2.5367
 5311SOL     OW27568   4.307   3.847  10.960 -0.2038  0.1325  0.3422
 5311SOL    HW127569   4.292   3.797  10.881  2.3270 -2.2916  1.4135
 5311SOL    HW227570   4.216   3.872  10.974 -0.4906 -0.9261  0.3284
 5312SOL     OW27571   2.823   3.134   5.633  0.5372  0.0785 -0.5892
 5312SOL    HW127572   2.801   3.227   5.629  0.3423  0.1235  1.4540
 5312SOL    HW227573   2.751   3.082   5.670  1.7981  1.2028  3.4336
 5313SOL     OW27574   4.534   4.485  14.485  0.2817 -0.2392  0.2625
 5313SOL    HW127575   4.534   4.502  14.391 -0.8441 -1.5129  0.0365
 5313SOL    HW227576   4.546   4.574  14.520 -0.7439  0.6989 -1.7730
 5314SOL     OW27577   1.507   1.018  10.255 -0.0293 -0.2247 -0.0852
 5314SOL    HW127578   1.549   1.065  10.182  0.8573  0.2886  0.7523
 5314SOL    HW227579   1.566   1.018  10.331 -1.7631  0.7140  1.2543
 5315SOL     OW27580   0.551   1.735  14.414  0.5457  0.1674  0.2961
 5315SOL    HW127581   0.576   1.794  14.343 -1.9241  1.1418  0.2474
 5315SOL    HW227582   0.606   1.662  14.387 -0.4347 -1.0320  1.5678
 5316SOL     OW27583   3.132   2.635   8.007  0.4759 -0.0724  0.1303
 5316SOL    HW127584   3.172   2.612   7.922  1.1147 -1.2530  0.7555
 5316SOL    HW227585   3.140   2.730   8.008  0.0520 -0.0137 -2.8366
 5317SOL     OW27586   2.219   2.075   5.370  0.4473 -0.2345 -0.1901
 5317SOL    HW127587   2.233   2.169   5.363 -2.3974  0.2897  1.4023
 5317SOL    HW227588   2.231   2.060   5.464 -0.2098  0.6634  0.0300
 5318SOL     OW27589   3.539   2.026   0.885 -0.0599 -0.2714  0.5692
 5318SOL    HW127590   3.458   2.004   0.933 -1.0376  2.0141 -0.0279
 5318SOL    HW227591   3.576   2.093   0.942 -0.2447 -1.1801  1.7565
 5319SOL     OW27592   1.803   1.836   6.085 -0.1754  0.6126  0.4040
 5319SOL    HW127593   1.870   1.873   6.028  1.6515 -1.2723  1.3000
 5319SOL    HW227594   1.722   1.847   6.036 -1.0698 -2.8007  1.1003
 5320SOL     OW27595   2.229   4.250   3.759  0.2493  0.0118  0.1481
 5320SOL    HW127596   2.297   4.189   3.789  1.7893  1.4922 -0.3740
 5320SOL    HW227597   2.232   4.253   3.663 -1.0320 -0.0712  0.1040
 5321SOL     OW27598   0.717   3.365   6.932  0.7770  0.0609  0.8363
 5321SOL    HW127599   0.622   3.359   6.946  0.5373  2.0768 -0.0308
 5321SOL    HW227600   0.746   3.353   7.022  0.1899 -0.7918  0.9168
 5322SOL     OW27601   2.945   2.463   8.172 -0.1383 -0.1463  0.6058
 5322SOL    HW127602   2.988   2.408   8.238  0.8937  0.2711  0.2907
 5322SOL    HW227603   3.001   2.482   8.097 -1.0138 -1.0680 -0.2722
 5323SOL     OW27604   1.143   3.299   7.921 -0.1500 -0.3848  0.0299
 5323SOL    HW127605   1.230   3.282   7.884  0.7659  0.6266  1.7136
 5323SOL    HW227606   1.093   3.323   7.843 -0.2109  1.2810  0.5924
 5324SOL     OW27607   1.709   4.069   7.250 -0.3775 -0.2368 -0.0651
 5324SOL    HW127608   1.777   4.104   7.193  2.3397  0.4130  3.5692
 5324SOL    HW227609   1.765   4.030   7.317  1.3696 -0.0197 -1.3846
 5325SOL     OW27610   3.773   3.334   1.518  0.3379  0.4719  0.0478
 5325SOL    HW127611   3.734   3.385   1.447  1.9309  1.6094 -0.0135
 5325SOL    HW227612   3.730   3.250   1.501  0.3195  0.4831  0.0394
 5326SOL     OW27613   1.437   0.164  10.995  0.5759  0.0839  0.0886
 5326SOL    HW127614   1.394   0.178  10.911 -1.5875 -4.6588  0.4019
 5326SOL    HW227615   1.500   0.236  10.986 -0.5201  1.1492  0.9750
 5327SOL     OW27616   3.062   2.217   5.915  0.1160 -0.2253  0.2269
 5327SOL    HW127617   2.979   2.168   5.914  0.7872 -1.3526  0.2720
 5327SOL    HW227618   3.123   2.169   5.860  0.2881  0.4575 -0.1770
 5328SOL     OW27619   3.205   3.497   5.225 -0.7558 -0.3091 -0.2659
 5328SOL    HW127620   3.133   3.440   5.200 -0.8528 -0.5845  0.6287
 5328SOL    HW227621   3.253   3.427   5.269 -1.7346  1.2588  3.2906
 5329SOL     OW27622   3.048   0.361  14.713  0.3544 -0.2068 -0.1277
 5329SOL    HW127623   3.102   0.407  14.778  0.9866 -0.4946 -0.4504
 5329SOL    HW227624   3.055   0.423  14.640 -0.5582 -1.5349 -1.3409
 5330SOL     OW27625   2.418   1.894   8.579 -0.4027 -0.2364  0.3331
 5330SOL    HW127626   2.372   1.974   8.603 -1.2691 -0.6868  0.1526
 5330SOL    HW227627   2.440   1.918   8.489 -1.7001  0.7334  0.2843
 5331SOL     OW27628   0.174   2.749   1.912 -0.7727 -0.1331 -0.3383
 5331SOL    HW127629   0.090   2.703   1.912 -0.1740 -1.2283  2.7352
 5331SOL    HW227630   0.206   2.719   1.997 -0.2806  0.2044 -0.4012
 5332SOL     OW27631   0.790   2.368   4.967 -0.3096 -0.4472 -0.1778
 5332SOL    HW127632   0.725   2.436   4.982 -0.9568 -0.7568 -1.5721
 5332SOL    HW227633   0.856   2.413   4.914 -0.7334 -2.2961 -2.2536
 5333SOL     OW27634   2.313   3.253   7.814 -0.6602 -0.5746  0.7619
 5333SOL    HW127635   2.306   3.296   7.729  0.4808  1.1334  1.5297
 5333SOL    HW227636   2.404   3.273   7.834 -0.2767 -0.7826 -0.7255
 5334SOL     OW27637   3.942   3.482   3.671  0.2621 -0.4501 -0.3984
 5334SOL    HW127638   3.871   3.539   3.702  0.5220  0.0055 -0.6425
 5334SOL    HW227639   3.981   3.439   3.747 -2.7172  0.5750  1.7511
 5335SOL     OW27640   2.557   3.145   9.891  0.1779 -0.2726  0.4779
 5335SOL    HW127641   2.522   3.080   9.952 -2.2968  1.9298  1.4145
 5335SOL    HW227642   2.571   3.102   9.806  2.8401 -1.8880  1.7339
 5336SOL     OW27643   4.128   4.205   5.425 -0.1632  0.0912  0.0480
 5336SOL    HW127644   4.103   4.181   5.515 -0.0029 -2.4884 -0.5993
 5336SOL    HW227645   4.095   4.130   5.375 -1.2434  0.5172  0.1301
 5337SOL     OW27646   3.493   3.626   1.017 -0.0813 -0.2882 -0.7684
 5337SOL    HW127647   3.458   3.544   1.051  0.1256  0.3094  0.8757
 5337SOL    HW227648   3.587   3.618   1.033 -0.4654 -0.3434  1.5062
 5338SOL     OW27649   0.385   3.679  17.045  0.0452 -0.3490 -0.5945
 5338SOL    HW127650   0.367   3.665  16.952  1.5967 -2.0575 -0.6309
 5338SOL    HW227651   0.378   3.775  17.043 -0.8524 -0.4245 -0.7877
 5339SOL     OW27652   3.188   3.948   8.793 -0.6564 -0.8102 -0.1176
 5339SOL    HW127653   3.144   3.974   8.712 -1.9639 -2.5690  0.0437
 5339SOL    HW227654   3.113   3.924   8.848 -0.1157  0.4799  1.1793
 5340SOL     OW27655   2.653   4.366   0.516  0.2540 -0.2885  0.3527
 5340SOL    HW127656   2.668   4.273   0.501 -3.6000 -0.8045 -0.3165
 5340SOL    HW227657   2.568   4.374   0.473  1.3887  2.9761 -1.2829
 5341SOL     OW27658   2.655   2.380  15.047 -0.1482  0.1417  0.5121
 5341SOL    HW127659   2.643   2.473  15.030  0.8515 -0.1322 -1.7385
 5341SOL    HW227660   2.563   2.355  15.040 -0.3731  1.0936  0.0435
 5342SOL     OW27661   1.906   2.733  12.926  0.3272 -0.1379 -0.0234
 5342SOL    HW127662   1.980   2.749  12.984  0.7444  1.2347 -0.9210
 5342SOL    HW227663   1.919   2.803  12.862 -5.9051  2.0288  1.0633
 5343SOL     OW27664   0.678   0.779   3.874 -0.1168 -0.2220 -0.1052
 5343SOL    HW127665   0.607   0.746   3.930  1.9768 -1.3531  1.8778
 5343SOL    HW227666   0.630   0.855   3.841 -0.4057 -0.3065  0.1134
 5344SOL     OW27667   0.762   0.391  12.072  0.3885 -0.3743  0.1735
 5344SOL    HW127668   0.826   0.354  12.133 -0.0797  1.6591  1.8976
 5344SOL    HW227669   0.686   0.354  12.116 -1.9222 -0.6300 -4.0374
 5345SOL     OW27670   2.458   4.565   1.919 -0.0183  0.0844 -0.0359
 5345SOL    HW127671   2.552   4.583   1.916 -0.5921  2.7846 -1.7996
 5345SOL    HW227672   2.428   4.637   1.864  1.2730 -0.8594 -1.9761
 5346SOL     OW27673   0.663   2.152   4.311 -0.2058  0.3851  0.1214
 5346SOL    HW127674   0.726   2.170   4.241 -0.8045 -3.1134 -1.3064
 5346SOL    HW227675   0.586   2.196   4.275 -1.4700 -1.4859  0.5265
 5347SOL     OW27676   2.659   3.201  17.114  0.1230 -0.2442 -0.3322
 5347SOL    HW127677   2.741   3.240  17.082 -0.6918  1.5323 -0.2780
 5347SOL    HW227678   2.608   3.233  17.040 -2.0670 -1.6198  0.6043
 5348SOL     OW27679   2.075   1.867  13.756 -0.8209 -0.4853 -0.1334
 5348SOL    HW127680   2.115   1.856  13.670 -0.5243 -1.8667  0.1853
 5348SOL    HW227681   2.064   1.962  13.746 -1.0303 -1.0872 -5.4211
 5349SOL     OW27682   0.872   2.005  10.656  0.4559  0.3892 -0.3534
 5349SOL    HW127683   0.935   2.012  10.728 -0.7631 -1.5157  0.9188
 5349SOL    HW227684   0.943   2.008  10.593  1.9389 -2.4192  1.1639
 5350SOL     OW27685   1.882   3.214   0.952 -0.0677 -0.1224  0.0004
 5350SOL    HW127686   1.801   3.241   0.911  0.8859  1.8539 -0.5528
 5350SOL    HW227687   1.877   3.239   1.044 -0.6261  0.2199 -0.1243
 5351SOL     OW27688   4.058   1.279   5.518 -0.3645 -0.2820 -0.7368
 5351SOL    HW127689   3.986   1.277   5.582 -1.0724 -0.1464 -1.5308
 5351SOL    HW227690   4.137   1.294   5.569 -1.6319 -0.6421  1.3360
 5352SOL     OW27691   1.861   0.785   1.525 -0.5673  0.2935 -0.1223
 5352SOL    HW127692   1.881   0.871   1.487  2.0966 -0.1451  0.2681
 5352SOL    HW227693   1.917   0.781   1.602  1.2014  1.7575 -1.3256
 5353SOL     OW27694   0.132   1.555   0.837  0.0403 -0.0375  0.1355
 5353SOL    HW127695   0.143   1.534   0.744  1.4115 -0.5262  0.4108
 5353SOL    HW227696   0.222   1.545   0.868  0.6386  0.2239 -1.5270
 5354SOL     OW27697   4.146   3.536   2.541  0.5892 -0.0694  0.2726
 5354SOL    HW127698   4.097   3.556   2.622  0.1840  1.2521 -0.3002
 5354SOL    HW227699   4.233   3.565   2.567 -0.5085  1.4261  2.3103
 5355SOL     OW27700   2.549   3.736   6.523  0.6621 -0.4636 -0.0641
 5355SOL    HW127701   2.529   3.802   6.457  0.4070 -0.0105  0.4744
 5355SOL    HW227702   2.574   3.784   6.601 -1.1926 -0.3316  0.4369
 5356SOL     OW27703   2.556   0.375   0.018 -0.4805 -0.2563 -0.6681
 5356SOL    HW127704   2.569   0.387   0.112 -0.6625 -2.6354 -0.3308
 5356SOL    HW227705   2.542   0.462  17.717 -0.7872  0.3692  0.9713
 5357SOL     OW27706   4.491   4.557  15.552  0.1379  0.1834  0.8254
 5357SOL    HW127707   4.421   4.568  15.488  1.0886  1.8762  0.0939
 5357SOL    HW227708   4.539   4.638  15.537 -0.7514  0.2925 -1.4299
 5358SOL     OW27709   1.997   4.026   6.565  0.7998 -0.7432  0.3889
 5358SOL    HW127710   1.918   3.972   6.555  1.8954 -2.6266  1.8916
 5358SOL    HW227711   1.971   4.109   6.526  3.4005  0.1696  0.5915
 5359SOL     OW27712   2.099   2.766   7.935 -0.0694 -0.5980  0.1015
 5359SOL    HW127713   2.162   2.750   7.865 -0.4703  0.5564 -0.5329
 5359SOL    HW227714   2.127   2.854   7.961 -0.4231 -0.4271 -0.0860
 5360SOL     OW27715   2.083   3.467   6.024 -0.4042  0.0883  0.3627
 5360SOL    HW127716   2.030   3.424   5.958 -1.0244  1.4907 -0.0589
 5360SOL    HW227717   2.054   3.558   6.015 -0.6488 -0.1071 -0.7751
 5361SOL     OW27718   3.642   3.851   4.410 -0.0197 -0.3927 -0.3396
 5361SOL    HW127719   3.658   3.885   4.322 -3.5814 -0.7668 -1.1399
 5361SOL    HW227720   3.577   3.783   4.395 -1.1418  0.9983 -1.8487
 5362SOL     OW27721   1.208   0.293   7.700  0.2522 -0.2248  0.1116
 5362SOL    HW127722   1.166   0.270   7.783  1.2997 -1.1124  0.3935
 5362SOL    HW227723   1.158   0.245   7.635  3.2921 -1.0878 -1.5884
 5363SOL     OW27724   0.422   4.162   7.371 -0.2845 -0.3041  0.5694
 5363SOL    HW127725   0.404   4.256   7.366 -0.3394 -0.3787 -0.4527
 5363SOL    HW227726   0.440   4.157   7.465  1.3601 -2.1726  0.1738
 5364SOL     OW27727   1.548   3.679   4.140  0.8883  0.0022 -0.4278
 5364SOL    HW127728   1.464   3.701   4.180  1.2458  2.6463 -1.1063
 5364SOL    HW227729   1.606   3.712   4.209  0.7753  0.2803 -0.4651
 5365SOL     OW27730   2.426   3.889   3.098  0.0829  0.4286  0.1300
 5365SOL    HW127731   2.418   3.794   3.101  1.6314  0.2812 -0.4595
 5365SOL    HW227732   2.393   3.920   3.182  0.7365  0.1324  0.4975
 5366SOL     OW27733   0.803   1.040   6.769 -0.3026  0.5138  0.4936
 5366SOL    HW127734   0.770   1.000   6.849  0.2081  0.5169  0.7040
 5366SOL    HW227735   0.897   1.048   6.779  0.0122 -1.3967 -0.9983
 5367SOL     OW27736   1.967   0.245   9.600  0.2452  0.3222 -0.3860
 5367SOL    HW127737   1.963   0.157   9.638 -0.3181  1.4681  2.2063
 5367SOL    HW227738   2.053   0.240   9.558  0.2264  1.4104 -0.5386
 5368SOL     OW27739   1.855   2.769   9.525 -0.8285 -0.9165 -0.2208
 5368SOL    HW127740   1.850   2.678   9.556  1.3998 -1.0005 -0.1299
 5368SOL    HW227741   1.861   2.757   9.431  1.9474 -0.1680 -0.1107
 5369SOL     OW27742   0.403   0.138   5.446 -0.3605  0.0592  0.5671
 5369SOL    HW127743   0.460   0.208   5.477 -1.1059  0.7737  0.3292
 5369SOL    HW227744   0.463   0.097   5.383 -0.9681  0.7691 -0.4805
 5370SOL     OW27745   4.071   3.073   6.986  0.0828  0.0483 -0.0880
 5370SOL    HW127746   4.056   3.079   6.892 -1.0685  1.9544  0.2204
 5370SOL    HW227747   4.036   2.985   6.999 -1.9065  0.5310 -2.0956
 5371SOL     OW27748   1.505   3.122   5.706  0.0197 -0.1538 -0.7681
 5371SOL    HW127749   1.581   3.075   5.739 -0.1725 -0.7085 -1.1174
 5371SOL    HW227750   1.536   3.178   5.635 -1.8272 -1.7752 -2.8362
 5372SOL     OW27751   3.419   0.966   1.651 -0.1758 -0.0290  0.2015
 5372SOL    HW127752   3.364   0.956   1.574 -1.2484  1.8476  0.7183
 5372SOL    HW227753   3.498   1.012   1.622 -0.3342 -0.4508 -0.8966
 5373SOL     OW27754   1.996   1.433   0.022  0.1821 -0.0389  0.1290
 5373SOL    HW127755   1.998   1.491  17.681 -0.5352 -1.2364 -0.7809
 5373SOL    HW227756   1.924   1.373   0.006  0.3819 -0.4201  0.6340
 5374SOL     OW27757   0.378   3.387  12.033  0.0176  0.6972 -0.1754
 5374SOL    HW127758   0.424   3.440  11.968 -0.3656  0.4804 -0.6227
 5374SOL    HW227759   0.449   3.351  12.086  0.2731 -1.2697 -1.8381
 5375SOL     OW27760   3.314   0.583   1.473 -0.2642 -0.2194 -0.3111
 5375SOL    HW127761   3.275   0.568   1.559  0.6588  0.2607  0.1825
 5375SOL    HW227762   3.404   0.553   1.483 -0.8368 -1.7659  0.3971
 5376SOL     OW27763   3.445   3.622   5.966 -0.3575 -0.1639  0.5192
 5376SOL    HW127764   3.527   3.573   5.978  0.0840  0.1540 -1.1842
 5376SOL    HW227765   3.387   3.568   5.912 -0.5368 -0.8265  1.3713
 5377SOL     OW27766   3.435   0.933   8.054 -0.0911  0.2841  0.1049
 5377SOL    HW127767   3.497   1.003   8.034  1.7227 -1.7556 -1.5197
 5377SOL    HW227768   3.388   0.967   8.129 -0.3306  2.7105 -1.1537
 5378SOL     OW27769   1.348   0.863   2.644  0.3049  0.0104  0.3408
 5378SOL    HW127770   1.420   0.829   2.591 -0.7218  1.0709 -1.7347
 5378SOL    HW227771   1.368   0.956   2.659 -0.6335  0.2136  0.3159
 5379SOL     OW27772   3.402   2.061   4.169 -0.4615 -0.4851  0.0946
 5379SOL    HW127773   3.307   2.072   4.166 -0.3414  0.9284  1.7097
 5379SOL    HW227774   3.393   1.966   4.169  1.7417 -0.6910  0.3737
 5380SOL     OW27775   0.015   2.319   9.259 -0.4274 -0.7555 -0.7426
 5380SOL    HW127776   4.690   2.286   9.191 -0.1493 -1.5050 -0.6212
 5380SOL    HW227777   4.715   2.408   9.270 -0.4717 -0.8896  0.1874
 5381SOL     OW27778   3.437   1.334   6.765  0.5135 -0.0527 -0.0605
 5381SOL    HW127779   3.507   1.362   6.706 -0.1329 -1.8706 -1.7010
 5381SOL    HW227780   3.469   1.375   6.845 -0.0776  0.6998 -0.2028
 5382SOL     OW27781   0.905   3.466  15.708 -0.1628 -0.0052 -0.1041
 5382SOL    HW127782   0.874   3.459  15.618 -1.2231  0.4477  0.2319
 5382SOL    HW227783   0.837   3.524  15.744 -2.1002 -1.1652 -1.8965
 5383SOL     OW27784   0.579   3.194   8.025 -0.2082  0.3880 -0.1577
 5383SOL    HW127785   0.565   3.109   7.982 -0.3262  1.3510 -2.0416
 5383SOL    HW227786   0.673   3.201   8.010 -0.1519  1.8186  0.8665
 5384SOL     OW27787   3.889   3.806   0.393  0.0592 -0.0439 -0.3048
 5384SOL    HW127788   3.896   3.800   0.488  1.0685  0.1367 -0.3659
 5384SOL    HW227789   3.825   3.875   0.377  0.2542 -0.1720 -1.6539
 5385SOL     OW27790   1.894   1.900   5.058  0.1508  0.1774 -0.2346
 5385SOL    HW127791   1.986   1.923   5.050  0.0663  1.0473  1.2414
 5385SOL    HW227792   1.892   1.816   5.104 -0.5757 -0.0755 -0.7256
 5386SOL     OW27793   0.583   1.948   9.421  0.2501 -0.2648 -0.2969
 5386SOL    HW127794   0.570   1.883   9.353  4.4476  0.2198 -1.5050
 5386SOL    HW227795   0.490   1.960   9.444  0.2420 -1.3448  0.2264
 5387SOL     OW27796   2.180   3.076   4.520  0.7453  0.6865 -0.3065
 5387SOL    HW127797   2.134   3.114   4.445 -1.5764  1.3442  1.4459
 5387SOL    HW227798   2.217   3.157   4.554  1.5639  0.1932 -0.0331
 5388SOL     OW27799   1.745   1.799   9.495 -0.1089  0.1445  0.7474
 5388SOL    HW127800   1.833   1.766   9.512 -0.7955 -1.3207  1.4649
 5388SOL    HW227801   1.713   1.793   9.585 -1.9279 -1.0780  0.0380
 5389SOL     OW27802   0.685   1.731   0.421  0.6239  0.8535  0.0720
 5389SOL    HW127803   0.656   1.742   0.331 -0.7856 -0.9503  0.3125
 5389SOL    HW227804   0.780   1.741   0.416  0.7521 -0.8900 -0.8235
 5390SOL     OW27805   2.321   2.136   8.643  0.2334 -0.5989 -0.5724
 5390SOL    HW127806   2.265   2.175   8.575  0.9091  2.0773  0.3893
 5390SOL    HW227807   2.386   2.205   8.657 -0.8681 -0.0846  2.0366
 5391SOL     OW27808   0.113   4.557   4.110 -0.0911  0.1337 -0.1380
 5391SOL    HW127809   0.145   4.644   4.134  1.4545 -0.6808  0.6988
 5391SOL    HW227810   0.182   4.505   4.151 -0.7066  0.8394  1.7885
 5392SOL     OW27811   2.734   2.029   0.905  0.5010  0.4279 -0.4179
 5392SOL    HW127812   2.766   2.066   0.987  0.9811  1.7930 -1.2293
 5392SOL    HW227813   2.642   2.014   0.929  0.2918  0.1526 -1.3965
 5393SOL     OW27814   1.496   2.842   4.330 -0.0562 -0.1398  0.3448
 5393SOL    HW127815   1.588   2.863   4.348  0.0491  0.1810 -0.5491
 5393SOL    HW227816   1.488   2.810   4.240  0.6263 -0.4721  0.4004
 5394SOL     OW27817   1.754   2.428   4.537 -0.3704 -0.4360 -0.3211
 5394SOL    HW127818   1.825   2.370   4.562 -1.8071 -1.8757  0.4325
 5394SOL    HW227819   1.678   2.387   4.578 -0.6823  0.0893 -0.3698
 5395SOL     OW27820   0.485   0.547   7.226  0.6453  0.2898  0.3626
 5395SOL    HW127821   0.557   0.546   7.289  0.4903  0.0704  0.5359
 5395SOL    HW227822   0.521   0.609   7.162 -1.8215  2.2934  0.8971
 5396SOL     OW27823   1.813   1.363   6.952  0.2345  0.0049 -0.2973
 5396SOL    HW127824   1.783   1.442   6.907  1.0613  0.9212  0.7708
 5396SOL    HW227825   1.787   1.288   6.898  1.7914  1.1940 -2.7284
 5397SOL     OW27826   3.947   3.368   6.805  0.0404  0.0467  0.3227
 5397SOL    HW127827   4.019   3.357   6.743  0.5916 -0.6454  1.0919
 5397SOL    HW227828   3.877   3.379   6.740 -0.3041  1.9737  1.0373
 5398SOL     OW27829   2.156   0.512   9.819  0.2475 -0.2881 -0.1335
 5398SOL    HW127830   2.133   0.554   9.736 -0.8216  0.7861  0.6978
 5398SOL    HW227831   2.242   0.551   9.834 -0.0900  0.1125  0.7492
 5399SOL     OW27832   4.522   4.245   8.723 -0.6451  0.6379 -0.1606
 5399SOL    HW127833   4.474   4.239   8.806  1.1692 -0.2569  0.8052
 5399SOL    HW227834   4.614   4.241   8.748 -0.2023 -0.3543 -1.9550
 5400SOL     OW27835   2.793   1.064   7.402 -0.0271 -0.1485  0.0947
 5400SOL    HW127836   2.845   0.986   7.385 -1.6051 -1.3783  0.9688
 5400SOL    HW227837   2.782   1.093   7.311 -0.0689  0.2675  0.2336
 5401SOL     OW27838   3.994   2.133   2.595  0.4581  0.4152 -0.4446
 5401SOL    HW127839   3.974   2.154   2.503 -1.0516  1.5459  0.1458
 5401SOL    HW227840   4.084   2.101   2.588 -0.0313 -0.4810 -2.8151
 5402SOL     OW27841   3.998   0.796   4.800 -0.1314 -0.0586 -0.2428
 5402SOL    HW127842   3.989   0.728   4.866 -1.5348  1.4941  1.1528
 5402SOL    HW227843   3.973   0.876   4.846  0.0009  0.4456 -1.0435
 5403SOL     OW27844   0.065   1.457   2.684  0.2747  0.1438  0.6676
 5403SOL    HW127845   4.716   1.409   2.694  1.3062 -2.1178 -1.8181
 5403SOL    HW227846   0.109   1.393   2.629  0.6528  0.2630  0.8337
 5404SOL     OW27847   4.365   4.006   2.731 -0.5450 -0.0191  0.3771
 5404SOL    HW127848   4.392   4.095   2.707  2.2609 -0.7725  0.7246
 5404SOL    HW227849   4.446   3.968   2.765  0.3658  1.5434 -0.0389
 5405SOL     OW27850   2.051   2.193   6.062  0.2695  0.4923 -0.1986
 5405SOL    HW127851   2.112   2.214   6.133  0.9493  0.9924 -0.9253
 5405SOL    HW227852   2.034   2.279   6.022  1.3058  0.7830 -0.0207
 5406SOL     OW27853   1.627   1.229   8.233 -1.0426 -0.2190  0.0549
 5406SOL    HW127854   1.550   1.187   8.194  0.0246 -0.2210 -2.0538
 5406SOL    HW227855   1.597   1.320   8.232 -1.3273 -0.3461 -2.6999
 5407SOL     OW27856   3.837   2.956   7.752  0.0544 -0.2830 -0.2959
 5407SOL    HW127857   3.807   3.042   7.721  1.0247 -0.0057 -0.4845
 5407SOL    HW227858   3.807   2.947   7.842  1.9646  1.5430  0.5330
 5408SOL     OW27859   4.126   3.836   6.112 -0.3552  0.4750  0.4340
 5408SOL    HW127860   4.089   3.786   6.039  0.3359  1.0829 -0.3390
 5408SOL    HW227861   4.214   3.799   6.109  0.9589  3.2181  5.0508
 5409SOL     OW27862   3.643   0.392  15.360  0.1556  0.1948 -0.3722
 5409SOL    HW127863   3.596   0.448  15.298 -1.1614  1.2600  1.5910
 5409SOL    HW227864   3.580   0.359  15.424 -3.0533  2.3455 -2.3699
 5410SOL     OW27865   0.455   3.292   3.206 -0.4931 -0.4167  0.1829
 5410SOL    HW127866   0.546   3.263   3.211  0.2835  2.0589  0.8211
 5410SOL    HW227867   0.437   3.263   3.295  1.7416  0.8873  1.0860
 5411SOL     OW27868   2.954   4.657   5.956 -0.1477  0.2254 -0.0683
 5411SOL    HW127869   2.910   4.575   5.977 -0.1976 -0.1963 -1.7882
 5411SOL    HW227870   2.887   4.725   5.961  0.6444  0.9236  0.9104
 5412SOL     OW27871   1.301   2.531   2.551  0.1347 -0.0809 -0.2352
 5412SOL    HW127872   1.391   2.546   2.580  0.6580 -2.3541 -0.6787
 5412SOL    HW227873   1.303   2.436   2.550 -2.9668 -0.1560  0.5850
 5413SOL     OW27874   0.360   4.562   7.693  0.3379 -0.5885 -0.3304
 5413SOL    HW127875   0.445   4.523   7.713  0.0208 -0.6651  0.8517
 5413SOL    HW227876   0.381   4.647   7.732 -0.0493  0.5949 -2.7039
 5414SOL     OW27877   0.790   0.167   3.894 -0.2315  0.1258  0.3444
 5414SOL    HW127878   0.884   0.174   3.882 -0.1915 -1.9107 -0.5294
 5414SOL    HW227879   0.767   0.260   3.901 -0.4930 -0.0503  1.8327
 5415SOL     OW27880   0.499   1.160   1.927  0.1463  0.2274 -0.1108
 5415SOL    HW127881   0.543   1.184   2.009 -1.1188 -0.5616  0.7825
 5415SOL    HW227882   0.423   1.111   1.958 -1.0212  2.5138  0.6483
 5416SOL     OW27883   2.593   4.232   7.505  0.1221 -0.2406 -0.1760
 5416SOL    HW127884   2.617   4.166   7.439 -0.7770 -0.6760 -0.0602
 5416SOL    HW227885   2.508   4.254   7.469  0.3444  0.7563 -0.1008
 5417SOL     OW27886   3.706   2.643   4.980  0.0363 -0.4531  0.0830
 5417SOL    HW127887   3.801   2.633   4.982 -0.0460 -1.1342  0.6765
 5417SOL    HW227888   3.696   2.728   5.021  1.1665 -0.7523  1.0089
 5418SOL     OW27889   2.538   0.500   2.064 -0.3846 -0.7312 -0.5725
 5418SOL    HW127890   2.532   0.525   1.972  0.9639 -2.0342 -1.0215
 5418SOL    HW227891   2.461   0.549   2.092  0.9639  0.6718  0.6490
 5419SOL     OW27892   3.805   3.317  12.766 -0.4679  0.1498  0.0232
 5419SOL    HW127893   3.787   3.320  12.672 -0.8084  1.6978  0.1348
 5419SOL    HW227894   3.900   3.329  12.768 -0.6350  2.0624 -2.5555
 5420SOL     OW27895   2.731   4.585   1.942 -0.1784  0.2495 -0.1381
 5420SOL    HW127896   2.804   4.523   1.934  0.5492  1.2235 -0.9948
 5420SOL    HW227897   2.774   4.666   1.970 -1.0772  0.0509  1.8088
 5421SOL     OW27898   4.454   4.673   8.775 -0.3171  0.1174 -0.2463
 5421SOL    HW127899   4.521   4.656   8.709 -0.9533  1.5268 -1.2304
 5421SOL    HW227900   4.510   4.665   8.853  0.0652 -0.4363 -0.5748
 5422SOL     OW27901   3.233   1.467   1.596 -0.1005 -0.5263  0.5691
 5422SOL    HW127902   3.242   1.558   1.568 -1.4754 -1.1191 -1.7399
 5422SOL    HW227903   3.144   1.460   1.630 -0.3096 -1.1918 -0.1142
 5423SOL     OW27904   2.683   3.833   5.064  0.6311 -0.5035 -0.0977
 5423SOL    HW127905   2.711   3.917   5.101 -1.5200  0.6807 -1.1589
 5423SOL    HW227906   2.716   3.837   4.975  0.6253  1.8531  0.0204
 5424SOL     OW27907   4.207   0.217  16.207 -0.4091 -0.2507  0.0580
 5424SOL    HW127908   4.172   0.131  16.186  0.2764 -0.6467  0.5538
 5424SOL    HW227909   4.285   0.186  16.253 -2.2965 -1.4423  2.4230
 5425SOL     OW27910   1.495   2.014   3.390  0.1288  0.1000  0.4799
 5425SOL    HW127911   1.400   2.006   3.395  0.4651 -2.7083  2.0869
 5425SOL    HW227912   1.513   2.007   3.296  2.4006  1.4457  0.8012
 5426SOL     OW27913   3.176   0.546   1.236  0.4084  0.4914  0.2939
 5426SOL    HW127914   3.237   0.545   1.309 -0.3939  1.4002  0.9635
 5426SOL    HW227915   3.228   0.508   1.165 -1.1139  0.2001 -0.6743
 5427SOL     OW27916   2.112   3.961   1.792  0.1273 -0.2270 -0.0015
 5427SOL    HW127917   2.068   4.044   1.812  0.2531 -0.3337  0.7294
 5427SOL    HW227918   2.201   3.993   1.777  0.1011 -1.1419 -2.1049
 5428SOL     OW27919   2.710   0.239  10.236 -0.2516 -0.5733  0.2181
 5428SOL    HW127920   2.793   0.277  10.206 -0.8538  0.8022  0.3096
 5428SOL    HW227921   2.742   0.178  10.302 -0.0928 -1.1887 -0.4262
 5429SOL     OW27922   1.069   3.632   8.248  0.2982 -0.0255 -0.0507
 5429SOL    HW127923   1.136   3.637   8.316  0.9764  0.9130 -0.7772
 5429SOL    HW227924   1.006   3.584   8.302 -0.8090  0.0482 -1.2858
 5430SOL     OW27925   3.185   3.728   4.449 -0.3429  0.1015 -0.2041
 5430SOL    HW127926   3.150   3.781   4.520  2.1151  1.6706 -0.1624
 5430SOL    HW227927   3.104   3.680   4.436 -0.7921  0.6438  0.6046
 5431SOL     OW27928   3.177   4.220  10.376 -0.5023  0.3268  0.1587
 5431SOL    HW127929   3.134   4.143  10.414  1.5096 -0.2348  1.2675
 5431SOL    HW227930   3.225   4.253  10.452 -3.5313 -0.7308  2.5570
 5432SOL     OW27931   4.122   0.437   1.534  0.7283 -0.2363 -0.2461
 5432SOL    HW127932   4.081   0.389   1.607  1.7493  0.0591  0.5265
 5432SOL    HW227933   4.148   0.362   1.481 -0.2237 -1.6614  1.3160
 5433SOL     OW27934   1.485   1.705  12.044  0.4191  0.1379 -0.4022
 5433SOL    HW127935   1.459   1.797  12.043  0.6150  0.1769 -1.4693
 5433SOL    HW227936   1.417   1.660  11.993 -1.1791  1.5595  0.4677
 5434SOL     OW27937   2.364   0.210   6.359 -0.1002  0.0237  0.5793
 5434SOL    HW127938   2.454   0.241   6.345  0.1909 -0.8114  0.5623
 5434SOL    HW227939   2.320   0.294   6.349 -0.3401 -0.3599 -1.6501
 5435SOL     OW27940   0.983   2.944  12.938 -0.1334  0.2274 -0.9224
 5435SOL    HW127941   0.946   2.859  12.915 -1.8673  0.7644 -0.1491
 5435SOL    HW227942   1.076   2.921  12.938  0.0298  0.9026 -1.8978
 5436SOL     OW27943   1.215   2.674   3.496 -0.1593 -0.4050 -0.5365
 5436SOL    HW127944   1.185   2.605   3.437  0.5767 -0.7750 -0.4764
 5436SOL    HW227945   1.265   2.718   3.427 -0.2811 -0.5382 -0.7119
 5437SOL     OW27946   4.578   2.290   6.606 -0.6039 -0.1950 -0.1319
 5437SOL    HW127947   4.500   2.258   6.652 -1.2105  1.3973 -0.0462
 5437SOL    HW227948   4.650   2.272   6.666  0.0798  1.2167 -0.5490
 5438SOL     OW27949   1.088   0.561   0.642  0.2655  0.3140  0.5321
 5438SOL    HW127950   1.106   0.485   0.697 -2.6082 -1.6995 -1.2819
 5438SOL    HW227951   1.157   0.622   0.667  1.0424 -0.0497 -0.7122
 5439SOL     OW27952   2.936   4.520   9.433  0.5133  0.0024 -0.3708
 5439SOL    HW127953   2.898   4.434   9.453  1.5029 -0.0021  1.4819
 5439SOL    HW227954   2.884   4.534   9.354  0.3775 -1.1625 -0.4859
 5440SOL     OW27955   0.153   3.616   2.340 -0.4614  0.0977  0.0288
 5440SOL    HW127956   0.091   3.689   2.337 -0.1783  0.2869 -1.1789
 5440SOL    HW227957   0.185   3.607   2.430 -0.6864 -0.0076  0.0966
 5441SOL     OW27958   3.850   2.339   7.719 -0.1550 -0.8837  0.3192
 5441SOL    HW127959   3.907   2.369   7.649 -0.4590 -1.7697 -0.3030
 5441SOL    HW227960   3.833   2.252   7.683 -2.1268  0.0266 -0.9370
 5442SOL     OW27961   2.414   0.663   9.833 -0.2281  0.8317 -0.3560
 5442SOL    HW127962   2.478   0.618   9.778  0.5513  0.9747  0.4350
 5442SOL    HW227963   2.443   0.754   9.827 -0.9603  1.0578 -0.3903
 5443SOL     OW27964   2.581   4.520  16.345  0.0230 -0.2045  0.8078
 5443SOL    HW127965   2.525   4.596  16.357  0.4322  0.4914 -1.7336
 5443SOL    HW227966   2.560   4.493  16.256  2.3415 -1.5604  0.6575
 5444SOL     OW27967   3.942   1.756   5.573 -0.5195  0.3068  0.1646
 5444SOL    HW127968   3.953   1.842   5.534 -3.7694  1.0905  1.0072
 5444SOL    HW227969   4.031   1.721   5.570 -1.4408 -2.1621  1.8085
 5445SOL     OW27970   4.610   3.107   8.440 -0.1509 -0.5325  0.0280
 5445SOL    HW127971   4.536   3.168   8.445  1.4520  1.2274  2.3446
 5445SOL    HW227972   4.580   3.055   8.365 -0.8226  0.7726 -0.6119
 5446SOL     OW27973   4.329   1.498  11.702 -0.0009  0.5245  0.4799
 5446SOL    HW127974   4.334   1.567  11.767 -0.3398  1.1040 -0.0992
 5446SOL    HW227975   4.352   1.549  11.624  1.0311 -1.1257 -0.3030
 5447SOL     OW27976   0.865   0.146  15.655 -0.2571 -0.3623  0.4097
 5447SOL    HW127977   0.775   0.153  15.687  0.2982  1.8797  1.4767
 5447SOL    HW227978   0.850   0.057  15.625 -0.3820 -0.6034  1.1909
 5448SOL     OW27979   3.465   3.353   9.294  0.0827 -0.2075 -0.1818
 5448SOL    HW127980   3.386   3.407   9.290  0.6829  0.6345 -0.4625
 5448SOL    HW227981   3.459   3.325   9.385 -2.1435  1.0065  0.0634
 5449SOL     OW27982   1.598   4.436   5.645 -0.0033 -0.1895  0.4420
 5449SOL    HW127983   1.531   4.412   5.710 -2.1137  1.2089 -1.2272
 5449SOL    HW227984   1.545   4.447   5.566  1.1560  1.3841 -0.1089
 5450SOL     OW27985   1.147   1.323  16.803  0.0952  0.3114  0.6495
 5450SOL    HW127986   1.061   1.296  16.834  0.9025 -0.8963  1.8589
 5450SOL    HW227987   1.205   1.279  16.865  0.8192 -0.3231 -0.4696
 5451SOL     OW27988   1.511   0.820   0.522 -0.1333  0.0753  0.0465
 5451SOL    HW127989   1.462   0.762   0.581 -1.6504  1.0739 -0.1993
 5451SOL    HW227990   1.501   0.895   0.582  0.5987  0.2215 -0.0169
 5452SOL     OW27991   3.986   1.783   9.643  0.0450  0.4330  0.8861
 5452SOL    HW127992   3.915   1.757   9.702  1.0734 -1.8137  1.1229
 5452SOL    HW227993   4.031   1.844   9.702  1.3712 -0.7939  1.1410
 5453SOL     OW27994   2.228   0.042   5.009  0.3258 -0.2835  0.1983
 5453SOL    HW127995   2.142   0.005   4.993 -0.2396  1.5677 -1.0450
 5453SOL    HW227996   2.188   0.126   5.029  1.3713 -0.1006  1.5713
 5454SOL     OW27997   0.098   4.355   5.551  0.3502 -0.5128  0.2689
 5454SOL    HW127998   0.110   4.361   5.457 -0.9574 -0.1529  0.1382
 5454SOL    HW227999   0.031   4.422   5.560 -0.5454 -1.2810 -0.8149
 5455SOL     OW28000   1.688   3.792   0.444  0.2737  0.0946 -0.2604
 5455SOL    HW128001   1.693   3.747   0.528  0.7556 -0.4739 -0.5916
 5455SOL    HW228002   1.659   3.721   0.387  3.2347  0.2379 -1.9241
 5456SOL     OW28003   3.655   1.647   3.948 -0.1299  1.1140  1.0354
 5456SOL    HW128004   3.704   1.634   3.867  0.4391  2.6006  1.1369
 5456SOL    HW228005   3.562   1.629   3.934  0.0700  0.7698  0.1758
 5457SOL     OW28006   0.952   2.519   4.709 -0.5028  0.6112  0.0787
 5457SOL    HW128007   0.874   2.534   4.656 -1.8559  0.7306  2.1144
 5457SOL    HW228008   1.001   2.597   4.683  0.0294  0.8526  1.8191
 5458SOL     OW28009   3.565   3.606   3.201  0.4461 -0.0105  0.2673
 5458SOL    HW128010   3.513   3.527   3.186 -0.6803  0.7362  0.2818
 5458SOL    HW228011   3.536   3.637   3.286  0.8715  3.3651 -0.8130
 5459SOL     OW28012   2.126   2.420   3.743 -0.2966  0.2985 -0.0612
 5459SOL    HW128013   2.172   2.424   3.827 -0.6190 -0.6968  0.1673
 5459SOL    HW228014   2.148   2.505   3.705 -0.7340  0.7759  0.7656
 5460SOL     OW28015   0.374   3.447   9.382 -0.3845  0.6247  0.8993
 5460SOL    HW128016   0.403   3.528   9.423  1.5109 -0.5836  1.9234
 5460SOL    HW228017   0.325   3.403   9.452 -0.3177 -0.8706  0.0131
 5461SOL     OW28018   0.923   3.575  16.320  0.1825  0.5960 -0.1213
 5461SOL    HW128019   0.846   3.530  16.285  0.1618  0.9063 -0.4734
 5461SOL    HW228020   0.984   3.508  16.289  1.3347  1.3601  0.5143
 5462SOL     OW28021   1.368   1.635   5.984  0.1820 -0.0700 -0.5831
 5462SOL    HW128022   1.307   1.565   6.004  1.9534 -1.6525 -0.6979
 5462SOL    HW228023   1.303   1.700   5.957  0.2971  0.5789  0.6955
 5463SOL     OW28024   0.767   3.904   2.524  0.5049  0.2702 -0.3528
 5463SOL    HW128025   0.861   3.919   2.522  0.7804 -1.4231  0.0705
 5463SOL    HW228026   0.734   3.951   2.447  1.1947  3.2316  1.1204
 5464SOL     OW28027   0.494   0.863   2.241  0.5296 -0.4426 -0.0575
 5464SOL    HW128028   0.516   0.841   2.331 -2.5102  0.3898  0.8760
 5464SOL    HW228029   0.505   0.957   2.228 -1.2220 -0.0548  1.1991
 5465SOL     OW28030   3.909   2.375   2.895  0.7437 -0.1532 -0.0759
 5465SOL    HW128031   3.993   2.330   2.910 -0.1043 -1.7260  0.0336
 5465SOL    HW228032   3.940   2.430   2.824 -0.0230 -0.3015 -0.5189
 5466SOL     OW28033   1.905   0.798  11.415  0.0618  0.1017  0.0332
 5466SOL    HW128034   1.975   0.829  11.473  0.1811 -0.7243  0.3353
 5466SOL    HW228035   1.918   0.703  11.413 -0.1022  0.0898 -0.3920
 5467SOL     OW28036   0.056   2.623   2.856  0.3612 -0.3481  0.1392
 5467SOL    HW128037   0.047   2.531   2.880 -1.9153 -0.3079 -0.5458
 5467SOL    HW228038   0.083   2.650   2.944 -0.3681  0.1460  0.2126
 5468SOL     OW28039   0.621   3.465  16.348 -0.1974 -0.2293 -0.3362
 5468SOL    HW128040   0.624   3.553  16.310  0.4053 -0.1773 -0.1660
 5468SOL    HW228041   0.572   3.422  16.278 -0.0154 -2.4206  0.9044
 5469SOL     OW28042   0.825   0.983   7.831  0.3826 -0.3035  0.4940
 5469SOL    HW128043   0.905   1.006   7.785 -0.5814  3.1407  0.5066
 5469SOL    HW228044   0.852   0.897   7.864 -0.4142 -1.8169 -2.7640
 5470SOL     OW28045   2.611   2.654   6.777  0.1738 -0.0100 -0.3722
 5470SOL    HW128046   2.651   2.737   6.751  2.5227 -0.5077  1.6736
 5470SOL    HW228047   2.686   2.611   6.819  0.5418  1.7260  0.7410
 5471SOL     OW28048   1.900   2.666   3.841  0.2020 -0.3325 -0.3105
 5471SOL    HW128049   1.936   2.647   3.755 -0.4279 -0.0701 -0.6285
 5471SOL    HW228050   1.880   2.756   3.814 -0.8491 -0.4104  0.2050
 5472SOL     OW28051   1.395   3.074   3.680 -0.2684  0.4820 -0.1176
 5472SOL    HW128052   1.300   3.066   3.688 -0.2354  1.4852  1.3438
 5472SOL    HW228053   1.419   3.055   3.771  2.5919  0.0931 -0.9809
 5473SOL     OW28054   2.528   0.427  13.454 -0.1667  0.6552 -0.2541
 5473SOL    HW128055   2.558   0.368  13.523  1.2966  0.1339 -1.3144
 5473SOL    HW228056   2.433   0.423  13.460 -0.3308  1.8716 -2.1081
 5474SOL     OW28057   0.794   4.147   6.317 -0.3367  0.1484 -0.1413
 5474SOL    HW128058   0.717   4.195   6.349  0.9336  0.8101  1.8935
 5474SOL    HW228059   0.862   4.150   6.383 -0.2799 -1.6562 -0.1007
 5475SOL     OW28060   0.170   1.927  11.408  0.4536 -0.0895 -0.7711
 5475SOL    HW128061   0.244   1.876  11.442  0.0628 -0.9685 -1.2450
 5475SOL    HW228062   0.177   2.004  11.465 -1.6901 -0.6813  0.2945
 5476SOL     OW28063   0.967   3.596   2.835 -0.2237 -0.3103  0.1825
 5476SOL    HW128064   0.968   3.691   2.851  3.3817 -0.4021  0.4198
 5476SOL    HW228065   0.889   3.571   2.884  0.2763 -0.3087  0.9868
 5477SOL     OW28066   4.331   2.608  13.540  0.2226  0.1015  0.1623
 5477SOL    HW128067   4.389   2.531  13.535 -2.0256 -1.2451 -4.4877
 5477SOL    HW228068   4.306   2.604  13.448 -0.4424  0.6536  0.3256
 5478SOL     OW28069   3.266   3.897   5.361 -0.6166 -0.3735 -0.6077
 5478SOL    HW128070   3.181   3.882   5.321 -0.7622 -0.1510 -0.3738
 5478SOL    HW228071   3.239   3.960   5.427  0.7661  1.1701 -1.4916
 5479SOL     OW28072   2.039   2.894   4.680 -0.0133  0.0221  0.3657
 5479SOL    HW128073   1.988   2.974   4.694 -3.0542 -1.8989  0.3041
 5479SOL    HW228074   2.101   2.925   4.614 -0.5164 -1.1118 -0.6194
 5480SOL     OW28075   1.231   1.611   6.869  0.0873  0.1912 -0.1284
 5480SOL    HW128076   1.204   1.588   6.780  0.5316 -0.4023 -0.1018
 5480SOL    HW228077   1.182   1.694   6.876  3.4585  2.3649 -2.3940
 5481SOL     OW28078   2.776   3.674   4.795 -0.3036  0.1010  0.1281
 5481SOL    HW128079   2.797   3.593   4.747 -0.7862  0.1723 -0.2043
 5481SOL    HW228080   2.865   3.692   4.824  0.2727  0.9642 -2.1687
 5482SOL     OW28081   3.908   1.988   2.040 -0.1090  0.4680 -0.5934
 5482SOL    HW128082   3.916   1.898   2.010  4.4732  2.0230 -3.9651
 5482SOL    HW228083   3.838   2.031   1.991  0.2629  1.1472 -0.5306
 5483SOL     OW28084   3.916   2.930   8.389  0.0545  0.2082 -0.4134
 5483SOL    HW128085   3.863   2.894   8.318 -0.4886 -1.5838  0.9066
 5483SOL    HW228086   3.863   2.903   8.464  0.0919 -0.5151 -0.6516
 5484SOL     OW28087   2.128   3.241   3.725  0.4260 -0.0368  0.2800
 5484SOL    HW128088   2.064   3.246   3.796  1.3580  0.8771  1.0515
 5484SOL    HW228089   2.141   3.334   3.710 -0.2645 -0.0023 -0.0992
 5485SOL     OW28090   1.046   4.363   2.790  0.1632  0.0036 -0.0173
 5485SOL    HW128091   0.984   4.367   2.717  0.7743  0.7880 -0.4945
 5485SOL    HW228092   1.072   4.453   2.810 -0.0983 -0.2169  1.2706
 5486SOL     OW28093   1.054   4.201   7.651 -0.5002  0.1673  0.1237
 5486SOL    HW128094   1.135   4.240   7.619  1.5302 -0.5307  4.3795
 5486SOL    HW228095   1.081   4.110   7.648 -1.5701 -0.1478 -0.1874
 5487SOL     OW28096   4.355   0.082   0.412  0.3384 -0.2109 -0.0029
 5487SOL    HW128097   4.425   0.026   0.448 -0.6794 -0.2571  1.8878
 5487SOL    HW228098   4.350   0.136   0.491 -1.6043 -0.0683 -0.2229
 5488SOL     OW28099   1.461   3.065   9.160  0.4752  0.6269  0.0699
 5488SOL    HW128100   1.515   3.019   9.223  0.5891  0.2605 -0.2933
 5488SOL    HW228101   1.444   2.997   9.095  0.2577 -0.7091  1.5363
 5489SOL     OW28102   3.216   0.591   7.640 -0.7754 -0.5147  0.9613
 5489SOL    HW128103   3.281   0.555   7.579 -1.1601  0.0962  0.1980
 5489SOL    HW228104   3.267   0.635   7.708  0.4148  1.2787 -1.0830
 5490SOL     OW28105   1.562   1.037   0.686  0.3791 -0.0016 -0.3670
 5490SOL    HW128106   1.502   1.109   0.668 -0.6807 -0.5668  0.9151
 5490SOL    HW228107   1.637   1.091   0.709 -0.2098 -0.1212  1.7999
 5491SOL     OW28108   3.123   4.545   6.321  0.4443 -0.1352  0.1214
 5491SOL    HW128109   3.116   4.489   6.398 -2.8415 -0.2739 -0.2432
 5491SOL    HW228110   3.206   4.525   6.279 -1.1057  1.2294 -3.5869
 5492SOL     OW28111   0.787   4.416   2.496  0.3593  0.6771 -0.1976
 5492SOL    HW128112   0.876   4.452   2.493 -0.1478  1.9078 -0.7140
 5492SOL    HW228113   0.815   4.325   2.499  0.0643  0.6266  1.0767
 5493SOL     OW28114   1.169   2.115   1.984 -0.2094  0.0689  0.0706
 5493SOL    HW128115   1.090   2.123   1.932 -1.6930  0.9205  2.4504
 5493SOL    HW228116   1.229   2.165   1.929  0.8125  0.0226  1.1381
 5494SOL     OW28117   1.405   2.459  14.477  0.7447  0.1159 -0.2176
 5494SOL    HW128118   1.379   2.530  14.535  0.5633  0.4779 -0.7417
 5494SOL    HW228119   1.323   2.429  14.437  0.6474  0.2338 -0.1043
 5495SOL     OW28120   3.875   3.961   8.812  0.1920  0.3841 -0.1859
 5495SOL    HW128121   3.857   4.022   8.884  1.0144 -1.0586  1.2400
 5495SOL    HW228122   3.969   3.973   8.823  0.3955 -1.2694 -0.1836
 5496SOL     OW28123   0.543   2.962   7.829 -0.2096 -0.7873  0.0063
 5496SOL    HW128124   0.466   2.906   7.831 -2.2415  1.9384 -2.0557
 5496SOL    HW228125   0.601   2.904   7.878 -1.4543 -1.6446  0.4528
 5497SOL     OW28126   2.794   1.139   1.493 -0.3087 -0.2636  0.2710
 5497SOL    HW128127   2.786   1.205   1.424  0.4065  1.5688  1.9339
 5497SOL    HW228128   2.880   1.165   1.528 -0.0028 -0.5152 -0.2883
 5498SOL     OW28129   3.740   0.627   6.654 -0.3288  0.8495  0.2737
 5498SOL    HW128130   3.668   0.678   6.617 -0.8166  1.3831  1.9471
 5498SOL    HW228131   3.761   0.578   6.574  0.1184 -1.1453  1.6196
 5499SOL     OW28132   1.556   4.647   3.496  0.0481 -0.0573 -0.1660
 5499SOL    HW128133   1.582   4.640   3.588  1.5267 -0.5752 -0.6225
 5499SOL    HW228134   1.469   4.609   3.504  0.6394 -1.0444  1.7324
 5500SOL     OW28135   2.843   1.986   5.935  0.2911 -0.1682 -0.3613
 5500SOL    HW128136   2.759   2.009   5.895 -0.2926 -0.1466  0.8568
 5500SOL    HW228137   2.819   1.967   6.026  2.6118  1.6905  0.6746
 5501SOL     OW28138   1.704   2.116   2.104 -0.6869 -0.1191 -0.0726
 5501SOL    HW128139   1.755   2.183   2.149  0.4209 -0.5904 -0.6327
 5501SOL    HW228140   1.659   2.076   2.179  0.5639 -1.8234 -0.2226
 5502SOL     OW28141   0.822   0.067   4.820 -0.3757 -0.6521 -0.6410
 5502SOL    HW128142   0.867   0.008   4.760  3.0996  1.3130  0.0554
 5502SOL    HW228143   0.889   0.135   4.826 -1.0700 -0.0200  0.0109
 5503SOL     OW28144   4.433   4.058   0.578 -0.4046  0.7201 -0.5677
 5503SOL    HW128145   4.479   4.142   0.577  0.3892  0.2871 -0.3182
 5503SOL    HW228146   4.368   4.072   0.647 -1.4588 -2.1252 -0.9509
 5504SOL     OW28147   0.262   3.993   9.866  0.5650 -0.1251  0.0585
 5504SOL    HW128148   0.295   4.004   9.955  0.4442 -1.6804  0.3027
 5504SOL    HW228149   0.246   4.082   9.838 -0.8894 -0.4051  0.0242
 5505SOL     OW28150   2.102   0.933  17.335  0.9326 -0.6899 -0.2194
 5505SOL    HW128151   2.053   0.974  17.407  0.9001  1.0635 -1.2581
 5505SOL    HW228152   2.090   0.993  17.262 -1.3523 -1.5693 -0.5850
 5506SOL     OW28153   2.850   4.731   3.298 -0.1112 -0.0761 -0.5009
 5506SOL    HW128154   2.797   4.658   3.329 -0.7204  0.6961  0.2900
 5506SOL    HW228155   2.871   4.698   3.211  1.3488 -0.3625 -0.0424
 5507SOL     OW28156   4.285   0.700  11.630 -0.0733 -0.0425 -0.1818
 5507SOL    HW128157   4.341   0.645  11.685 -1.6440 -0.2573  1.1633
 5507SOL    HW228158   4.235   0.639  11.575 -2.3581  0.4556  1.3630
 5508SOL     OW28159   3.267   0.505  15.179  0.5368 -0.5500 -0.1611
 5508SOL    HW128160   3.334   0.529  15.116  0.4174 -0.4954 -0.2662
 5508SOL    HW228161   3.298   0.535  15.265 -1.1371  1.2689 -0.1917
 5509SOL     OW28162   1.935   3.876  13.997  0.0169  0.9525  0.4038
 5509SOL    HW128163   2.021   3.852  14.033 -0.6740 -0.7348  0.9212
 5509SOL    HW228164   1.938   3.831  13.912  3.7296  0.8118  0.5879
 5510SOL     OW28165   0.582   0.563   4.944  0.2016 -0.0105  0.0248
 5510SOL    HW128166   0.660   0.592   4.992  1.9031 -1.5521 -1.8124
 5510SOL    HW228167   0.586   0.468   4.935  0.7792  0.0542 -0.3458
 5511SOL     OW28168   0.513   4.116   3.441 -0.4349 -0.5411  0.0163
 5511SOL    HW128169   0.472   4.031   3.458  2.4308 -2.0652 -0.6510
 5511SOL    HW228170   0.494   4.135   3.349  0.6604  1.5709  0.2219
 5512SOL     OW28171   2.609   2.218   8.295  0.3781  0.1877  0.2405
 5512SOL    HW128172   2.603   2.310   8.272 -0.6365 -0.3321 -1.6623
 5512SOL    HW228173   2.520   2.193   8.318  0.7064 -0.4487  0.8121
 5513SOL     OW28174   0.427   2.514  12.479  0.4686  0.2803  0.0937
 5513SOL    HW128175   0.514   2.503  12.518  1.2598 -1.0116 -1.9620
 5513SOL    HW228176   0.397   2.584  12.537 -0.3863 -0.3185  0.3622
 5514SOL     OW28177   3.705   4.527   5.225  0.0665 -0.2163  0.3913
 5514SOL    HW128178   3.713   4.470   5.148 -0.1174 -2.7399  2.2381
 5514SOL    HW228179   3.761   4.470   5.278  1.4392  1.0549  0.2856
 5515SOL     OW28180   0.451   1.685  10.185 -0.0032 -0.1330  0.4324
 5515SOL    HW128181   0.376   1.720  10.233  1.1932  0.4975  1.8872
 5515SOL    HW228182   0.493   1.633  10.254 -0.1861 -0.4130  0.3332
 5516SOL     OW28183   3.842   4.260   7.728 -0.0533 -0.1096  0.1393
 5516SOL    HW128184   3.847   4.326   7.797 -2.4336  1.0259 -0.7837
 5516SOL    HW228185   3.858   4.177   7.774  1.7865 -0.0369 -0.3820
 5517SOL     OW28186   0.588   3.460   5.389 -0.6397 -0.3162 -0.4071
 5517SOL    HW128187   0.498   3.428   5.393 -1.7945  3.0383 -0.3688
 5517SOL    HW228188   0.580   3.548   5.425 -0.8867  0.1552 -1.6293
 5518SOL     OW28189   4.530   1.746   1.633 -0.6310 -0.1185  0.0818
 5518SOL    HW128190   4.481   1.752   1.551 -1.0954 -1.5370  0.2549
 5518SOL    HW228191   4.555   1.654   1.638 -0.9009 -0.1535  0.8743
 5519SOL     OW28192   4.587   3.704   4.177  0.0548 -0.3904 -0.4683
 5519SOL    HW128193   4.619   3.787   4.211 -0.1984 -0.2626 -0.5360
 5519SOL    HW228194   4.574   3.739   4.089  0.3842 -1.3751 -0.9114
 5520SOL     OW28195   3.131   1.066   6.470  0.7458 -0.8257  0.1410
 5520SOL    HW128196   3.219   1.081   6.434  0.1897  1.4919 -0.2458
 5520SOL    HW228197   3.125   1.137   6.534  0.7523 -0.5231 -0.1861
 5521SOL     OW28198   3.983   0.505   6.728 -0.0480  0.0330  0.2726
 5521SOL    HW128199   3.922   0.566   6.688 -0.1776  1.5433  2.7422
 5521SOL    HW228200   3.934   0.424   6.718  0.6138 -0.5272  1.5292
 5522SOL     OW28201   1.164   0.215  11.861 -0.1289 -0.2851  0.1354
 5522SOL    HW128202   1.193   0.204  11.770 -0.1747 -1.1047  0.2186
 5522SOL    HW228203   1.217   0.292  11.883 -0.3146  0.0764 -0.6718
 5523SOL     OW28204   0.557   1.666  15.241 -0.2037 -0.8532  0.3360
 5523SOL    HW128205   0.477   1.656  15.293  0.5283  1.4777  1.9067
 5523SOL    HW228206   0.594   1.747  15.275 -0.1924 -1.4166  1.6406
 5524SOL     OW28207   3.517   0.291   4.517 -0.0173  0.3802  0.1971
 5524SOL    HW128208   3.487   0.214   4.471  0.6212  0.6150 -0.6050
 5524SOL    HW228209   3.547   0.348   4.446  0.5672  0.0753  0.2013
 5525SOL     OW28210   2.735   3.873  14.150 -0.6383  0.0136 -0.0677
 5525SOL    HW128211   2.773   3.786  14.136  2.2698  1.0771  1.1390
 5525SOL    HW228212   2.699   3.881  14.062 -2.3361  3.9135  0.9879
 5526SOL     OW28213   4.365   3.290   6.511 -0.5538 -0.0773 -0.5300
 5526SOL    HW128214   4.407   3.250   6.434 -1.1267  0.4226 -1.0998
 5526SOL    HW228215   4.441   3.311   6.566 -2.3385  0.5617  1.6502
 5527SOL     OW28216   4.535   1.154   0.732 -0.3848 -0.2123 -0.0056
 5527SOL    HW128217   4.579   1.238   0.744  1.4536 -1.0989 -0.5524
 5527SOL    HW228218   4.594   1.119   0.666 -1.7789 -2.0784 -0.2458
 5528SOL     OW28219   3.154   2.259   8.148  0.1596  0.2114 -0.4752
 5528SOL    HW128220   3.232   2.258   8.203 -1.1645 -3.6713  1.3317
 5528SOL    HW228221   3.102   2.180   8.164  1.1446 -0.3395  0.0201
 5529SOL     OW28222   2.528   4.235   5.268  0.5635  0.5539  0.4008
 5529SOL    HW128223   2.585   4.312   5.281  0.4173  0.4350  1.7730
 5529SOL    HW228224   2.568   4.186   5.340  1.3909 -2.5646 -2.1836
 5530SOL     OW28225   4.652   1.624   7.005  0.3085  0.5219 -0.5274
 5530SOL    HW128226   4.726   1.572   7.037  0.1007 -0.1877 -1.1906
 5530SOL    HW228227   4.603   1.549   6.971 -0.5213  1.7941 -2.1344
 5531SOL     OW28228   1.666   2.024   4.014 -0.5063 -0.8832  0.8440
 5531SOL    HW128229   1.694   2.112   3.989 -0.9545 -1.3109 -1.1609
 5531SOL    HW228230   1.711   1.969   3.949  0.1372  1.2697 -0.5170
 5532SOL     OW28231   2.007   0.228  15.281 -0.4052  0.4680  0.6256
 5532SOL    HW128232   2.088   0.273  15.258  0.5722 -1.1982  0.8895
 5532SOL    HW228233   2.012   0.147  15.230  3.4428  2.2229 -1.7376
 5533SOL     OW28234   2.041   3.842   3.982 -0.2864 -0.5366  1.0080
 5533SOL    HW128235   1.950   3.872   3.989 -1.0284 -2.4209 -0.9634
 5533SOL    HW228236   2.034   3.751   4.011  0.8119 -0.5172  1.3349
 5534SOL     OW28237   0.228   1.694   7.212 -0.4054  0.2762 -0.1626
 5534SOL    HW128238   0.309   1.670   7.257  0.3954  0.6712 -1.3579
 5534SOL    HW228239   0.202   1.622   7.154  1.7453  0.4281 -1.3440
 5535SOL     OW28240   2.767   1.031   8.894 -0.2909  0.3041  0.0711
 5535SOL    HW128241   2.729   0.987   8.819  4.5145  3.1229 -4.0416
 5535SOL    HW228242   2.728   1.117   8.878 -0.2063 -0.0425 -1.9386
 5536SOL     OW28243   1.718   3.125   6.607  0.0192  0.1706  0.1730
 5536SOL    HW128244   1.737   3.037   6.638 -0.0130  0.9820  2.5239
 5536SOL    HW228245   1.804   3.167   6.613  0.0670 -0.3162  2.8878
 5537SOL     OW28246   3.445   1.327  14.345  0.3844  0.0618  0.6414
 5537SOL    HW128247   3.473   1.238  14.322  2.4688  0.1863  2.7522
 5537SOL    HW228248   3.520   1.351  14.398  1.2896  1.2587 -1.1733
 5538SOL     OW28249   2.394   3.991  11.221  0.1221  0.1248  0.9449
 5538SOL    HW128250   2.474   3.979  11.171 -0.9612 -0.6334 -0.5930
 5538SOL    HW228251   2.356   3.906  11.201  0.2308  0.4120 -0.4778
 5539SOL     OW28252   0.144   1.140   8.335 -0.0681 -0.3500  0.2495
 5539SOL    HW128253   0.075   1.203   8.314  2.1929  1.9574 -0.2694
 5539SOL    HW228254   0.157   1.088   8.256  1.3537  2.4692 -1.3925
 5540SOL     OW28255   2.820   2.354  12.158 -0.5677 -0.0435  0.6691
 5540SOL    HW128256   2.792   2.414  12.227  0.9366  2.8131 -1.1983
 5540SOL    HW228257   2.872   2.411  12.101 -0.3361 -0.9873 -0.0715
 5541SOL     OW28258   2.602   2.827   6.468  0.5264 -0.5782  0.3172
 5541SOL    HW128259   2.592   2.734   6.446  0.0660 -0.6163  0.6923
 5541SOL    HW228260   2.551   2.871   6.400 -0.2841  0.1495  1.3982
 5542SOL     OW28261   3.752   1.596   1.590  0.1168 -0.6367 -0.1967
 5542SOL    HW128262   3.829   1.649   1.614 -1.7850  1.6136  0.9137
 5542SOL    HW228263   3.719   1.643   1.513  2.3521 -0.7851 -1.2565
 5543SOL     OW28264   1.002   2.497   0.139  0.0945 -0.1375  0.2505
 5543SOL    HW128265   1.006   2.403   0.152  0.2731 -0.0503  0.8132
 5543SOL    HW228266   0.947   2.507   0.061 -0.2901 -0.6128  0.4635
 5544SOL     OW28267   0.123   1.476  11.504  0.4326 -0.3942 -0.3245
 5544SOL    HW128268   0.045   1.524  11.476  1.2874  1.2254  0.0580
 5544SOL    HW228269   0.120   1.500  11.597 -1.1542 -2.0894  0.0758
 5545SOL     OW28270   2.391   1.557   9.603 -0.1271  0.5867  0.5723
 5545SOL    HW128271   2.415   1.649   9.591 -0.5203  0.7489  1.0444
 5545SOL    HW228272   2.346   1.537   9.521  0.8354  1.6412 -0.2200
 5546SOL     OW28273   1.482   3.931   7.963  0.4539  0.4607 -0.0546
 5546SOL    HW128274   1.505   3.838   7.966 -1.1669 -0.0120 -2.4677
 5546SOL    HW228275   1.508   3.961   7.876 -1.2910  0.6103 -0.5175
 5547SOL     OW28276   4.024   1.282   3.941  0.2541 -0.1898  0.3147
 5547SOL    HW128277   4.039   1.233   4.022 -2.0423  0.3801  1.0934
 5547SOL    HW228278   4.113   1.276   3.906 -0.0525 -1.7643 -0.1768
 5548SOL     OW28279   2.651   1.951  17.496  0.2830  0.8607  0.0668
 5548SOL    HW128280   2.661   1.859  17.474 -0.0518  0.8267  0.0568
 5548SOL    HW228281   2.730   1.975  17.543  0.5038 -0.0385  0.1525
 5549SOL     OW28282   1.138   4.063  14.125 -0.3475 -0.1606  0.6558
 5549SOL    HW128283   1.050   4.026  14.132 -1.3116  2.0402  0.2438
 5549SOL    HW228284   1.118   4.156  14.137 -1.3834 -0.3717  0.5664
 5550SOL     OW28285   2.657   0.907   4.912 -0.3138  0.1936  0.1486
 5550SOL    HW128286   2.575   0.941   4.946  0.5996  1.3914  1.1835
 5550SOL    HW228287   2.719   0.927   4.982  1.3302  1.0124 -1.5122
 5551SOL     OW28288   2.620   3.562   3.716 -0.0280  0.0569 -0.0869
 5551SOL    HW128289   2.651   3.585   3.628 -1.6376  1.1556 -0.3682
 5551SOL    HW228290   2.654   3.473   3.711  1.3710  0.6429 -1.1333
 5552SOL     OW28291   3.386   3.712   7.401  0.5606  0.2234 -0.7784
 5552SOL    HW128292   3.342   3.627   7.392 -1.0606  1.2218 -2.2477
 5552SOL    HW228293   3.317   3.770   7.367 -0.6066  0.4091  1.9344
 5553SOL     OW28294   3.689   3.570  17.663  0.4492  0.6807  0.2616
 5553SOL    HW128295   3.725   3.588  17.576  2.4984  1.5502  1.2832
 5553SOL    HW228296   3.698   3.658  17.699 -0.4921  1.1485 -0.6530
 5554SOL     OW28297   0.956   4.228   8.256 -1.2679 -0.2528 -0.2843
 5554SOL    HW128298   0.958   4.306   8.311 -1.8928 -1.5433  1.5726
 5554SOL    HW228299   0.871   4.233   8.212 -1.1813 -1.4561 -0.6020
 5555SOL     OW28300   2.771   4.710   2.662 -0.4541  0.0142 -0.6698
 5555SOL    HW128301   2.777   4.636   2.602  1.7621  1.4486 -2.2529
 5555SOL    HW228302   2.828   4.686   2.736  1.3159  1.1731 -1.6748
 5556SOL     OW28303   0.458   4.183   8.640 -0.2101 -0.0213 -0.0679
 5556SOL    HW128304   0.462   4.132   8.720  0.3618 -0.6490 -0.4936
 5556SOL    HW228305   0.542   4.229   8.638  0.5912 -1.4665  0.6027
 5557SOL     OW28306   3.150   3.268  16.088 -0.5331 -0.3972  0.0851
 5557SOL    HW128307   3.217   3.336  16.097  1.0661 -1.9444 -0.1356
 5557SOL    HW228308   3.069   3.301  16.127 -1.4578 -3.3949  0.6316
 5558SOL     OW28309   3.784   2.874   6.569 -0.0336 -1.2867  0.5189
 5558SOL    HW128310   3.854   2.827   6.615  2.4942 -0.8150 -2.8077
 5558SOL    HW228311   3.715   2.811   6.588 -0.4691 -1.4192 -1.5199
 5559SOL     OW28312   2.765   2.529  12.382 -0.4383  0.0152  0.5942
 5559SOL    HW128313   2.805   2.511  12.467  0.8610  0.2048  0.0338
 5559SOL    HW228314   2.679   2.546  12.421  0.1276 -0.0987  1.8887
 5560SOL     OW28315   1.103   0.593   2.560  0.0967  0.1351 -0.2463
 5560SOL    HW128316   1.182   0.570   2.512  0.5104  1.8860 -0.3761
 5560SOL    HW228317   1.038   0.585   2.490 -0.1295  0.4536 -0.0715
 5561SOL     OW28318   2.614   2.841   4.880  0.2745  0.3288 -0.3177
 5561SOL    HW128319   2.548   2.883   4.935 -0.5668 -0.1697 -0.9290
 5561SOL    HW228320   2.694   2.864   4.927 -0.5870  3.3800 -0.3309
 5562SOL     OW28321   4.103   1.600  15.107 -0.1097  0.5810 -0.1192
 5562SOL    HW128322   4.158   1.678  15.104 -0.7758  0.9981 -1.5419
 5562SOL    HW228323   4.168   1.530  15.106 -1.1743 -0.4166  0.5149
 5563SOL     OW28324   4.093   3.060  11.346  0.1115  0.5462 -0.0892
 5563SOL    HW128325   4.109   3.048  11.439 -1.3925  0.2431  0.1313
 5563SOL    HW228326   4.019   3.120  11.342  1.0007  1.6266 -0.3353
 5564SOL     OW28327   1.941   2.989   3.276 -0.0715 -0.2056 -0.0864
 5564SOL    HW128328   1.852   2.997   3.242  0.9908 -1.2248 -3.1560
 5564SOL    HW228329   1.936   2.956   3.365  2.7259  2.1194  0.9400
 5565SOL     OW28330   4.153   2.243   3.430 -0.0784  1.0512 -0.0074
 5565SOL    HW128331   4.200   2.284   3.357  0.0242 -1.0474 -1.1157
 5565SOL    HW228332   4.224   2.214   3.486 -0.2819 -1.6256 -1.1256
 5566SOL     OW28333   0.193   2.490   0.727  0.4886 -0.2652 -0.6257
 5566SOL    HW128334   0.233   2.411   0.691 -0.6447 -0.8072 -0.6872
 5566SOL    HW228335   0.167   2.463   0.815 -0.5492  3.4605  0.2108
 5567SOL     OW28336   3.382   0.941   9.629  0.2208 -0.3769  0.1522
 5567SOL    HW128337   3.423   1.021   9.597  0.0085 -1.1667 -2.0772
 5567SOL    HW228338   3.444   0.926   9.701  0.0974 -3.4231 -0.3814
 5568SOL     OW28339   4.656   1.962   1.785  0.4450 -0.4659 -0.5231
 5568SOL    HW128340   4.701   2.034   1.742 -1.0532 -0.3579 -1.9291
 5568SOL    HW228341   4.630   1.900   1.717  0.1180 -0.2140 -0.6258
 5569SOL     OW28342   0.592   2.561  11.671 -0.2887  0.2275 -0.2531
 5569SOL    HW128343   0.648   2.605  11.608  2.3966 -1.6693  0.7971
 5569SOL    HW228344   0.506   2.575  11.631 -0.2155  0.0283 -0.4790
 5570SOL     OW28345   2.976   0.512  11.391  0.7647 -0.1014  0.5181
 5570SOL    HW128346   2.914   0.576  11.355  1.2679  0.1882  0.1684
 5570SOL    HW228347   2.939   0.482  11.474  3.7009 -0.9797  1.5286
 5571SOL     OW28348   1.603   2.417   3.014 -0.1816 -0.1852 -0.1646
 5571SOL    HW128349   1.509   2.434   3.011 -0.2919 -0.3329  1.9080
 5571SOL    HW228350   1.617   2.367   2.934  0.2929  1.3191 -1.0159
 5572SOL     OW28351   3.933   0.322   5.729 -0.5433  0.1258  0.3501
 5572SOL    HW128352   3.965   0.382   5.662  2.5119 -0.5082  1.2130
 5572SOL    HW228353   4.001   0.330   5.796 -1.1920 -0.0824  1.0354
 5573SOL     OW28354   2.773   2.606   5.538 -0.3746  0.5847  0.2070
 5573SOL    HW128355   2.696   2.656   5.512 -1.3651 -0.8548  0.4186
 5573SOL    HW228356   2.813   2.675   5.591  0.9158  0.7894 -1.0365
 5574SOL     OW28357   3.748   1.842   4.388  0.1771 -0.1953 -0.0194
 5574SOL    HW128358   3.730   1.761   4.342  3.4362 -1.0592  0.1818
 5574SOL    HW228359   3.684   1.845   4.458  1.1981 -3.5502  1.0671
 5575SOL     OW28360   0.613   0.293   5.481 -0.6664  0.3856  0.0799
 5575SOL    HW128361   0.685   0.239   5.515 -1.3033 -1.1003 -0.9240
 5575SOL    HW228362   0.629   0.300   5.387  4.0088 -0.9734  0.7535
 5576SOL     OW28363   2.003   1.509   9.921  0.0657  0.0174  0.4133
 5576SOL    HW128364   2.071   1.527   9.856  0.0701 -0.7202  0.2146
 5576SOL    HW228365   1.992   1.584   9.979 -1.4983 -0.5664  0.8715
 5577SOL     OW28366   3.642   4.677   6.471  0.2627  0.1740  0.1881
 5577SOL    HW128367   3.584   0.001   6.421 -0.2917 -0.5569 -0.0183
 5577SOL    HW228368   3.642   4.728   6.552  0.9211  0.1438  0.2085
 5578SOL     OW28369   4.423   0.620  12.659 -0.6702  0.2614 -0.2675
 5578SOL    HW128370   4.469   0.648  12.738  1.3779 -0.4549 -1.1938
 5578SOL    HW228371   4.378   0.697  12.626  1.7590  1.7955  0.0195
 5579SOL     OW28372   1.918   2.955  14.924 -0.1211 -0.6082 -0.2628
 5579SOL    HW128373   1.962   2.895  14.864  0.1683 -3.9693  3.2953
 5579SOL    HW228374   1.834   2.941  14.880 -0.9792 -1.9763  1.7937
 5580SOL     OW28375   1.413   4.096   7.061 -0.1420 -0.1018  0.3247
 5580SOL    HW128376   1.335   4.051   7.029  0.8197  0.0801 -2.3208
 5580SOL    HW228377   1.394   4.112   7.153  1.0514  1.5570  0.2966
 5581SOL     OW28378   4.617   1.939  11.921 -0.1265 -0.0240 -0.0318
 5581SOL    HW128379   4.575   2.012  11.968  1.0545 -0.0712  1.0975
 5581SOL    HW228380   4.689   1.988  11.882  0.0724 -1.2273 -1.1727
 5582SOL     OW28381   1.755   1.199   6.753 -0.1624 -0.4740 -0.7766
 5582SOL    HW128382   1.766   1.138   6.681  0.5583 -0.8508 -0.3472
 5582SOL    HW228383   1.835   1.246   6.728  0.0353 -2.0686 -3.0481
 5583SOL     OW28384   2.980   1.291   9.192 -0.1559 -0.5358 -0.3378
 5583SOL    HW128385   2.951   1.243   9.114 -2.4402 -0.9714  0.7636
 5583SOL    HW228386   2.897   1.336   9.207  1.3946  2.9368 -2.0438
 5584SOL     OW28387   1.139   0.122   2.278  0.6485  0.0304 -0.0397
 5584SOL    HW128388   1.198   0.061   2.321  0.8271 -1.5502 -2.5004
 5584SOL    HW228389   1.187   0.131   2.195 -1.6272 -1.5399 -1.5310
 5585SOL     OW28390   0.593   0.691   3.611  0.4335 -0.4925  0.5446
 5585SOL    HW128391   0.648   0.658   3.540  0.6926 -2.3131  1.5808
 5585SOL    HW228392   0.655   0.714   3.680  0.5627  1.2036 -0.1217
 5586SOL     OW28393   2.468   4.292   3.339 -0.2787 -0.1208 -0.2554
 5586SOL    HW128394   2.555   4.287   3.379 -0.7813 -1.5465  0.6744
 5586SOL    HW228395   2.439   4.378   3.368 -0.9168 -0.1352 -0.8439
 5587SOL     OW28396   2.032   2.549   8.481  0.1860 -0.0211 -0.8918
 5587SOL    HW128397   2.082   2.571   8.559 -1.2863 -0.7413  0.2608
 5587SOL    HW228398   1.948   2.518   8.515  1.3980 -0.8631  1.3245
 5588SOL     OW28399   1.531   2.565  17.350  0.0495 -0.0663 -0.1990
 5588SOL    HW128400   1.524   2.502  17.421  2.0727 -0.5408 -0.4270
 5588SOL    HW228401   1.568   2.502  17.289 -2.2217  0.4607 -2.1355
 5589SOL     OW28402   0.217   3.392  13.290 -0.0776  0.2213 -0.3938
 5589SOL    HW128403   0.289   3.331  13.274 -0.5648 -0.3687 -0.3486
 5589SOL    HW228404   0.237   3.423  13.379 -0.0390 -0.9749  0.0204
 5590SOL     OW28405   1.751   3.711   6.725  0.2492 -0.2302  0.3536
 5590SOL    HW128406   1.692   3.757   6.784 -1.3450 -1.8674  0.0472
 5590SOL    HW228407   1.835   3.753   6.738 -1.1994  2.5094  0.8107
 5591SOL     OW28408   3.690   4.665   2.188  0.4021 -0.5192 -0.0142
 5591SOL    HW128409   3.616   4.725   2.181  1.0619  0.4701  1.3705
 5591SOL    HW228410   3.658   4.598   2.248 -1.1562 -1.0799 -1.4721
 5592SOL     OW28411   4.623   2.254   5.903 -0.5457  0.3304  0.0281
 5592SOL    HW128412   4.589   2.206   5.829  1.2942 -2.0849  0.7571
 5592SOL    HW228413   4.682   2.316   5.859 -0.8761 -0.4868 -1.5169
 5593SOL     OW28414   2.683   3.358  17.685  0.3567 -0.2107  0.2942
 5593SOL    HW128415   2.707   3.338  17.595  0.8628 -1.9288  0.8171
 5593SOL    HW228416   2.703   3.274  17.726  1.2342 -0.1665 -0.0378
 5594SOL     OW28417   0.357   3.494   8.796  0.4176  0.2561  0.8141
 5594SOL    HW128418   0.449   3.481   8.817  1.1260  1.8276 -1.3371
 5594SOL    HW228419   0.309   3.460   8.872  1.3819 -1.5622  0.6023
 5595SOL     OW28420   0.489   4.657  10.217 -0.0808  0.2703  0.3193
 5595SOL    HW128421   0.450   4.705  10.290 -0.3063 -0.0483  0.4064
 5595SOL    HW228422   0.459   4.567  10.229 -0.0386  0.4486  1.7837
 5596SOL     OW28423   1.888   3.585  17.420 -0.3329  0.2364  0.0232
 5596SOL    HW128424   1.886   3.674  17.455 -0.9760  0.5416 -0.8059
 5596SOL    HW228425   1.840   3.599  17.339  0.5316  0.5158 -0.4378
 5597SOL     OW28426   1.934   0.078   7.619 -0.1096  0.4022  0.7828
 5597SOL    HW128427   1.861   0.119   7.574 -0.4142 -1.0945 -0.0870
 5597SOL    HW228428   1.906   4.720   7.619 -0.5635  0.5665 -2.3730
 5598SOL     OW28429   3.681   4.348   4.999 -0.2852 -0.2679 -0.0284
 5598SOL    HW128430   3.637   4.288   4.938 -2.1583  2.1337 -1.0156
 5598SOL    HW228431   3.727   4.409   4.941  1.7547 -0.5119  1.3157
 5599SOL     OW28432   0.095   1.918  13.098  0.1017 -0.1384 -0.0873
 5599SOL    HW128433   0.165   1.854  13.085 -1.2485 -1.6278  0.0084
 5599SOL    HW228434   0.128   1.997  13.056 -1.4256  0.4166 -0.2317
 5600SOL     OW28435   1.105   2.386   2.879 -0.6255  0.0669 -0.2575
 5600SOL    HW128436   1.086   2.440   2.802  0.6336  0.6896 -0.1303
 5600SOL    HW228437   1.081   2.300   2.846 -1.9022  0.5811 -0.6828
 5601SOL     OW28438   2.663   0.282   1.905 -0.0540 -0.3144 -0.0743
 5601SOL    HW128439   2.605   0.241   1.841  2.9797 -3.8241 -0.5822
 5601SOL    HW228440   2.599   0.341   1.944  1.3619  0.1442  1.5786
 5602SOL     OW28441   2.786   3.201   2.743 -0.4646  0.0053 -0.0234
 5602SOL    HW128442   2.781   3.128   2.681 -0.2153 -0.1111  0.0939
 5602SOL    HW228443   2.786   3.272   2.678  0.3828 -1.3019 -1.4514
 5603SOL     OW28444   0.728   3.232  14.866 -0.4868 -0.0916 -0.2605
 5603SOL    HW128445   0.816   3.263  14.842  0.2796  0.2165  3.0106
 5603SOL    HW228446   0.746   3.154  14.917  0.9850  0.4541  0.0719
 5604SOL     OW28447   2.828   4.569   9.153 -0.1069 -0.2963  0.2235
 5604SOL    HW128448   2.761   4.505   9.128  0.4174 -2.2573  3.8569
 5604SOL    HW228449   2.800   4.652   9.114 -1.5863 -1.0468 -0.3093
 5605SOL     OW28450   0.637   4.324   6.581  0.7320  0.5600  0.3175
 5605SOL    HW128451   0.633   4.346   6.674 -0.6774  0.0009  0.3976
 5605SOL    HW228452   0.683   4.398   6.542  2.0060  0.3684  1.4895
 5606SOL     OW28453   1.670   1.086  15.471  0.1468 -0.0011  0.2765
 5606SOL    HW128454   1.682   1.136  15.551  0.3995  0.0025  0.2365
 5606SOL    HW228455   1.612   1.013  15.497 -0.2319  0.2618  0.1751
 5607SOL     OW28456   4.134   2.967   4.215  0.1445 -0.8974  0.0130
 5607SOL    HW128457   4.196   2.990   4.146  2.1957 -0.8687  1.8332
 5607SOL    HW228458   4.178   3.009   4.289 -0.5058 -0.8360  0.3664
 5608SOL     OW28459   4.437   2.926   5.356  0.3907 -0.5025  0.1117
 5608SOL    HW128460   4.353   2.882   5.342  0.2621 -0.3964  0.5552
 5608SOL    HW228461   4.458   2.966   5.271 -1.9323  1.3153  0.4091
 5609SOL     OW28462   2.722   0.741  13.224  0.1290  0.6389 -0.0994
 5609SOL    HW128463   2.683   0.767  13.308 -0.6120  0.5201 -0.4043
 5609SOL    HW228464   2.789   0.808  13.213 -0.3903  1.3841  1.2127
 5610SOL     OW28465   3.629   3.730   2.154  0.0969  0.0959 -0.0309
 5610SOL    HW128466   3.666   3.721   2.242 -1.3855  1.5364  0.7407
 5610SOL    HW228467   3.539   3.700   2.162 -0.1084  0.8102  0.3282
 5611SOL     OW28468   4.703   0.024  14.840  0.0925  0.0333 -0.3657
 5611SOL    HW128469   0.021   0.024  14.921  1.3907  0.2774 -1.1919
 5611SOL    HW228470   0.043   0.036  14.779  1.3814 -0.0863  1.1765
 5612SOL     OW28471   3.970   1.894   4.540  0.4993 -0.4043 -0.1464
 5612SOL    HW128472   3.887   1.905   4.493  1.4015 -1.3263 -1.9510
 5612SOL    HW228473   3.997   1.811   4.501 -1.4181 -1.2934  0.3938
 5613SOL     OW28474   1.678   4.694   5.468 -0.0725 -0.0371  0.2976
 5613SOL    HW128475   1.622   0.037   5.483 -0.6216  0.1022 -2.5561
 5613SOL    HW228476   1.736   4.709   5.543 -1.0376 -4.6118  1.9166
 5614SOL     OW28477   2.429   1.155  15.237  0.4182 -0.1109  0.1818
 5614SOL    HW128478   2.336   1.145  15.255 -0.1406  1.9649 -1.5448
 5614SOL    HW228479   2.434   1.243  15.199  0.1469  0.2535  1.0087
 5615SOL     OW28480   3.532   0.865  13.548 -0.5695 -0.3010  0.1167
 5615SOL    HW128481   3.564   0.947  13.509  2.4166 -1.0877  0.9199
 5615SOL    HW228482   3.511   0.898  13.635  1.6205  0.8397  0.2209
 5616SOL     OW28483   3.430   3.057   3.175 -0.5521  0.1468  0.4954
 5616SOL    HW128484   3.443   3.041   3.082 -2.9624  1.8138 -0.1008
 5616SOL    HW228485   3.520   3.063   3.208  0.0409  0.1957 -1.1428
 5617SOL     OW28486   3.027   0.485   7.851  0.1092 -0.4646 -0.8392
 5617SOL    HW128487   3.037   0.550   7.781  0.7126  1.4515  1.0517
 5617SOL    HW228488   3.080   0.413   7.817 -0.7950 -1.4802 -0.1231
 5618SOL     OW28489   0.994   1.407   9.458 -0.6716 -0.1163 -0.4350
 5618SOL    HW128490   1.026   1.321   9.484 -1.2212 -0.1581  0.1165
 5618SOL    HW228491   1.076   1.447   9.429 -0.3713 -0.2207  0.2797
 5619SOL     OW28492   3.386   1.062   3.061  0.1734 -0.4651 -0.4977
 5619SOL    HW128493   3.361   0.993   3.122  0.3947 -0.0104  0.0954
 5619SOL    HW228494   3.323   1.129   3.087 -0.9134 -2.1066  1.1452
 5620SOL     OW28495   2.202   0.759   4.353 -0.1479 -0.2690  0.0723
 5620SOL    HW128496   2.220   0.812   4.275 -0.7974 -0.5238 -0.2412
 5620SOL    HW228497   2.282   0.780   4.403 -0.8724  1.4759  0.5154
 5621SOL     OW28498   4.142   0.971  14.761  0.4317  0.0730  0.7122
 5621SOL    HW128499   4.215   0.955  14.820 -0.7284 -1.1467  1.8165
 5621SOL    HW228500   4.071   0.929  14.811 -0.4242 -2.2046 -2.4049
 5622SOL     OW28501   2.621   0.459  10.360  0.3091 -0.0617  0.7066
 5622SOL    HW128502   2.631   0.531  10.298 -1.0377 -0.4975 -0.0167
 5622SOL    HW228503   2.629   0.380  10.306  1.3227  1.8508 -1.8845
 5623SOL     OW28504   1.191   3.384  16.943  0.0093  0.8763  0.0219
 5623SOL    HW128505   1.156   3.298  16.923 -1.1413  1.2012  0.6393
 5623SOL    HW228506   1.207   3.446  16.872 -1.3786 -0.3286 -1.3456
 5624SOL     OW28507   2.115   1.281   7.691  0.4342 -0.1890 -0.1683
 5624SOL    HW128508   2.100   1.331   7.611 -0.2602 -0.0009  0.0751
 5624SOL    HW228509   2.211   1.276   7.689  0.5785  3.4489 -2.5204
 5625SOL     OW28510   4.353   4.177   6.739 -0.3535 -0.6984 -0.0791
 5625SOL    HW128511   4.360   4.260   6.693 -1.6356 -0.2686  0.4911
 5625SOL    HW228512   4.397   4.120   6.676  0.7562  2.4111 -2.0615
 5626SOL     OW28513   2.825   0.507   8.194  0.0937 -0.4377 -1.0855
 5626SOL    HW128514   2.865   0.590   8.167  1.4218 -0.7218 -0.0079
 5626SOL    HW228515   2.868   0.484   8.277 -2.2979  1.4095  0.6597
 5627SOL     OW28516   3.301   1.338  17.283  0.2438  0.1160  0.2969
 5627SOL    HW128517   3.375   1.324  17.343 -1.5644 -0.5566  2.3647
 5627SOL    HW228518   3.238   1.387  17.336 -0.5309 -0.4246 -0.1236
 5628SOL     OW28519   0.470   0.163  12.299  0.9326 -0.4240  0.0489
 5628SOL    HW128520   0.562   0.141  12.285  1.2189  1.8150 -1.4593
 5628SOL    HW228521   0.447   0.084  12.349  0.1582 -0.0822  0.2245
 5629SOL     OW28522   3.644   0.719   7.708  0.1821  0.4874 -0.4448
 5629SOL    HW128523   3.671   0.670   7.631  1.2749 -0.7985  0.7569
 5629SOL    HW228524   3.650   0.649   7.773  0.7337  1.9970  1.1338
 5630SOL     OW28525   1.807   1.128  14.992 -0.1679 -0.5166 -0.0521
 5630SOL    HW128526   1.819   1.094  14.903  0.5265 -0.7865  0.1372
 5630SOL    HW228527   1.865   1.069  15.041  1.3021  0.0370 -1.1115
 5631SOL     OW28528   0.605   0.056   9.538 -0.3137  0.6612 -0.1753
 5631SOL    HW128529   0.664   4.733   9.586 -0.6869  1.4391  1.2346
 5631SOL    HW228530   0.520   0.024   9.570  0.4664  0.1166  1.3608
 5632SOL     OW28531   3.560   4.055  14.568 -0.3602 -0.2704 -0.1277
 5632SOL    HW128532   3.535   4.087  14.482 -1.5934 -1.1753 -0.0961
 5632SOL    HW228533   3.476   4.058  14.614 -0.4016  0.0100 -0.2258
 5633SOL     OW28534   4.609   3.159   7.096  0.1500  0.5665  0.1211
 5633SOL    HW128535   4.665   3.177   7.172  1.3925 -1.1783 -0.3860
 5633SOL    HW228536   4.522   3.148   7.136  1.0147  1.3621  2.1949
 5634SOL     OW28537   3.356   0.263   1.963  0.0756  0.0047 -0.5384
 5634SOL    HW128538   3.311   0.327   2.017  2.9311  1.4528  0.1291
 5634SOL    HW228539   3.284   0.203   1.941 -0.0712  0.1915 -0.5609
 5635SOL     OW28540   3.547   3.342  16.150 -0.1948  0.1880  0.1441
 5635SOL    HW128541   3.496   3.348  16.069 -1.7058  0.5201  1.1346
 5635SOL    HW228542   3.562   3.435  16.168 -1.6060  0.3979  0.2181
 5636SOL     OW28543   2.285   0.564  13.895 -0.8033  0.3918  0.4097
 5636SOL    HW128544   2.368   0.538  13.934 -0.0404  1.8830 -0.2254
 5636SOL    HW228545   2.234   0.484  13.904  0.8743 -0.4540  2.2970
 5637SOL     OW28546   3.531   1.687   6.520 -0.7727  0.2799  0.1166
 5637SOL    HW128547   3.579   1.733   6.451 -0.1735  0.9464  0.9616
 5637SOL    HW228548   3.602   1.668   6.582  0.9819  0.4082 -1.8392
 5638SOL     OW28549   4.366   1.821  14.111  0.0826  0.6400 -0.1336
 5638SOL    HW128550   4.293   1.799  14.169 -0.2843 -0.6236 -1.0892
 5638SOL    HW228551   4.414   1.898  14.141 -2.3344  2.7443 -1.6969
 5639SOL     OW28552   3.912   4.183   6.872 -0.2727 -0.1128  0.4644
 5639SOL    HW128553   3.934   4.090   6.878 -1.9422 -0.6236 -1.2933
 5639SOL    HW228554   3.830   4.182   6.822  0.8736  2.7259 -1.4104
 5640SOL     OW28555   3.447   1.004   4.389  0.0721  0.1328  0.2776
 5640SOL    HW128556   3.483   1.002   4.301 -2.2856 -1.4174 -0.6437
 5640SOL    HW228557   3.388   0.929   4.388 -0.9489  0.9341  0.4023
 5641SOL     OW28558   4.178   3.535   5.755  0.7416  0.3959 -0.6763
 5641SOL    HW128559   4.178   3.442   5.778 -1.5169  0.1584 -1.7123
 5641SOL    HW228560   4.258   3.544   5.703  1.5406  0.4872  0.5602
 5642SOL     OW28561   4.389   0.681   9.420  0.0951  0.2615 -0.3997
 5642SOL    HW128562   4.458   0.667   9.356 -0.1459 -0.6245 -0.4694
 5642SOL    HW228563   4.331   0.611   9.391  0.3023 -0.5931  1.2346
 5643SOL     OW28564   3.761   3.661   0.961 -0.0462 -0.8538 -0.1583
 5643SOL    HW128565   3.748   3.719   0.886 -0.2352 -1.2012 -0.3901
 5643SOL    HW228566   3.815   3.715   1.019 -0.0707 -0.3382 -0.6185
 5644SOL     OW28567   4.227   1.871  17.582  0.1591  0.5440 -0.4427
 5644SOL    HW128568   4.149   1.915  17.549 -0.4401 -0.1595  0.0264
 5644SOL    HW228569   4.216   1.869  17.677  0.1712  0.7642 -0.4365
 5645SOL     OW28570   0.412   3.536  15.195  0.4648  0.2889  0.0336
 5645SOL    HW128571   0.320   3.510  15.192  0.0402  1.6148  1.4070
 5645SOL    HW228572   0.419   3.562  15.287 -0.7009 -1.0349  0.4912
 5646SOL     OW28573   0.791   1.286  14.789 -0.4770 -0.3708 -0.2473
 5646SOL    HW128574   0.884   1.302  14.805 -0.5010 -1.2626  0.7688
 5646SOL    HW228575   0.756   1.369  14.821  2.2491  1.0190 -0.8891
 5647SOL     OW28576   0.527   2.082   5.993 -0.3203  0.5924 -0.1337
 5647SOL    HW128577   0.434   2.068   6.008 -0.1932 -0.5147 -0.3166
 5647SOL    HW228578   0.565   1.995   5.979  1.8763  1.6057 -0.4513
 5648SOL     OW28579   2.729   0.949   8.478  0.2601 -0.0855  0.0854
 5648SOL    HW128580   2.680   0.953   8.560  2.5902  1.4191  1.4287
 5648SOL    HW228581   2.678   1.003   8.418  1.1686  0.1945 -0.4406
 5649SOL     OW28582   1.660   0.907   3.977 -0.1794  0.0457  0.2562
 5649SOL    HW128583   1.587   0.954   4.019  1.1056  2.7711 -0.5306
 5649SOL    HW228584   1.709   0.874   4.051  0.8421  1.3267  0.1430
 5650SOL     OW28585   3.846   1.033  11.400  0.6402  0.0935  0.3416
 5650SOL    HW128586   3.907   1.035  11.474  1.5619  3.6302 -0.5511
 5650SOL    HW228587   3.880   1.096  11.337  0.3402 -2.6567 -2.5540
 5651SOL     OW28588   4.164   3.868   3.804  0.1924  0.4334 -0.3260
 5651SOL    HW128589   4.196   3.903   3.721  0.7207  2.2371  0.6365
 5651SOL    HW228590   4.116   3.945   3.834 -0.1512  0.6362 -1.3881
 5652SOL     OW28591   2.588   3.756   3.872 -0.3231  0.3528 -0.0913
 5652SOL    HW128592   2.599   3.689   3.804  0.6946  2.1547 -1.7011
 5652SOL    HW228593   2.654   3.726   3.934  0.0012 -0.2410 -0.7293
 5653SOL     OW28594   3.175   2.202   1.446  0.0635  0.1837  0.2408
 5653SOL    HW128595   3.168   2.220   1.540  0.9246  1.4075  0.0677
 5653SOL    HW228596   3.170   2.107   1.431 -0.8159  0.5214 -1.5261
 5654SOL     OW28597   3.661   1.765   8.489 -0.0111  0.2879  0.1693
 5654SOL    HW128598   3.730   1.699   8.494 -1.2884 -1.2466 -2.3160
 5654SOL    HW228599   3.606   1.722   8.424 -1.8922  1.1867  1.1612
 5655SOL     OW28600   3.705   1.096   4.585 -0.5403  0.0025  0.8756
 5655SOL    HW128601   3.616   1.063   4.579 -0.8292  1.0271 -0.5907
 5655SOL    HW228602   3.724   1.102   4.678 -0.7843 -0.2400  0.9396
 5656SOL     OW28603   2.463   3.734   8.440 -0.0642 -0.0164 -0.3230
 5656SOL    HW128604   2.478   3.767   8.529  0.4151  1.8812 -1.1028
 5656SOL    HW228605   2.550   3.737   8.401  0.4294 -0.1344  0.7515
 5657SOL     OW28606   2.155   2.180   2.170  0.1672  0.1573  0.4432
 5657SOL    HW128607   2.184   2.092   2.193  3.1650  1.0611  0.1212
 5657SOL    HW228608   2.204   2.232   2.234  1.6738  0.4751 -0.9518
 5658SOL     OW28609   3.697   2.446   6.623  0.2248  0.3054 -0.0380
 5658SOL    HW128610   3.792   2.452   6.610  0.1487 -0.5781 -0.9437
 5658SOL    HW228611   3.671   2.418   6.536 -1.5687  1.9573 -0.0252
 5659SOL     OW28612   2.033   2.352   0.466 -0.3583  0.0919 -0.0914
 5659SOL    HW128613   1.970   2.284   0.489  1.4741 -0.8250  2.1755
 5659SOL    HW228614   1.981   2.421   0.509 -2.3322 -1.8303  0.5937
 5660SOL     OW28615   1.045   4.394   7.932 -0.1414 -0.4594  0.3334
 5660SOL    HW128616   1.094   4.316   7.906 -0.1103  0.2172 -1.6385
 5660SOL    HW228617   0.987   4.405   7.856  0.2233  0.0193  0.1282
 5661SOL     OW28618   1.433   4.427   8.736  0.0037 -0.3510 -0.2434
 5661SOL    HW128619   1.351   4.465   8.766  0.2301  1.0012 -1.3716
 5661SOL    HW228620   1.487   4.414   8.814  0.2531  2.9843  0.1209
 5662SOL     OW28621   3.233   3.254   8.187 -0.8256  0.0923  0.5668
 5662SOL    HW128622   3.198   3.300   8.263 -0.0164  0.3137  0.8025
 5662SOL    HW228623   3.172   3.182   8.172  1.6193 -1.1817 -3.2071
 5663SOL     OW28624   3.503   3.133   9.680  0.2539  0.2139 -0.0388
 5663SOL    HW128625   3.489   3.039   9.670 -0.4676  0.1268  1.7372
 5663SOL    HW228626   3.419   3.158   9.719  0.7266  1.0150  0.4626
 5664SOL     OW28627   0.810   2.092   6.960  0.2997  0.3275 -0.1071
 5664SOL    HW128628   0.846   2.087   6.871  3.9217 -2.3960  1.5189
 5664SOL    HW228629   0.847   2.177   6.983 -1.3247  0.8044  0.6993
 5665SOL     OW28630   4.209   2.977   5.593  0.0308  0.8431 -0.1360
 5665SOL    HW128631   4.125   3.023   5.594 -0.7261 -0.5326 -2.8031
 5665SOL    HW228632   4.190   2.896   5.547 -0.0810 -0.9134  2.9849
 5666SOL     OW28633   4.455   4.330   3.001 -0.0424 -0.0751  0.0816
 5666SOL    HW128634   4.406   4.407   3.026  1.0280  0.3009  1.0296
 5666SOL    HW228635   4.541   4.367   3.021  0.1099 -0.3962  0.0199
 5667SOL     OW28636   3.827   0.192   8.657  0.3024 -0.0279 -0.6591
 5667SOL    HW128637   3.907   0.142   8.644  0.9609  1.1489 -1.0974
 5667SOL    HW228638   3.777   0.117   8.690 -0.0075  1.6061  2.5302
 5668SOL     OW28639   3.330   0.757   4.332  0.2552 -0.1106  0.7895
 5668SOL    HW128640   3.251   0.705   4.316 -0.5693  0.9700  1.3858
 5668SOL    HW228641   3.381   0.702   4.392  0.8228 -0.1946  0.2301
 5669SOL     OW28642   4.165   1.667  14.284 -0.1543  0.3270 -0.5030
 5669SOL    HW128643   4.142   1.703  14.370  0.4595 -1.4683  0.4048
 5669SOL    HW228644   4.231   1.606  14.319 -1.5028 -0.2721  0.9918
 5670SOL     OW28645   1.084   2.195  13.511 -0.3590 -0.0164  0.5047
 5670SOL    HW128646   1.129   2.274  13.480  1.0369 -1.6932 -1.8032
 5670SOL    HW228647   0.993   2.218  13.493 -0.1912  0.2875  0.0695
 5671SOL     OW28648   0.455   2.805   3.826  0.0686  0.5786  0.4414
 5671SOL    HW128649   0.451   2.855   3.908 -0.9142  0.3655  0.5281
 5671SOL    HW228650   0.511   2.730   3.845  1.0698  1.3854  0.6634
 5672SOL     OW28651   2.257   0.521   4.941  0.4860 -0.4644 -0.0846
 5672SOL    HW128652   2.293   0.605   4.972 -0.8878  0.4072 -0.8417
 5672SOL    HW228653   2.294   0.456   5.001  0.8100 -1.6804 -1.6220
 5673SOL     OW28654   3.042   3.243   4.815 -0.0270 -0.1121 -0.5483
 5673SOL    HW128655   2.947   3.234   4.813 -0.1907  1.2766  1.7074
 5673SOL    HW228656   3.061   3.150   4.803  0.9645  0.1976 -1.3906
 5674SOL     OW28657   2.598   2.935   9.113 -0.1674  0.5334  0.4072
 5674SOL    HW128658   2.599   2.844   9.081 -1.6633  1.2296 -1.6591
 5674SOL    HW228659   2.682   2.968   9.080  1.5291 -1.8302  2.3296
 5675SOL     OW28660   4.301   1.344   4.155 -0.5355 -0.2867 -0.1630
 5675SOL    HW128661   4.379   1.399   4.144 -1.8390  1.6626  0.4589
 5675SOL    HW228662   4.299   1.352   4.251  0.7687 -3.1328  0.0906
 5676SOL     OW28663   2.799   0.810   6.448  0.3390 -0.0371  0.0415
 5676SOL    HW128664   2.745   0.869   6.501  0.7372  1.3406 -1.1069
 5676SOL    HW228665   2.886   0.819   6.489 -0.3324  2.2556  0.9891
 5677SOL     OW28666   0.791   1.601   6.037 -0.4407 -0.0859 -0.0345
 5677SOL    HW128667   0.815   1.542   5.965 -2.0654 -1.1936  0.3135
 5677SOL    HW228668   0.731   1.542   6.083  0.2454  0.1886  1.1843
 5678SOL     OW28669   0.930   2.586   1.925  0.4317  0.3986 -0.1441
 5678SOL    HW128670   0.884   2.511   1.888  2.5588 -0.0074 -1.9644
 5678SOL    HW228671   1.020   2.557   1.913  0.0720 -0.8581  0.1960
 5679SOL     OW28672   2.978   1.837   7.488  0.2677  0.1119  0.3085
 5679SOL    HW128673   2.912   1.895   7.526  0.0862 -0.3453  0.6821
 5679SOL    HW228674   3.032   1.905   7.447 -0.0554 -0.1708 -0.5918
 5680SOL     OW28675   4.280   4.131   7.139  0.3825  0.2427  0.3878
 5680SOL    HW128676   4.245   4.167   7.057  2.3614 -1.1606 -1.0424
 5680SOL    HW228677   4.326   4.210   7.169 -0.4970  0.8779  0.0825
 5681SOL     OW28678   1.855   2.165   6.981 -0.0092 -0.3188  0.3330
 5681SOL    HW128679   1.894   2.078   6.973 -1.9659 -1.1742 -0.0476
 5681SOL    HW228680   1.824   2.153   7.071  0.8995  0.4503  0.7478
 5682SOL     OW28681   3.992   2.778  15.924  0.4076 -0.0568  0.2189
 5682SOL    HW128682   3.948   2.694  15.924  1.4240 -0.5913  0.3316
 5682SOL    HW228683   3.927   2.837  15.885  1.4400  0.0220 -1.4254
 5683SOL     OW28684   1.412   3.792   1.810  0.4344  0.4476 -0.2010
 5683SOL    HW128685   1.471   3.723   1.840 -1.4190 -0.5544  1.1793
 5683SOL    HW228686   1.338   3.765   1.866 -0.0918 -1.7183 -1.9364
 5684SOL     OW28687   0.780   1.939   9.032 -0.4840 -0.5504 -0.1718
 5684SOL    HW128688   0.816   1.952   9.120  0.4349  1.5864 -0.8667
 5684SOL    HW228689   0.830   1.870   8.988  0.5147  0.0080  0.0779
 5685SOL     OW28690   4.295   3.314   4.605 -0.0094  0.0714 -0.6220
 5685SOL    HW128691   4.349   3.238   4.581  1.2253  0.2951  1.4073
 5685SOL    HW228692   4.332   3.392   4.563 -0.0601  0.2125 -0.4065
 5686SOL     OW28693   1.282   0.052   6.313 -0.4235 -0.6479 -0.1188
 5686SOL    HW128694   1.246   0.140   6.326  0.2261 -0.5329  0.9032
 5686SOL    HW228695   1.231   0.021   6.238 -2.3625  2.1223  0.0187
 5687SOL     OW28696   3.071   2.727   0.997 -0.4901 -0.2002 -0.1971
 5687SOL    HW128697   2.999   2.758   0.943  0.0966  1.0256 -0.2756
 5687SOL    HW228698   3.043   2.736   1.088  0.0642  0.5163 -0.0922
 5688SOL     OW28699   4.283   3.479   2.219 -0.6759 -0.2247 -0.1439
 5688SOL    HW128700   4.205   3.536   2.221 -0.5856 -0.1671  2.6782
 5688SOL    HW228701   4.336   3.516   2.290 -0.5577  3.1841 -2.0085
 5689SOL     OW28702   2.564   0.103   8.722  0.0262  0.5318  0.7912
 5689SOL    HW128703   2.636   0.142   8.772  1.2285  0.2363 -0.6885
 5689SOL    HW228704   2.491   0.153   8.758 -2.0178 -0.1241 -2.4040
 5690SOL     OW28705   4.683   0.804   1.717  0.2391 -1.0514 -0.3469
 5690SOL    HW128706   0.017   0.736   1.719  0.8988 -0.4523 -2.2145
 5690SOL    HW228707   4.605   0.748   1.720  0.0714 -0.7372  1.2758
 5691SOL     OW28708   3.924   1.745  13.029  0.0713  0.5634  0.1167
 5691SOL    HW128709   3.971   1.759  13.111 -0.5320  1.5400  0.2938
 5691SOL    HW228710   3.984   1.686  12.983 -1.5145 -2.3569  1.7927
 5692SOL     OW28711   2.389   4.467   5.482 -0.3764 -0.1605 -0.3158
 5692SOL    HW128712   2.470   4.510   5.456 -0.2797 -0.0531  0.1563
 5692SOL    HW228713   2.421   4.421   5.560  0.0298  1.4335  0.4474
 5693SOL     OW28714   3.129   0.720  13.340 -0.5732 -0.1353  0.0201
 5693SOL    HW128715   3.156   0.678  13.258  0.2087  1.3548 -0.4832
 5693SOL    HW228716   3.200   0.782  13.352 -1.7435  1.6024 -2.0136
 5694SOL     OW28717   1.190   4.084   1.334  0.7119  0.9710  0.2419
 5694SOL    HW128718   1.252   4.052   1.269  0.5088 -0.6667  0.8517
 5694SOL    HW228719   1.250   4.122   1.398  1.0304 -0.3398  0.7181
 5695SOL     OW28720   1.487   2.213  15.767  0.5959 -0.6011  1.0254
 5695SOL    HW128721   1.401   2.253  15.751 -0.0258 -2.3898 -0.1957
 5695SOL    HW228722   1.533   2.291  15.738  1.0096 -0.9606  0.7258
 5696SOL     OW28723   1.708   4.681   9.274  0.4364 -0.2716 -0.4042
 5696SOL    HW128724   1.705   4.719   9.186  0.1435 -1.5785 -0.9632
 5696SOL    HW228725   1.766   4.606   9.268 -0.1818 -0.6516 -1.6151
 5697SOL     OW28726   2.102   3.876   8.040 -0.2598 -0.0102 -0.1796
 5697SOL    HW128727   2.077   3.902   8.129 -2.1041 -0.9763 -0.4289
 5697SOL    HW228728   2.163   3.946   8.017 -1.5223  2.1785  3.1415
 5698SOL     OW28729   3.127   1.794  16.822  0.2155 -0.0387  0.1213
 5698SOL    HW128730   3.204   1.849  16.841  0.3757 -1.0069  2.2203
 5698SOL    HW228731   3.051   1.833  16.864  0.4837 -0.1169  0.6819
 5699SOL     OW28732   3.691   2.690   4.516  0.0304 -0.3411 -0.1696
 5699SOL    HW128733   3.672   2.649   4.599 -0.1250 -3.3725 -1.7129
 5699SOL    HW228734   3.683   2.606   4.472  0.9462 -0.2431 -0.5336
 5700SOL     OW28735   2.793   2.567   3.926  0.3168  0.2645  0.3502
 5700SOL    HW128736   2.751   2.481   3.934 -0.5697  0.6912  0.2059
 5700SOL    HW228737   2.852   2.542   3.998 -0.1524 -0.2268  0.5680
 5701SOL     OW28738   3.712   0.026  13.354 -1.0914 -0.0378 -0.9211
 5701SOL    HW128739   3.712   0.120  13.334 -3.9735 -0.0032 -0.8027
 5701SOL    HW228740   3.805   0.018  13.334 -1.3277  3.5443 -3.5617
 5702SOL     OW28741   0.982   3.471   4.358  0.2084 -0.6537  0.0097
 5702SOL    HW128742   0.901   3.430   4.391 -0.8837 -0.5303 -2.5123
 5702SOL    HW228743   0.971   3.566   4.358 -3.2447 -1.0595  1.2325
 5703SOL     OW28744   2.236   3.961   2.836  0.2322  0.1879  0.0432
 5703SOL    HW128745   2.331   3.952   2.837  0.1638 -0.4070  0.7851
 5703SOL    HW228746   2.228   4.051   2.867  1.5174  0.0599  0.7176
 5704SOL     OW28747   0.407   2.087   8.173 -0.3046  0.2006 -0.1761
 5704SOL    HW128748   0.392   1.993   8.171  1.8788 -0.1167 -0.8837
 5704SOL    HW228749   0.502   2.092   8.174 -0.2297 -1.9277  1.7489
 5705SOL     OW28750   3.097   1.450   3.592  0.4795  0.3515 -0.0523
 5705SOL    HW128751   3.149   1.527   3.569  0.1392  0.3400 -0.8755
 5705SOL    HW228752   3.024   1.457   3.531  1.2515 -3.1875 -1.3750
 5706SOL     OW28753   0.411   3.770  15.590 -0.0607  0.0264  0.1552
 5706SOL    HW128754   0.415   3.675  15.575  2.2818  0.0895  0.4636
 5706SOL    HW228755   0.380   3.767  15.681  0.8511  0.4531  0.4697
 5707SOL     OW28756   0.628   4.453   4.546  0.1672 -0.1126 -0.1467
 5707SOL    HW128757   0.615   4.528   4.487  3.0040  0.5456  0.0742
 5707SOL    HW228758   0.707   4.416   4.506 -1.5189 -0.4923 -3.1379
 5708SOL     OW28759   2.189   2.961   0.974  0.2054 -0.3423  0.6409
 5708SOL    HW128760   2.166   2.955   1.067  1.6453 -1.7689  0.9092
 5708SOL    HW228761   2.103   2.946   0.935  1.0928  0.7992 -1.7389
 5709SOL     OW28762   2.441   3.682   2.712 -0.0718 -0.0556 -0.0577
 5709SOL    HW128763   2.440   3.702   2.618 -0.1727 -1.6414 -0.3927
 5709SOL    HW228764   2.521   3.725   2.743 -0.9927  0.7233  1.1819
 5710SOL     OW28765   4.001   1.197  14.774  0.1565 -0.2162 -0.2817
 5710SOL    HW128766   4.031   1.250  14.700  2.0760 -0.3189  0.4075
 5710SOL    HW228767   4.061   1.122  14.769 -2.4549 -2.0611 -3.7756
 5711SOL     OW28768   3.281   3.557  17.255 -0.3207  1.2065 -0.4956
 5711SOL    HW128769   3.257   3.599  17.173  2.6172  2.5569 -0.6819
 5711SOL    HW228770   3.196   3.567  17.298  1.5672  1.9668  3.0727
 5712SOL     OW28771   4.041   0.543   8.425 -0.3030 -0.3352  0.0559
 5712SOL    HW128772   4.118   0.563   8.371 -1.3571 -1.0924 -1.7397
 5712SOL    HW228773   4.079   0.478   8.484 -0.5965 -0.9266 -0.4067
 5713SOL     OW28774   4.522   0.269   2.131 -0.3271  0.5517 -1.0560
 5713SOL    HW128775   4.511   0.190   2.079  0.2480 -0.8107  0.9051
 5713SOL    HW228776   4.551   0.325   2.060  2.0201  1.9390  0.9724
 5714SOL     OW28777   2.880   2.424   5.876  0.0624 -0.3296 -0.6975
 5714SOL    HW128778   2.909   2.496   5.933 -0.2679 -0.4621 -0.3617
 5714SOL    HW228779   2.932   2.355   5.917 -0.6225 -0.4107  0.0376
 5715SOL     OW28780   4.013   4.167   9.667 -0.4520  0.2881 -0.2926
 5715SOL    HW128781   4.029   4.127   9.752  0.5113  0.7990 -0.2328
 5715SOL    HW228782   3.980   4.089   9.622 -0.4660 -1.2374  2.3828
 5716SOL     OW28783   4.256   1.735   8.316  0.6359  0.2392 -0.1433
 5716SOL    HW128784   4.314   1.785   8.258 -0.2127  0.7085 -0.5910
 5716SOL    HW228785   4.313   1.674   8.362  2.7862  2.4100  0.0918
 5717SOL     OW28786   4.618   1.370   9.050 -0.8089 -0.2942  0.5087
 5717SOL    HW128787   4.663   1.290   9.077 -4.0905 -2.4783 -0.5159
 5717SOL    HW228788   4.572   1.396   9.130  1.0947  0.8470  1.2308
 5718SOL     OW28789   3.435   2.744   5.820  0.0042  0.2722  0.5597
 5718SOL    HW128790   3.477   2.830   5.820 -1.8276  1.1663  0.6871
 5718SOL    HW228791   3.498   2.684   5.859 -0.3449 -0.0505  0.6350
 5719SOL     OW28792   1.858   4.305  17.441 -0.0580 -0.3375 -0.0517
 5719SOL    HW128793   1.834   4.350  17.360 -0.4268 -1.3920 -0.5282
 5719SOL    HW228794   1.951   4.295  17.417  0.1307 -0.0696  0.5640
 5720SOL     OW28795   2.018   3.937   8.313 -0.9714  0.0006 -0.0821
 5720SOL    HW128796   1.991   4.006   8.374  3.1233  0.7121  0.9372
 5720SOL    HW228797   2.025   3.875   8.386 -0.3716 -0.7786 -0.8019
 5721SOL     OW28798   4.218   4.374   9.840 -0.3140 -0.1895 -0.0704
 5721SOL    HW128799   4.140   4.353   9.788  0.2683 -0.1743 -0.9387
 5721SOL    HW228800   4.220   4.308   9.909 -1.4377 -1.2961 -1.1056
 5722SOL     OW28801   1.697   2.590   7.254  0.3016 -0.6675 -0.1293
 5722SOL    HW128802   1.768   2.532   7.281  2.3600  0.2607 -3.5018
 5722SOL    HW228803   1.701   2.664   7.314 -0.5700 -0.7814  0.0668
 5723SOL     OW28804   3.807   0.723   6.950  0.3997  0.0932 -0.6842
 5723SOL    HW128805   3.871   0.700   6.883  0.2473  0.0134 -0.8040
 5723SOL    HW228806   3.843   0.803   6.989  1.5085  0.3866 -2.3188
 5724SOL     OW28807   0.582   3.068  12.700 -0.3054 -0.0082  0.1090
 5724SOL    HW128808   0.599   2.984  12.744  1.6605 -0.4889 -1.5410
 5724SOL    HW228809   0.667   3.111  12.691 -0.2302 -0.5335 -1.6365
 5725SOL     OW28810   2.475   1.778   8.030 -0.0628 -0.0243 -0.7504
 5725SOL    HW128811   2.439   1.768   7.942 -0.3343 -0.7030 -0.5632
 5725SOL    HW228812   2.422   1.715   8.079  0.7601  0.1060  0.3115
 5726SOL     OW28813   1.967   4.193   4.478  0.1653 -0.1598 -0.1337
 5726SOL    HW128814   2.054   4.228   4.496 -0.3757  0.7644  0.6979
 5726SOL    HW228815   1.942   4.235   4.395  2.3426  0.6575 -0.3881
 5727SOL     OW28816   3.024   3.362   6.813  0.3391 -0.9743 -0.0246
 5727SOL    HW128817   3.105   3.333   6.855 -0.2871 -2.1666  0.3671
 5727SOL    HW228818   2.970   3.283   6.821  0.8655 -1.3126  0.1432
 5728SOL     OW28819   2.016   1.790   5.475  0.4739  0.1198  0.0390
 5728SOL    HW128820   2.093   1.781   5.420  0.6326 -1.1521  0.4706
 5728SOL    HW228821   2.036   1.739   5.554 -0.2218 -0.3317 -0.0709
 5729SOL     OW28822   2.804   4.607   1.030  0.4269  0.7257  0.1536
 5729SOL    HW128823   2.753   4.676   1.071  0.5055  2.0824 -1.9876
 5729SOL    HW228824   2.828   4.556   1.107  0.5989 -0.2056 -0.5106
 5730SOL     OW28825   0.822   4.258   7.441  0.4771  0.1272  0.1816
 5730SOL    HW128826   0.914   4.263   7.417  0.5019 -1.1013  0.0077
 5730SOL    HW228827   0.813   4.190   7.509  1.1762  0.3760  0.5140
 5731SOL     OW28828   4.013   0.612   7.366  0.2631  0.2436 -0.0982
 5731SOL    HW128829   3.969   0.697   7.370 -2.7776 -1.4866  3.2676
 5731SOL    HW228830   4.049   0.625   7.278 -3.1195  1.5994 -1.2644
 5732SOL     OW28831   3.619   1.888  14.128 -0.7353 -0.1096 -0.0838
 5732SOL    HW128832   3.553   1.950  14.098 -1.1357 -0.2544  0.5161
 5732SOL    HW228833   3.656   1.869  14.041 -1.3707  0.1667 -0.4112
 5733SOL     OW28834   0.792   0.005   6.332  0.1191 -0.1628  0.2268
 5733SOL    HW128835   0.815   4.707   6.244  2.3355  1.5537  0.1643
 5733SOL    HW228836   0.756   0.093   6.324  0.8365 -0.0299 -1.6857
 5734SOL     OW28837   2.147   4.347   4.728 -0.3371 -0.4330 -0.2202
 5734SOL    HW128838   2.134   4.391   4.812  3.6272  0.4238 -0.0706
 5734SOL    HW228839   2.219   4.293   4.760  1.0820  0.8871 -1.2147
 5735SOL     OW28840   1.464   3.362   6.229 -0.0697  0.0480  0.5026
 5735SOL    HW128841   1.548   3.317   6.241  0.6225  1.6706  1.8354
 5735SOL    HW228842   1.493   3.448   6.259  0.9645 -0.3508  0.6516
 5736SOL     OW28843   1.609   4.508   2.146  0.2910 -0.2722  0.1064
 5736SOL    HW128844   1.539   4.458   2.187  0.3194  1.1121  1.8220
 5736SOL    HW228845   1.557   4.577   2.106 -0.9696 -1.5851 -0.5116
 5737SOL     OW28846   3.451   4.351   4.385  0.7337 -0.4415  0.2687
 5737SOL    HW128847   3.470   4.260   4.361  0.2569  0.1154 -2.1860
 5737SOL    HW228848   3.453   4.342   4.481 -1.8541  2.4085  0.5892
 5738SOL     OW28849   3.452   1.737   0.310  0.7094  0.0896 -0.1933
 5738SOL    HW128850   3.444   1.832   0.310 -1.6135 -0.1148  0.9704
 5738SOL    HW228851   3.546   1.729   0.292  0.5060  0.8389 -1.6264
 5739SOL     OW28852   0.668   0.915  10.021  0.9103 -0.3509  0.2138
 5739SOL    HW128853   0.690   0.849   9.954 -2.0891 -0.2808 -0.8380
 5739SOL    HW228854   0.621   0.990   9.986 -1.2035 -2.1185 -0.7841
 5740SOL     OW28855   1.545   2.403   7.044 -0.5346  0.2515 -0.3885
 5740SOL    HW128856   1.582   2.425   7.130 -0.6557  4.4736 -1.4176
 5740SOL    HW228857   1.457   2.440   7.051  0.0271  0.9769  2.9125
 5741SOL     OW28858   0.819   1.250   0.743 -0.5673  0.6747  0.0348
 5741SOL    HW128859   0.764   1.326   0.727 -0.7076  0.7622  0.9431
 5741SOL    HW228860   0.818   1.203   0.659  2.2535 -0.4597  0.6276
 5742SOL     OW28861   0.007   2.767  17.250  1.1171 -0.0587 -1.0187
 5742SOL    HW128862   4.654   2.800  17.228  1.2026  0.9435  0.1501
 5742SOL    HW228863   0.038   2.840  17.303 -1.5848  2.2932 -2.6715
 5743SOL     OW28864   3.241   2.208  14.369 -0.4638 -0.2195 -0.0722
 5743SOL    HW128865   3.262   2.115  14.373  1.3458  0.2367  0.6447
 5743SOL    HW228866   3.197   2.209  14.284  0.1823  0.0458 -0.4010
 5744SOL     OW28867   2.907   2.659   2.853  0.0729  0.4505 -0.0088
 5744SOL    HW128868   2.962   2.734   2.875  0.6256  0.2322 -0.6618
 5744SOL    HW228869   2.974   2.612   2.803 -0.2691  0.1049 -0.1405
 5745SOL     OW28870   0.472   1.594  13.532 -0.5215 -0.2931  0.2847
 5745SOL    HW128871   0.393   1.580  13.583 -0.0704  0.5207  1.2162
 5745SOL    HW228872   0.513   1.509  13.548 -1.1408 -0.0455  3.1144
 5746SOL     OW28873   4.268   3.277   9.308  0.0962  0.2271  0.7289
 5746SOL    HW128874   4.323   3.299   9.232  1.8870  0.8362  2.2065
 5746SOL    HW228875   4.343   3.258   9.364 -0.6731 -0.7315  1.4386
 5747SOL     OW28876   0.603   3.518   9.185  0.5973  0.8014  0.1552
 5747SOL    HW128877   0.550   3.592   9.155  0.4656 -0.3029 -2.3046
 5747SOL    HW228878   0.534   3.462   9.221  0.4601  1.3929  0.8244
 5748SOL     OW28879   2.350   2.652  10.181  0.3076  0.5597  0.0581
 5748SOL    HW128880   2.275   2.712  10.186  0.4897  0.7394  0.6645
 5748SOL    HW228881   2.365   2.643  10.275 -0.1491  1.3799  0.2162
 5749SOL     OW28882   0.387   3.935   2.261  0.0494  0.3045 -0.5171
 5749SOL    HW128883   0.303   3.981   2.258  0.9987  2.1053  0.4019
 5749SOL    HW228884   0.437   3.998   2.208 -0.1680 -0.9785 -2.2319
 5750SOL     OW28885   3.854   3.453  10.487 -0.2910  0.5360  0.4567
 5750SOL    HW128886   3.849   3.381  10.550  0.9541  0.6856  0.7386
 5750SOL    HW228887   3.912   3.413  10.422 -1.4157 -0.8222  0.3114
 5751SOL     OW28888   3.948   2.743   4.551 -0.8436  0.1579 -0.2760
 5751SOL    HW128889   3.854   2.724   4.548 -0.9216  0.1614  1.9818
 5751SOL    HW228890   3.955   2.822   4.605 -2.4878 -0.2962  0.5871
 5752SOL     OW28891   4.199   2.692   5.950  0.4788  0.0558 -0.0276
 5752SOL    HW128892   4.212   2.782   5.922  1.2493  0.2388  0.9064
 5752SOL    HW228893   4.252   2.641   5.889  0.1080  0.2926 -0.5405
 5753SOL     OW28894   3.293   4.276   9.256  0.1101 -0.0059 -0.7755
 5753SOL    HW128895   3.267   4.367   9.265 -1.1443 -0.5086  0.7021
 5753SOL    HW228896   3.272   4.252   9.346 -1.5788  1.2670 -0.8396
 5754SOL     OW28897   1.599   0.169   8.318 -0.2615 -0.0285 -0.5310
 5754SOL    HW128898   1.553   0.248   8.345  2.5424  0.8241  1.8077
 5754SOL    HW228899   1.641   0.177   8.233  0.1881 -1.1598 -0.4261
 5755SOL     OW28900   1.773   3.763   2.079  0.1779  0.7141  0.1050
 5755SOL    HW128901   1.775   3.856   2.104 -2.7855  0.3954  1.5736
 5755SOL    HW228902   1.853   3.764   2.027  1.1565 -0.0399  1.6101
 5756SOL     OW28903   1.767   1.921   0.354  0.0914  0.4426  0.2310
 5756SOL    HW128904   1.730   1.920   0.265  0.2930  2.0328  0.1414
 5756SOL    HW228905   1.852   1.958   0.330  0.0979  1.6548  2.2192
 5757SOL     OW28906   3.045   3.128   8.479 -0.1910 -0.0812 -0.0777
 5757SOL    HW128907   3.035   3.053   8.419 -0.8641 -2.0249  2.4619
 5757SOL    HW228908   3.139   3.128   8.496 -0.4326  0.3292  1.2126
 5758SOL     OW28909   3.734   3.171  15.881  0.2275  0.2722  0.0641
 5758SOL    HW128910   3.676   3.244  15.858 -0.0276  0.4620  1.3347
 5758SOL    HW228911   3.821   3.210  15.872  0.5966 -0.8926 -1.6070
 5759SOL     OW28912   3.309   2.669   7.385  0.0243  0.4440 -0.3543
 5759SOL    HW128913   3.380   2.715   7.429 -1.8436  0.9040  2.2301
 5759SOL    HW228914   3.351   2.605   7.328 -2.0453 -2.0688  0.9493
 5760SOL     OW28915   2.998   0.853   6.171 -0.7717 -0.3847  0.5188
 5760SOL    HW128916   3.060   0.786   6.200 -0.7416 -0.7109 -0.3172
 5760SOL    HW228917   2.911   0.812   6.176 -1.1728  0.3537 -0.4506
 5761SOL     OW28918   0.101   2.792   6.316 -0.4802  0.0923  0.1102
 5761SOL    HW128919   0.141   2.837   6.241 -1.1384  0.2762 -0.1327
 5761SOL    HW228920   0.021   2.752   6.283 -0.7257  0.4475  0.2723
 5762SOL     OW28921   3.393   2.045   8.071  0.5775 -0.4774 -0.8030
 5762SOL    HW128922   3.408   2.079   8.159 -1.7603  0.4984 -0.7735
 5762SOL    HW228923   3.410   2.120   8.013  0.2885  0.3682  0.2064
 5763SOL     OW28924   2.699   1.279   8.819  0.0846  0.1004 -0.8496
 5763SOL    HW128925   2.730   1.368   8.835 -0.8637 -0.4230  3.6756
 5763SOL    HW228926   2.616   1.292   8.773  0.2967  1.0507 -0.9613
 5764SOL     OW28927   2.092   0.121   8.532 -0.2649  0.5195 -0.0685
 5764SOL    HW128928   2.140   0.204   8.521 -0.5820  0.6292 -0.5989
 5764SOL    HW228929   2.002   0.152   8.543  0.1899  2.0378 -0.5240
 5765SOL     OW28930   1.238   4.565   1.983  0.3941  0.0275  0.5268
 5765SOL    HW128931   1.250   4.616   1.903 -0.4107 -0.8882 -0.1827
 5765SOL    HW228932   1.173   4.605   2.041 -0.0085 -0.8475  0.6764
 5766SOL     OW28933   3.905   1.809   4.830  0.3501 -0.1314 -0.6868
 5766SOL    HW128934   3.930   1.841   4.744  0.1380  2.3676  0.1745
 5766SOL    HW228935   3.876   1.720   4.813 -1.2155  0.4785 -1.1869
 5767SOL     OW28936   2.946   0.371   4.855 -0.3489  0.1724 -0.2475
 5767SOL    HW128937   3.005   0.393   4.927 -0.1395  1.1997 -0.7371
 5767SOL    HW228938   2.863   0.373   4.902 -0.0549  1.7024  0.1737
 5768SOL     OW28939   2.487   3.533   1.946 -0.0168 -0.4486  0.1108
 5768SOL    HW128940   2.482   3.438   1.945  0.3792 -0.4845  1.1909
 5768SOL    HW228941   2.559   3.538   1.884  0.4023  0.9175  0.6978
 5769SOL     OW28942   3.374   1.069   9.038 -0.0631  0.2517 -0.1276
 5769SOL    HW128943   3.331   1.149   9.071 -0.3351 -0.6499  1.6609
 5769SOL    HW228944   3.380   1.091   8.945 -2.8276  0.1909 -0.3452
 5770SOL     OW28945   0.571   3.797   2.918  0.1514 -0.0380 -0.6327
 5770SOL    HW128946   0.608   3.874   2.961 -2.1700  0.2626  0.8353
 5770SOL    HW228947   0.511   3.772   2.989  0.6592 -1.2732 -0.6501
 5771SOL     OW28948   0.457   3.249   9.236 -0.3227 -0.1152  0.4585
 5771SOL    HW128949   0.386   3.200   9.277 -0.5271 -0.0629  0.1685
 5771SOL    HW228950   0.456   3.319   9.300  1.2365  2.1095 -1.9610
 5772SOL     OW28951   2.072   3.030   6.494 -0.1421  0.5313 -0.0730
 5772SOL    HW128952   2.022   3.065   6.420 -0.7218  0.1852  0.1589
 5772SOL    HW228953   2.059   3.103   6.555 -0.7169  0.1662  0.2348
 5773SOL     OW28954   2.994   3.661  11.081  0.2969  0.1430  0.0776
 5773SOL    HW128955   2.910   3.626  11.110  0.9734 -0.8114  0.8687
 5773SOL    HW228956   3.001   3.738  11.137 -1.2567  1.3732 -1.3972
 5774SOL     OW28957   1.576   2.633   7.700  0.3430  0.2710 -0.7741
 5774SOL    HW128958   1.635   2.618   7.626 -0.9048 -0.4496 -1.6293
 5774SOL    HW228959   1.592   2.561   7.761 -1.8535 -0.2985 -0.8857
 5775SOL     OW28960   4.160   1.547   6.226  0.1165 -0.2441 -0.3893
 5775SOL    HW128961   4.202   1.461   6.222  0.5970 -0.0671  0.8738
 5775SOL    HW228962   4.226   1.604   6.266 -0.5772  0.8385 -0.7818
 5776SOL     OW28963   3.278   2.885  10.104  0.2018 -0.0992 -0.5963
 5776SOL    HW128964   3.275   2.980  10.111  2.3270 -0.3787  4.2329
 5776SOL    HW228965   3.291   2.860  10.196  1.7698  2.2434 -0.1852
 5777SOL     OW28966   0.796   0.861   4.315  0.0578  0.2932  0.2685
 5777SOL    HW128967   0.801   0.806   4.237  0.7851 -1.5633  1.6040
 5777SOL    HW228968   0.840   0.807   4.382  1.2726  2.8287  1.5115
 5778SOL     OW28969   2.130   3.616   6.561  0.1032 -0.0598  0.5725
 5778SOL    HW128970   2.190   3.653   6.496  0.0426 -0.5591  0.2251
 5778SOL    HW228971   2.067   3.568   6.507 -0.0810  0.8712 -0.0306
 5779SOL     OW28972   3.673   3.695   2.429 -0.3306 -0.0331  0.3100
 5779SOL    HW128973   3.597   3.653   2.470  0.0480 -1.5739 -0.5743
 5779SOL    HW228974   3.741   3.638   2.464  0.1519  1.6781  2.1652
 5780SOL     OW28975   0.877   2.962  14.727  0.7724  0.5685 -0.2625
 5780SOL    HW128976   0.922   2.957  14.643  1.3182 -3.3101  0.2576
 5780SOL    HW228977   0.792   2.935  14.693  1.7053 -0.5653 -1.6786
 5781SOL     OW28978   0.234   1.286   9.415 -0.3746  0.0540  0.1699
 5781SOL    HW128979   0.216   1.371   9.455 -1.5475  0.6769 -1.6928
 5781SOL    HW228980   0.212   1.303   9.324  1.6803  1.5950 -0.0057
 5782SOL     OW28981   3.452   3.916   0.858 -0.2246  0.1985 -0.1836
 5782SOL    HW128982   3.483   3.983   0.918  0.7866 -0.3405 -0.0937
 5782SOL    HW228983   3.439   3.845   0.920 -1.9326  1.7912  1.2629
 5783SOL     OW28984   2.607   0.764   1.579  0.3361 -0.6805  0.4430
 5783SOL    HW128985   2.636   0.688   1.629 -1.3497 -1.5960 -0.0041
 5783SOL    HW228986   2.638   0.839   1.631 -0.2512 -1.6701  2.2006
 5784SOL     OW28987   1.743   0.906   8.520  0.1323 -0.1257  0.9332
 5784SOL    HW128988   1.767   0.829   8.469 -0.1775 -0.1245  0.7879
 5784SOL    HW228989   1.649   0.905   8.537 -0.2138 -0.8800 -1.0023
 5785SOL     OW28990   2.262   3.385   3.202  0.3903  0.4361  0.2736
 5785SOL    HW128991   2.264   3.450   3.271 -2.4601 -0.1751  0.9644
 5785SOL    HW228992   2.182   3.337   3.225  1.1630 -0.3474  1.3269
 5786SOL     OW28993   3.932   3.339   5.391 -0.2446  0.4621  0.1791
 5786SOL    HW128994   3.880   3.357   5.313  0.1754 -1.2612 -0.4813
 5786SOL    HW228995   4.021   3.326   5.359  0.1109 -2.4677  2.4097
 5787SOL     OW28996   0.909   0.173   4.458 -0.8333  0.5782  0.2786
 5787SOL    HW128997   0.957   0.207   4.533 -0.1716 -1.0994  0.6080
 5787SOL    HW228998   0.864   0.247   4.416  0.5616 -0.0848 -2.3902
 5788SOL     OW28999   1.039   4.284   7.227 -1.0604 -0.2807 -0.0292
 5788SOL    HW129000   1.068   4.287   7.136  0.9286  1.3662  0.6515
 5788SOL    HW229001   0.970   4.220   7.209  0.5652 -1.2938 -2.6054
 5789SOL     OW29002   0.573   0.952   5.416  0.3802 -0.3052  0.2746
 5789SOL    HW129003   0.597   0.931   5.506 -0.9172 -1.9371  0.2386
 5789SOL    HW229004   0.556   0.875   5.362  1.1251 -1.0157  1.0521
 5790SOL     OW29005   1.039   1.214  17.425 -0.3038 -0.0802 -0.4290
 5790SOL    HW129006   1.044   1.169  17.341 -2.8294 -0.4929 -0.3642
 5790SOL    HW229007   0.963   1.268  17.402  1.5320  2.0114 -1.7135
 5791SOL     OW29008   1.982   0.485   1.416 -0.1038  0.5324 -0.3149
 5791SOL    HW129009   1.982   0.543   1.492 -1.4080 -1.2428  1.0555
 5791SOL    HW229010   1.991   0.407   1.471  1.8517  1.3547  0.4981
 5792SOL     OW29011   1.373   4.329   1.924  0.1122  0.0413  0.5116
 5792SOL    HW129012   1.343   4.404   1.976 -2.3168  0.9037 -2.1592
 5792SOL    HW229013   1.325   4.334   1.842  0.6399 -1.8741  0.0937
 5793SOL     OW29014   0.623   1.545   3.486  0.8868 -0.4403  0.0026
 5793SOL    HW129015   0.595   1.600   3.413 -1.0847 -0.9650  0.3596
 5793SOL    HW229016   0.636   1.613   3.551  1.5353 -1.1744  0.6355
 5794SOL     OW29017   2.839   2.077   7.501 -0.3543 -0.4907  0.4179
 5794SOL    HW129018   2.791   2.124   7.433  1.0243 -1.9806 -1.5518
 5794SOL    HW229019   2.819   2.141   7.570 -1.8048 -1.7863  1.1974
 5795SOL     OW29020   2.310   0.456   6.302  0.2531  0.2122  1.0641
 5795SOL    HW129021   2.382   0.448   6.239 -0.7704  1.7844 -0.3271
 5795SOL    HW229022   2.238   0.456   6.238  0.6752 -0.7689  0.5880
 5796SOL     OW29023   1.055   1.196   0.212  0.2786  0.2144  0.0655
 5796SOL    HW129024   1.041   1.213   0.119  0.7335  0.1841 -0.0092
 5796SOL    HW229025   1.009   1.275   0.241 -1.3867 -0.6632 -0.2021
 5797SOL     OW29026   3.882   2.487   9.825 -0.0244 -0.2018  0.2327
 5797SOL    HW129027   3.840   2.422   9.769 -0.5125 -0.0310  0.3978
 5797SOL    HW229028   3.877   2.572   9.780 -2.1842 -0.9506 -0.9382
 5798SOL     OW29029   4.266   3.898   1.969 -0.1558 -0.1452 -0.3359
 5798SOL    HW129030   4.319   3.924   1.894 -0.2256 -0.5390 -0.5220
 5798SOL    HW229031   4.264   3.803   1.958  1.9194 -0.0594 -1.3643
 5799SOL     OW29032   2.265   1.043   6.004 -0.0811 -0.6250  0.1680
 5799SOL    HW129033   2.219   1.110   5.954  0.2553 -2.0984 -2.0784
 5799SOL    HW229034   2.353   1.080   6.005 -0.9735  1.4494  1.4989
 5800SOL     OW29035   2.323   2.759   7.768 -0.1521  0.4266 -0.3789
 5800SOL    HW129036   2.398   2.725   7.819 -0.7618 -1.3130 -0.6331
 5800SOL    HW229037   2.333   2.854   7.763  1.7198  0.2378 -0.3987
 5801SOL     OW29038   1.306   2.235   2.562  0.0076  0.5077 -0.6143
 5801SOL    HW129039   1.389   2.245   2.608  1.1623 -2.7196 -2.0444
 5801SOL    HW229040   1.303   2.148   2.524  2.2428  0.7240 -1.2317
 5802SOL     OW29041   2.049   0.414   6.447  0.4017  0.2771  0.7641
 5802SOL    HW129042   2.096   0.436   6.366 -0.6379 -0.5601 -0.0720
 5802SOL    HW229043   2.085   0.329   6.473 -3.7634 -1.1678  1.7998
 5803SOL     OW29044   4.442   1.241   9.289  0.4981  0.1646  0.1091
 5803SOL    HW129045   4.507   1.183   9.331  1.6836  0.8220 -0.8161
 5803SOL    HW229046   4.388   1.183   9.236  0.5677  0.8026 -0.6503
 5804SOL     OW29047   3.589   3.541   0.756 -0.3186  0.4126  0.1052
 5804SOL    HW129048   3.565   3.561   0.847 -1.6854  1.8481 -0.5753
 5804SOL    HW229049   3.682   3.519   0.764  0.5006  1.8829 -5.3865
 5805SOL     OW29050   0.625   0.279   4.846  0.1054  0.1864 -0.1732
 5805SOL    HW129051   0.633   0.331   4.766 -1.8441 -0.6443 -0.9028
 5805SOL    HW229052   0.692   0.211   4.840 -1.0111 -1.0803  1.5867
 5806SOL     OW29053   2.621   0.567   4.366  0.1067  0.5858  0.8008
 5806SOL    HW129054   2.619   0.662   4.352 -0.5508  0.6450  1.3394
 5806SOL    HW229055   2.609   0.524   4.281  1.1718  0.9236  0.4698
 5807SOL     OW29056   4.117   3.387   4.808 -0.8555 -0.4850 -0.4184
 5807SOL    HW129057   4.161   3.428   4.882 -2.7427  0.5657  0.1425
 5807SOL    HW229058   4.189   3.375   4.747  0.6166  0.5707  1.1285
 5808SOL     OW29059   4.564   4.627   4.203  0.3907  0.2116  0.6319
 5808SOL    HW129060   4.660   4.632   4.198  0.3036  1.3067  0.1332
 5808SOL    HW229061   4.545   4.715   4.171 -0.7634 -0.3112 -0.1165
 5809SOL     OW29062   4.436   1.784   2.530 -0.6860 -0.5692 -0.3436
 5809SOL    HW129063   4.499   1.753   2.466  0.6596  2.8258 -0.6394
 5809SOL    HW229064   4.358   1.730   2.515 -0.0707 -1.6803  0.4802
 5810SOL     OW29065   3.449   4.212  17.532 -0.1529  0.1054 -0.0606
 5810SOL    HW129066   3.537   4.251  17.532  0.3610 -1.0539  1.8927
 5810SOL    HW229067   3.452   4.139  17.470  3.1127  0.0110  0.2185
 5811SOL     OW29068   4.597   1.694   3.929 -0.3529  0.2472 -0.1463
 5811SOL    HW129069   4.669   1.740   3.886 -0.0454  0.7264  0.8866
 5811SOL    HW229070   4.641   1.690   4.014 -0.8425  0.1092  0.1011
 5812SOL     OW29071   0.018   1.685   6.330 -0.5490 -0.4213 -0.0039
 5812SOL    HW129072   0.109   1.657   6.322 -1.1210 -1.6261 -2.3410
 5812SOL    HW229073   0.027   1.715   6.420 -1.7965 -0.9991  0.3110
 5813SOL     OW29074   3.339   4.412   6.662  0.4842 -0.7126  0.3837
 5813SOL    HW129075   3.338   4.507   6.674 -0.1106 -0.7799  0.8652
 5813SOL    HW229076   3.388   4.378   6.737  1.0003  1.1712  0.8920
 5814SOL     OW29077   2.293   1.600   8.142 -0.5575 -0.2319 -0.1907
 5814SOL    HW129078   2.303   1.527   8.081 -0.0272 -2.1840  2.2438
 5814SOL    HW229079   2.338   1.562   8.218 -2.3151 -1.3164  0.3123
 5815SOL     OW29080   2.012   3.697  15.247  0.4486 -0.0667  0.1576
 5815SOL    HW129081   2.022   3.792  15.250 -1.3561  0.1003  0.6050
 5815SOL    HW229082   2.102   3.666  15.234  0.2690 -0.1253 -0.9661
 5816SOL     OW29083   4.578   4.117  11.998 -0.0124 -0.2381  0.0490
 5816SOL    HW129084   4.654   4.139  11.943  0.7003 -0.7331  0.8369
 5816SOL    HW229085   4.609   4.139  12.086 -1.4009 -0.2459  0.5324
 5817SOL     OW29086   2.343   4.391   9.130 -0.1416  0.4209  0.1305
 5817SOL    HW129087   2.389   4.411   9.212  0.1823  3.6337 -0.8209
 5817SOL    HW229088   2.339   4.476   9.087 -1.4107  0.4140  0.2478
 5818SOL     OW29089   4.343   2.852   0.502 -0.0114 -1.3824 -0.2626
 5818SOL    HW129090   4.429   2.813   0.517  1.4932  1.2063 -1.9950
 5818SOL    HW229091   4.301   2.830   0.584  1.4849  0.0532  0.9003
 5819SOL     OW29092   2.254   4.143  11.772 -0.0042 -0.2134  0.0744
 5819SOL    HW129093   2.214   4.202  11.708 -0.3647 -1.3105 -0.6976
 5819SOL    HW229094   2.337   4.123  11.730 -0.1299 -0.1797 -0.1861
 5820SOL     OW29095   2.668   1.324   2.220  0.5276  0.4422 -0.6760
 5820SOL    HW129096   2.713   1.250   2.179  0.4241  1.0673 -1.9272
 5820SOL    HW229097   2.737   1.384   2.248  1.2494  0.0079 -1.5345
 5821SOL     OW29098   3.977   1.114   3.140 -0.5808 -0.9190 -0.7843
 5821SOL    HW129099   3.885   1.140   3.144  0.1804  1.1993  2.5656
 5821SOL    HW229100   3.997   1.110   3.233 -0.7277  0.5110 -0.6863
 5822SOL     OW29101   2.818   4.427   7.859 -0.5719  0.3269 -1.0761
 5822SOL    HW129102   2.808   4.441   7.765 -0.7566  0.5391 -1.0268
 5822SOL    HW229103   2.759   4.357   7.890  1.4857 -2.0039 -2.4024
 5823SOL     OW29104   3.532   3.723   2.804 -0.1459 -0.1819 -0.2093
 5823SOL    HW129105   3.556   3.786   2.872 -4.7254  3.0763 -1.5642
 5823SOL    HW229106   3.611   3.670   2.794 -0.0547 -0.0307 -0.2862
 5824SOL     OW29107   2.867   0.663   1.963  0.6487  0.1008  0.4656
 5824SOL    HW129108   2.897   0.652   2.053  0.8536 -0.1066  0.3691
 5824SOL    HW229109   2.862   0.575   1.926  1.5183  1.1068 -2.0696
 5825SOL     OW29110   1.712   0.736   5.413 -0.4698  0.3558  0.0704
 5825SOL    HW129111   1.726   0.798   5.342 -1.2966  0.5272  0.0602
 5825SOL    HW229112   1.657   0.787   5.472 -3.2868 -1.7730 -0.7242
 5826SOL     OW29113   2.768   0.151  11.991 -0.0652  0.1026 -0.1669
 5826SOL    HW129114   2.856   0.125  12.016 -1.1516 -2.6417  0.7039
 5826SOL    HW229115   2.797   0.230  11.944  0.3124  0.5079  0.7428
 5827SOL     OW29116   2.270   2.067  15.285 -0.3882 -0.5136 -0.3952
 5827SOL    HW129117   2.335   2.013  15.240 -0.6953 -1.2447  0.0288
 5827SOL    HW229118   2.185   2.032  15.258  0.5579 -3.7949  0.8446
 5828SOL     OW29119   1.950   4.333  10.267  0.3256 -0.0246  0.0992
 5828SOL    HW129120   1.920   4.402  10.327 -0.3371  0.4739 -0.7988
 5828SOL    HW229121   1.885   4.351  10.199  0.7696  0.8379 -0.0968
 5829SOL     OW29122   0.825   2.055   0.760  0.1374  0.1320  0.0648
 5829SOL    HW129123   0.757   2.107   0.802  0.5122 -0.2835  1.1877
 5829SOL    HW229124   0.904   2.074   0.811 -0.0202 -2.2045  1.2095
 5830SOL     OW29125   2.301   3.513   4.171  0.4087 -0.1717 -0.1867
 5830SOL    HW129126   2.317   3.529   4.078 -1.0003  2.1054 -0.0231
 5830SOL    HW229127   2.307   3.604   4.201 -0.9800  0.1258 -0.8265
 5831SOL     OW29128   0.216   0.454   4.391  0.3207  0.0335 -1.1055
 5831SOL    HW129129   0.265   0.528   4.355  0.6139  0.1529 -0.4578
 5831SOL    HW229130   0.153   0.493   4.451  1.0004  1.3536 -1.2599
 5832SOL     OW29131   4.196   1.841  12.579  0.2581 -0.1529  0.2595
 5832SOL    HW129132   4.184   1.888  12.662 -0.2915  0.0687  0.0606
 5832SOL    HW229133   4.177   1.750  12.604  0.9233 -0.9196 -2.0463
 5833SOL     OW29134   2.879   0.993  13.321  0.5568 -0.1255 -0.0509
 5833SOL    HW129135   2.901   1.055  13.251  1.8440 -0.1212  0.3450
 5833SOL    HW229136   2.927   1.029  13.396 -1.0743 -0.2769  1.0662
 5834SOL     OW29137   4.139   1.338   3.100  0.2355 -0.4725 -0.1293
 5834SOL    HW129138   4.229   1.306   3.110 -0.0427 -0.9247  0.9107
 5834SOL    HW229139   4.090   1.256   3.102  0.7411 -0.7637  0.4376
 5835SOL     OW29140   1.820   4.211   2.935 -0.0276 -0.9587  0.1487
 5835SOL    HW129141   1.800   4.219   2.841 -1.9160  1.1636  0.7332
 5835SOL    HW229142   1.758   4.143   2.961  0.6447 -1.9601 -0.8884
 5836SOL     OW29143   2.054   4.632   9.169 -0.0476 -0.4083  0.4597
 5836SOL    HW129144   2.103   4.622   9.251 -0.8389 -0.1641  0.9733
 5836SOL    HW229145   1.986   4.567   9.186  0.8047 -0.9345  1.8586
 5837SOL     OW29146   0.337   0.622   8.716  0.7830 -0.2642  0.0433
 5837SOL    HW129147   0.347   0.709   8.755 -0.5841  1.1551 -2.7847
 5837SOL    HW229148   0.243   0.602   8.712  0.8709 -0.9793  1.3279
 5838SOL     OW29149   1.900   2.554   8.034  0.1823 -0.3625 -0.1132
 5838SOL    HW129150   1.976   2.605   8.008 -0.2104 -0.4318 -1.4464
 5838SOL    HW229151   1.901   2.496   7.957  1.5893  0.7458 -0.9361
 5839SOL     OW29152   0.716   1.736   3.673  0.6857 -0.0303 -0.0888
 5839SOL    HW129153   0.647   1.738   3.739 -0.6339  1.2389 -1.5125
 5839SOL    HW229154   0.757   1.657   3.707 -0.2240 -0.6339 -0.4131
 5840SOL     OW29155   4.006   2.259   9.290 -0.3679 -0.1054 -0.7043
 5840SOL    HW129156   4.031   2.168   9.306 -0.9126 -0.2861 -0.8844
 5840SOL    HW229157   4.016   2.291   9.380 -0.3880 -1.0134 -0.3769
 5841SOL     OW29158   0.037   2.208   6.110  0.2839  0.6059  0.3567
 5841SOL    HW129159   4.713   2.261   6.165  1.4666  0.7635  1.4523
 5841SOL    HW229160   4.722   2.232   6.031  0.0978  1.7197  0.8135
 5842SOL     OW29161   4.063   2.961   7.986 -0.2902  0.0018  0.3030
 5842SOL    HW129162   3.968   2.948   7.986 -0.1990 -0.6993 -0.0131
 5842SOL    HW229163   4.077   3.055   7.996  2.0930 -0.6049  2.4562
 5843SOL     OW29164   1.515   1.834   0.399 -0.0853 -0.7074  0.8004
 5843SOL    HW129165   1.605   1.839   0.368 -0.8316  1.2197 -1.0744
 5843SOL    HW229166   1.529   1.774   0.472 -1.3850 -1.1294  0.7069
 5844SOL     OW29167   1.641   4.298   7.437 -0.6734  0.3032  0.4410
 5844SOL    HW129168   1.637   4.249   7.354  1.0616 -0.0377  0.5677
 5844SOL    HW229169   1.618   4.386   7.409 -1.5072  0.6007  2.1159
 5845SOL     OW29170   3.005   1.147   1.682 -0.2835  0.6713 -0.3093
 5845SOL    HW129171   3.095   1.178   1.686 -0.0692 -0.1840  1.2815
 5845SOL    HW229172   3.011   1.070   1.737  1.6452  1.1265  0.1258
 5846SOL     OW29173   2.394   2.258  15.041 -0.0347  0.0383 -0.3111
 5846SOL    HW129174   2.329   2.289  15.104  0.8900 -0.4018  0.8530
 5846SOL    HW229175   2.345   2.182  15.010  2.0460 -1.3132 -0.3008
 5847SOL     OW29176   4.637   1.752   2.322  0.0612  0.5310  0.1440
 5847SOL    HW129177   4.699   1.766   2.251  0.7264  0.4043  0.6934
 5847SOL    HW229178   4.665   1.820   2.384  1.3549  0.6799 -0.5897
 5848SOL     OW29179   2.530   1.526   4.026 -0.2280 -0.3483  0.2178
 5848SOL    HW129180   2.524   1.615   4.058  2.6367 -0.6212  1.5890
 5848SOL    HW229181   2.476   1.528   3.947  1.5661 -3.4779 -1.1325
 5849SOL     OW29182   4.584   3.786   7.759  0.6687  0.2562 -0.2929
 5849SOL    HW129183   4.532   3.832   7.693  2.4877 -0.4297 -2.2167
 5849SOL    HW229184   4.534   3.792   7.841  1.4381 -1.4188  0.2947
 5850SOL     OW29185   0.331   3.660   7.488 -0.2475  0.1613  0.1267
 5850SOL    HW129186   0.303   3.743   7.451 -1.1473 -0.3045 -0.2277
 5850SOL    HW229187   0.366   3.675   7.576 -1.6878  1.2451  0.4975
 5851SOL     OW29188   3.870   0.880   9.302 -0.5134 -0.0484  0.8691
 5851SOL    HW129189   3.925   0.854   9.376  1.2969 -0.4166 -0.6146
 5851SOL    HW229190   3.899   0.971   9.301  0.3642 -0.3355 -0.1081
 5852SOL     OW29191   3.867   0.461   6.437 -0.3613 -0.1194  0.2124
 5852SOL    HW129192   3.803   0.393   6.416  1.6063 -1.5952 -1.0799
 5852SOL    HW229193   3.943   0.415   6.473 -1.0868 -1.3805  0.1500
 5853SOL     OW29194   3.763   2.247   8.821  0.0787 -0.1684  0.1469
 5853SOL    HW129195   3.795   2.233   8.910  1.2263  0.3266 -0.1785
 5853SOL    HW229196   3.762   2.157   8.790 -0.9313 -0.3150  0.6318
 5854SOL     OW29197   1.589   0.461   4.808  0.4975 -0.4456  0.2713
 5854SOL    HW129198   1.539   0.540   4.826  1.2531  0.4286 -1.5085
 5854SOL    HW229199   1.587   0.411   4.890 -0.8408  1.1612  1.2169
 5855SOL     OW29200   4.563   1.060   9.442 -0.2945  0.2634  0.1665
 5855SOL    HW129201   4.658   1.068   9.451  0.0792  0.5141 -3.7186
 5855SOL    HW229202   4.565   0.979   9.391 -1.5724 -0.4637  1.2590
 5856SOL     OW29203   1.668   3.796   8.848 -0.0460 -0.6742  0.2309
 5856SOL    HW129204   1.743   3.807   8.790 -0.2409 -2.2075 -0.3039
 5856SOL    HW229205   1.706   3.855   8.914 -1.0058  0.9612 -0.6813
 5857SOL     OW29206   0.901   0.803   8.374 -0.5327 -0.3295  0.5619
 5857SOL    HW129207   0.896   0.765   8.286 -0.1226 -0.3137  0.5330
 5857SOL    HW229208   0.958   0.740   8.418 -0.4621 -0.5751  0.1196
 5858SOL     OW29209   0.468   4.698   3.483  0.0970  0.0695  0.0970
 5858SOL    HW129210   0.477   4.674   3.391 -1.8585  0.7796 -0.2751
 5858SOL    HW229211   0.373   4.698   3.497  0.4809 -4.1764  2.8451
 5859SOL     OW29212   4.031   4.365   7.568  0.2005  0.1534  0.4541
 5859SOL    HW129213   4.034   4.452   7.608 -0.3222  0.9920 -1.3274
 5859SOL    HW229214   3.964   4.331   7.628 -0.9030 -0.1988 -0.9824
 5860SOL     OW29215   1.505   3.078   7.640 -0.6043 -0.1035 -0.3767
 5860SOL    HW129216   1.594   3.042   7.646 -1.5136 -2.3650 -0.2888
 5860SOL    HW229217   1.497   3.065   7.545  1.7711  2.3259 -0.9146
 5861SOL     OW29218   3.185   4.028   4.198  0.2980 -0.8669 -0.2046
 5861SOL    HW129219   3.173   4.055   4.289  0.1755  2.9089 -1.3439
 5861SOL    HW229220   3.172   4.110   4.150  2.1471 -0.4341  0.0257
 5862SOL     OW29221   0.437   1.500   2.542 -0.1483  0.3478  0.2422
 5862SOL    HW129222   0.367   1.456   2.494 -0.8439  1.2767  0.4142
 5862SOL    HW229223   0.457   1.439   2.614  2.7501  3.1222  1.7853
 5863SOL     OW29224   0.052   2.104   9.517  0.0344  0.4295 -0.0668
 5863SOL    HW129225   0.082   2.130   9.604 -2.5924 -0.6163  1.1594
 5863SOL    HW229226   4.720   2.171   9.501 -2.4013 -2.0811 -0.6758
 5864SOL     OW29227   3.873   1.586   0.382 -0.2401 -0.1434  0.6700
 5864SOL    HW129228   3.958   1.622   0.356 -1.2439  3.1513  2.0013
 5864SOL    HW229229   3.912   1.505   0.417 -0.5213 -0.1448  0.9790
 5865SOL     OW29230   4.049   4.154  13.162 -0.3144 -0.3822 -0.4785
 5865SOL    HW129231   4.123   4.214  13.160 -0.3704 -0.2888  0.1554
 5865SOL    HW229232   4.004   4.185  13.241  0.2354 -1.8452  0.4142
 5866SOL     OW29233   0.185   2.844   0.993  0.1267 -0.2076  0.0363
 5866SOL    HW129234   0.108   2.872   1.043 -0.0128 -0.2630 -0.1502
 5866SOL    HW229235   0.240   2.921   0.984  1.2267 -0.6167  3.2972
 5867SOL     OW29236   0.122   1.792   6.882  0.2736 -0.3427  0.3199
 5867SOL    HW129237   0.040   1.745   6.898  0.1678 -0.4030 -0.3835
 5867SOL    HW229238   0.140   1.830   6.968  1.1944 -1.1630  0.4881
 5868SOL     OW29239   4.295   0.361   1.772  0.4432 -0.3715  0.0271
 5868SOL    HW129240   4.333   0.275   1.755 -0.8614 -0.6361 -1.6446
 5868SOL    HW229241   4.290   0.397   1.683 -0.5806 -1.2836 -0.2863
 5869SOL     OW29242   2.885   0.000   7.321 -0.0514  0.2535 -0.2171
 5869SOL    HW129243   2.921   0.068   7.264  1.2394  0.5448  0.9483
 5869SOL    HW229244   2.937   4.661   7.288 -2.2696 -1.5035  0.1140
 5870SOL     OW29245   3.934   3.169   0.704 -0.2273  0.1311  0.1347
 5870SOL    HW129246   3.910   3.194   0.614 -0.4879  0.4317  0.2837
 5870SOL    HW229247   3.962   3.080   0.687 -0.0253 -0.0729  1.5273
 5871SOL     OW29248   4.473   1.171   5.490 -0.2259  0.3811  0.6493
 5871SOL    HW129249   4.417   1.146   5.417 -0.6189 -1.6756  1.6488
 5871SOL    HW229250   4.500   1.086   5.524  3.3174  1.5547  0.6890
 5872SOL     OW29251   4.497   2.683   7.116  0.0482  0.1074  0.0321
 5872SOL    HW129252   4.465   2.760   7.161 -2.0850  0.3770 -1.9317
 5872SOL    HW229253   4.560   2.722   7.055 -0.1836  1.2333  0.5153
 5873SOL     OW29254   3.710   4.657   7.004  0.0704 -0.9937 -0.2012
 5873SOL    HW129255   3.753   4.712   7.070  0.5001 -1.5593 -0.0051
 5873SOL    HW229256   3.776   4.587   7.008 -1.2689 -2.3755 -2.1780
 5874SOL     OW29257   4.537   0.425   4.218  0.2720  0.1349  0.5694
 5874SOL    HW129258   4.546   0.506   4.268 -1.8102 -0.0424  1.2502
 5874SOL    HW229259   4.442   0.426   4.206  0.5284 -0.0673 -1.4689
 5875SOL     OW29260   0.615   1.862   6.869  0.2646  0.5301  0.0169
 5875SOL    HW129261   0.542   1.923   6.854  1.4168  1.4533 -1.8076
 5875SOL    HW229262   0.681   1.915   6.825  1.4027  1.7339  3.1772
 5876SOL     OW29263   3.806   0.127   8.224 -0.1169  0.7682  0.0215
 5876SOL    HW129264   3.854   0.132   8.141  2.1809 -3.6061  1.0881
 5876SOL    HW229265   3.847   0.195   8.277  1.8237  1.1898 -2.0235
 5877SOL     OW29266   4.304   2.946   5.902 -0.3951 -0.0892  0.9171
 5877SOL    HW129267   4.272   2.966   5.814  0.6165  2.0557  1.0399
 5877SOL    HW229268   4.337   3.028   5.938  1.4263 -0.9943  1.3208
 5878SOL     OW29269   3.898   4.156   9.289  0.0220  0.0485 -0.0440
 5878SOL    HW129270   3.860   4.093   9.351 -0.0236  2.0584  1.9761
 5878SOL    HW229271   3.989   4.126   9.290  0.3585  1.1043  1.7217
 5879SOL     OW29272   3.014   1.220  10.791 -0.4790  0.3709 -0.4533
 5879SOL    HW129273   2.925   1.199  10.819  0.2078  0.6892  1.9349
 5879SOL    HW229274   3.057   1.134  10.784 -1.2624 -0.0919  0.4680
 5880SOL     OW29275   2.014   3.881  10.992 -0.1175  0.8417 -0.2348
 5880SOL    HW129276   1.985   3.860  10.903  1.8962 -0.1257 -0.6551
 5880SOL    HW229277   1.953   3.841  11.054 -1.4714 -1.6823 -3.1901
 5881SOL     OW29278   1.654   3.981  16.278 -0.1482  0.2455 -0.3155
 5881SOL    HW129279   1.723   3.916  16.266 -1.4685 -1.4891  1.5299
 5881SOL    HW229280   1.686   4.045  16.215 -0.7207 -0.4256 -1.2920
 5882SOL     OW29281   2.829   2.732  15.247  0.2049 -0.4223 -0.3596
 5882SOL    HW129282   2.856   2.797  15.312 -1.0366 -1.4576  1.1842
 5882SOL    HW229283   2.735   2.721  15.261  0.3553 -3.3092 -1.6170
 5883SOL     OW29284   2.127   2.968   3.067 -0.0190  0.3249 -0.3098
 5883SOL    HW129285   2.091   2.999   3.150 -2.0497  1.2436 -1.5297
 5883SOL    HW229286   2.174   3.043   3.031 -2.0445  0.9149 -1.7292
 5884SOL     OW29287   3.622   2.416   6.370 -0.1067  0.1723 -0.0771
 5884SOL    HW129288   3.533   2.415   6.333 -0.1945 -0.1821  0.1423
 5884SOL    HW229289   3.627   2.323   6.391 -1.2085 -0.4124 -2.3763
 5885SOL     OW29290   4.716   1.295  16.411 -0.3239  0.0871  0.0932
 5885SOL    HW129291   4.625   1.322  16.400 -0.4645  0.0520  1.1946
 5885SOL    HW229292   4.724   1.231  16.341 -4.4978 -1.8002  1.3638
 5886SOL     OW29293   1.754   0.153   1.892 -0.6762 -0.0931 -0.4180
 5886SOL    HW129294   1.769   0.070   1.938  0.9599  1.2713  1.5474
 5886SOL    HW229295   1.817   0.149   1.820  0.8263  0.6647  0.8576
 5887SOL     OW29296   2.485   0.519  10.065 -0.4915  0.0032  0.0722
 5887SOL    HW129297   2.539   0.598  10.070 -0.2620 -0.0659 -1.2393
 5887SOL    HW229298   2.422   0.538   9.996 -0.7719 -0.1673  0.2827
 5888SOL     OW29299   1.264   2.800   2.481 -0.0198 -0.0359  0.7676
 5888SOL    HW129300   1.179   2.773   2.446 -0.2411 -0.5799  1.7318
 5888SOL    HW229301   1.315   2.719   2.473  1.3459  0.8277  0.7660
 5889SOL     OW29302   4.254   3.889   5.519  0.5428  0.0541 -0.7305
 5889SOL    HW129303   4.291   3.854   5.600  0.4593  0.5515 -0.4812
 5889SOL    HW229304   4.324   3.952   5.502  0.2012  0.8175  0.6328
 5890SOL     OW29305   0.810   3.628   9.057  0.2692  0.3947 -0.2327
 5890SOL    HW129306   0.815   3.558   8.992  2.3638 -0.5360  0.9212
 5890SOL    HW229307   0.744   3.594   9.117  0.0498 -1.6548 -1.6208
 5891SOL     OW29308   0.709   3.038   7.078  0.1179 -0.2830  0.0811
 5891SOL    HW129309   0.617   3.022   7.060 -0.2964  2.5657 -0.4308
 5891SOL    HW229310   0.711   3.130   7.050 -0.3161  0.5484  2.7652
 5892SOL     OW29311   0.727   0.659   1.842  0.1916 -0.0381 -0.0277
 5892SOL    HW129312   0.801   0.600   1.827  0.8631  0.1285  2.6597
 5892SOL    HW229313   0.767   0.745   1.849 -0.4281  0.2634 -0.1842
 5893SOL     OW29314   3.875   2.844  14.543 -0.3660 -0.1575 -0.2331
 5893SOL    HW129315   3.870   2.767  14.487 -0.3560 -0.9686  0.8674
 5893SOL    HW229316   3.781   2.856  14.560  0.3829  2.1572  2.3119
 5894SOL     OW29317   3.956   4.609   5.825 -0.0501  0.2250 -0.2848
 5894SOL    HW129318   4.009   4.546   5.776 -0.4942 -1.3926  1.3279
 5894SOL    HW229319   4.013   4.674   5.865 -0.5521  0.0502  0.7168
 5895SOL     OW29320   4.372   2.095   3.013  0.2974 -0.5359  0.3686
 5895SOL    HW129321   4.370   2.067   3.105  1.3337  0.4109  0.6827
 5895SOL    HW229322   4.402   2.022   2.959 -0.5763 -0.0599 -0.7688
 5896SOL     OW29323   1.392   2.306   3.969 -0.2109  0.2715  0.2324
 5896SOL    HW129324   1.431   2.327   3.884 -1.6293  1.6278 -0.0784
 5896SOL    HW229325   1.406   2.385   4.020 -2.1737 -0.2367  1.5628
 5897SOL     OW29326   2.858   0.922  11.395 -0.1511 -0.5675 -0.1155
 5897SOL    HW129327   2.878   0.994  11.335 -0.6966  1.3680  1.9833
 5897SOL    HW229328   2.835   0.851  11.336 -0.7046 -1.0416  0.6649
 5898SOL     OW29329   3.449   3.649   8.302 -0.3525  0.0333  0.3104
 5898SOL    HW129330   3.432   3.554   8.307 -1.5617  0.1839 -0.6748
 5898SOL    HW229331   3.504   3.667   8.378  1.2765  0.1527 -0.8981
 5899SOL     OW29332   3.292   4.728   7.278 -0.2808  0.6612  0.2041
 5899SOL    HW129333   3.255   0.076   7.313  1.3854  1.0990  0.9782
 5899SOL    HW229334   3.318   0.018   7.189  0.6866 -0.1663  0.2770
 5900SOL     OW29335   3.132   0.056   6.966 -0.0225  0.3315 -0.2671
 5900SOL    HW129336   3.172   4.702   6.968 -1.3144 -0.2074  1.1314
 5900SOL    HW229337   3.193   0.098   6.905  1.4614 -0.0083  0.9937
 5901SOL     OW29338   4.198   4.461   8.524 -0.8244 -0.2205 -0.0148
 5901SOL    HW129339   4.287   4.473   8.491 -1.5676 -1.9578 -2.6203
 5901SOL    HW229340   4.178   4.371   8.498 -0.4588  0.1117 -1.4465
 5902SOL     OW29341   1.546   1.180   6.098 -0.0411  0.3616  0.2694
 5902SOL    HW129342   1.492   1.218   6.167 -2.6993 -1.4553 -0.8218
 5902SOL    HW229343   1.582   1.103   6.142 -1.1220 -0.5901 -0.5223
 5903SOL     OW29344   1.173   4.283   8.958 -0.3438 -0.0042 -0.2369
 5903SOL    HW129345   1.192   4.236   8.877  1.5448  1.6593 -0.7607
 5903SOL    HW229346   1.078   4.289   8.951 -0.0486  0.6356 -3.8071
 5904SOL     OW29347   2.922   3.962   2.832  0.2490 -0.1570 -0.5223
 5904SOL    HW129348   3.017   3.952   2.845  0.2153  0.0676 -0.0782
 5904SOL    HW229349   2.890   4.000   2.914  0.4025  0.8062 -0.9074
 5905SOL     OW29350   4.181   0.093   6.382  0.3255 -0.6201 -0.3906
 5905SOL    HW129351   4.172   0.028   6.312  1.1927  0.7925 -1.8265
 5905SOL    HW229352   4.258   0.146   6.362 -1.6628  1.8674 -1.5207
 5906SOL     OW29353   2.396   0.762   8.445  0.1139 -0.2101  0.2081
 5906SOL    HW129354   2.447   0.724   8.374  1.9999  1.5839  0.6296
 5906SOL    HW229355   2.304   0.741   8.425  0.7136 -1.5056 -1.1596
 5907SOL     OW29356   0.121   0.159   6.881  0.0396  0.3767  0.2617
 5907SOL    HW129357   0.195   0.208   6.845  1.0066 -1.2690 -0.0085
 5907SOL    HW229358   0.091   0.110   6.805  0.4126 -1.0525  1.0420
 5908SOL     OW29359   4.317   0.243   9.763 -0.6564  0.3682 -0.1063
 5908SOL    HW129360   4.267   0.202   9.692 -1.2108  0.1580  0.4018
 5908SOL    HW229361   4.257   0.308   9.798  0.1793  1.3535 -0.5207
 5909SOL     OW29362   1.333   1.135   5.549 -0.1646  0.0290 -0.3725
 5909SOL    HW129363   1.243   1.119   5.577 -0.4552  1.8254 -0.2919
 5909SOL    HW229364   1.359   1.193   5.621 -0.1104 -0.2740 -0.1499
 5910SOL     OW29365   3.348   1.009  10.987 -0.0059  0.4466  0.0223
 5910SOL    HW129366   3.259   1.021  11.022  0.6476  0.2780  1.7537
 5910SOL    HW229367   3.390   0.993  11.071  0.0688  2.9395  0.4720
 5911SOL     OW29368   1.017   3.037  11.888 -0.0027 -0.6583 -0.1690
 5911SOL    HW129369   1.009   3.001  11.976  1.6017 -0.3605  0.1146
 5911SOL    HW229370   0.924   3.056  11.885  0.1928  0.4645  0.8620
 5912SOL     OW29371   0.715   0.454   8.986  0.2394  0.1015 -0.7577
 5912SOL    HW129372   0.786   0.413   9.034  0.0365  0.5772 -0.0461
 5912SOL    HW229373   0.717   0.537   9.033  1.8655  0.0287 -0.7194
 5913SOL     OW29374   3.041   0.144   9.176  0.2641  0.2791 -0.5178
 5913SOL    HW129375   3.065   0.059   9.139  0.3924  0.2969 -0.4739
 5913SOL    HW229376   3.126   0.187   9.164 -0.7616  1.8605 -2.0847
 5914SOL     OW29377   3.147   2.738   3.116 -0.5501 -1.0275 -0.3872
 5914SOL    HW129378   3.229   2.707   3.077  0.5575 -1.8168  2.5748
 5914SOL    HW229379   3.136   2.819   3.066 -0.4823 -1.0282 -0.4036
 5915SOL     OW29380   3.984   3.534   1.213 -0.4709 -0.1673 -0.6359
 5915SOL    HW129381   3.892   3.509   1.212 -0.1151 -1.3938 -2.3640
 5915SOL    HW229382   4.016   3.446   1.192 -1.7622 -0.6022 -0.7420
 5916SOL     OW29383   3.847   1.708   7.890 -0.1616 -0.5891  0.0106
 5916SOL    HW129384   3.779   1.654   7.851 -0.4217 -0.8910  0.8908
 5916SOL    HW229385   3.796   1.780   7.928 -1.0611 -0.7590 -0.9003
 5917SOL     OW29386   0.565   4.390   2.689 -0.0400 -0.5189  0.8263
 5917SOL    HW129387   0.617   4.365   2.765  2.5385  1.0247 -0.4700
 5917SOL    HW229388   0.633   4.399   2.622  0.0471 -1.3491  0.7968
 5918SOL     OW29389   3.313   0.762   3.097  0.2215  0.3340 -0.0353
 5918SOL    HW129390   3.373   0.694   3.067  0.8469  1.3571 -1.1015
 5918SOL    HW229391   3.304   0.732   3.187  2.6742  0.8328  0.3764
 5919SOL     OW29392   0.455   2.495  11.043 -0.6494  0.2382 -0.4491
 5919SOL    HW129393   0.484   2.570  10.991  0.7885  0.0348  0.0419
 5919SOL    HW229394   0.491   2.429  10.984 -1.2867 -1.0892  0.6395
 5920SOL     OW29395   1.068   2.290   4.817 -0.3301  0.1175  0.0071
 5920SOL    HW129396   1.103   2.238   4.744 -0.0060  1.9522 -1.1481
 5920SOL    HW229397   1.047   2.371   4.770  0.3490  0.0536 -0.4070
 5921SOL     OW29398   2.176   3.605   8.247 -0.4523  0.3270 -0.2886
 5921SOL    HW129399   2.205   3.670   8.183 -0.6445 -1.1721 -1.9162
 5921SOL    HW229400   2.080   3.605   8.240 -0.4056  4.2305 -0.5624
 5922SOL     OW29401   0.053   2.418  16.682  0.7442 -0.2876 -0.1914
 5922SOL    HW129402   0.020   2.497  16.723 -0.4552 -1.4217  1.0253
 5922SOL    HW229403   0.148   2.427  16.689  0.4128  3.1398 -0.0717
 5923SOL     OW29404   1.726   3.282   5.281  0.1405  0.0533  0.0414
 5923SOL    HW129405   1.778   3.280   5.201  0.8145  0.4762  0.4677
 5923SOL    HW229406   1.684   3.368   5.279 -2.8995 -1.4832 -3.8215
 5924SOL     OW29407   2.008   3.671   6.915 -0.1068  0.4555 -0.0275
 5924SOL    HW129408   2.056   3.653   6.995 -0.7169 -1.8783 -0.1884
 5924SOL    HW229409   1.934   3.614   6.933 -0.0495  0.6099  0.6832
 5925SOL     OW29410   0.710   4.296   3.452 -0.1039  0.0345  0.1024
 5925SOL    HW129411   0.673   4.351   3.521  0.1401 -0.8248  0.9283
 5925SOL    HW229412   0.657   4.217   3.464  0.6560 -0.5259 -0.1247
 5926SOL     OW29413   2.785   2.928   8.748 -0.0122 -0.4614  0.2504
 5926SOL    HW129414   2.857   2.867   8.734 -0.0316 -0.4987  0.3149
 5926SOL    HW229415   2.815   2.962   8.832  0.4971 -1.6645  0.5588
 5927SOL     OW29416   2.914   1.684  14.916 -0.3115  0.2633 -0.0528
 5927SOL    HW129417   2.851   1.712  14.851 -0.2268  1.2913  0.3036
 5927SOL    HW229418   2.862   1.656  14.992 -0.9381  0.7536 -0.3123
 5928SOL     OW29419   0.244   2.168   4.419 -0.0536  0.0565 -0.1741
 5928SOL    HW129420   0.235   2.257   4.384  1.4231  1.0832  2.1233
 5928SOL    HW229421   0.153   2.163   4.450 -0.5583  1.7636 -1.4216
 5929SOL     OW29422   3.540   1.424   9.038  0.0714  0.2459 -0.1018
 5929SOL    HW129423   3.461   1.381   9.006 -1.1667  1.3232  1.4853
 5929SOL    HW229424   3.492   1.476   9.102 -0.7057  0.6004 -0.9731
 5930SOL     OW29425   2.071   4.126   3.986  0.4030  0.2888  0.2557
 5930SOL    HW129426   2.079   4.149   3.893 -0.1208 -0.5966  0.0018
 5930SOL    HW229427   2.097   4.034   3.981 -0.0347  0.2746 -1.6165
 5931SOL     OW29428   2.140   3.081  10.567 -0.3135  0.6221  0.1589
 5931SOL    HW129429   2.194   3.154  10.598 -0.6493  0.6525  0.6811
 5931SOL    HW229430   2.110   3.117  10.484  0.2719  1.2488  0.2101
 5932SOL     OW29431   2.019   1.414   9.208  0.5889 -0.0043  0.4353
 5932SOL    HW129432   1.982   1.327   9.189 -1.0098  1.0414 -1.2905
 5932SOL    HW229433   2.052   1.454   9.128 -2.3617 -0.9728 -1.2929
 5933SOL     OW29434   3.844   2.698   7.217  0.3110 -0.2407 -0.5385
 5933SOL    HW129435   3.780   2.640   7.258  0.0743  0.0926 -0.4335
 5933SOL    HW229436   3.859   2.661   7.130 -3.1373  0.5747 -1.4948
 5934SOL     OW29437   2.468   0.830  14.338  0.2075  0.2424 -0.4698
 5934SOL    HW129438   2.548   0.879  14.320  0.7406 -0.5026 -0.1145
 5934SOL    HW229439   2.417   0.857  14.262 -0.2166 -1.3234 -0.7542
 5935SOL     OW29440   1.760   3.729   5.083  0.3148  0.2665  0.0394
 5935SOL    HW129441   1.678   3.740   5.034  0.4335 -0.4822 -0.3290
 5935SOL    HW229442   1.722   3.735   5.171 -1.2530  2.6680 -0.8056
 5936SOL     OW29443   4.151   4.248   3.223  0.1612 -0.6477  0.6012
 5936SOL    HW129444   4.070   4.298   3.235 -1.4000 -2.5421 -2.2849
 5936SOL    HW229445   4.211   4.300   3.277 -1.2679 -0.0712  1.6530
 5937SOL     OW29446   4.023   4.594   0.836 -0.2261 -0.2151 -0.9763
 5937SOL    HW129447   4.058   4.525   0.893 -0.1654  0.3382 -0.3512
 5937SOL    HW229448   3.990   4.658   0.899  0.3795 -2.3235  1.4695
 5938SOL     OW29449   4.583   4.210   9.704  0.4124  0.4674 -0.0232
 5938SOL    HW129450   4.609   4.187   9.615 -1.5615 -0.9386 -0.2386
 5938SOL    HW229451   4.664   4.204   9.755  0.5071  1.3021 -0.0891
 5939SOL     OW29452   4.316   0.406   2.272 -0.3536 -0.2522 -0.2117
 5939SOL    HW129453   4.333   0.425   2.364  1.4383  1.1784 -0.8450
 5939SOL    HW229454   4.384   0.345   2.245  0.4388  0.3063  0.5512
 5940SOL     OW29455   1.566   4.530   7.299 -0.0481 -0.7484  0.0116
 5940SOL    HW129456   1.488   4.495   7.254  0.1746 -1.3902  0.1258
 5940SOL    HW229457   1.601   4.587   7.230 -2.1149  1.3218  0.6635
 5941SOL     OW29458   4.474   2.754   2.971  0.2094  0.0025 -0.6305
 5941SOL    HW129459   4.500   2.733   3.061 -2.0905  0.4533  0.1212
 5941SOL    HW229460   4.416   2.828   2.983  0.3979  0.5335 -3.0399
 5942SOL     OW29461   4.009   4.499   4.440  0.5154 -0.0758  0.2774
 5942SOL    HW129462   4.103   4.516   4.437  0.6139 -0.6270  0.2081
 5942SOL    HW229463   4.012   4.454   4.525 -0.1642  1.0956  0.9207
 5943SOL     OW29464   3.579   4.434   0.317  0.3531 -0.0589 -0.4166
 5943SOL    HW129465   3.645   4.429   0.247  0.7805 -0.5803  0.0256
 5943SOL    HW229466   3.549   4.524   0.304 -1.6227 -0.7562 -0.6475
 5944SOL     OW29467   1.867   4.458   9.232  0.0505  0.1111 -0.1393
 5944SOL    HW129468   1.922   4.383   9.252 -0.9851 -0.1286  1.7938
 5944SOL    HW229469   1.778   4.423   9.224  0.4730 -1.0513  0.1971
 5945SOL     OW29470   3.734   4.083  17.695  0.5248  0.8384 -0.1149
 5945SOL    HW129471   3.804   4.138  17.729  0.9782  0.4242 -0.3864
 5945SOL    HW229472   3.657   4.134  17.720 -0.4956 -1.1957  0.8906
 5946SOL     OW29473   2.955   1.237   2.292  0.2444  0.4507  0.5838
 5946SOL    HW129474   2.983   1.325   2.317 -0.6852  0.6859  0.7750
 5946SOL    HW229475   2.971   1.189   2.374  1.5282  0.2146  0.2046
 5947SOL     OW29476   3.910   4.329   8.319 -0.2556  0.8721 -0.2344
 5947SOL    HW129477   3.876   4.291   8.400 -1.1708  1.6799 -0.2410
 5947SOL    HW229478   3.928   4.423   8.329 -0.5755  1.0352 -1.2070
 5948SOL     OW29479   4.015   2.008  13.624  0.6964 -0.3661 -0.1880
 5948SOL    HW129480   4.077   1.965  13.683  1.4816  1.1311  0.0847
 5948SOL    HW229481   3.928   1.986  13.659  1.5394 -1.6502  1.1257
 5949SOL     OW29482   1.169   4.002   7.028 -0.1752  0.5314  0.1746
 5949SOL    HW129483   1.149   3.918   6.987  1.6447 -0.6900  1.7837
 5949SOL    HW229484   1.089   4.030   7.072 -0.7189 -2.5840  1.1562
 5950SOL     OW29485   3.139   0.830   8.771 -0.7335  0.5200 -0.1361
 5950SOL    HW129486   3.076   0.805   8.702 -1.3131  0.0076  0.5749
 5950SOL    HW229487   3.212   0.859   8.716 -0.6316  1.2764  0.4171
 5951SOL     OW29488   3.184   2.328   7.887 -0.2437 -0.4267 -0.1407
 5951SOL    HW129489   3.198   2.310   7.980  0.4740  0.1237 -0.1368
 5951SOL    HW229490   3.096   2.290   7.882  0.0094 -1.0378  0.1218
 5952SOL     OW29491   1.126   1.662   5.267  0.0770  0.4359 -0.2410
 5952SOL    HW129492   1.212   1.671   5.310  1.6826 -0.1364 -3.3078
 5952SOL    HW229493   1.095   1.752   5.260 -2.1877 -0.4714 -1.7720
 5953SOL     OW29494   0.107   4.305   8.006 -0.0003  0.0339 -0.3505
 5953SOL    HW129495   0.100   4.361   8.083 -2.2179 -1.5604  0.5914
 5953SOL    HW229496   0.108   4.373   7.938  0.3074  0.2144 -0.1696
 5954SOL     OW29497   4.179   1.464   7.245 -0.0443  0.0902 -0.3791
 5954SOL    HW129498   4.263   1.510   7.249 -1.4364  2.6894 -1.5562
 5954SOL    HW229499   4.182   1.417   7.328 -1.5674 -0.4719 -0.6431
 5955SOL     OW29500   1.590   4.033   9.533 -0.1702 -0.5232  0.2566
 5955SOL    HW129501   1.563   4.113   9.578 -1.4984 -0.3970 -0.7709
 5955SOL    HW229502   1.675   4.013   9.572 -0.0395 -1.1767 -0.3631
 5956SOL     OW29503   0.921   3.870  14.119 -0.6813  0.1019 -0.3541
 5956SOL    HW129504   0.859   3.804  14.151  1.2498 -0.2147  2.7198
 5956SOL    HW229505   0.859   3.900  14.052 -0.7097 -1.2621 -0.9396
 5957SOL     OW29506   1.488   1.894   5.700 -0.2187 -0.2316 -0.7381
 5957SOL    HW129507   1.500   1.970   5.643 -0.7668  0.3756 -0.0465
 5957SOL    HW229508   1.580   1.868   5.696 -0.3870 -0.7413 -1.5099
 5958SOL     OW29509   3.387   2.804   7.706 -0.1188 -0.1030  0.2551
 5958SOL    HW129510   3.439   2.727   7.728 -0.6462 -0.3881  0.5077
 5958SOL    HW229511   3.335   2.772   7.632  2.0451  1.3480 -1.8583
 5959SOL     OW29512   2.152   1.395   2.807  0.2974  0.3594 -0.3787
 5959SOL    HW129513   2.210   1.402   2.883  0.8478 -0.5675 -0.7121
 5959SOL    HW229514   2.210   1.332   2.763 -1.2713 -2.3832  1.4992
 5960SOL     OW29515   2.674   4.181   9.677  0.4645  0.5676  0.4112
 5960SOL    HW129516   2.602   4.170   9.614  1.3692  0.5806 -0.6244
 5960SOL    HW229517   2.629   4.230   9.746  0.0393  0.3076  0.3205
 5961SOL     OW29518   2.579   0.675  11.584  0.0970  0.7436  0.0744
 5961SOL    HW129519   2.573   0.581  11.601 -0.6210  0.8566  0.4313
 5961SOL    HW229520   2.544   0.710  11.665 -1.3715 -3.2721  1.1519
 5962SOL     OW29521   0.226   3.331   4.218 -0.1055  0.4957 -0.2365
 5962SOL    HW129522   0.193   3.418   4.198 -0.7416  0.6328  1.3883
 5962SOL    HW229523   0.278   3.355   4.294  0.5295 -0.8346 -0.2504
 5963SOL     OW29524   0.561   3.948   1.459 -0.1870 -0.1045  0.1028
 5963SOL    HW129525   0.494   4.005   1.422 -0.9491 -0.8580  0.3063
 5963SOL    HW229526   0.508   3.870   1.477 -1.6142  1.4016  2.2922
 5964SOL     OW29527   0.915   3.422  15.417 -0.7264  0.3217 -0.4475
 5964SOL    HW129528   0.953   3.399  15.332  0.0397  2.1535 -0.6006
 5964SOL    HW229529   0.944   3.512  15.430 -1.9557  0.9735 -2.2168
 5965SOL     OW29530   3.764   3.418   6.577  0.1978  0.2023  0.0127
 5965SOL    HW129531   3.737   3.452   6.492  0.7755 -1.1181 -0.7042
 5965SOL    HW229532   3.702   3.453   6.642  0.9883  1.7988 -0.0896
 5966SOL     OW29533   0.686   4.317   2.931  0.0655 -0.1952  0.3454
 5966SOL    HW129534   0.703   4.411   2.927 -1.1559 -0.0281 -1.0875
 5966SOL    HW229535   0.771   4.284   2.901 -1.4721 -2.6152 -1.3641
 5967SOL     OW29536   2.844   2.831   5.690  0.1505 -0.0620 -0.0279
 5967SOL    HW129537   2.887   2.822   5.775 -0.7489  1.9407  0.6344
 5967SOL    HW229538   2.771   2.891   5.708  2.5354  2.8916 -0.2418
 5968SOL     OW29539   4.148   4.219   1.394 -0.0668 -0.2844  0.4979
 5968SOL    HW129540   4.076   4.213   1.332 -0.8741  3.0095  1.1271
 5968SOL    HW229541   4.093   4.214   1.472  1.3238 -0.7319  1.4508
 5969SOL     OW29542   2.526   4.368   9.817  0.3889 -0.3650  0.1807
 5969SOL    HW129543   2.530   4.419   9.898 -0.5184 -0.4233  0.2570
 5969SOL    HW229544   2.453   4.410   9.773 -0.2963 -1.8590 -0.1196
 5970SOL     OW29545   3.242   3.997   0.705  0.0904  0.5676  0.8585
 5970SOL    HW129546   3.229   3.905   0.680  0.3544  0.5989  0.6157
 5970SOL    HW229547   3.312   3.985   0.769  0.0869 -1.2182  0.5279
 5971SOL     OW29548   1.662   3.291   3.937 -0.0428 -0.2480  0.2637
 5971SOL    HW129549   1.753   3.320   3.942 -0.6302  1.3089  2.0986
 5971SOL    HW229550   1.682   3.205   3.973  1.5154  0.0090  0.0127
 5972SOL     OW29551   3.814   4.228  10.201  0.6829  0.3268  0.1520
 5972SOL    HW129552   3.832   4.134  10.203 -1.1389 -0.0318 -0.5710
 5972SOL    HW229553   3.755   4.240  10.276  1.4841 -1.3272  1.0587
 5973SOL     OW29554   1.826   2.264   6.667  0.3510 -0.6269  0.0831
 5973SOL    HW129555   1.881   2.337   6.694  0.2777 -1.0077  1.2464
 5973SOL    HW229556   1.751   2.282   6.724  2.3790 -0.4511  2.6908
 5974SOL     OW29557   4.526   0.619  16.967 -0.3580 -0.0460 -1.0337
 5974SOL    HW129558   4.480   0.563  16.904 -0.5838  0.1034 -1.0011
 5974SOL    HW229559   4.466   0.637  17.039  2.0351 -1.7039  1.3627
 5975SOL     OW29560   4.176   1.329   4.430  0.2373 -0.2586  0.4195
 5975SOL    HW129561   4.173   1.237   4.457 -2.2346 -0.5300 -0.7807
 5975SOL    HW229562   4.084   1.352   4.443  0.1794 -0.1797 -0.1179
 5976SOL     OW29563   0.610   1.180  14.589  0.5307  0.0722  0.0443
 5976SOL    HW129564   0.559   1.108  14.625 -2.4808  1.4941 -1.4289
 5976SOL    HW229565   0.648   1.222  14.667  0.9709  1.2148 -0.7760
 5977SOL     OW29566   2.910   1.907  16.911 -0.4597  0.0217 -0.2312
 5977SOL    HW129567   2.879   1.887  16.822  3.4773  0.0187 -1.6105
 5977SOL    HW229568   2.893   2.001  16.910  2.3904  0.5303  0.1400
 5978SOL     OW29569   2.840   4.040   5.142  0.2134 -0.0895 -0.1261
 5978SOL    HW129570   2.785   4.096   5.088 -1.1699 -2.7382 -1.4189
 5978SOL    HW229571   2.805   4.055   5.230  0.9924 -0.4298  0.2527
 5979SOL     OW29572   2.052   3.676   4.379 -0.3229 -0.3596 -0.6423
 5979SOL    HW129573   2.022   3.661   4.289  1.8503 -2.7371 -0.9845
 5979SOL    HW229574   2.052   3.771   4.391  0.7439 -0.4135 -0.1869
 5980SOL     OW29575   4.141   4.371   7.926  0.4266 -0.7814 -0.2328
 5980SOL    HW129576   4.202   4.426   7.878 -1.0720  1.5319  0.4546
 5980SOL    HW229577   4.098   4.440   7.978  1.8570 -0.5267  0.6015
 5981SOL     OW29578   4.302   2.220   7.077 -0.0190 -0.3816 -0.0016
 5981SOL    HW129579   4.278   2.313   7.073  0.0212 -0.2558  2.8215
 5981SOL    HW229580   4.393   2.228   7.106 -0.4994  1.6259  1.0099
 5982SOL     OW29581   2.422   3.153   3.750  0.0816 -0.2145 -0.2829
 5982SOL    HW129582   2.444   3.093   3.679 -2.5422 -0.6964 -0.6736
 5982SOL    HW229583   2.327   3.168   3.752 -0.1091 -1.5028  0.2946
 5983SOL     OW29584   1.841   3.453   7.001 -0.0361 -0.3736 -0.4201
 5983SOL    HW129585   1.747   3.464   7.016  0.5064  2.4130  1.0851
 5983SOL    HW229586   1.882   3.409   7.075 -0.7399 -1.1470 -0.4903
 5984SOL     OW29587   3.575   0.854  10.529  0.4189  0.1094  0.5852
 5984SOL    HW129588   3.541   0.889  10.611  1.7431 -0.7191  1.4701
 5984SOL    HW229589   3.642   0.919  10.505 -0.8141  1.6341  1.2287
 5985SOL     OW29590   4.178   0.779   7.825 -0.1221  0.1745 -0.3881
 5985SOL    HW129591   4.142   0.762   7.911 -1.1207  0.4547 -0.7479
 5985SOL    HW229592   4.105   0.737   7.779 -0.5240  0.3468  0.0969
 5986SOL     OW29593   4.299   1.964   4.505 -0.3166  0.2606 -0.1564
 5986SOL    HW129594   4.394   1.951   4.513 -0.4583  0.0907  1.3450
 5986SOL    HW229595   4.270   1.908   4.577 -1.1983 -1.9268 -2.1996
 5987SOL     OW29596   3.499   0.704   9.137 -0.1029  0.0918 -0.2212
 5987SOL    HW129597   3.458   0.677   9.054 -1.5008 -0.2509  0.5856
 5987SOL    HW229598   3.444   0.646   9.191 -0.9283  0.7124 -0.3941
 5988SOL     OW29599   3.518   4.162   4.856  0.2308 -0.1923 -0.0952
 5988SOL    HW129600   3.475   4.085   4.892  1.0875  0.1254  1.6027
 5988SOL    HW229601   3.578   4.134   4.787  0.7366  0.6846 -0.0164
 5989SOL     OW29602   2.592   0.540   6.160 -0.4082 -0.0650 -0.0990
 5989SOL    HW129603   2.544   0.484   6.098 -0.9958  0.2430  0.0801
 5989SOL    HW229604   2.681   0.523   6.129 -0.3732 -0.0082 -0.0276
 5990SOL     OW29605   1.307   0.622   8.345  0.6741  0.9789  0.1057
 5990SOL    HW129606   1.296   0.668   8.428 -0.0310  0.0025  0.5525
 5990SOL    HW229607   1.214   0.622   8.324  0.7801 -0.0869 -0.3613
 5991SOL     OW29608   1.783   2.607   3.358 -0.0929  0.9542 -0.2741
 5991SOL    HW129609   1.731   2.686   3.377 -0.0079  1.0673 -0.5082
 5991SOL    HW229610   1.853   2.635   3.299  1.6276 -0.2426  1.2047
 5992SOL     OW29611   4.517   0.094   1.902  0.0209  0.1670 -0.2761
 5992SOL    HW129612   4.479   0.098   1.815 -0.5996  2.8999  0.1234
 5992SOL    HW229613   4.490   0.003   1.917  1.3173 -0.5566 -2.3289
 5993SOL     OW29614   0.215   3.069   9.663  0.4095 -0.1621  0.1440
 5993SOL    HW129615   0.120   3.061   9.669  0.3373  0.7027  0.2064
 5993SOL    HW229616   0.252   3.014   9.732 -1.7922 -2.1665 -0.2681
 5994SOL     OW29617   4.272   1.103  15.166  0.1523 -0.3289 -0.4897
 5994SOL    HW129618   4.247   1.027  15.217 -1.0783  0.2199 -0.2874
 5994SOL    HW229619   4.321   1.071  15.090  0.3048  0.2365 -0.6306
 5995SOL     OW29620   4.184   3.553  16.588 -0.4394  0.4039 -0.4010
 5995SOL    HW129621   4.093   3.564  16.615 -0.2664  0.0865  0.3241
 5995SOL    HW229622   4.215   3.641  16.612 -0.0832  0.0089  0.6178
 5996SOL     OW29623   4.205   1.370   9.647 -0.2172 -0.0043 -0.6306
 5996SOL    HW129624   4.117   1.396   9.623 -0.1300  2.6372  1.8983
 5996SOL    HW229625   4.214   1.295   9.588 -0.0764 -1.0052  0.6529
 5997SOL     OW29626   2.836   1.566  12.376 -0.0227 -0.0009  0.2214
 5997SOL    HW129627   2.743   1.578  12.391 -0.5318 -1.7426 -1.5637
 5997SOL    HW229628   2.876   1.599  12.456 -1.1242 -0.8168  1.0982
 5998SOL     OW29629   2.058   0.122   7.958  0.0244  0.2732  0.2640
 5998SOL    HW129630   2.089   0.066   7.887  0.8225 -0.1262  0.9219
 5998SOL    HW229631   1.992   0.063   7.995 -1.0332  0.7447 -0.8977
 5999SOL     OW29632   0.530   1.879  16.824  0.2967 -0.0188  0.7194
 5999SOL    HW129633   0.466   1.815  16.791  0.7938 -0.2541  0.1990
 5999SOL    HW229634   0.525   1.946  16.756  1.4814 -0.0808  0.5744
 6000SOL     OW29635   2.068   1.314   5.958 -0.3707 -0.4073  0.0791
 6000SOL    HW129636   1.999   1.340   6.018 -0.2046  0.1072  0.0420
 6000SOL    HW229637   2.021   1.291   5.878  3.1935  1.1799 -2.4405
 6001SOL     OW29638   0.875   3.395  16.071 -0.4037  0.1912  0.7836
 6001SOL    HW129639   0.843   3.467  16.017  0.4429  1.6666  2.2225
 6001SOL    HW229640   0.797   3.341  16.080 -2.0607  2.3742 -0.4047
 6002SOL     OW29641   4.225   2.302  16.625 -0.2518 -0.1470 -0.2067
 6002SOL    HW129642   4.316   2.322  16.644 -0.6102  2.7619 -1.6471
 6002SOL    HW229643   4.183   2.384  16.648 -0.9014 -0.5392  0.0110
 6003SOL     OW29644   0.710   1.630   1.902  0.2989  0.3442 -0.2237
 6003SOL    HW129645   0.792   1.667   1.934  1.9966 -0.7195 -3.3418
 6003SOL    HW229646   0.646   1.697   1.927  0.5376 -0.5479  2.7621
 6004SOL     OW29647   2.313   3.244  13.365 -0.4842 -0.4863 -0.4037
 6004SOL    HW129648   2.375   3.203  13.304  1.2265  0.4701  0.6981
 6004SOL    HW229649   2.361   3.317  13.404 -0.1371 -1.3865  0.8395
 6005SOL     OW29650   4.336   0.313   5.547 -0.7704 -0.0361 -0.0232
 6005SOL    HW129651   4.418   0.270   5.570 -0.1918  0.9926 -0.1444
 6005SOL    HW229652   4.372   0.393   5.507 -0.0686 -1.4134 -2.1200
 6006SOL     OW29653   2.703   2.052   3.562 -0.1137  0.4412  0.0478
 6006SOL    HW129654   2.687   2.145   3.553 -1.1793  0.0585 -1.7689
 6006SOL    HW229655   2.663   2.029   3.479  0.2754  2.5790 -0.7268
 6007SOL     OW29656   3.806   3.072   3.910 -0.5031 -0.2508 -0.2258
 6007SOL    HW129657   3.779   2.981   3.915  0.1332 -0.4080  0.3457
 6007SOL    HW229658   3.893   3.077   3.951  0.2115  0.2483 -1.8225
 6008SOL     OW29659   4.193   3.382   5.342  0.2345  0.3265  0.0658
 6008SOL    HW129660   4.205   3.471   5.375  0.6399  0.6291 -0.9122
 6008SOL    HW229661   4.254   3.327   5.391  0.9028 -0.8714 -2.1247
 6009SOL     OW29662   3.990   0.680   5.383 -0.1597 -0.3385 -0.0396
 6009SOL    HW129663   4.020   0.678   5.474 -0.4715  1.5166  0.1038
 6009SOL    HW229664   3.922   0.614   5.375 -2.0013  1.2082  2.8027
 6010SOL     OW29665   2.998   3.369  11.971  0.1994 -0.2742 -0.3414
 6010SOL    HW129666   3.071   3.411  11.925  0.5552 -1.3281 -0.7457
 6010SOL    HW229667   3.040   3.283  11.978  0.6927  0.0282  0.4677
 6011SOL     OW29668   2.166   3.805   6.742  0.0567  0.4880  0.1415
 6011SOL    HW129669   2.150   3.739   6.674 -1.5432 -0.0660  1.0715
 6011SOL    HW229670   2.101   3.776   6.806  0.7422 -1.5418 -0.0687
 6012SOL     OW29671   0.667   2.853  15.880  0.2218 -0.1273  0.4310
 6012SOL    HW129672   0.738   2.914  15.859  0.9054 -1.1064 -0.1142
 6012SOL    HW229673   0.593   2.879  15.825  1.8048  0.9668 -1.1854
 6013SOL     OW29674   1.889   0.612   3.849  0.0172  0.0226  0.3698
 6013SOL    HW129675   1.830   0.540   3.870  0.0549  0.9830  3.6771
 6013SOL    HW229676   1.829   0.662   3.793  0.2938  0.2997  0.3219
 6014SOL     OW29677   2.241   1.328   6.452  0.1828  0.5344 -0.0149
 6014SOL    HW129678   2.311   1.383   6.487  2.4988 -1.6544 -1.1896
 6014SOL    HW229679   2.217   1.370   6.370  0.1507 -0.9253 -0.7552
 6015SOL     OW29680   2.455   1.254  10.709 -0.0252  0.2744 -0.5344
 6015SOL    HW129681   2.486   1.164  10.703  3.1402  1.1513  2.2257
 6015SOL    HW229682   2.409   1.245  10.792 -1.2790 -1.8497 -1.4696
 6016SOL     OW29683   2.665   3.429   9.720  0.7684  0.4192  0.2357
 6016SOL    HW129684   2.740   3.376   9.749  1.1086  0.9162  0.2577
 6016SOL    HW229685   2.693   3.515   9.748  0.4810  0.1068  1.4683
 6017SOL     OW29686   4.347   2.402   7.846 -0.0209 -0.3100  0.2870
 6017SOL    HW129687   4.428   2.353   7.834 -0.5601 -1.3908  1.1422
 6017SOL    HW229688   4.303   2.341   7.904 -1.9864  0.4284 -0.4284
 6018SOL     OW29689   2.258   3.335   7.252 -0.0876  0.3403  0.3654
 6018SOL    HW129690   2.308   3.288   7.318  0.7805 -1.1935 -1.3747
 6018SOL    HW229691   2.315   3.325   7.176 -1.4747 -1.1642 -0.4631
 6019SOL     OW29692   2.870   2.186   1.123  0.1993 -0.1857 -0.3721
 6019SOL    HW129693   2.805   2.233   1.175 -0.6072 -2.3916  0.6129
 6019SOL    HW229694   2.908   2.264   1.082 -0.5201 -1.3384 -3.2632
 6020SOL     OW29695   2.912   1.134   3.116  0.6401  0.6190 -0.4555
 6020SOL    HW129696   2.826   1.168   3.141  1.9126  3.2111  0.4857
 6020SOL    HW229697   2.962   1.146   3.197  0.3494 -0.9081 -0.0582
 6021SOL     OW29698   3.156   0.800  11.326  0.0984  0.0457 -0.4778
 6021SOL    HW129699   3.203   0.881  11.305 -0.3706  0.2288 -0.8433
 6021SOL    HW229700   3.074   0.838  11.359 -0.7581 -2.8471  0.6949
 6022SOL     OW29701   2.587   3.187   8.675 -0.0199  0.2933  0.0397
 6022SOL    HW129702   2.579   3.253   8.744  1.9908  1.5919 -0.9586
 6022SOL    HW229703   2.671   3.147   8.699  0.1139  0.1481 -0.6823
 6023SOL     OW29704   3.307   0.145   8.859  0.4278 -0.3735  0.3948
 6023SOL    HW129705   3.392   0.168   8.822 -0.1206 -1.6922 -1.7540
 6023SOL    HW229706   3.323   0.052   8.878  1.8779 -0.6499 -2.1756
 6024SOL     OW29707   4.544   3.987   3.942 -1.1497  0.0390  0.1300
 6024SOL    HW129708   4.584   4.011   4.025  1.0596 -0.3932 -0.8131
 6024SOL    HW229709   4.539   4.070   3.893 -0.9254 -1.0940 -1.8129
 6025SOL     OW29710   2.536   2.558  12.499 -0.4030  0.3055 -0.2447
 6025SOL    HW129711   2.503   2.478  12.541  1.6695 -0.5635 -0.3009
 6025SOL    HW229712   2.459   2.601  12.460  0.3779  0.2681 -1.8033
 6026SOL     OW29713   2.126   0.443  13.168 -0.0767  0.4418  0.1334
 6026SOL    HW129714   2.073   0.364  13.156  1.0050 -0.3183  0.3451
 6026SOL    HW229715   2.058   0.499  13.205 -0.6290 -0.4602  0.4714
 6027SOL     OW29716   2.465   1.076  11.866  0.2086 -0.4044  0.1099
 6027SOL    HW129717   2.502   1.012  11.926  0.5124 -0.2891  0.0467
 6027SOL    HW229718   2.496   1.041  11.782 -0.7839 -1.0358  0.0059
 6028SOL     OW29719   0.923   0.288  11.674  0.9934  0.4159  0.1600
 6028SOL    HW129720   0.964   0.304  11.759 -0.8188  0.5750  1.0185
 6028SOL    HW229721   0.971   0.355  11.625  2.5505 -0.9677 -0.1607
 6029SOL     OW29722   0.582   3.719   4.949  0.5665 -0.2107  0.9569
 6029SOL    HW129723   0.642   3.670   5.006  1.1527 -0.5156  0.0768
 6029SOL    HW229724   0.538   3.647   4.905 -0.7547  1.3494 -0.2778
 6030SOL     OW29725   1.799   1.971  17.427 -0.3309  0.2438  0.3683
 6030SOL    HW129726   1.718   2.012  17.396 -0.7690 -0.6120  0.3763
 6030SOL    HW229727   1.856   1.980  17.351 -0.2068  0.8797  0.5335
 6031SOL     OW29728   1.555   3.621   2.893 -0.1002 -0.0118  0.6639
 6031SOL    HW129729   1.627   3.648   2.837 -0.0561  1.2320  1.3121
 6031SOL    HW229730   1.589   3.608   2.982  1.3166  0.9031  0.2565
 6032SOL     OW29731   1.511   2.996   6.410 -0.4948 -0.7172 -0.2140
 6032SOL    HW129732   1.529   2.908   6.444  1.4893 -1.2941 -2.7815
 6032SOL    HW229733   1.432   3.031   6.451  0.9660  0.7021  1.3704
 6033SOL     OW29734   0.051   4.675   4.545 -0.7651  0.0134 -0.0056
 6033SOL    HW129735   0.141   4.645   4.555 -1.6306 -2.1959  1.1568
 6033SOL    HW229736   0.049   0.023   4.496  1.4220  0.6138  0.8860
 6034SOL     OW29737   3.721   0.716  16.409 -0.4666  0.3758 -0.5722
 6034SOL    HW129738   3.687   0.632  16.377 -0.0809 -0.3045  0.8050
 6034SOL    HW229739   3.650   0.775  16.382  0.0530  0.9768 -0.6219
 6035SOL     OW29740   3.343   3.901   6.689  1.2322 -0.0913  0.0155
 6035SOL    HW129741   3.267   3.918   6.744  1.1960  0.1118 -0.0962
 6035SOL    HW229742   3.341   3.806   6.705 -2.2688  0.3436  2.0499
 6036SOL     OW29743   0.349   3.197  17.318 -0.4234 -0.4885  0.7695
 6036SOL    HW129744   0.431   3.195  17.267  0.3863  4.8012  1.8232
 6036SOL    HW229745   0.347   3.292  17.332 -2.1828 -0.1619 -1.7398
 6037SOL     OW29746   3.361   1.681   3.186 -0.1530 -0.1550 -0.3774
 6037SOL    HW129747   3.447   1.668   3.225 -0.0173  4.0944  0.8217
 6037SOL    HW229748   3.366   1.772   3.155 -2.1768  0.4291  0.9780
 6038SOL     OW29749   3.663   3.918  11.479  0.0179  0.0503  0.2865
 6038SOL    HW129750   3.627   4.006  11.493 -1.0254  0.1546 -3.0117
 6038SOL    HW229751   3.666   3.886  11.569  0.4149 -2.4881 -0.6283
 6039SOL     OW29752   1.118   4.362   4.568 -0.3799 -0.2469 -0.5822
 6039SOL    HW129753   1.122   4.356   4.473  1.0008  0.2828 -0.5578
 6039SOL    HW229754   1.037   4.315   4.584  0.4971 -1.6174 -0.2092
 6040SOL     OW29755   1.603   1.364  10.162 -0.3589 -0.7279  0.1047
 6040SOL    HW129756   1.518   1.356  10.120  1.5673 -1.9051 -3.5805
 6040SOL    HW229757   1.655   1.336  10.087 -0.8750 -0.8415 -0.2058
 6041SOL     OW29758   3.393   3.472   2.920 -0.9393 -0.4453  0.0041
 6041SOL    HW129759   3.453   3.532   2.876 -1.1378 -0.3910 -0.1916
 6041SOL    HW229760   3.368   3.525   2.996  1.7816  0.9722 -0.1145
 6042SOL     OW29761   0.828   0.486   5.166 -0.3922  0.3871 -0.6878
 6042SOL    HW129762   0.862   0.477   5.077  0.7216 -1.6061 -0.0517
 6042SOL    HW229763   0.800   0.401   5.198 -0.0014  0.2854 -0.6192
 6043SOL     OW29764   0.760   3.538   7.890 -0.3333 -0.5146  0.2040
 6043SOL    HW129765   0.691   3.601   7.869 -0.7472 -0.1717  2.6568
 6043SOL    HW229766   0.839   3.586   7.912 -1.1564  0.4059  1.1060
 6044SOL     OW29767   0.592   4.499   2.303  0.2498  0.2506 -0.2258
 6044SOL    HW129768   0.632   4.472   2.220 -1.4300  0.6781 -1.1658
 6044SOL    HW229769   0.655   4.458   2.362 -0.9983 -2.3199 -0.6986
 6045SOL     OW29770   1.579   2.323   1.154 -0.2466  0.3548 -0.0947
 6045SOL    HW129771   1.500   2.284   1.116  0.0642  0.9732 -1.3565
 6045SOL    HW229772   1.621   2.247   1.194  2.7742  1.3795 -1.3422
 6046SOL     OW29773   2.848   1.091  11.194  0.1570 -0.0721  0.1900
 6046SOL    HW129774   2.785   1.120  11.128  0.4355  3.4839  1.4899
 6046SOL    HW229775   2.877   1.173  11.233  0.2661 -0.1805  0.3382
 6047SOL     OW29776   3.402   3.340   7.220 -0.1466 -0.7478 -0.4815
 6047SOL    HW129777   3.495   3.349   7.196 -0.2090 -1.6973 -1.0898
 6047SOL    HW229778   3.403   3.258   7.269 -2.4695  1.0287  2.5358
 6048SOL     OW29779   0.387   4.092   0.427  0.6168 -0.3924 -0.7370
 6048SOL    HW129780   0.419   4.034   0.359  2.2156  0.2404 -0.5249
 6048SOL    HW229781   0.309   4.042   0.450 -0.3289  2.1210  1.5702
 6049SOL     OW29782   1.477   2.964   7.104 -0.1136  0.2789 -0.2746
 6049SOL    HW129783   1.564   3.002   7.113 -0.6455  1.2276  0.8729
 6049SOL    HW229784   1.464   2.928   7.192 -1.1561 -0.1325 -0.5938
 6050SOL     OW29785   4.155   0.488   8.089  0.0353 -0.1177 -0.1948
 6050SOL    HW129786   4.192   0.499   8.176  1.9748 -1.6314 -0.8222
 6050SOL    HW229787   4.163   0.578   8.056  2.4159 -0.7588 -1.3497
 6051SOL     OW29788   3.807   0.449  14.515  0.2679 -0.0256 -0.1068
 6051SOL    HW129789   3.764   0.495  14.444 -0.1525  0.7772  0.6768
 6051SOL    HW229790   3.800   0.512  14.586  2.3416 -1.2412  1.1911
 6052SOL     OW29791   3.359   2.946   8.207 -0.3020  0.3200  0.2877
 6052SOL    HW129792   3.271   2.982   8.216 -0.2024  0.3178  1.3577
 6052SOL    HW229793   3.336   2.875   8.147 -0.1228  0.2366  0.3178
 6053SOL     OW29794   2.908   0.834   3.096  0.6697 -0.0190  0.1987
 6053SOL    HW129795   2.961   0.809   3.171  0.1229 -1.2135  0.1931
 6053SOL    HW229796   2.920   0.929   3.091 -0.9435  0.1590 -0.3658
 6054SOL     OW29797   2.524   3.543   2.215 -0.2781  0.2294  0.1466
 6054SOL    HW129798   2.500   3.559   2.124 -1.8827  0.2952  0.5838
 6054SOL    HW229799   2.551   3.451   2.208  0.0739  0.2219  1.5801
 6055SOL     OW29800   3.368   2.936  10.597  0.0839  0.1519 -0.1442
 6055SOL    HW129801   3.296   2.992  10.627 -0.3715 -0.2703 -0.4541
 6055SOL    HW229802   3.334   2.875  10.531 -0.0316  2.4959 -2.2361
 6056SOL     OW29803   1.541   2.910   5.495 -0.7517 -0.4017  1.0858
 6056SOL    HW129804   1.543   2.964   5.575 -0.5459 -0.0396  0.8374
 6056SOL    HW229805   1.488   2.967   5.440  2.4536  0.0611 -1.5047
 6057SOL     OW29806   2.178   1.009   5.213  0.3207 -0.4060 -0.5197
 6057SOL    HW129807   2.121   0.999   5.289  1.1649  3.1074  0.5876
 6057SOL    HW229808   2.111   1.023   5.146  0.7910 -0.7082 -1.0547
 6058SOL     OW29809   4.513   0.690   6.178 -0.2508  0.0994  0.0552
 6058SOL    HW129810   4.577   0.761   6.177  2.1700 -2.0852  1.0239
 6058SOL    HW229811   4.570   0.620   6.209  0.9930  1.3821  0.6674
 6059SOL     OW29812   1.339   3.280   2.062  0.0025  0.2666 -0.2311
 6059SOL    HW129813   1.299   3.362   2.034  0.2120  0.3171 -0.3849
 6059SOL    HW229814   1.282   3.219   2.016  0.4840 -0.9933  0.8233
 6060SOL     OW29815   0.061   2.415   5.393  0.4333  0.1909 -0.0953
 6060SOL    HW129816   0.070   2.510   5.386 -1.7052  0.4018  0.0648
 6060SOL    HW229817   4.731   2.403   5.323 -1.6613  2.4133  1.4534
 6061SOL     OW29818   2.797   0.592   9.881  0.2742 -0.1054 -0.8259
 6061SOL    HW129819   2.849   0.589   9.801  1.0347 -1.1747 -0.2926
 6061SOL    HW229820   2.775   0.499   9.883  0.8307 -0.2327 -0.4189
 6062SOL     OW29821   2.461   1.793   9.512 -0.2696  0.5407 -0.2538
 6062SOL    HW129822   2.466   1.883   9.480  0.5571  0.0348 -1.5286
 6062SOL    HW229823   2.544   1.751   9.489 -0.0751  0.1331  1.1916
 6063SOL     OW29824   3.989   4.647   7.633 -0.0736 -0.3017 -0.4130
 6063SOL    HW129825   3.907   4.661   7.585 -0.7496  0.1023  0.8565
 6063SOL    HW229826   3.979   4.697   7.714 -1.1348 -0.0775 -0.6793
 6064SOL     OW29827   3.723   2.813   4.117  0.0538 -0.0825  0.2824
 6064SOL    HW129828   3.782   2.813   4.041 -0.2189  1.0061  0.0663
 6064SOL    HW229829   3.766   2.880   4.171 -1.7869  1.5478 -0.2535
 6065SOL     OW29830   3.386   4.729   1.331  0.3475  0.8782  0.3906
 6065SOL    HW129831   3.422   0.067   1.383 -2.7284  2.4944  0.2366
 6065SOL    HW229832   3.358   0.048   1.257 -3.5570 -2.2746 -0.3902
 6066SOL     OW29833   2.341   1.004   0.916  0.5419  0.7950  0.6534
 6066SOL    HW129834   2.427   0.987   0.954 -0.2811 -0.9598  1.7280
 6066SOL    HW229835   2.354   1.083   0.863 -2.6120  1.1497  0.4142
 6067SOL     OW29836   4.150   3.578  15.907 -0.7794  0.1684 -0.5965
 6067SOL    HW129837   4.134   3.559  15.814 -2.6607 -0.3351 -0.1613
 6067SOL    HW229838   4.095   3.511  15.946  0.6063  1.0237  2.8119
 6068SOL     OW29839   0.146   3.092  12.398  0.7338 -0.1443  0.0414
 6068SOL    HW129840   0.138   3.182  12.429  0.0969 -0.1425 -0.1275
 6068SOL    HW229841   0.226   3.065  12.443  0.8779  1.0072  0.4795
 6069SOL     OW29842   3.990   4.407  15.749  0.1556  0.6639 -0.3150
 6069SOL    HW129843   3.956   4.428  15.663 -2.7372  0.9706  0.8882
 6069SOL    HW229844   3.906   4.400  15.795 -0.1719  1.0240 -0.8730
 6070SOL     OW29845   1.427   2.580   4.080 -0.0781  0.0664  0.1081
 6070SOL    HW129846   1.498   2.570   4.017  0.9946  2.0536  1.0018
 6070SOL    HW229847   1.391   2.664   4.049 -0.4723 -0.5620 -1.1404
 6071SOL     OW29848   0.861   1.261   3.678 -0.5362  0.3366 -0.8802
 6071SOL    HW129849   0.945   1.260   3.632 -1.1891 -2.8269 -2.0421
 6071SOL    HW229850   0.809   1.196   3.631 -3.2759  0.5120  1.9458
 6072SOL     OW29851   3.754   3.391   5.158  0.3360 -0.2003 -0.1294
 6072SOL    HW129852   3.721   3.472   5.196  0.7781  0.8790 -1.9946
 6072SOL    HW229853   3.780   3.414   5.069 -1.5934  0.5142 -0.5146
 6073SOL     OW29854   2.844   2.899   7.812 -0.1965 -0.0370 -0.3395
 6073SOL    HW129855   2.833   2.806   7.832  1.6759 -0.6174 -1.9748
 6073SOL    HW229856   2.928   2.897   7.767  0.1560  3.3262  0.1895
 6074SOL     OW29857   1.802   1.842   4.196  0.0059  0.3022 -0.4794
 6074SOL    HW129858   1.742   1.908   4.163  0.0260 -0.1370 -1.4036
 6074SOL    HW229859   1.826   1.877   4.281 -2.5119  0.2542  0.2251
 6075SOL     OW29860   2.297   0.377  16.715 -0.4355 -0.4590  0.4206
 6075SOL    HW129861   2.386   0.411  16.721 -0.4172 -0.2252 -1.1956
 6075SOL    HW229862   2.248   0.449  16.754  2.3791  0.8375  1.6082
 6076SOL     OW29863   3.800   4.502   6.100  0.1122  0.8616 -0.0296
 6076SOL    HW129864   3.814   4.566   6.029  1.2193  0.6125 -0.0262
 6076SOL    HW229865   3.859   4.437   6.063  0.0932  1.0896 -0.4597
 6077SOL     OW29866   4.508   3.870   3.667  0.8639  0.0822 -0.1706
 6077SOL    HW129867   4.491   3.844   3.758  2.2785 -1.3515 -0.3112
 6077SOL    HW229868   4.554   3.952   3.686 -1.4470  0.9062  1.8478
 6078SOL     OW29869   0.893   2.398   5.220 -0.0251 -0.2315  0.1810
 6078SOL    HW129870   0.943   2.479   5.210 -1.1394  0.5675  1.0901
 6078SOL    HW229871   0.840   2.393   5.140  1.1942  0.8823 -0.7070
 6079SOL     OW29872   3.164   2.815   5.480 -0.0972 -0.2254 -0.2523
 6079SOL    HW129873   3.087   2.871   5.469 -0.7121 -1.5244 -2.6441
 6079SOL    HW229874   3.228   2.879   5.446 -1.7053  1.5013 -0.0566
 6080SOL     OW29875   3.881   3.327   0.489 -0.6791 -0.0801  0.2995
 6080SOL    HW129876   3.818   3.344   0.419 -0.7826 -0.7817  0.2248
 6080SOL    HW229877   3.867   3.404   0.545  0.0289 -0.2827  0.7496
 6081SOL     OW29878   0.794   3.506  12.850 -0.0109 -0.0925 -0.3400
 6081SOL    HW129879   0.710   3.531  12.811 -0.8077 -1.8960  0.2362
 6081SOL    HW229880   0.754   3.434  12.898 -0.1655 -1.0214 -1.8572
 6082SOL     OW29881   0.250   4.173  12.766  0.1439  0.0471  0.6036
 6082SOL    HW129882   0.211   4.256  12.794 -2.2663 -0.5333 -0.9944
 6082SOL    HW229883   0.301   4.204  12.692 -1.0965 -0.4405 -0.4484
 6083SOL     OW29884   3.696   2.066   0.521  0.1078 -0.0321 -0.0519
 6083SOL    HW129885   3.712   2.054   0.614  1.3899  0.3905 -0.2146
 6083SOL    HW229886   3.601   2.074   0.530  0.0844 -2.7495  1.9554
 6084SOL     OW29887   1.284   0.641  11.013  0.1395  0.1521  0.4390
 6084SOL    HW129888   1.238   0.703  10.957  1.0683 -0.0963 -0.5840
 6084SOL    HW229889   1.236   0.559  10.999  0.7601 -0.2806  0.8390
 6085SOL     OW29890   1.990   0.773   1.762  0.5824 -0.1217 -0.0197
 6085SOL    HW129891   2.025   0.716   1.830 -0.8044 -0.3045  0.5457
 6085SOL    HW229892   1.990   0.856   1.810  2.0313  0.4534 -1.0053
 6086SOL     OW29893   2.337   2.515  15.203  0.0508  0.3967 -0.1461
 6086SOL    HW129894   2.327   2.543  15.112 -2.5545  2.2365  0.7205
 6086SOL    HW229895   2.320   2.600  15.245  1.6225  1.3676 -1.4525
 6087SOL     OW29896   0.388   0.017   2.046 -0.4515 -0.4142  0.6937
 6087SOL    HW129897   0.483   0.013   2.057 -0.2942 -1.6897 -1.1577
 6087SOL    HW229898   0.362   0.005   2.138  2.2678 -0.9337  1.3894
 6088SOL     OW29899   1.090   0.014   8.435 -0.0184  0.0494 -0.0897
 6088SOL    HW129900   1.139   0.067   8.373  0.0613 -0.3253 -0.3511
 6088SOL    HW229901   1.111   4.665   8.392  0.6199  0.5909 -0.8307
 6089SOL     OW29902   3.632   1.690  10.418 -0.1516  0.3492 -0.3418
 6089SOL    HW129903   3.660   1.599  10.426 -1.8156 -0.1294  0.2124
 6089SOL    HW229904   3.642   1.722  10.508 -0.5676  0.8559 -0.4774
 6090SOL     OW29905   2.278   0.896   7.530 -0.6043  0.4680 -0.3870
 6090SOL    HW129906   2.358   0.925   7.486 -1.1002  0.6142 -1.1955
 6090SOL    HW229907   2.271   0.808   7.491 -0.6929  0.7089 -0.9148
 6091SOL     OW29908   2.388   3.275   4.253  0.1772  0.3684 -0.1141
 6091SOL    HW129909   2.380   3.278   4.348 -1.7833 -0.5514 -0.2438
 6091SOL    HW229910   2.348   3.357   4.222  2.5701  1.6082  0.1279
 6092SOL     OW29911   0.176   1.763   8.753 -0.0319 -0.0287  0.8895
 6092SOL    HW129912   0.088   1.727   8.763 -0.2703  0.7051  1.3588
 6092SOL    HW229913   0.215   1.761   8.840 -0.5263  1.6664  1.1362
 6093SOL     OW29914   2.045   3.151   7.384  0.3378 -0.5901 -0.4322
 6093SOL    HW129915   2.083   3.078   7.432 -1.4139 -1.4494 -0.3595
 6093SOL    HW229916   2.123   3.206   7.374 -0.7721  1.0960  0.1308
 6094SOL     OW29917   1.237   3.974   8.969  0.0263  0.6569 -0.2628
 6094SOL    HW129918   1.187   3.896   8.992  1.9463 -0.2948  0.7972
 6094SOL    HW229919   1.278   4.000   9.052 -2.0903 -0.0752  1.0015
 6095SOL     OW29920   2.018   3.504   9.797 -0.2346  0.3412  0.5635
 6095SOL    HW129921   2.050   3.583   9.840 -0.8737  0.5912  0.5690
 6095SOL    HW229922   1.972   3.543   9.723 -0.6131 -1.0251  0.0696
 6096SOL     OW29923   3.857   0.178   2.320 -0.1471 -0.1762 -0.2881
 6096SOL    HW129924   3.868   0.087   2.347  2.8212  0.3681  0.3922
 6096SOL    HW229925   3.764   0.180   2.298 -0.8027 -2.0195  2.3588
 6097SOL     OW29926   3.694   0.720   3.925 -0.4505  0.0346  0.0117
 6097SOL    HW129927   3.692   0.760   4.012  1.1776 -0.3497  0.2190
 6097SOL    HW229928   3.614   0.668   3.935  2.0077 -3.5809  0.7987
 6098SOL     OW29929   3.456   1.469   3.508 -0.5451 -0.2036 -0.1102
 6098SOL    HW129930   3.450   1.552   3.556 -3.5302 -0.9178  0.7039
 6098SOL    HW229931   3.437   1.408   3.579  1.8611 -1.2512 -0.3694
 6099SOL     OW29932   1.979   3.524   2.374 -0.0833 -0.1006  0.8057
 6099SOL    HW129933   1.950   3.456   2.313 -0.3396  1.6623 -1.0538
 6099SOL    HW229934   1.900   3.546   2.424 -0.4529  1.5697 -0.5171
 6100SOL     OW29935   0.707   2.024  12.255 -0.4786 -0.4149  0.3963
 6100SOL    HW129936   0.794   2.006  12.291 -0.6005 -1.9023 -0.0553
 6100SOL    HW229937   0.731   2.036  12.163 -1.7740 -4.3745 -0.4814
 6101SOL     OW29938   0.284   1.245   0.448  0.4301 -0.1066 -0.0751
 6101SOL    HW129939   0.309   1.182   0.515 -1.8022  0.7420  1.5606
 6101SOL    HW229940   0.352   1.215   0.387  0.5077 -0.5910  0.2489
 6102SOL     OW29941   1.354   0.080   7.221 -0.3733 -0.6461  0.2495
 6102SOL    HW129942   1.369   0.037   7.136  1.4144 -2.0690  1.2879
 6102SOL    HW229943   1.326   0.004   7.272 -1.4758  0.2880  1.0357
 6103SOL     OW29944   4.537   0.550   1.669  0.6380  0.6655 -0.1583
 6103SOL    HW129945   4.590   0.474   1.645 -1.6263 -0.8038 -0.4764
 6103SOL    HW229946   4.530   0.535   1.763  1.9343  1.1060  0.0105
 6104SOL     OW29947   0.159   3.597   5.065 -0.0698 -0.2785 -0.1716
 6104SOL    HW129948   0.199   3.648   5.135 -0.3139 -0.8086  0.3560
 6104SOL    HW229949   0.070   3.633   5.060  0.4896  1.1508  0.2734
 6105SOL     OW29950   2.521   2.621  11.707 -0.0996  0.0506 -0.3057
 6105SOL    HW129951   2.551   2.579  11.787  0.3480  1.9707  0.5277
 6105SOL    HW229952   2.456   2.561  11.670 -2.4118  1.7431  0.9674
 6106SOL     OW29953   1.371   4.307   7.746 -0.1337 -0.0671  0.4581
 6106SOL    HW129954   1.341   4.286   7.834 -1.3979 -1.1833 -0.2331
 6106SOL    HW229955   1.379   4.218   7.711 -0.3765 -0.2623  0.8947
 6107SOL     OW29956   0.531   3.537  12.730  0.3113 -0.0610  0.8422
 6107SOL    HW129957   0.483   3.454  12.733 -1.1309  0.7059 -0.6189
 6107SOL    HW229958   0.460   3.597  12.709  1.3151  0.9781  0.4291
 6108SOL     OW29959   1.916   3.183   2.410  0.0042 -0.1079 -0.6004
 6108SOL    HW129960   1.901   3.175   2.316 -1.3518 -2.2053 -0.2398
 6108SOL    HW229961   2.008   3.164   2.425 -0.4369 -0.8955  1.1846
 6109SOL     OW29962   2.498   4.104   5.573 -0.0391 -0.6909 -0.2373
 6109SOL    HW129963   2.570   4.080   5.631 -1.0031  0.2272  1.3489
 6109SOL    HW229964   2.460   4.184   5.609 -1.0012 -1.4877  0.5037
 6110SOL     OW29965   1.832   0.214   8.524 -0.2406  0.1592  0.3290
 6110SOL    HW129966   1.792   0.284   8.473 -1.2307 -1.6126 -1.3209
 6110SOL    HW229967   1.773   0.139   8.514 -1.6854  1.5706 -1.7776
 6111SOL     OW29968   3.285   1.488   2.997 -0.0434 -0.2064 -0.1281
 6111SOL    HW129969   3.298   1.555   3.064  0.9122 -1.3867  0.8437
 6111SOL    HW229970   3.289   1.409   3.050  0.1477 -0.2909 -0.2681
 6112SOL     OW29971   3.935   3.343   2.121  0.6780 -0.3994 -0.5967
 6112SOL    HW129972   3.984   3.326   2.201 -1.6924  1.1675  1.1863
 6112SOL    HW229973   3.949   3.270   2.060 -0.6062 -2.2727  1.3416
 6113SOL     OW29974   4.527   0.028   6.711  0.0955  0.5827  0.1263
 6113SOL    HW129975   4.597   0.071   6.662 -1.0060  0.4588 -1.5626
 6113SOL    HW229976   4.585   4.706   6.762  0.0652  0.6084  0.1886
 6114SOL     OW29977   4.187   1.116   8.329 -0.4324  0.5931 -0.6315
 6114SOL    HW129978   4.188   1.125   8.233  2.8066 -0.7427 -0.7235
 6114SOL    HW229979   4.252   1.047   8.338  1.6433  2.5494 -0.4980
 6115SOL     OW29980   3.636   0.222   3.749  0.7900 -0.1922  0.2675
 6115SOL    HW129981   3.582   0.244   3.673 -0.1817 -1.9650  0.4363
 6115SOL    HW229982   3.686   0.303   3.750  0.1043  0.2170  1.4736
 6116SOL     OW29983   0.282   1.535   4.666 -0.1159 -0.7563 -0.0151
 6116SOL    HW129984   0.333   1.495   4.736  1.8665  0.3231 -0.8334
 6116SOL    HW229985   0.213   1.471   4.652  0.1452 -0.9442 -0.4221
 6117SOL     OW29986   1.995   2.938   6.040 -0.4443  0.0225 -0.1433
 6117SOL    HW129987   1.919   2.910   6.091 -1.2360  3.7168  0.7202
 6117SOL    HW229988   1.991   2.873   5.970  0.0138 -0.3931  0.2156
 6118SOL     OW29989   2.829   3.628   9.064  0.1450 -0.7381 -0.3621
 6118SOL    HW129990   2.802   3.553   9.116  1.8469 -3.5206 -3.4757
 6118SOL    HW229991   2.838   3.587   8.978 -1.2441  0.4097 -1.0657
 6119SOL     OW29992   0.391   4.236  12.506 -0.2161 -0.0400 -0.0304
 6119SOL    HW129993   0.466   4.177  12.495 -1.4607 -1.0785 -2.9996
 6119SOL    HW229994   0.337   4.217  12.429 -1.2378 -0.6200  0.8213
 6120SOL     OW29995   1.848   2.850   6.378 -0.1234 -0.1486  0.3135
 6120SOL    HW129996   1.942   2.832   6.373  0.1118  0.9845  0.8654
 6120SOL    HW229997   1.818   2.759   6.377 -2.7758  0.7259  0.1725
 6121SOL     OW29998   3.316   4.628  12.242  0.0011 -0.0111 -0.4301
 6121SOL    HW129999   3.229   4.668  12.250 -0.5394 -1.4331  0.6735
 6121SOL    HW230000   3.328   4.635  12.147 -1.5200 -0.4548 -0.6458
 6122SOL     OW30001   1.299   3.724   2.975  0.4835  0.1978 -0.3065
 6122SOL    HW130002   1.375   3.674   2.945 -0.0272  0.2124 -1.6222
 6122SOL    HW230003   1.299   3.791   2.906 -1.1048 -1.7082 -2.1885
 6123SOL     OW30004   3.037   3.243   5.437 -0.4954 -0.4239  0.3561
 6123SOL    HW130005   2.951   3.226   5.399 -1.1115  1.7091  0.8145
 6123SOL    HW230006   3.025   3.213   5.527  0.0246 -0.3406  0.4573
 6124SOL     OW30007   3.525   3.514   7.008  0.0892  0.3045  0.3772
 6124SOL    HW130008   3.612   3.478   6.989 -0.2085 -1.0970  1.7483
 6124SOL    HW230009   3.551   3.589   7.062  1.0735  0.1445  0.1386
 6125SOL     OW30010   1.926   0.556   5.812 -0.5564  0.6536 -0.0188
 6125SOL    HW130011   2.003   0.585   5.861  0.1672  0.8284 -1.2463
 6125SOL    HW230012   1.954   0.581   5.724  0.0180 -1.0742 -0.3263
 6126SOL     OW30013   0.401   0.309  16.409  0.2821  0.0808  0.5134
 6126SOL    HW130014   0.492   0.296  16.434  0.3874  0.4940  0.3499
 6126SOL    HW230015   0.405   0.286  16.317 -1.1829 -1.4050  0.8268
 6127SOL     OW30016   0.312   2.636   2.112 -0.0203 -0.0669  0.1481
 6127SOL    HW130017   0.359   2.553   2.101  1.7128  0.8571  0.5063
 6127SOL    HW230018   0.267   2.629   2.196 -2.6924  0.7278 -1.2328
 6128SOL     OW30019   3.831   1.470  13.171  0.4490 -0.3724 -0.1246
 6128SOL    HW130020   3.830   1.565  13.163 -1.7361 -0.3262  0.7878
 6128SOL    HW230021   3.856   1.449  13.080  1.4480 -0.8582  0.2572
 6129SOL     OW30022   1.647   1.059   2.286 -0.1437  0.2089 -0.0101
 6129SOL    HW130023   1.689   0.988   2.237 -0.6024 -0.3051  0.3351
 6129SOL    HW230024   1.683   1.048   2.374  0.5423 -0.9107 -0.4299
 6130SOL     OW30025   1.326   1.195   0.319  0.9755  0.7111  0.1067
 6130SOL    HW130026   1.375   1.257   0.265 -1.1566  1.2616 -1.1930
 6130SOL    HW230027   1.240   1.188   0.278  0.2985 -0.8058  1.7708
 6131SOL     OW30028   4.436   2.192   8.370 -0.4114  1.0263  0.5502
 6131SOL    HW130029   4.497   2.124   8.396 -0.7381  1.0562  1.4046
 6131SOL    HW230030   4.457   2.265   8.428 -0.0221  0.1875  1.4744
 6132SOL     OW30031   3.900   4.445  10.427 -0.7459 -0.2315  0.5211
 6132SOL    HW130032   3.959   4.372  10.408  1.8438  1.8419  0.5491
 6132SOL    HW230033   3.948   4.525  10.403 -2.0245  0.5644  0.6449
 6133SOL     OW30034   3.640   0.267   5.828  0.1239 -0.4994  0.3752
 6133SOL    HW130035   3.618   0.179   5.796  0.1804  0.0621 -1.2022
 6133SOL    HW230036   3.731   0.278   5.802  0.2825 -3.0706 -0.1969
 6134SOL     OW30037   1.549   2.567   7.984  0.0402 -0.1600  0.6335
 6134SOL    HW130038   1.481   2.625   8.016 -1.1818  0.0525 -2.3315
 6134SOL    HW230039   1.609   2.574   8.058  1.5516  1.8553 -0.7868
 6135SOL     OW30040   4.164   3.157   2.542  0.2213 -0.1238 -0.3361
 6135SOL    HW130041   4.151   3.062   2.536 -1.2518  0.2062 -2.4471
 6135SOL    HW230042   4.147   3.187   2.631 -0.9804 -0.9386 -0.2868
 6136SOL     OW30043   2.574   0.808  12.267  0.5733  0.0455  0.2940
 6136SOL    HW130044   2.525   0.849  12.338 -2.0740 -0.6676 -1.1269
 6136SOL    HW230045   2.623   0.748  12.324  0.3145 -1.4072 -1.0131
 6137SOL     OW30046   0.273   1.703   9.712 -0.2619 -0.4034  0.2145
 6137SOL    HW130047   0.296   1.622   9.757  1.8821  0.2641  0.2894
 6137SOL    HW230048   0.270   1.758   9.790  0.8013 -1.3439  0.9146
 6138SOL     OW30049   1.538   4.664   6.074  0.1001  0.2515  0.1456
 6138SOL    HW130050   1.621   4.699   6.041  0.5242  0.1617  1.1139
 6138SOL    HW230051   1.482   0.007   6.072 -0.0271  0.1477 -0.2796
 6139SOL     OW30052   2.036   1.816   0.789  0.1445 -0.2045 -0.4576
 6139SOL    HW130053   1.946   1.788   0.805 -0.1015  0.3875 -0.7941
 6139SOL    HW230054   2.023   1.852   0.701 -0.1681 -0.7976 -0.6496
 6140SOL     OW30055   3.223   2.373   9.222  0.2148 -0.0709  0.5309
 6140SOL    HW130056   3.291   2.428   9.262 -1.2779  0.4630  2.3225
 6140SOL    HW230057   3.147   2.422   9.252  0.2370 -1.4751  2.8625
 6141SOL     OW30058   3.519   4.476   2.308 -0.1459  0.2393  0.2139
 6141SOL    HW130059   3.496   4.480   2.216  0.3920  1.1935  0.1223
 6141SOL    HW230060   3.477   4.394   2.335  1.3708 -0.3204  0.9199
 6142SOL     OW30061   1.126   2.050   7.787 -0.3982  0.1220  0.3649
 6142SOL    HW130062   1.217   2.028   7.809 -0.2859  1.0592  0.7942
 6142SOL    HW230063   1.103   1.962   7.757  0.3875 -0.2011  0.7087
 6143SOL     OW30064   1.297   3.193  15.980 -0.0322 -0.2499  0.0947
 6143SOL    HW130065   1.257   3.273  15.948 -2.2332 -0.8370  1.3614
 6143SOL    HW230066   1.238   3.153  16.044 -2.1565 -1.1873 -2.4388
 6144SOL     OW30067   0.200   4.012   1.969 -0.1927 -0.4499 -0.1207
 6144SOL    HW130068   0.239   3.951   1.907  1.7538  0.7507 -0.0849
 6144SOL    HW230069   0.211   4.096   1.925  0.0706  0.8316  2.3817
 6145SOL     OW30070   4.489   3.526   8.057  0.0700  0.0605  0.2987
 6145SOL    HW130071   4.416   3.469   8.031 -0.2326  0.4350  0.3217
 6145SOL    HW230072   4.537   3.488   8.131  1.6377  2.5317  0.5508
 6146SOL     OW30073   3.831   0.205  15.646 -0.0903 -0.1073 -0.7435
 6146SOL    HW130074   3.899   0.138  15.638  0.1000 -0.3097  2.6268
 6146SOL    HW230075   3.810   0.199  15.739 -0.6559  1.7910 -0.7334
 6147SOL     OW30076   2.802   2.212   3.131 -0.2424  0.3120  0.3875
 6147SOL    HW130077   2.724   2.260   3.158 -1.5563 -0.9094 -1.2646
 6147SOL    HW230078   2.850   2.213   3.214 -0.7172 -0.6473  0.6734
 6148SOL     OW30079   4.120   3.803   4.848 -0.6468  0.1064  0.3874
 6148SOL    HW130080   4.057   3.861   4.804  0.8518  1.6842  0.3093
 6148SOL    HW230081   4.054   3.762   4.904 -2.3600  0.7531 -1.1335
 6149SOL     OW30082   1.404   2.990   0.776  0.5617  0.0633  0.0561
 6149SOL    HW130083   1.429   2.996   0.868 -0.8674  0.8062  0.4072
 6149SOL    HW230084   1.375   2.900   0.760 -1.0464  0.3794  1.1596
 6150SOL     OW30085   1.045   2.298   2.385 -0.1131  0.1868 -0.3674
 6150SOL    HW130086   1.083   2.344   2.310 -0.0466  1.7074  0.6200
 6150SOL    HW230087   1.126   2.274   2.430 -0.6681  0.3476  0.7164
 6151SOL     OW30088   3.914   1.569   6.755  0.2258 -0.6703  0.7612
 6151SOL    HW130089   3.860   1.545   6.830 -1.6244  0.8757 -0.0966
 6151SOL    HW230090   3.954   1.648   6.792 -2.2407 -0.3589  2.7207
 6152SOL     OW30091   3.164   1.489   6.388 -0.0934 -0.0208 -0.0794
 6152SOL    HW130092   3.234   1.434   6.350  0.4047  1.9347 -2.0088
 6152SOL    HW230093   3.141   1.428   6.457 -2.4413  0.3900 -0.5081
 6153SOL     OW30094   2.216   1.169   4.861 -0.0520 -0.0960 -0.4391
 6153SOL    HW130095   2.292   1.210   4.821 -0.1491  0.6782  0.1603
 6153SOL    HW230096   2.171   1.135   4.784 -2.0423 -0.0028  0.6729
 6154SOL     OW30097   3.065   2.719   6.290 -0.4171  0.8483  0.3847
 6154SOL    HW130098   3.073   2.814   6.281  0.3934  0.7785  0.4227
 6154SOL    HW230099   3.150   2.699   6.328 -0.1733 -2.1348 -1.7488
 6155SOL     OW30100   0.165   3.318  12.909 -0.4096 -0.2393  0.2455
 6155SOL    HW130101   0.174   3.386  12.976  0.4406 -0.9240  0.8095
 6155SOL    HW230102   0.219   3.247  12.940 -2.8275 -2.1008  0.1921
 6156SOL     OW30103   3.755   1.028   8.171  0.0553 -0.2560  0.4028
 6156SOL    HW130104   3.703   1.108   8.169  0.2750 -0.0833  1.4764
 6156SOL    HW230105   3.810   1.065   8.241 -0.6991 -0.4286  1.0799
 6157SOL     OW30106   1.226   2.366  10.176  0.2271  0.4381  0.2739
 6157SOL    HW130107   1.282   2.387  10.101  1.5333 -1.6694  0.6569
 6157SOL    HW230108   1.188   2.286  10.138  0.9700  0.5952 -0.8019
 6158SOL     OW30109   0.998   3.599   7.983 -0.0971 -0.2808 -0.1664
 6158SOL    HW130110   1.001   3.615   8.077 -0.2521 -0.7557 -0.0846
 6158SOL    HW230111   1.092   3.581   7.974  0.3239  0.5963  2.4145
 6159SOL     OW30112   4.171   2.887  10.150 -0.0031 -0.5093  0.5949
 6159SOL    HW130113   4.086   2.845  10.168  0.1552 -1.1865 -0.1889
 6159SOL    HW230114   4.240   2.823  10.166 -0.2210 -0.4654  1.6774
 6160SOL     OW30115   3.620   4.136   8.216 -0.2942  0.1489 -0.1252
 6160SOL    HW130116   3.648   4.071   8.280  0.4661  0.5818 -0.0103
 6160SOL    HW230117   3.537   4.164   8.254 -0.8563 -1.3714 -0.2048
 6161SOL     OW30118   2.114   0.002   1.930  0.0841  0.2946  0.1451
 6161SOL    HW130119   2.032   0.019   1.976  0.7371  0.7993  1.1307
 6161SOL    HW230120   2.166   0.078   1.956 -3.0224  1.4256  3.0628
 6162SOL     OW30121   3.747   2.397   5.726  0.4843  0.6181  0.2789
 6162SOL    HW130122   3.772   2.339   5.798 -1.0417 -0.8009 -0.3372
 6162SOL    HW230123   3.702   2.337   5.667  1.4032  1.2929 -1.1093
 6163SOL     OW30124   3.487   3.417  17.177  0.1252 -0.1399  0.1895
 6163SOL    HW130125   3.455   3.327  17.172 -0.2645  0.0357 -0.4595
 6163SOL    HW230126   3.409   3.470  17.194  0.2518 -0.3022  1.2680
 6164SOL     OW30127   1.560   2.704   9.276 -0.8330  0.3525  0.0097
 6164SOL    HW130128   1.521   2.731   9.193  0.5071  0.4245 -0.5943
 6164SOL    HW230129   1.519   2.619   9.287  1.3460 -0.5753  0.9238
 6165SOL     OW30130   0.251   2.523   3.734  0.0874  0.2980 -0.1100
 6165SOL    HW130131   0.226   2.607   3.773 -2.5928  0.0177 -1.2163
 6165SOL    HW230132   0.322   2.499   3.793  1.1196  1.0262 -1.0646
 6166SOL     OW30133   4.153   3.136  15.228  0.0855 -0.1415 -0.7493
 6166SOL    HW130134   4.242   3.148  15.259  0.2607  0.3162 -1.4347
 6166SOL    HW230135   4.155   3.044  15.201 -1.6835 -0.2733 -0.4252
 6167SOL     OW30136   0.925   4.493   1.471  0.1304  0.6253  0.7229
 6167SOL    HW130137   0.901   4.506   1.380  0.0664 -1.4466  0.4508
 6167SOL    HW230138   1.011   4.458   1.448 -0.5370 -1.1252  0.8731
 6168SOL     OW30139   0.984   3.210   5.094 -0.4683 -0.4533 -0.2860
 6168SOL    HW130140   0.918   3.247   5.152 -0.8123  0.7145 -1.4272
 6168SOL    HW230141   1.032   3.293   5.091 -0.3321 -0.5254 -0.0689
 6169SOL     OW30142   0.323   2.993   2.607  0.2876 -0.2474  0.0373
 6169SOL    HW130143   0.303   2.963   2.696 -1.0881 -0.4156 -0.3311
 6169SOL    HW230144   0.417   3.012   2.616  0.2520  0.0609 -0.2262
 6170SOL     OW30145   3.377   2.328   6.287 -0.0454 -0.3109  0.2631
 6170SOL    HW130146   3.374   2.360   6.197  0.4128  0.9305  0.6930
 6170SOL    HW230147   3.372   2.233   6.282  1.2299 -0.1951 -3.0248
 6171SOL     OW30148   2.938   1.482   4.064 -0.1516 -0.0098  0.0600
 6171SOL    HW130149   2.877   1.424   4.018  1.4101 -2.9067  1.6230
 6171SOL    HW230150   2.931   1.449   4.154 -1.5007 -2.7541 -1.0428
 6172SOL     OW30151   4.220   4.262  15.745 -0.2280 -0.0228  0.1533
 6172SOL    HW130152   4.130   4.295  15.747  0.0731  0.8668 -0.9753
 6172SOL    HW230153   4.228   4.233  15.654  1.8253 -0.6751  0.5469
 6173SOL     OW30154   0.477   3.639  10.586  0.1136 -0.3957 -0.2149
 6173SOL    HW130155   0.514   3.714  10.538 -1.6959 -0.0559 -1.0695
 6173SOL    HW230156   0.533   3.639  10.663 -0.6885 -0.0013  0.3692
 6174SOL     OW30157   2.386   4.312   7.361  0.3604  0.5594 -0.0583
 6174SOL    HW130158   2.356   4.286   7.273 -1.8038 -0.2171  0.9119
 6174SOL    HW230159   2.311   4.365   7.390 -1.4649 -1.9252 -0.2303
 6175SOL     OW30160   1.348   2.246   7.601 -0.0468  1.1414 -0.3605
 6175SOL    HW130161   1.415   2.257   7.670  0.4410 -0.6128 -0.5741
 6175SOL    HW230162   1.337   2.152   7.609  1.7847  0.9423  0.0233
 6176SOL     OW30163   4.633   0.012   9.014 -0.3767 -0.1818  0.2175
 6176SOL    HW130164   4.620   4.651   9.013 -1.5024 -0.0335  0.5563
 6176SOL    HW230165   4.723   0.001   9.045  0.2337 -1.3967 -1.9858
 6177SOL     OW30166   0.202   3.253   7.041 -0.0646  0.3076  0.3754
 6177SOL    HW130167   0.144   3.179   7.025 -1.3537  0.8591  2.4839
 6177SOL    HW230168   0.166   3.279   7.126  1.9750  1.8786  0.7599
 6178SOL     OW30169   1.958   4.316   2.610  0.1804 -0.2763  0.2580
 6178SOL    HW130170   2.027   4.376   2.636  0.1859 -0.1231 -0.1071
 6178SOL    HW230171   1.986   4.226   2.629  0.5110  0.3892  2.8495
 6179SOL     OW30172   4.495   1.551   0.814 -0.1846 -0.0009  0.0667
 6179SOL    HW130173   4.486   1.616   0.884 -2.5126 -0.8919  0.6045
 6179SOL    HW230174   4.571   1.499   0.841  1.2788  1.7311 -0.7116
 6180SOL     OW30175   0.994   1.515  10.545 -0.1689 -0.5317 -0.3929
 6180SOL    HW130176   1.022   1.571  10.473 -1.9309 -0.0762 -0.7239
 6180SOL    HW230177   0.938   1.457  10.493 -2.5074  0.6243  0.8219
 6181SOL     OW30178   1.154   1.469  17.717 -0.2854 -0.7079 -0.4025
 6181SOL    HW130179   1.100   1.519   0.043 -0.5840 -0.4139 -0.9075
 6181SOL    HW230180   1.106   1.387  17.705 -0.5580 -0.4279 -1.2605
 6182SOL     OW30181   0.674   4.184   1.295  0.0915  0.5530 -0.0213
 6182SOL    HW130182   0.586   4.187   1.333 -0.5415  1.3081 -1.5248
 6182SOL    HW230183   0.722   4.147   1.369  1.3520 -2.1505 -2.1738
 6183SOL     OW30184   3.392   2.516   9.380 -0.4611 -0.1497 -0.4462
 6183SOL    HW130185   3.375   2.549   9.468 -2.4823  0.6544 -1.1492
 6183SOL    HW230186   3.486   2.511   9.361 -0.6456 -2.0690 -0.8488
 6184SOL     OW30187   3.353   2.500   4.520 -0.1340 -0.3697  0.2872
 6184SOL    HW130188   3.428   2.473   4.574 -0.5492 -1.9811  0.0577
 6184SOL    HW230189   3.359   2.595   4.532 -0.4998 -0.1890 -0.9161
 6185SOL     OW30190   2.349   2.674  12.332  0.4696 -0.4231 -0.3601
 6185SOL    HW130191   2.255   2.671  12.314  0.7389 -0.2725 -1.7828
 6185SOL    HW230192   2.378   2.631  12.252 -1.1657 -1.0182 -0.6345
 6186SOL     OW30193   1.964   2.043  16.791  0.2901  0.3726 -0.4687
 6186SOL    HW130194   1.943   2.013  16.879  0.0264  1.4104 -0.1826
 6186SOL    HW230195   2.023   1.971  16.770 -1.6115 -1.5786  0.8524
 6187SOL     OW30196   3.379   0.614   5.726  0.6811 -0.1620 -0.1146
 6187SOL    HW130197   3.388   0.671   5.650  0.0212 -1.1863 -0.9535
 6187SOL    HW230198   3.298   0.642   5.770  1.0981 -0.2349  0.7025
 6188SOL     OW30199   1.950   4.431   3.040 -0.3671  0.2706 -0.0610
 6188SOL    HW130200   1.897   4.356   3.014 -2.3851  1.7920 -0.2873
 6188SOL    HW230201   2.023   4.441   2.978 -0.2468 -3.6984 -0.5433
 6189SOL     OW30202   4.294   1.516   3.368  0.0731  0.5191  0.4833
 6189SOL    HW130203   4.234   1.461   3.418 -0.3893  0.0658 -0.5719
 6189SOL    HW230204   4.237   1.584   3.332  0.5691  0.6691 -0.0232
 6190SOL     OW30205   1.747   1.165   8.491  0.0430 -0.2235  0.2491
 6190SOL    HW130206   1.736   1.173   8.396  0.1553 -0.8794  0.1832
 6190SOL    HW230207   1.745   1.070   8.499  0.1023 -0.3681 -1.5389
 6191SOL     OW30208   3.552   2.492   5.432 -0.1100  0.2394  0.1255
 6191SOL    HW130209   3.465   2.516   5.402 -0.3807 -2.6903 -1.5081
 6191SOL    HW230210   3.600   2.477   5.350 -0.2084 -0.9029  0.2767
 6192SOL     OW30211   0.236   0.235   2.864 -0.2190 -0.0350  0.2220
 6192SOL    HW130212   0.219   0.267   2.776  0.8903  3.1543  1.1608
 6192SOL    HW230213   0.245   0.326   2.893  1.0163  0.3564 -1.3888
 6193SOL     OW30214   1.246   3.946   6.408  0.1461 -0.1606  0.3551
 6193SOL    HW130215   1.219   4.035   6.389  2.4143  0.2819 -0.8136
 6193SOL    HW230216   1.337   3.960   6.434  0.1357 -0.6884  0.6915
 6194SOL     OW30217   3.284   2.170   2.175 -0.3842  0.0298 -0.1954
 6194SOL    HW130218   3.286   2.194   2.268 -2.9289 -0.1481 -0.0745
 6194SOL    HW230219   3.208   2.217   2.139  0.2816  0.2687 -1.2907
 6195SOL     OW30220   4.233   0.079   7.590 -0.6516 -0.3300 -0.3733
 6195SOL    HW130221   4.176   0.105   7.663  1.4566  1.1816  0.7288
 6195SOL    HW230222   4.159   0.037   7.547 -1.0726  0.6975 -0.6581
 6196SOL     OW30223   3.575   0.224   8.093  0.2705  0.0400  0.3318
 6196SOL    HW130224   3.654   0.180   8.124  1.0946  0.5564 -1.0308
 6196SOL    HW230225   3.560   0.181   8.008  0.8737 -1.6675  1.0871
 6197SOL     OW30226   1.624   1.267   2.796  0.0456  0.0067 -0.4144
 6197SOL    HW130227   1.545   1.276   2.743  0.1076 -1.3775 -0.7434
 6197SOL    HW230228   1.689   1.306   2.736 -0.1951 -1.3584 -1.5669
 6198SOL     OW30229   2.672   1.630   3.491 -0.5845 -0.3302 -0.1762
 6198SOL    HW130230   2.715   1.685   3.425 -1.4464  1.2540  0.5811
 6198SOL    HW230231   2.711   1.676   3.566 -1.4482  0.5369 -0.2538
 6199SOL     OW30232   2.516   3.096  16.079  0.2722  0.0250 -0.1949
 6199SOL    HW130233   2.592   3.058  16.036 -0.9043 -1.7141 -0.7561
 6199SOL    HW230234   2.511   3.188  16.053  0.7055 -0.6515 -2.7483
 6200SOL     OW30235   4.417   3.575  15.906 -0.7001  0.1666  0.0242
 6200SOL    HW130236   4.325   3.589  15.928 -1.1295  0.2123 -1.8311
 6200SOL    HW230237   4.435   3.483  15.926 -1.2214 -0.0287 -0.4310
 6201SOL     OW30238   0.386   4.215   4.917  0.2320  0.1059  0.0675
 6201SOL    HW130239   0.451   4.270   4.960  2.8073 -2.2644 -0.7876
 6201SOL    HW230240   0.418   4.138   4.964  0.2645  0.9319  1.3870
 6202SOL     OW30241   2.079   3.140  13.246 -0.0764 -0.4202 -0.0872
 6202SOL    HW130242   2.164   3.149  13.290  0.6371  2.5673 -2.0419
 6202SOL    HW230243   2.096   3.199  13.172 -0.2246 -0.6037 -0.2648
 6203SOL     OW30244   4.680   1.691   7.657 -0.3913 -0.9037 -0.2702
 6203SOL    HW130245   4.670   1.762   7.720  2.1078  0.5018 -1.4532
 6203SOL    HW230246   0.040   1.674   7.655 -0.6740 -2.4405 -0.8012
 6204SOL     OW30247   0.425   0.460   7.650  0.1449 -0.2213 -0.8151
 6204SOL    HW130248   0.400   0.372   7.622 -0.5739  0.1462 -1.3166
 6204SOL    HW230249   0.364   0.473   7.723 -1.2997  0.5183 -2.1507
 6205SOL     OW30250   2.720   4.063   5.720 -0.5262  0.2942 -0.8259
 6205SOL    HW130251   2.775   3.986   5.705  0.3773  0.7486  0.1452
 6205SOL    HW230252   2.783   4.127   5.688  0.1338  0.7207  1.3482
 6206SOL     OW30253   3.624   1.583   3.007 -0.0736 -0.5414  0.2524
 6206SOL    HW130254   3.718   1.567   3.019 -0.0934 -1.4784 -0.8674
 6206SOL    HW230255   3.580   1.537   3.079 -0.0798  0.9276  1.1936
 6207SOL     OW30256   4.492   1.304   8.841 -0.2934 -0.3383 -0.0162
 6207SOL    HW130257   4.421   1.369   8.846  0.5001  0.6129 -1.3390
 6207SOL    HW230258   4.548   1.332   8.914  0.4198 -0.1380 -0.6481
 6208SOL     OW30259   4.378   3.615   4.859 -0.5107  0.2302  0.0560
 6208SOL    HW130260   4.439   3.591   4.788  2.0608 -0.0407  2.3503
 6208SOL    HW230261   4.328   3.684   4.815  0.0003 -0.3410 -1.4305
 6209SOL     OW30262   3.846   0.985   3.517 -0.2238  0.8208  0.1472
 6209SOL    HW130263   3.895   0.991   3.599  1.3999 -0.0544 -0.7649
 6209SOL    HW230264   3.914   1.019   3.459 -0.6102 -2.0849 -1.9937
 6210SOL     OW30265   0.468   3.708   5.478  0.8174  0.1081 -0.0982
 6210SOL    HW130266   0.394   3.682   5.533 -0.4362  0.3172 -1.6826
 6210SOL    HW230267   0.510   3.765   5.543 -0.4096  0.6606  0.2010
 6211SOL     OW30268   0.286   4.365   7.093 -0.1272 -0.7398 -0.0939
 6211SOL    HW130269   0.195   4.394   7.093  0.1233  0.0555  2.6251
 6211SOL    HW230270   0.325   4.452   7.089 -1.2533 -0.2563 -0.5798
 6212SOL     OW30271   4.325   0.307   4.547  0.0239 -0.0449 -0.0685
 6212SOL    HW130272   4.302   0.395   4.519 -0.4254 -0.9334 -2.5237
 6212SOL    HW230273   4.332   0.254   4.467  0.6692 -3.0096  1.9458
 6213SOL     OW30274   1.114   2.813   7.916  0.2431  0.7551  0.0346
 6213SOL    HW130275   1.077   2.899   7.935  2.1992  0.8941  3.1255
 6213SOL    HW230276   1.170   2.843   7.844 -0.3623  2.5210  0.3016
 6214SOL     OW30277   3.410   2.553   6.106 -0.8789  0.3055  0.2049
 6214SOL    HW130278   3.475   2.522   6.044 -1.8099  0.2168 -0.7280
 6214SOL    HW230279   3.416   2.648   6.113 -1.8318  0.3482  0.5067
 6215SOL     OW30280   0.212   1.456  14.069  0.6282  0.0159 -0.0094
 6215SOL    HW130281   0.151   1.516  14.027  0.3080 -0.1841  0.1755
 6215SOL    HW230282   0.158   1.379  14.053 -1.1786  0.8102  2.2835
 6216SOL     OW30283   2.848   1.196   4.410 -0.4201 -0.0907 -0.4515
 6216SOL    HW130284   2.925   1.166   4.363 -0.6728 -0.0625 -0.8807
 6216SOL    HW230285   2.851   1.289   4.386 -0.3192  0.3541  1.2533
 6217SOL     OW30286   0.240   0.250  12.486 -0.0485  0.2694  0.2106
 6217SOL    HW130287   0.208   0.296  12.408  0.0268 -2.6220 -1.5301
 6217SOL    HW230288   0.331   0.236  12.459  0.1634  1.0845  0.4945
 6218SOL     OW30289   4.072   2.842   7.311  0.0849 -0.5471 -0.4350
 6218SOL    HW130290   3.998   2.782   7.304 -1.9386  1.7729  1.0391
 6218SOL    HW230291   4.107   2.795   7.386 -1.2699  0.6904  0.9595
 6219SOL     OW30292   2.098   2.901  17.670 -0.0367 -0.3834 -0.6785
 6219SOL    HW130293   2.105   2.994  17.647 -0.3571  0.5243  2.8567
 6219SOL    HW230294   2.096   2.861  17.583  0.7106  0.9901 -1.3273
 6220SOL     OW30295   2.706   3.914   0.059  0.3127 -0.0685 -0.2748
 6220SOL    HW130296   2.689   3.937   0.150 -1.8338  1.7602 -1.1391
 6220SOL    HW230297   2.760   3.836   0.071 -1.7483 -1.1331  1.9197
 6221SOL     OW30298   3.188   4.125   5.053 -0.1483  0.3034  0.4943
 6221SOL    HW130299   3.200   4.196   5.116 -1.4305  0.9847 -0.0443
 6221SOL    HW230300   3.093   4.129   5.059 -0.0892 -0.4917  2.0786
 6222SOL     OW30301   2.263   4.571   7.098 -0.2376  0.7321  0.2212
 6222SOL    HW130302   2.234   4.663   7.099 -0.6470  0.6170 -1.1730
 6222SOL    HW230303   2.207   4.531   7.165  1.3714 -1.6533  0.1355
 6223SOL     OW30304   1.609   0.255  12.548 -0.0854  0.6202  0.3810
 6223SOL    HW130305   1.588   0.255  12.641  1.9898  0.8028  0.8536
 6223SOL    HW230306   1.682   0.193  12.541 -0.8261 -0.0287 -1.5131
 6224SOL     OW30307   3.506   0.448   0.757  0.0196  0.4000 -0.5613
 6224SOL    HW130308   3.587   0.407   0.727  2.1740  4.1036  0.1812
 6224SOL    HW230309   3.451   0.417   0.684 -0.3895 -0.3857  0.0803
 6225SOL     OW30310   0.877   0.771  15.848 -0.1608 -0.3082  1.0826
 6225SOL    HW130311   0.820   0.832  15.896  0.2021  1.9142 -1.3232
 6225SOL    HW230312   0.962   0.810  15.869  0.0955 -0.2893 -0.0081
 6226SOL     OW30313   0.172   0.386   9.944 -0.4878 -0.5730  0.3003
 6226SOL    HW130314   0.145   0.294   9.939  1.8611 -1.2771  0.5620
 6226SOL    HW230315   0.095   0.436   9.917  0.7155  1.4588  0.6330
 6227SOL     OW30316   3.639   1.818  10.663 -0.2738  0.6123 -0.1790
 6227SOL    HW130317   3.669   1.773  10.742 -0.1532  0.9762 -0.0163
 6227SOL    HW230318   3.544   1.825  10.673 -0.0924  2.2251  0.4911
 6228SOL     OW30319   4.486   4.366   2.333  0.1860  0.0150 -0.2777
 6228SOL    HW130320   4.484   4.337   2.425 -0.8807  0.8288 -0.0498
 6228SOL    HW230321   4.394   4.356   2.311  0.1066 -1.1808  0.5557
 6229SOL     OW30322   2.110   0.176   6.572 -0.1375 -0.2513  0.0666
 6229SOL    HW130323   2.175   0.124   6.525 -0.1983  0.7985 -1.1760
 6229SOL    HW230324   2.038   0.119   6.596 -1.4747  2.1098  1.6946
 6230SOL     OW30325   1.141   3.086   4.478  0.5922  0.1179 -0.3390
 6230SOL    HW130326   1.050   3.087   4.447  0.0477  1.3354  1.2641
 6230SOL    HW230327   1.169   2.996   4.468 -2.5036 -0.7918 -0.9495
 6231SOL     OW30328   2.533   2.509   4.884  0.7813  0.1265  0.2471
 6231SOL    HW130329   2.599   2.493   4.952  2.7735 -1.2089 -1.9717
 6231SOL    HW230330   2.493   2.592   4.907 -0.1900 -0.2427 -0.0880
 6232SOL     OW30331   1.998   2.014   0.238  0.3051  0.2166 -0.2155
 6232SOL    HW130332   2.091   2.022   0.258  0.3855 -0.1677 -0.4304
 6232SOL    HW230333   2.009   1.962   0.158  1.2969  3.5662 -2.2966
 6233SOL     OW30334   0.974   4.149   6.522 -1.2949 -0.7386 -0.6038
 6233SOL    HW130335   0.923   4.185   6.594  1.3594 -0.9720  1.3806
 6233SOL    HW230336   1.042   4.098   6.566  0.1261 -0.1479 -2.0999
 6234SOL     OW30337   3.095   4.519   7.273 -0.0534 -0.1850  0.3941
 6234SOL    HW130338   3.179   4.562   7.282  0.8739 -1.8321 -0.4214
 6234SOL    HW230339   3.097   4.508   7.178  1.8981 -1.2878  0.5820
 6235SOL     OW30340   1.734   1.316   2.307 -0.5657  0.5381  0.1079
 6235SOL    HW130341   1.817   1.298   2.352 -0.1762 -0.9113 -1.1985
 6235SOL    HW230342   1.691   1.231   2.306  0.7146 -0.1067 -0.4954
 6236SOL     OW30343   1.103   0.645   7.506 -0.0596 -0.3865 -0.2993
 6236SOL    HW130344   1.146   0.609   7.429 -1.2383 -1.2548 -0.5578
 6236SOL    HW230345   1.163   0.633   7.579  1.7889 -2.8619 -2.2027
 6237SOL     OW30346   0.314   1.348   3.683  0.2767  0.3166 -0.2544
 6237SOL    HW130347   0.398   1.384   3.711 -0.8526  1.7256  1.3805
 6237SOL    HW230348   0.259   1.426   3.673 -0.3818 -0.1966 -0.6659
 6238SOL     OW30349   0.906   4.469   8.398 -0.3583 -0.1027  0.5535
 6238SOL    HW130350   0.827   4.477   8.451 -0.2959 -1.2366  0.8120
 6238SOL    HW230351   0.890   4.532   8.327  1.5411 -1.6595 -1.2559
 6239SOL     OW30352   0.719   0.218   6.776  0.1927  0.2428 -0.2330
 6239SOL    HW130353   0.642   0.161   6.769  0.8265 -0.5725 -0.5334
 6239SOL    HW230354   0.678   0.305   6.782  0.5617  0.3595  0.6583
 6240SOL     OW30355   0.412   0.569   5.373 -0.4608  0.1388 -0.0217
 6240SOL    HW130356   0.451   0.570   5.460 -0.6950 -2.3876  0.0913
 6240SOL    HW230357   0.468   0.631   5.325 -0.3028 -1.0708 -1.3937
 6241SOL     OW30358   2.322   4.279   4.122 -0.0013  0.2507  0.5868
 6241SOL    HW130359   2.240   4.237   4.097 -0.2972  1.8510 -1.1075
 6241SOL    HW230360   2.339   4.325   4.040  0.0621 -0.0310  0.4428
 6242SOL     OW30361   4.011   0.375  15.212 -0.3589 -0.2869 -0.0480
 6242SOL    HW130362   3.946   0.309  15.234 -0.7668  0.0916 -0.1285
 6242SOL    HW230363   4.095   0.334  15.232 -1.6559 -2.1000  1.6274
 6243SOL     OW30364   3.550   4.036   3.503 -0.6942 -0.3393  0.2805
 6243SOL    HW130365   3.579   4.100   3.568 -0.8801  0.0109  0.0175
 6243SOL    HW230366   3.608   4.062   3.431 -1.2192 -1.5025 -0.5784
 6244SOL     OW30367   0.083   2.242   3.435  0.8821 -0.1786  0.2714
 6244SOL    HW130368   0.134   2.173   3.478 -0.8206 -1.9443 -0.5775
 6244SOL    HW230369   0.055   2.293   3.511 -1.7634 -0.6751 -0.3957
 6245SOL     OW30370   2.066   1.316  10.114  0.4321  0.2421  0.3121
 6245SOL    HW130371   2.036   1.247  10.055 -0.1422  0.5200  0.2785
 6245SOL    HW230372   2.040   1.392  10.062 -0.7804 -0.6053 -0.3237
 6246SOL     OW30373   3.744   1.695   7.435 -0.0237 -0.0690 -0.1702
 6246SOL    HW130374   3.826   1.690   7.385  1.7145 -3.3953  3.0135
 6246SOL    HW230375   3.781   1.736   7.514 -1.6341  0.3342  0.3715
 6247SOL     OW30376   3.327   3.411  16.367 -0.3782 -0.0664 -0.5691
 6247SOL    HW130377   3.358   3.323  16.344 -0.5925 -0.4357  0.5385
 6247SOL    HW230378   3.267   3.427  16.294 -1.0843 -1.1276 -0.2289
 6248SOL     OW30379   0.862   4.640   0.653 -0.9351 -0.0232  0.1044
 6248SOL    HW130380   0.792   4.690   0.694 -0.7889 -0.1865  0.5484
 6248SOL    HW230381   0.824   4.584   0.585 -0.9656  2.0734 -1.6117
 6249SOL     OW30382   0.633   1.187   4.512  0.3468 -0.1370  0.4573
 6249SOL    HW130383   0.582   1.235   4.578  1.0746 -1.7055  2.1578
 6249SOL    HW230384   0.673   1.264   4.471  1.0942 -0.9419 -0.3114
 6250SOL     OW30385   4.307   3.149   4.332  0.3260 -0.0881  0.3716
 6250SOL    HW130386   4.280   3.182   4.247  1.0811 -0.3651  0.0253
 6250SOL    HW230387   4.396   3.183   4.340 -0.0635  0.3978  2.6382
 6251SOL     OW30388   1.466   0.221   5.301 -0.3636  0.2008  0.3044
 6251SOL    HW130389   1.496   0.251   5.215 -1.6405 -1.3545 -0.6717
 6251SOL    HW230390   1.378   0.259   5.302 -0.7390 -0.7083  1.2527
 6252SOL     OW30391   0.128   0.715   5.239 -0.6702  0.5576 -0.3185
 6252SOL    HW130392   0.202   0.657   5.260 -0.6176  1.0474  0.8541
 6252SOL    HW230393   0.058   0.653   5.217 -1.1478  0.4286  1.4876
 6253SOL     OW30394   0.826   3.498   3.186  0.1751  0.1254  0.4901
 6253SOL    HW130395   0.839   3.590   3.160 -1.4799 -0.2144 -1.5053
 6253SOL    HW230396   0.904   3.479   3.238 -0.9554 -1.1273  1.7043
 6254SOL     OW30397   2.987   2.723   8.268 -0.2828 -0.1382  0.0926
 6254SOL    HW130398   3.003   2.693   8.358  1.8095  0.2575 -0.1495
 6254SOL    HW230399   2.947   2.648   8.224  1.3417 -1.3721  0.7545
 6255SOL     OW30400   2.328   2.933   6.807 -0.0776  0.1961  0.3798
 6255SOL    HW130401   2.268   3.006   6.824 -0.0660  0.2133  0.3468
 6255SOL    HW230402   2.348   2.960   6.718 -0.4842  0.9189  0.5036
 6256SOL     OW30403   3.243   1.931   4.532 -0.5641  0.0208  0.0676
 6256SOL    HW130404   3.298   1.854   4.519  0.1406  0.5570 -0.1881
 6256SOL    HW230405   3.184   1.913   4.459 -2.9006 -1.9006  2.4686
 6257SOL     OW30406   1.910   1.144   7.072  0.2288  0.1711 -0.2226
 6257SOL    HW130407   1.871   1.227   7.042 -1.0540  0.3266  1.8829
 6257SOL    HW230408   1.998   1.171   7.096 -0.4195  2.5764 -0.5273
 6258SOL     OW30409   2.435   4.208   2.447  0.2545  0.0538 -0.3135
 6258SOL    HW130410   2.513   4.242   2.404  0.6018  0.9800  1.0573
 6258SOL    HW230411   2.469   4.119   2.458  0.4880  0.2322  0.3613
 6259SOL     OW30412   0.837   2.632   7.117 -0.0322  0.2460  0.2104
 6259SOL    HW130413   0.756   2.656   7.162 -1.4249 -1.1577 -1.5398
 6259SOL    HW230414   0.881   2.590   7.191 -2.7145 -2.7397  0.0839
 6260SOL     OW30415   2.552   3.401   7.813 -0.4129  0.6692  0.2867
 6260SOL    HW130416   2.599   3.355   7.744  0.4061  1.4129  0.3376
 6260SOL    HW230417   2.597   3.486   7.814  0.2229  0.3543 -1.5416
 6261SOL     OW30418   4.638   0.174   5.326  0.1986 -0.4897 -0.5524
 6261SOL    HW130419   4.636   0.236   5.253 -1.7215 -2.5018 -2.2124
 6261SOL    HW230420   4.577   0.105   5.300 -1.7991  0.8512  0.5308
 6262SOL     OW30421   4.409   0.452   7.300  0.0536  0.4207  0.3613
 6262SOL    HW130422   4.363   0.395   7.238 -1.9096  0.5983  1.6378
 6262SOL    HW230423   4.449   0.516   7.242 -1.9173  0.0673 -1.4078
 6263SOL     OW30424   3.492   0.825   3.690 -0.1368 -0.7129 -0.1724
 6263SOL    HW130425   3.564   0.816   3.753 -0.6936  2.1892  0.9317
 6263SOL    HW230426   3.516   0.805   3.600 -0.2767 -0.3610 -0.2915
 6264SOL     OW30427   0.342   4.025   5.771 -0.2757 -0.0322 -0.5349
 6264SOL    HW130428   0.281   4.083   5.816 -1.6555 -0.7894 -1.4345
 6264SOL    HW230429   0.290   3.991   5.699 -2.2698  1.2634  0.2789
 6265SOL     OW30430   3.704   0.734   3.034  0.6674 -0.1634  0.2632
 6265SOL    HW130431   3.799   0.749   3.037  0.5370  0.5622  0.7970
 6265SOL    HW230432   3.669   0.803   2.978  0.4591 -0.7557 -0.3391
 6266SOL     OW30433   0.854   1.131   1.996  0.1170 -0.4230 -0.0323
 6266SOL    HW130434   0.945   1.158   1.986  0.1496  0.2605  2.2637
 6266SOL    HW230435   0.811   1.191   1.934 -0.3655 -0.0526  0.6656
 6267SOL     OW30436   0.071   0.728   0.327  0.1004  0.4640  0.0275
 6267SOL    HW130437   0.158   0.713   0.364 -0.7017 -2.7587  0.5954
 6267SOL    HW230438   0.017   0.671   0.383 -0.4606 -0.5947 -1.5862
 6268SOL     OW30439   3.929   4.111   8.181 -0.4524  0.4092 -0.1563
 6268SOL    HW130440   3.932   4.199   8.219 -3.2432  1.8317 -3.2250
 6268SOL    HW230441   3.840   4.081   8.203 -0.1320  0.6631  1.5097
 6269SOL     OW30442   3.030   1.652  12.554 -0.1119  0.3426  0.3991
 6269SOL    HW130443   3.015   1.654  12.649 -1.1441  0.9862  0.2209
 6269SOL    HW230444   3.098   1.585  12.565 -0.9721 -0.2834  1.9062
 6270SOL     OW30445   0.259   3.809   6.222 -0.3333 -0.4308 -0.5298
 6270SOL    HW130446   0.215   3.727   6.196 -1.1521 -0.3404  0.5747
 6270SOL    HW230447   0.245   3.813   6.316  1.6725 -0.4677 -0.2398
 6271SOL     OW30448   2.973   4.071  14.627  0.9181 -0.1431  0.2493
 6271SOL    HW130449   2.939   4.010  14.692 -0.8531 -0.7587 -1.2307
 6271SOL    HW230450   2.936   4.027  14.550  1.1419  2.6620 -1.4628
 6272SOL     OW30451   0.025   2.452   3.287  0.3353  0.2659 -0.3457
 6272SOL    HW130452   0.049   2.372   3.334  1.9929  0.3862 -0.9812
 6272SOL    HW230453   4.716   2.494   3.362 -2.3014 -2.4793 -0.3240
 6273SOL     OW30454   4.250   0.053   8.634 -0.0935 -0.4096 -0.4962
 6273SOL    HW130455   4.320   4.728   8.662  0.6098  0.3190 -0.7252
 6273SOL    HW230456   4.194   4.729   8.582 -0.5416 -0.1648 -0.2797
 6274SOL     OW30457   1.345   0.897  11.147 -0.4232 -0.5084 -0.3257
 6274SOL    HW130458   1.435   0.900  11.114 -0.3377 -0.7955 -0.1163
 6274SOL    HW230459   1.322   0.811  11.115  0.5768 -0.6344 -0.7221
 6275SOL     OW30460   3.146   3.448   9.075 -0.4419  0.4619 -0.2435
 6275SOL    HW130461   3.159   3.506   9.000 -2.0569 -0.7137 -1.4324
 6275SOL    HW230462   3.179   3.503   9.146  4.2279 -0.3910 -1.7353
 6276SOL     OW30463   3.229   2.155   8.579 -0.3195  0.6071 -0.1717
 6276SOL    HW130464   3.202   2.237   8.538  1.2847  0.6400 -1.1523
 6276SOL    HW230465   3.308   2.128   8.532 -1.8493 -2.9638 -0.6462
 6277SOL     OW30466   2.374   3.314   7.014 -0.1324 -0.4389 -0.0829
 6277SOL    HW130467   2.397   3.382   6.951 -1.6968  0.0946 -0.0704
 6277SOL    HW230468   2.325   3.251   6.961 -0.8806  0.4006 -0.3842
 6278SOL     OW30469   1.913   1.342   3.137 -0.4371 -0.3655 -0.4207
 6278SOL    HW130470   2.001   1.320   3.168 -0.4282  1.2061  0.6746
 6278SOL    HW230471   1.924   1.386   3.053 -0.5930 -0.5309 -0.5266
 6279SOL     OW30472   3.853   0.510   1.452 -0.5988  0.1415 -0.6682
 6279SOL    HW130473   3.948   0.506   1.460 -0.5698 -2.9254 -2.6739
 6279SOL    HW230474   3.830   0.574   1.520 -0.2093  0.3178 -0.6979
 6280SOL     OW30475   0.205   1.997  16.903  0.4131  0.2466 -0.5980
 6280SOL    HW130476   0.165   2.063  16.847  1.7572  0.1950 -1.5919
 6280SOL    HW230477   0.225   1.926  16.843 -1.0261  1.3803 -2.4020
 6281SOL     OW30478   0.703   4.608   3.812 -0.2872 -0.0871 -0.1663
 6281SOL    HW130479   0.743   4.694   3.824  0.3185 -0.4548  0.4340
 6281SOL    HW230480   0.728   4.588   3.721 -0.3083  1.7946 -0.5700
 6282SOL     OW30481   3.904   3.696   7.803 -0.2159 -0.5846 -0.1690
 6282SOL    HW130482   3.979   3.756   7.798  0.9726 -2.0035  0.8426
 6282SOL    HW230483   3.918   3.668   7.894  1.6031  1.4397  0.1819
 6283SOL     OW30484   1.176   3.212  16.266  0.2956 -0.3266  0.4874
 6283SOL    HW130485   1.225   3.193  16.347  2.0616  0.8745 -0.2964
 6283SOL    HW230486   1.168   3.308  16.269 -0.5963 -0.4491  2.0350
 6284SOL     OW30487   3.111   0.291  13.760 -0.7981 -0.2415 -0.1969
 6284SOL    HW130488   3.174   0.341  13.812 -0.5024 -1.7855  0.9487
 6284SOL    HW230489   3.147   0.204  13.780 -0.5466  0.6497  3.2619
 6285SOL     OW30490   4.451   0.127   4.962  0.3624  0.1776  0.3976
 6285SOL    HW130491   4.505   0.072   5.018  2.0247  0.9154 -0.5011
 6285SOL    HW230492   4.498   0.132   4.879  0.3513 -0.8492  0.3225
 6286SOL     OW30493   1.059   1.988   5.438 -0.5105  0.1378  0.0483
 6286SOL    HW130494   1.009   2.041   5.376 -0.8640  0.7386  0.8401
 6286SOL    HW230495   1.149   1.981   5.406 -0.4420  1.5631 -0.0970
 6287SOL     OW30496   0.378   3.112   4.963  0.6880  0.3830 -0.4949
 6287SOL    HW130497   0.316   3.092   4.894  0.1418 -1.6348  0.5757
 6287SOL    HW230498   0.456   3.143   4.918  1.9613  1.0577  2.1713
 6288SOL     OW30499   0.997   2.654   5.023  0.5886 -0.2521 -0.0699
 6288SOL    HW130500   1.075   2.605   4.998  1.1381  0.8912 -0.6020
 6288SOL    HW230501   1.021   2.736   5.066 -0.6410  1.4232 -2.5139
 6289SOL     OW30502   1.737   2.681   4.359 -0.2454  0.4092  0.1381
 6289SOL    HW130503   1.756   2.715   4.447 -1.8034 -0.1004  0.6729
 6289SOL    HW230504   1.752   2.590   4.385 -1.1566 -0.1202 -1.2005
 6290SOL     OW30505   2.526   0.405  11.749 -0.6626 -0.0636 -0.4127
 6290SOL    HW130506   2.475   0.436  11.824  0.9664 -0.6783  0.9354
 6290SOL    HW230507   2.492   0.315  11.746 -0.5980 -0.0548 -1.6412
 6291SOL     OW30508   0.880   4.627   7.523  0.2486 -0.2329  0.0222
 6291SOL    HW130509   0.836   4.645   7.440  1.0920 -0.0547 -0.3865
 6291SOL    HW230510   0.952   4.690   7.521 -0.8796  0.9913 -1.3603
 6292SOL     OW30511   2.833   1.563   2.262 -0.2518 -0.4076 -0.2140
 6292SOL    HW130512   2.869   1.629   2.203  2.6491 -1.0719  0.8220
 6292SOL    HW230513   2.744   1.561   2.226 -0.5177  1.4564  0.3262
 6293SOL     OW30514   1.516   2.561   6.108  0.5683  0.1475 -0.3008
 6293SOL    HW130515   1.476   2.591   6.026 -1.8971  0.2696  0.9784
 6293SOL    HW230516   1.455   2.605   6.166 -0.5028  0.6409 -1.8003
 6294SOL     OW30517   2.754   1.103  16.029 -0.0147  0.4132 -0.2173
 6294SOL    HW130518   2.751   1.192  15.994  2.4870  0.1637 -1.0587
 6294SOL    HW230519   2.677   1.071  15.982 -1.4765  0.3273  2.2348
 6295SOL     OW30520   0.582   2.311   4.526 -0.3563 -0.5696  0.8243
 6295SOL    HW130521   0.620   2.235   4.483 -0.4714 -1.3753  2.1451
 6295SOL    HW230522   0.502   2.325   4.475  0.1826  0.1524  0.1821
 6296SOL     OW30523   0.935   4.722   3.083 -0.1114 -0.1175 -0.1155
 6296SOL    HW130524   0.918   0.006   3.176 -2.5517 -2.1015 -0.1995
 6296SOL    HW230525   1.013   4.666   3.087  1.1997  1.5597 -2.3946
 6297SOL     OW30526   3.120   4.001  10.951  0.3916 -0.1158 -0.1479
 6297SOL    HW130527   3.115   3.940  11.024  0.8079 -1.4757 -1.2430
 6297SOL    HW230528   3.037   4.048  10.954 -0.0909 -0.9828 -0.0075
 6298SOL     OW30529   0.083   1.938   5.202 -1.2500  0.1566  0.0025
 6298SOL    HW130530   0.175   1.911   5.205 -0.6479  2.2008 -0.4383
 6298SOL    HW230531   0.054   1.935   5.293 -1.1128  0.4471  0.0553
 6299SOL     OW30532   0.686   0.880   5.069 -0.2158  0.1734  0.0312
 6299SOL    HW130533   0.765   0.837   5.101  0.6908  1.6736 -0.1520
 6299SOL    HW230534   0.737   0.948   5.023  0.9172 -0.2696  0.6559
 6300SOL     OW30535   0.940   1.685   3.964 -0.1298  0.1575 -0.2284
 6300SOL    HW130536   1.014   1.655   3.910  2.4593  1.8503  2.3874
 6300SOL    HW230537   0.983   1.706   4.046  1.9190  1.7462 -1.7099
 6301SOL     OW30538   1.838   1.707   6.567 -0.4294  0.0203 -0.4764
 6301SOL    HW130539   1.766   1.739   6.513 -0.4745  0.1539 -0.3354
 6301SOL    HW230540   1.855   1.783   6.621 -1.2955 -0.1437  0.0272
 6302SOL     OW30541   3.540   1.178   7.939  0.6954  0.1135 -0.2734
 6302SOL    HW130542   3.620   1.195   7.889  0.9025 -2.7443 -0.9037
 6302SOL    HW230543   3.471   1.217   7.886  1.1408  1.0869 -0.1624
 6303SOL     OW30544   3.355   4.115   8.283  0.6715  0.1112  0.2594
 6303SOL    HW130545   3.332   4.027   8.252 -1.0874  0.2797  1.0941
 6303SOL    HW230546   3.344   4.107   8.378 -0.6664  1.7657  0.2441
 6304SOL     OW30547   0.198   4.390   2.766 -0.4998  0.1797  0.2110
 6304SOL    HW130548   0.123   4.337   2.796  0.5290 -0.6888  1.2676
 6304SOL    HW230549   0.175   4.402   2.674 -0.0697  2.8943  0.4575
 6305SOL     OW30550   0.639   1.242  14.331  0.4396 -0.4319  0.0898
 6305SOL    HW130551   0.625   1.220  14.424  0.6798 -1.4456 -0.1123
 6305SOL    HW230552   0.690   1.166  14.302  1.2891  0.4662 -0.7652
 6306SOL     OW30553   2.277   4.023   6.431  0.0067 -0.1113  0.9405
 6306SOL    HW130554   2.205   4.008   6.493 -1.3607  0.9357 -0.4130
 6306SOL    HW230555   2.293   4.116   6.448  0.8611 -0.0034 -0.4485
 6307SOL     OW30556   0.707   1.581   1.628  0.1257 -0.3615  0.2766
 6307SOL    HW130557   0.721   1.601   1.720 -1.1346  2.2100 -0.0921
 6307SOL    HW230558   0.648   1.506   1.624  2.5453 -2.3390  1.9922
 6308SOL     OW30559   4.109   3.024   8.586  0.3021  0.1034  0.1855
 6308SOL    HW130560   4.020   3.059   8.579 -0.5251 -1.7362  1.7007
 6308SOL    HW230561   4.102   2.942   8.537 -0.1026  0.4158 -0.2824
 6309SOL     OW30562   4.586   2.189   4.875 -0.3698  0.7553 -0.2134
 6309SOL    HW130563   4.617   2.241   4.948  1.2563  0.2414 -0.5453
 6309SOL    HW230564   4.568   2.106   4.919  2.7027  1.4659  2.3505
 6310SOL     OW30565   3.881   0.471   8.707  0.0449 -0.3683 -0.3848
 6310SOL    HW130566   3.836   0.497   8.787  0.3222 -1.1079  0.0124
 6310SOL    HW230567   3.864   0.377   8.706 -0.7972 -0.1891 -2.9425
 6311SOL     OW30568   2.199   1.200   7.087 -0.3282  0.0713  0.2586
 6311SOL    HW130569   2.287   1.166   7.101 -0.3653  0.1865  0.7734
 6311SOL    HW230570   2.201   1.290   7.117  0.8899  0.4116 -0.8537
 6312SOL     OW30571   1.799   1.390   5.832 -0.4897  0.6458  0.3253
 6312SOL    HW130572   1.737   1.463   5.829  1.3266  2.2164  1.2012
 6312SOL    HW230573   1.817   1.378   5.738 -1.0690  1.4767  0.1107
 6313SOL     OW30574   2.654   4.233   8.619  0.2177  0.1409 -0.3228
 6313SOL    HW130575   2.647   4.324   8.648 -3.0616 -0.2796  0.2176
 6313SOL    HW230576   2.582   4.189   8.665  0.3465 -0.3381 -0.5828
 6314SOL     OW30577   0.615   2.952   3.077 -0.4521 -0.2891  0.3565
 6314SOL    HW130578   0.629   2.911   3.162  0.9698 -0.1745  0.1829
 6314SOL    HW230579   0.635   3.044   3.096 -3.7756  0.3977  0.5702
 6315SOL     OW30580   0.294   2.831   7.817  0.6131 -0.0539 -0.0580
 6315SOL    HW130581   0.218   2.883   7.846  1.5137  0.6649  1.0466
 6315SOL    HW230582   0.247   2.750   7.836 -0.1370  0.6671  1.1453
 6316SOL     OW30583   0.364   3.658   2.151 -0.4651 -0.3365 -0.1517
 6316SOL    HW130584   0.291   3.675   2.210 -0.2745 -1.4846  0.4180
 6316SOL    HW230585   0.435   3.672   2.213 -0.1786 -2.7776  0.0719
 6317SOL     OW30586   0.754   4.728   1.710 -0.3088 -0.0935 -0.4600
 6317SOL    HW130587   0.776   4.642   1.748 -0.6087 -0.4622 -1.1243
 6317SOL    HW230588   0.701   4.706   1.633 -0.0115 -1.4678 -0.2819
 6318SOL     OW30589   0.301   3.539  15.466  0.1753 -0.2346  0.5747
 6318SOL    HW130590   0.294   3.491  15.548 -1.0451  0.1981  0.7372
 6318SOL    HW230591   0.260   3.474  15.409  0.9664 -0.2755  0.0538
 6319SOL     OW30592   0.460   1.372   7.733 -0.1356 -0.3659  0.2081
 6319SOL    HW130593   0.509   1.291   7.748  0.5757 -0.0072 -0.1941
 6319SOL    HW230594   0.527   1.436   7.711 -0.0869 -0.1137  1.0670
 6320SOL     OW30595   2.560   4.382  17.032 -0.0355  0.7520 -0.6414
 6320SOL    HW130596   2.588   4.355  17.120  2.2678  1.4934 -1.1439
 6320SOL    HW230597   2.464   4.376  17.036 -0.0197  0.0337 -1.3495
 6321SOL     OW30598   2.502   2.309  15.685  0.1407 -0.4973  0.2146
 6321SOL    HW130599   2.455   2.327  15.603 -0.4156 -2.3413  0.1246
 6321SOL    HW230600   2.514   2.215  15.683  1.3434 -0.3310 -0.1667
 6322SOL     OW30601   4.167   0.188   8.849 -0.3039  0.5335  0.0495
 6322SOL    HW130602   4.198   0.143   8.770 -2.2044  2.5140 -1.8510
 6322SOL    HW230603   4.104   0.127   8.886  0.0313 -0.6407 -1.3146
 6323SOL     OW30604   3.271   1.205  17.045  0.6874  0.2487  0.1400
 6323SOL    HW130605   3.322   1.128  17.070  1.1129  0.2687 -0.6829
 6323SOL    HW230606   3.257   1.262  17.120  1.5934  0.8934 -0.1816
 6324SOL     OW30607   2.298   2.632  14.938  0.0319 -0.2740  0.1943
 6324SOL    HW130608   2.330   2.722  14.924 -1.9133  0.2765 -0.6696
 6324SOL    HW230609   2.318   2.589  14.855 -2.0320 -1.8762  0.5594
 6325SOL     OW30610   0.447   2.677   8.662  0.3791 -0.4922 -0.2469
 6325SOL    HW130611   0.498   2.746   8.705 -2.5225  0.7384  1.2439
 6325SOL    HW230612   0.503   2.603   8.686 -1.9304 -2.1303  0.1272
 6326SOL     OW30613   3.423   4.682   8.332 -0.1517  0.1364  0.5388
 6326SOL    HW130614   3.495   4.661   8.392 -0.4343  0.3233  0.9398
 6326SOL    HW230615   3.342   4.655   8.376  0.2457  0.4333  1.4558
 6327SOL     OW30616   2.398   1.372   2.942  0.2591  0.2643  0.1211
 6327SOL    HW130617   2.475   1.340   2.895 -0.4780  2.0905 -2.3180
 6327SOL    HW230618   2.426   1.339   3.027  1.1518 -1.3229 -0.7839
 6328SOL     OW30619   1.433   3.380   7.184 -0.2109  0.2321  0.3655
 6328SOL    HW130620   1.468   3.403   7.098 -0.6789 -0.5076 -0.0264
 6328SOL    HW230621   1.409   3.461   7.229 -0.2925 -0.3566  1.3928
 6329SOL     OW30622   0.215   4.254   3.949 -0.3233  0.2361  0.6995
 6329SOL    HW130623   0.191   4.322   3.885  1.6237  0.6345  0.3968
 6329SOL    HW230624   0.274   4.297   4.011 -1.1258  1.8716  0.3363
 6330SOL     OW30625   1.215   3.725  12.637  0.0003 -0.3267  0.6069
 6330SOL    HW130626   1.151   3.715  12.567  1.5449 -2.3053 -0.5221
 6330SOL    HW230627   1.194   3.642  12.679 -4.0158 -0.5153 -1.8119
 6331SOL     OW30628   1.503   0.270   6.411  0.3665 -0.2822  0.5006
 6331SOL    HW130629   1.424   0.266   6.464  0.3254  0.6077  0.5089
 6331SOL    HW230630   1.563   0.316   6.469  0.7733 -0.9520  0.6047
 6332SOL     OW30631   3.215   0.467   4.721  0.0653  0.2417 -0.3416
 6332SOL    HW130632   3.214   0.554   4.762 -3.2426 -0.1426  0.3985
 6332SOL    HW230633   3.127   0.430   4.713  0.0988  0.0828  0.0348
 6333SOL     OW30634   4.543   0.265  17.026 -0.7951 -0.3182 -0.4078
 6333SOL    HW130635   4.478   0.297  16.964  0.1137  0.3052 -1.0242
 6333SOL    HW230636   4.553   0.340  17.085  1.7879 -1.2492  0.3462
 6334SOL     OW30637   4.693   0.727  12.068 -0.3732  0.1431 -1.0603
 6334SOL    HW130638   4.630   0.785  12.025 -1.0633  0.3488  0.2302
 6334SOL    HW230639   0.001   0.784  12.132  0.2053 -1.3208 -0.1377
 6335SOL     OW30640   2.448   0.088  12.114  0.5774 -0.1232  0.4445
 6335SOL    HW130641   2.362   0.085  12.157 -0.4685  1.8971 -1.4902
 6335SOL    HW230642   2.442   0.035  12.035 -0.2211 -0.0228  0.4344
 6336SOL     OW30643   2.427   1.178   3.865 -1.0804 -0.3134 -0.0788
 6336SOL    HW130644   2.390   1.092   3.883  2.8522 -2.2715 -1.3454
 6336SOL    HW230645   2.367   1.236   3.913 -0.4847  1.2899 -1.2684
 6337SOL     OW30646   3.744   3.198   2.302 -0.0314  0.6932  0.7522
 6337SOL    HW130647   3.836   3.218   2.316 -0.4146  2.9108  0.0178
 6337SOL    HW230648   3.720   3.244   2.221 -3.3515  0.5238  1.6234
 6338SOL     OW30649   1.238   2.438   7.423 -0.1723  0.1829 -0.2611
 6338SOL    HW130650   1.262   2.391   7.503 -0.3849 -1.5424 -1.2101
 6338SOL    HW230651   1.168   2.497   7.453  0.1066 -0.3216  1.4093
 6339SOL     OW30652   2.040   2.315  17.503 -0.8163 -0.2621  0.4513
 6339SOL    HW130653   2.092   2.359  17.570  0.5210  0.6321 -1.1768
 6339SOL    HW230654   2.095   2.242  17.474  1.0972  0.5807  2.0157
 6340SOL     OW30655   4.472   0.931  14.140 -0.5745 -0.6859  0.2806
 6340SOL    HW130656   4.483   0.967  14.052  1.2405 -3.9007 -0.8043
 6340SOL    HW230657   4.415   0.857  14.117 -2.2145  1.0257 -1.1456
 6341SOL     OW30658   0.718   1.523  14.334  0.6442 -0.7467  0.4449
 6341SOL    HW130659   0.795   1.508  14.390  1.2180 -1.8932 -0.6725
 6341SOL    HW230660   0.686   1.433  14.329  1.9170 -1.2269  0.7928
 6342SOL     OW30661   4.463   2.749   9.382 -0.1344  0.1820  0.3545
 6342SOL    HW130662   4.394   2.802   9.343 -0.1456 -0.2561 -0.2358
 6342SOL    HW230663   4.545   2.786   9.348  0.1270 -1.1141 -0.4491
 6343SOL     OW30664   3.179   0.596   2.612  0.0470 -0.2497 -0.6297
 6343SOL    HW130665   3.134   0.590   2.696  0.4260  0.2013 -0.3912
 6343SOL    HW230666   3.230   0.677   2.624 -1.6340  0.5174  1.3727
 6344SOL     OW30667   2.745   3.600   6.364  0.2965 -0.4238 -0.2240
 6344SOL    HW130668   2.706   3.628   6.447 -0.4202 -2.0097 -0.0306
 6344SOL    HW230669   2.709   3.664   6.303 -1.6159  0.0639  1.4096
 6345SOL     OW30670   1.390   3.180   2.726  0.1635  0.0887 -0.1694
 6345SOL    HW130671   1.364   3.272   2.731  0.3557  0.1643 -0.5907
 6345SOL    HW230672   1.476   3.181   2.769  0.2421 -2.5705 -0.2841
 6346SOL     OW30673   1.707   4.204   4.594  0.5975 -0.2007  0.1819
 6346SOL    HW130674   1.791   4.166   4.569  1.3305  2.2856 -1.0236
 6346SOL    HW230675   1.716   4.273   4.529  1.6636 -0.7551 -0.2584
 6347SOL     OW30676   2.748   1.635   6.853  0.1206 -0.2381  0.1904
 6347SOL    HW130677   2.673   1.694   6.860  0.6581  0.3974  0.5528
 6347SOL    HW230678   2.816   1.702   6.859 -0.7156  0.5533  0.6647
 6348SOL     OW30679   4.624   0.533   7.134 -0.3316 -0.2803 -0.5095
 6348SOL    HW130680   4.700   0.561   7.186  0.1035  0.0079 -1.2963
 6348SOL    HW230681   4.655   0.452   7.093  0.6852 -0.4717  0.6100
 6349SOL     OW30682   2.045   3.106   7.117 -0.6538 -0.2897  0.1293
 6349SOL    HW130683   2.139   3.106   7.135 -0.9085 -1.7635  1.4572
 6349SOL    HW230684   2.001   3.072   7.195  0.7659 -3.4975 -0.4568
 6350SOL     OW30685   0.716   2.446   5.450  0.2282 -0.0788 -0.1502
 6350SOL    HW130686   0.802   2.457   5.491  1.2696 -1.5630 -1.9173
 6350SOL    HW230687   0.739   2.439   5.357 -0.0522 -3.1276  0.0110
 6351SOL     OW30688   3.073   3.216   9.301 -0.0510 -0.0191 -0.2868
 6351SOL    HW130689   3.054   3.285   9.238  3.6265  0.3676 -0.9543
 6351SOL    HW230690   3.002   3.227   9.365  0.0401  1.1003 -0.3711
 6352SOL     OW30691   4.224   0.669   9.942  0.0354  0.2948  0.0782
 6352SOL    HW130692   4.278   0.612   9.887 -2.0630 -1.6645  0.0435
 6352SOL    HW230693   4.258   0.753   9.911 -1.1605  0.9030  0.4137
 6353SOL     OW30694   1.639   2.932   4.553  0.7689 -0.6269 -0.0730
 6353SOL    HW130695   1.570   2.902   4.612 -0.1352 -3.1034 -2.3951
 6353SOL    HW230696   1.710   2.871   4.570 -0.1443 -1.9045 -0.8570
 6354SOL     OW30697   3.212   4.487   7.007  0.1693 -0.4682  0.6348
 6354SOL    HW130698   3.187   4.498   6.915 -0.3880 -0.7981  0.7462
 6354SOL    HW230699   3.295   4.532   7.019 -0.0589 -0.5384  2.4961
 6355SOL     OW30700   2.272   1.821   3.314 -0.1429  0.3884 -0.1194
 6355SOL    HW130701   2.274   1.812   3.218  3.1101 -0.9401  0.0662
 6355SOL    HW230702   2.199   1.882   3.323 -1.7435 -1.6174  0.5152
 6356SOL     OW30703   0.913   0.730   6.878 -0.7219  0.4512  0.4809
 6356SOL    HW130704   0.926   0.638   6.857 -1.8597  0.6503 -1.1047
 6356SOL    HW230705   0.918   0.719   6.973 -4.4740 -1.0365  0.4899
 6357SOL     OW30706   1.561   2.036   3.133 -0.2003 -0.1742  0.1138
 6357SOL    HW130707   1.495   2.077   3.078  0.6249  0.9336 -0.0697
 6357SOL    HW230708   1.612   1.995   3.063  0.1691 -0.1061  0.3439
 6358SOL     OW30709   3.735   0.341   2.100 -0.2436  0.2257  0.0048
 6358SOL    HW130710   3.670   0.272   2.111  0.4270 -0.1838  1.3498
 6358SOL    HW230711   3.808   0.286   2.073 -0.7184 -0.0543 -0.7126
 6359SOL     OW30712   1.133   0.781   3.966  0.2027  0.1130 -0.2883
 6359SOL    HW130713   1.134   0.871   3.932  1.1214  1.3621  3.0807
 6359SOL    HW230714   1.167   0.794   4.055 -0.5073  0.1896 -0.0279
 6360SOL     OW30715   3.270   2.563   5.360  0.6797  0.0577  0.0382
 6360SOL    HW130716   3.237   2.490   5.412  0.0991  1.8013  2.1190
 6360SOL    HW230717   3.233   2.641   5.402  1.0328  0.0756  0.3146
 6361SOL     OW30718   2.841   3.251   5.242 -0.1317  0.3377  0.0045
 6361SOL    HW130719   2.917   3.246   5.184  0.1738 -1.6336  0.5745
 6361SOL    HW230720   2.781   3.312   5.199  0.7815  2.0745  1.1580
 6362SOL     OW30721   2.527   1.448   6.886 -0.6376  0.1110 -0.4380
 6362SOL    HW130722   2.530   1.364   6.840  2.8363 -1.5529  2.7899
 6362SOL    HW230723   2.601   1.491   6.844 -1.2626 -1.0322 -2.7337
 6363SOL     OW30724   4.646   3.353   2.351  0.6364 -0.1695  0.1427
 6363SOL    HW130725   4.585   3.415   2.392  0.0189 -0.9333  0.3939
 6363SOL    HW230726   4.598   3.270   2.360 -0.9184  0.7713  0.6408
 6364SOL     OW30727   1.968   1.924   6.881  0.1818  0.1930 -0.0066
 6364SOL    HW130728   2.056   1.907   6.847 -0.5964  1.7773 -2.7710
 6364SOL    HW230729   1.913   1.955   6.809  0.3849  2.4657  0.8185
 6365SOL     OW30730   1.611   1.070  14.789 -0.4862  0.3163 -0.1622
 6365SOL    HW130731   1.604   1.077  14.884 -1.6955  0.3133 -0.2527
 6365SOL    HW230732   1.560   1.140  14.748 -0.3532  0.6805  0.2972
 6366SOL     OW30733   0.628   0.813   7.408 -0.6876 -0.6186 -0.4881
 6366SOL    HW130734   0.628   0.724   7.441  2.7315 -0.9013 -1.2073
 6366SOL    HW230735   0.723   0.826   7.402 -0.8866  1.0499 -0.0952
 6367SOL     OW30736   4.378   0.229   8.322  1.0093 -0.1871 -0.3059
 6367SOL    HW130737   4.444   0.207   8.388  0.7998  1.4919  0.4699
 6367SOL    HW230738   4.367   0.152   8.267 -1.5609 -0.7861  1.0509
 6368SOL     OW30739   1.314   4.166   3.841 -0.8916 -0.2211 -0.5003
 6368SOL    HW130740   1.258   4.105   3.889  0.7151 -3.8986 -3.3732
 6368SOL    HW230741   1.259   4.175   3.763 -0.2700 -0.0611 -0.9204
 6369SOL     OW30742   4.565   1.786   4.499 -0.2326 -0.4293  0.1179
 6369SOL    HW130743   4.650   1.818   4.531 -0.4921 -0.4589  0.8458
 6369SOL    HW230744   4.535   1.749   4.582 -2.3403  0.7971 -0.1096
 6370SOL     OW30745   3.769   3.618   8.283 -0.3653  0.7202  0.0881
 6370SOL    HW130746   3.799   3.688   8.342  0.3076  0.7568 -0.2908
 6370SOL    HW230747   3.801   3.546   8.337  2.5986  0.3142 -2.2258
 6371SOL     OW30748   3.318   2.833   0.952 -0.0002  0.2541  0.1534
 6371SOL    HW130749   3.359   2.766   0.897 -1.8218  0.8211 -1.8785
 6371SOL    HW230750   3.243   2.781   0.980  1.6230 -2.0817  0.1944
 6372SOL     OW30751   1.223   3.995  14.380 -0.0617  0.3009 -0.0409
 6372SOL    HW130752   1.178   4.018  14.299 -1.3728  0.4971  0.7257
 6372SOL    HW230753   1.290   3.931  14.357  0.3900  1.1716 -1.1426
 6373SOL     OW30754   4.131   1.743   9.441  0.2267 -0.2538  0.0850
 6373SOL    HW130755   4.073   1.756   9.516 -2.9742 -0.2646 -2.3708
 6373SOL    HW230756   4.070   1.705   9.377  1.1935  0.3334 -1.2029
 6374SOL     OW30757   4.217   3.585   4.107 -0.3792 -0.0552  0.2810
 6374SOL    HW130758   4.229   3.611   4.198 -0.1999 -0.1988  0.3002
 6374SOL    HW230759   4.280   3.638   4.057  0.2376 -2.3832 -1.4293
 6375SOL     OW30760   2.226   1.466  15.917  0.6717  0.1148  0.3301
 6375SOL    HW130761   2.243   1.508  16.001  0.9737  0.0392  0.3055
 6375SOL    HW230762   2.250   1.376  15.939 -0.9613 -0.5669 -0.6716
 6376SOL     OW30763   2.473   4.094   8.760 -0.2613  0.5534 -0.5088
 6376SOL    HW130764   2.378   4.092   8.747 -0.6847  2.5832  1.9922
 6376SOL    HW230765   2.484   4.101   8.855  1.0462 -1.0154 -0.5507
 6377SOL     OW30766   2.612   1.411  16.873 -0.1891  0.1345  0.2191
 6377SOL    HW130767   2.548   1.481  16.865 -2.3252 -2.0773 -2.0387
 6377SOL    HW230768   2.684   1.452  16.824 -0.1335  1.6136  1.5431
 6378SOL     OW30769   2.225   3.182   1.349 -0.3266 -0.7488  0.4111
 6378SOL    HW130770   2.146   3.231   1.370 -0.1162  0.3953 -1.4071
 6378SOL    HW230771   2.283   3.196   1.423 -0.2100 -1.3924  0.4387
 6379SOL     OW30772   2.444   2.734  14.453  0.6555 -0.5746 -0.1977
 6379SOL    HW130773   2.528   2.778  14.467  0.1314  0.0951  0.8405
 6379SOL    HW230774   2.422   2.699  14.540 -0.4313  1.4611  0.3538
 6380SOL     OW30775   1.221   1.172  16.586 -0.3637  0.2678 -0.2268
 6380SOL    HW130776   1.220   1.257  16.630 -1.6583 -0.8953  1.9874
 6380SOL    HW230777   1.179   1.121  16.656 -1.8489 -1.2924 -2.2448
 6381SOL     OW30778   4.443   1.681   4.919 -0.5167  0.5159  0.0351
 6381SOL    HW130779   4.477   1.628   4.991 -1.9843  2.3209  2.0351
 6381SOL    HW230780   4.498   1.645   4.849 -0.6905 -1.4160  0.8760
 6382SOL     OW30781   1.904   3.554   0.729 -0.4145  0.0558 -0.0734
 6382SOL    HW130782   1.867   3.642   0.737 -2.2355 -0.6338 -0.8801
 6382SOL    HW230783   1.822   3.508   0.711  0.7014 -1.5496 -1.0941
 6383SOL     OW30784   4.703   2.833   9.163 -0.3803  0.2795 -0.0574
 6383SOL    HW130785   4.725   2.842   9.070 -0.3739  1.1543  0.0262
 6383SOL    HW230786   4.733   2.744   9.182  0.5202  0.6863  0.4115
 6384SOL     OW30787   2.284   1.371   8.972 -0.1332 -0.0005  0.4504
 6384SOL    HW130788   2.188   1.377   8.973 -0.3276 -2.9760 -0.0233
 6384SOL    HW230789   2.287   1.321   8.890  4.1559  0.6536  0.2376
 6385SOL     OW30790   1.714   3.808   4.338 -0.0561 -0.7201 -0.0042
 6385SOL    HW130791   1.803   3.827   4.366 -0.6665  2.0191  0.0495
 6385SOL    HW230792   1.664   3.817   4.420  1.0130 -1.0705  0.6808
 6386SOL     OW30793   3.205   3.500  11.001 -0.0641  0.4560 -1.1556
 6386SOL    HW130794   3.235   3.507  10.911 -1.8375  0.9094 -1.7087
 6386SOL    HW230795   3.135   3.564  11.011  1.4013  2.1019 -1.4475
 6387SOL     OW30796   1.644   0.298   8.075 -0.1219 -0.8373 -0.5286
 6387SOL    HW130797   1.731   0.332   8.093 -1.6299  0.5467  4.1007
 6387SOL    HW230798   1.647   0.306   7.980 -0.8320  1.4819 -0.3360
 6388SOL     OW30799   3.826   4.146   9.017  0.1422  0.1191  0.1882
 6388SOL    HW130800   3.879   4.225   9.017 -0.5560  0.5883  0.5466
 6388SOL    HW230801   3.836   4.129   9.111  0.6901 -2.1381 -0.2780
 6389SOL     OW30802   3.945   2.480   8.183  0.9451  0.1352  0.3582
 6389SOL    HW130803   3.873   2.530   8.224 -0.4606 -2.3498  0.9114
 6389SOL    HW230804   4.025   2.532   8.194  1.6467 -1.3769  2.4970
 6390SOL     OW30805   2.653   1.722  16.464  0.1702 -0.0729 -0.2368
 6390SOL    HW130806   2.697   1.646  16.429 -0.7072 -0.8031  0.2406
 6390SOL    HW230807   2.586   1.692  16.525  1.7394 -0.9921  1.0209
 6391SOL     OW30808   1.600   0.968   2.715  0.6928  0.5296 -0.7774
 6391SOL    HW130809   1.687   0.963   2.674  0.9180  0.4310 -0.2768
 6391SOL    HW230810   1.592   1.062   2.735  3.1212  0.5858 -0.1184
 6392SOL     OW30811   1.864   0.309   6.119 -0.0344 -0.8049  0.2634
 6392SOL    HW130812   1.789   0.366   6.137  0.6235 -0.4386  1.8677
 6392SOL    HW230813   1.932   0.376   6.130  0.6281 -1.8450  2.5761
 6393SOL     OW30814   0.633   3.092  13.021 -0.3624 -0.4259  0.4364
 6393SOL    HW130815   0.666   3.005  13.043  1.8243  0.8316  2.1301
 6393SOL    HW230816   0.540   3.081  13.043 -0.2580  0.5069  1.3707
 6394SOL     OW30817   0.276   1.645   6.287 -0.3507  0.1072 -0.1093
 6394SOL    HW130818   0.305   1.696   6.362 -2.3963 -1.4308  1.7460
 6394SOL    HW230819   0.332   1.680   6.218 -1.3340  3.2142  0.7054
 6395SOL     OW30820   2.433   4.324   5.722 -0.2081 -0.5179 -0.2183
 6395SOL    HW130821   2.509   4.352   5.772  0.3363  1.4295 -2.1167
 6395SOL    HW230822   2.373   4.320   5.797  0.7547  0.6704  0.5991
 6396SOL     OW30823   1.238   0.482  16.378 -0.1866  0.5483 -0.7565
 6396SOL    HW130824   1.310   0.428  16.411 -0.7370 -0.2636 -0.8786
 6396SOL    HW230825   1.202   0.517  16.460  1.7806  0.5881  0.0769
 6397SOL     OW30826   1.787   3.264  12.894  0.2606 -1.0414 -0.2607
 6397SOL    HW130827   1.763   3.198  12.829 -1.0476 -0.7785 -0.0308
 6397SOL    HW230828   1.704   3.300  12.925  1.5650  1.5047  0.3003
 6398SOL     OW30829   1.660   2.374   2.734  0.2181 -0.0841  0.3886
 6398SOL    HW130830   1.614   2.445   2.690 -1.1902 -1.2905 -0.0937
 6398SOL    HW230831   1.712   2.333   2.665  0.5096  0.7379  0.1260
 6399SOL     OW30832   1.500   0.418   9.719 -0.2435 -0.3292 -0.5588
 6399SOL    HW130833   1.476   0.458   9.803 -1.6834  0.4566 -1.3566
 6399SOL    HW230834   1.457   0.334   9.737 -0.3685  0.2437  1.8399
 6400SOL     OW30835   2.271   4.498   2.938  0.3113 -0.0779 -0.0348
 6400SOL    HW130836   2.365   4.488   2.923  0.3651 -0.2816  0.4508
 6400SOL    HW230837   2.254   4.587   2.907 -1.7299  0.1701  1.7660
 6401SOL     OW30838   2.199   1.836  13.510  0.4239  0.5368  0.5166
 6401SOL    HW130839   2.251   1.848  13.431 -0.9442 -0.1999 -0.4996
 6401SOL    HW230840   2.182   1.742  13.511 -1.3778  0.8780  1.6423
 6402SOL     OW30841   4.653   2.470   2.447  0.5396 -0.0512  0.0558
 6402SOL    HW130842   0.002   2.516   2.462 -0.0354  0.3328  2.1790
 6402SOL    HW230843   4.617   2.480   2.536 -1.9947  1.8724 -1.2047
 6403SOL     OW30844   1.109   0.690   1.876 -0.4590  0.1792 -0.0629
 6403SOL    HW130845   1.041   0.629   1.849 -2.0052  2.1728 -0.6514
 6403SOL    HW230846   1.110   0.754   1.806 -1.3930  2.0295  1.5947
 6404SOL     OW30847   1.813   2.282  16.214 -0.8268  0.2052  0.1381
 6404SOL    HW130848   1.882   2.336  16.252 -0.2733 -0.8420  0.6157
 6404SOL    HW230849   1.751   2.282  16.287 -2.4321 -0.7721 -1.2032
 6405SOL     OW30850   3.336   1.809   4.094 -0.0511 -0.4644 -0.5512
 6405SOL    HW130851   3.248   1.821   4.058  0.7929  0.4017 -2.3298
 6405SOL    HW230852   3.359   1.730   4.046  0.0197 -1.4394  1.0942
 6406SOL     OW30853   3.344   1.850  12.503  0.3320 -0.6917  0.1086
 6406SOL    HW130854   3.404   1.857  12.578  0.0715  0.1035  0.2426
 6406SOL    HW230855   3.412   1.846  12.435  0.0942  1.3607 -0.2463
 6407SOL     OW30856   2.206   3.358   6.484 -0.1415  0.1279 -0.7122
 6407SOL    HW130857   2.180   3.340   6.394 -1.2155  1.4609 -0.6608
 6407SOL    HW230858   2.272   3.420   6.453  0.0957  0.5989  0.7273
 6408SOL     OW30859   4.257   2.484   7.098 -0.4271 -0.4799  0.1623
 6408SOL    HW130860   4.246   2.556   7.037  3.6344  0.9642  1.0921
 6408SOL    HW230861   4.329   2.515   7.154  1.8442 -2.6836 -1.5450
 6409SOL     OW30862   1.387   0.670   1.737 -0.7952 -0.2671  0.5337
 6409SOL    HW130863   1.438   0.714   1.669 -3.1439 -1.2603 -1.8641
 6409SOL    HW230864   1.328   0.616   1.684  0.1619 -0.6047 -0.1831
 6410SOL     OW30865   2.027   2.623   3.231  0.2388 -0.0351  0.0987
 6410SOL    HW130866   1.997   2.661   3.149 -0.6801  2.0481  1.3930
 6410SOL    HW230867   2.070   2.549   3.188 -1.1020  0.8757 -2.7903
 6411SOL     OW30868   3.986   4.379   3.788 -0.0304  0.0935  0.6418
 6411SOL    HW130869   4.013   4.372   3.880 -1.1186  3.8275  1.2419
 6411SOL    HW230870   3.896   4.392   3.817  0.1036 -0.7007  1.4323
 6412SOL     OW30871   2.303   2.574   5.629 -0.3324  0.2047  0.3850
 6412SOL    HW130872   2.322   2.668   5.621  5.4144 -1.1537 -1.9189
 6412SOL    HW230873   2.238   2.547   5.565 -1.3844  0.9307  1.1414
 6413SOL     OW30874   2.126   3.867   3.212  0.3536 -0.4967 -0.5229
 6413SOL    HW130875   2.082   3.916   3.143  0.3452  1.1103  0.6264
 6413SOL    HW230876   2.172   3.942   3.248  0.9653 -1.1194 -0.0068
 6414SOL     OW30877   3.078   4.375   4.818  0.2279  0.4585 -0.0832
 6414SOL    HW130878   3.121   4.325   4.887 -0.3802 -1.1417 -0.8694
 6414SOL    HW230879   3.027   4.437   4.870 -2.0376 -0.8292 -0.7924
 6415SOL     OW30880   3.482   3.139   1.229  0.5374  0.2422  0.3737
 6415SOL    HW130881   3.556   3.083   1.205  0.2864  0.1651 -0.2192
 6415SOL    HW230882   3.485   3.192   1.149  1.5042 -0.2846  0.0562
 6416SOL     OW30883   4.499   4.313   7.282  0.4695 -0.3845  0.2905
 6416SOL    HW130884   4.475   4.253   7.352  0.2305 -3.1004 -2.0825
 6416SOL    HW230885   4.592   4.330   7.297 -0.2002  2.4385  1.2016
 6417SOL     OW30886   3.477   2.842   6.228 -0.1788  0.0632 -0.1520
 6417SOL    HW130887   3.543   2.901   6.193 -0.6075  0.7490  0.1859
 6417SOL    HW230888   3.401   2.900   6.227 -1.2566 -1.3329  0.0387
 6418SOL     OW30889   1.391   4.263   6.635  0.2876 -0.1353 -0.4904
 6418SOL    HW130890   1.431   4.248   6.720  2.6868 -4.3289 -2.3481
 6418SOL    HW230891   1.301   4.259   6.666 -0.4945  0.0767 -2.7168
 6419SOL     OW30892   1.938   1.327   2.499 -0.6453 -0.0079  0.0069
 6419SOL    HW130893   1.957   1.253   2.556  1.1584  0.5734  0.1506
 6419SOL    HW230894   2.009   1.320   2.436 -1.0278 -0.2497 -0.3985
 6420SOL     OW30895   3.789   4.348   7.253 -0.3407 -0.2145 -0.5855
 6420SOL    HW130896   3.807   4.360   7.159 -0.2074 -1.5310 -0.7329
 6420SOL    HW230897   3.878   4.323   7.278  0.2553  3.0919  0.5419
 6421SOL     OW30898   1.724   2.352   3.240  0.9581 -0.4310  0.4994
 6421SOL    HW130899   1.748   2.428   3.294 -0.0272  0.0288  0.2932
 6421SOL    HW230900   1.696   2.386   3.155 -1.0014  1.4553  1.8902
 6422SOL     OW30901   0.916   0.405  14.481 -0.0181 -0.5059 -0.1998
 6422SOL    HW130902   0.858   0.464  14.434  2.5035  0.7396 -1.7607
 6422SOL    HW230903   0.999   0.452  14.479 -1.1748  1.5701  0.1147
 6423SOL     OW30904   0.155   3.933  12.803  0.1136 -0.0900  0.5313
 6423SOL    HW130905   0.208   4.012  12.797 -2.9329  2.1082  2.7861
 6423SOL    HW230906   0.067   3.967  12.790  0.5506  0.8866  0.1032
 6424SOL     OW30907   4.022   2.067   6.980  0.3233 -0.0546  0.0699
 6424SOL    HW130908   4.098   2.045   7.034  1.0156  0.2194 -0.7864
 6424SOL    HW230909   4.018   2.161   6.999  1.1269  0.2044 -1.0047
 6425SOL     OW30910   3.367   0.314   0.560 -0.2051 -0.5383 -0.1117
 6425SOL    HW130911   3.365   0.222   0.537  0.1760 -0.6565  0.3227
 6425SOL    HW230912   3.362   0.366   0.479  0.5437 -1.2084 -0.5845
 6426SOL     OW30913   3.289   3.003   2.281  0.1031  0.1929  0.4489
 6426SOL    HW130914   3.291   3.009   2.185 -2.1923  0.6330  0.4090
 6426SOL    HW230915   3.352   3.069   2.306  1.7407 -0.1206 -2.8840
 6427SOL     OW30916   0.928   1.523   0.536  0.0766  0.3649 -0.0555
 6427SOL    HW130917   1.011   1.508   0.581  1.5378  0.2399 -2.8107
 6427SOL    HW230918   0.964   1.532   0.448  3.9629  1.4218  1.6253
 6428SOL     OW30919   0.967   2.457   4.148 -0.1395  0.7145 -0.0223
 6428SOL    HW130920   0.933   2.542   4.173 -0.0932  0.7116  0.0500
 6428SOL    HW230921   1.039   2.442   4.209 -3.3346 -1.0411  3.2923
 6429SOL     OW30922   2.228   4.248   8.207 -0.2961 -0.5138 -0.1228
 6429SOL    HW130923   2.204   4.193   8.133 -1.4204  1.1544 -0.9877
 6429SOL    HW230924   2.142   4.265   8.245  0.0910  1.8335 -0.2932
 6430SOL     OW30925   3.148   0.659   6.728  0.0483 -0.0175  0.1854
 6430SOL    HW130926   3.170   0.732   6.786 -1.4612  0.4883  0.1141
 6430SOL    HW230927   3.237   0.625   6.717  0.3304  0.9082 -0.4270
 6431SOL     OW30928   3.396   4.319   4.648  0.0720 -0.0725  0.1899
 6431SOL    HW130929   3.376   4.409   4.675 -2.7080 -0.2459 -1.3389
 6431SOL    HW230930   3.404   4.270   4.730  4.2285  1.3003  0.5882
 6432SOL     OW30931   0.654   0.354   6.289 -0.1370 -0.2409  0.0754
 6432SOL    HW130932   0.746   0.381   6.297 -0.3229 -0.2267  2.1307
 6432SOL    HW230933   0.655   0.302   6.209 -0.9214 -1.2730  0.7430
 6433SOL     OW30934   4.482   0.479   3.916  0.2407  0.1458 -0.0474
 6433SOL    HW130935   4.527   0.487   4.000 -0.6821 -0.8117  0.5456
 6433SOL    HW230936   4.390   0.501   3.932  0.1273 -0.2080 -0.1998
 6434SOL     OW30937   0.955   2.281   1.069 -0.2866 -0.6162 -0.3040
 6434SOL    HW130938   0.910   2.267   1.153 -0.7735  0.8675 -0.3175
 6434SOL    HW230939   0.990   2.192   1.062  2.5349  0.4893 -0.1317
 6435SOL     OW30940   2.347   1.588  14.979  0.6790  0.5953  0.0577
 6435SOL    HW130941   2.271   1.615  14.928  1.3793 -3.3952 -3.1837
 6435SOL    HW230942   2.320   1.610  15.068  1.1690 -1.2687  0.6674
 6436SOL     OW30943   2.586   0.510   8.435  0.1151 -0.1281 -0.4389
 6436SOL    HW130944   2.621   0.560   8.361  0.3068  1.1660  0.5169
 6436SOL    HW230945   2.637   0.429   8.436 -0.6288 -0.5910 -0.8772
 6437SOL     OW30946   1.911   4.685   6.921 -0.1753  0.2358  0.7966
 6437SOL    HW130947   1.991   4.665   6.872  1.1367  0.6929  2.7282
 6437SOL    HW230948   1.875   0.029   6.878 -0.7576  0.2322  1.2675
 6438SOL     OW30949   2.567   2.286   7.862 -0.2946  0.0505 -0.2080
 6438SOL    HW130950   2.552   2.368   7.909  0.8147  0.5483 -0.7280
 6438SOL    HW230951   2.492   2.235   7.890  0.2172 -0.6506 -0.1172
 6439SOL     OW30952   1.478   3.970  15.787 -0.2006 -0.2838 -0.3554
 6439SOL    HW130953   1.509   3.882  15.805  0.9971 -0.5000 -3.4834
 6439SOL    HW230954   1.441   3.997  15.871  1.9648  0.1321  0.4670
 6440SOL     OW30955   3.091   0.982  11.088 -0.2285  0.1700  0.3694
 6440SOL    HW130956   3.076   0.903  11.035 -2.0190  1.1518 -0.6150
 6440SOL    HW230957   3.000   1.003  11.110 -0.3441  0.5261 -0.4111
 6441SOL     OW30958   1.931   3.106   8.053 -0.0350  0.3924 -0.0489
 6441SOL    HW130959   1.872   3.078   8.122  0.5497 -1.1530 -0.1816
 6441SOL    HW230960   2.014   3.074   8.089  0.5199  0.3114 -1.3935
 6442SOL     OW30961   2.101   1.162   8.016 -0.1980  0.2810  0.2917
 6442SOL    HW130962   2.083   1.091   7.954  0.0373 -0.4418  1.0424
 6442SOL    HW230963   2.024   1.218   8.011 -0.1958  0.2194 -0.4649
 6443SOL     OW30964   2.508   2.502   4.011  0.1305  0.9444 -0.1669
 6443SOL    HW130965   2.515   2.506   4.106  2.3150 -2.1190 -0.2027
 6443SOL    HW230966   2.564   2.577   3.990  1.1626  0.9686  2.7312
 6444SOL     OW30967   3.605   4.437   0.033  0.0582  0.1930 -0.5528
 6444SOL    HW130968   3.673   4.445  17.700 -0.8931 -1.0466 -1.6585
 6444SOL    HW230969   3.526   4.427  17.715  0.2650 -0.1725 -0.7961
 6445SOL     OW30970   1.870   0.031  11.043 -0.0730 -0.3859 -0.3607
 6445SOL    HW130971   1.935   0.014  11.111 -0.8524  2.4761  1.1170
 6445SOL    HW230972   1.904   4.696  10.986  0.4466 -0.5034  0.0945
 6446SOL     OW30973   0.364   2.608   8.210 -0.0285 -0.3469  0.8989
 6446SOL    HW130974   0.332   2.525   8.245  2.6277 -1.2712  1.1022
 6446SOL    HW230975   0.458   2.599   8.229 -0.3635 -1.1024  2.1870
 6447SOL     OW30976   0.316   3.736  12.682 -0.2600 -0.0498  0.0713
 6447SOL    HW130977   0.281   3.774  12.602  0.8967  2.4301  0.7415
 6447SOL    HW230978   0.247   3.762  12.745  1.6791  0.7820  1.8499
 6448SOL     OW30979   4.565   2.744  12.233 -0.3356  0.4486 -0.0368
 6448SOL    HW130980   4.472   2.732  12.253  0.4529 -2.2739  2.1375
 6448SOL    HW230981   4.560   2.817  12.172  0.4408  0.5903  0.0734
 6449SOL     OW30982   3.563   3.144   4.745  0.5677  0.4367  0.2772
 6449SOL    HW130983   3.599   3.144   4.834 -0.4589 -2.4736  0.6862
 6449SOL    HW230984   3.621   3.103   4.681  1.0691  0.3096  0.8108
 6450SOL     OW30985   1.472   0.542  11.180  0.4407 -0.2385  0.1348
 6450SOL    HW130986   1.414   0.601  11.134 -1.5323 -0.5320  2.2379
 6450SOL    HW230987   1.506   0.495  11.103  1.5269 -1.4265  1.3259
 6451SOL     OW30988   2.945   0.483   8.479 -0.0723  0.0441 -0.5659
 6451SOL    HW130989   2.936   0.577   8.493  1.3775  0.2864 -1.3291
 6451SOL    HW230990   3.022   0.470   8.424  0.6140  0.5983  0.2765
 6452SOL     OW30991   4.465   2.334   3.570  0.1955 -0.4043 -0.2671
 6452SOL    HW130992   4.488   2.294   3.487  2.0044  0.0644  0.0210
 6452SOL    HW230993   4.548   2.350   3.615  0.5338 -0.6747 -0.7996
 6453SOL     OW30994   1.164   2.562   6.958 -0.5203  0.2220  0.0505
 6453SOL    HW130995   1.217   2.543   7.035  0.3282  3.5065  0.2908
 6453SOL    HW230996   1.158   2.658   6.951 -0.7002  0.1989 -0.1041
 6454SOL     OW30997   3.463   0.480   8.256 -0.2307 -0.2040  0.0884
 6454SOL    HW130998   3.400   0.551   8.271 -0.2312 -0.2295  0.2024
 6454SOL    HW230999   3.478   0.439   8.341 -2.2436 -0.5295  0.2979
 6455SOL     OW31000   0.611   0.474   6.753  0.0082  0.0938  0.1484
 6455SOL    HW131001   0.515   0.467   6.752 -0.1509  2.4751 -1.3422
 6455SOL    HW231002   0.621   0.564   6.783  1.7876  0.1607 -0.6926
 6456SOL     OW31003   3.309   1.176   2.071  0.0674  0.2082 -0.1032
 6456SOL    HW131004   3.265   1.260   2.062 -0.6868 -0.3909 -2.0797
 6456SOL    HW231005   3.378   1.189   2.006 -0.1930 -0.9971 -0.6251
 6457SOL     OW31006   2.825   3.365   3.960 -0.1948  0.0277 -0.0325
 6457SOL    HW131007   2.864   3.291   3.912 -1.6684 -1.0559  0.4302
 6457SOL    HW231008   2.735   3.359   3.929  0.3650 -1.7313 -1.3961
 6458SOL     OW31009   2.676   2.295   5.367  0.4837 -0.0087  0.1785
 6458SOL    HW131010   2.723   2.231   5.314  0.7297 -0.8430  1.4234
 6458SOL    HW231011   2.721   2.295   5.451  1.0655 -0.1862 -0.1292
 6459SOL     OW31012   4.349   4.367   9.079 -0.6217  0.2079  0.1729
 6459SOL    HW131013   4.309   4.421   9.010  0.1396  2.0666  1.1860
 6459SOL    HW231014   4.363   4.429   9.151 -2.4598  0.5930  0.2155
 6460SOL     OW31015   0.051   4.282   8.859 -0.5467 -0.1958  0.0164
 6460SOL    HW131016   0.120   4.307   8.921 -2.0020 -2.2480  2.4638
 6460SOL    HW231017   0.071   4.188   8.855  1.3750  0.2553 -1.1569
 6461SOL     OW31018   1.740   4.421   4.366  0.0861 -0.2726  0.1399
 6461SOL    HW131019   1.675   4.412   4.296  1.4066  0.5486 -1.1888
 6461SOL    HW231020   1.804   4.485   4.333  0.3932  0.0613  1.3911
 6462SOL     OW31021   1.775   3.979   6.325 -0.6042 -0.3233 -0.0611
 6462SOL    HW131022   1.716   4.043   6.285  1.5335  1.7349  0.0764
 6462SOL    HW231023   1.850   4.037   6.343  0.2817 -0.8656 -1.9622
 6463SOL     OW31024   0.593   3.992   9.194  0.6409  0.4716 -0.2875
 6463SOL    HW131025   0.667   3.968   9.138 -0.1424 -1.4320 -0.5024
 6463SOL    HW231026   0.541   3.912   9.189  1.3465 -0.0280  0.3674
 6464SOL     OW31027   2.527   2.111   2.032 -0.4760  0.1377  0.2087
 6464SOL    HW131028   2.503   2.167   2.106  2.5548 -1.1585  2.1641
 6464SOL    HW231029   2.469   2.146   1.964  0.0967  1.2548  0.2838
 6465SOL     OW31030   4.308   1.004   5.715  0.2726  0.8854  0.2340
 6465SOL    HW131031   4.368   0.945   5.668 -3.3496 -2.3618 -0.2880
 6465SOL    HW231032   4.255   1.038   5.643 -0.3394 -1.3028 -0.3782
 6466SOL     OW31033   1.345   2.418   5.500  1.0583 -0.9284 -0.7690
 6466SOL    HW131034   1.274   2.469   5.460  0.8998 -0.5820 -0.0535
 6466SOL    HW231035   1.318   2.440   5.589 -2.1597 -0.3277 -1.8896
 6467SOL     OW31036   4.585   2.777   5.553 -0.8603 -0.3381  0.3959
 6467SOL    HW131037   4.577   2.822   5.637 -0.5996  0.0227  0.2264
 6467SOL    HW231038   4.526   2.829   5.498 -1.9434 -1.1232  0.7991
 6468SOL     OW31039   2.479   1.582  10.068  0.3142 -0.6539  0.3009
 6468SOL    HW131040   2.427   1.559   9.991 -1.0676  0.6304  0.8386
 6468SOL    HW231041   2.439   1.518  10.128  0.2963 -0.9663 -0.0412
 6469SOL     OW31042   4.293   2.673   6.927  0.2494 -0.2765 -0.2356
 6469SOL    HW131043   4.345   2.628   6.861  1.4763  0.2951  0.3416
 6469SOL    HW231044   4.362   2.667   6.992 -1.7681 -0.6065  1.8685
 6470SOL     OW31045   0.014   4.341   2.307 -0.0233 -0.2110  0.4171
 6470SOL    HW131046   4.653   4.347   2.321  0.0698 -0.2576  1.0572
 6470SOL    HW231047   0.039   4.426   2.271 -3.8113  1.1675  0.9897
 6471SOL     OW31048   2.203   3.309   6.218  0.4912 -0.2588  0.2928
 6471SOL    HW131049   2.229   3.225   6.180 -1.0102 -0.4658 -0.2691
 6471SOL    HW231050   2.174   3.367   6.148 -1.0617 -0.0644  1.0944
 6472SOL     OW31051   1.942   2.091   5.715 -0.4526 -0.4362  0.4771
 6472SOL    HW131052   1.870   2.043   5.675  0.1066 -0.4792 -0.4785
 6472SOL    HW231053   1.901   2.125   5.794 -0.8281 -0.4338  0.2781
 6473SOL     OW31054   0.851   1.356   5.040 -0.3121 -0.3570  0.0469
 6473SOL    HW131055   0.892   1.397   4.964  1.0886  2.2156  2.1868
 6473SOL    HW231056   0.811   1.431   5.084 -0.2904 -0.0992 -0.3765
 6474SOL     OW31057   3.964   3.431   9.270  0.4200 -0.0589  0.4113
 6474SOL    HW131058   3.933   3.478   9.347 -1.3605 -1.0043  0.2850
 6474SOL    HW231059   4.002   3.354   9.312  0.0455  0.0280  0.9066
 6475SOL     OW31060   4.111   1.194   6.014 -0.3333  0.4209 -0.0343
 6475SOL    HW131061   4.204   1.210   6.004 -0.1859 -0.2957  0.2241
 6475SOL    HW231062   4.108   1.113   6.064 -0.9219  0.5148  0.0917
 6476SOL     OW31063   1.811   2.928   5.422 -0.2793  0.0924 -0.5299
 6476SOL    HW131064   1.725   2.903   5.387 -1.3175  3.5837 -0.4717
 6476SOL    HW231065   1.786   2.948   5.512  0.8008  3.0627 -0.9180
 6477SOL     OW31066   2.240   3.612   2.031 -0.6251 -0.0541 -0.4957
 6477SOL    HW131067   2.316   3.589   1.976  1.0646  1.5387  1.1607
 6477SOL    HW231068   2.230   3.535   2.087  0.6934 -0.4150 -0.7433
 6478SOL     OW31069   0.042   0.610   7.914  0.2499  0.2657 -0.3604
 6478SOL    HW131070   0.030   0.683   7.853 -0.1372  0.0872 -0.4973
 6478SOL    HW231071   4.712   0.550   7.876  0.1224  0.5998 -0.6714
 6479SOL     OW31072   0.762   0.868  10.538 -0.7391  0.3862 -0.2322
 6479SOL    HW131073   0.716   0.906  10.463  2.0352  1.0053 -1.6530
 6479SOL    HW231074   0.846   0.907  10.512 -0.2047 -1.0052 -0.5831
 6480SOL     OW31075   0.095   0.792   3.321 -0.0011  0.1850  0.2278
 6480SOL    HW131076   0.106   0.877   3.278  0.0808 -0.0919 -0.2922
 6480SOL    HW231077   0.184   0.757   3.323 -1.6982 -4.0118  1.9490
 6481SOL     OW31078   4.181   0.639   6.445 -0.1431 -0.2211 -0.4769
 6481SOL    HW131079   4.221   0.564   6.402 -1.3509 -0.8770 -0.4677
 6481SOL    HW231080   4.087   0.618   6.440  0.0170 -0.9266 -0.4152
 6482SOL     OW31081   0.359   3.359   8.013 -0.5334  0.2551 -0.8989
 6482SOL    HW131082   0.447   3.324   8.001 -0.0823  1.5826 -1.5500
 6482SOL    HW231083   0.312   3.296   7.960 -0.9252 -0.1390 -0.0920
 6483SOL     OW31084   1.511   3.339   6.533 -0.2945  0.3929  0.8467
 6483SOL    HW131085   1.551   3.408   6.482  1.4317 -0.4580  1.0530
 6483SOL    HW231086   1.589   3.284   6.538 -0.2853  0.2461 -0.9368
 6484SOL     OW31087   1.626   2.228   6.865  0.4815 -0.0163  0.0949
 6484SOL    HW131088   1.707   2.203   6.909  0.3434 -0.2472  0.2167
 6484SOL    HW231089   1.602   2.301   6.922 -0.5104  1.0624 -1.7109
 6485SOL     OW31090   1.009   0.016   1.585  0.6037 -0.3354  0.5316
 6485SOL    HW131091   0.993   4.655   1.581  1.6702 -0.3564 -2.9308
 6485SOL    HW231092   0.935   0.056   1.630 -0.0711 -0.2065 -0.6978
 6486SOL     OW31093   1.378   0.993   8.788 -0.4842  0.5303  0.2283
 6486SOL    HW131094   1.343   0.955   8.708  0.1667  0.9072 -0.2353
 6486SOL    HW231095   1.428   0.919   8.821 -1.5017 -1.3266 -2.4281
 6487SOL     OW31096   0.858   4.168   0.321  0.2261  0.5392 -0.3757
 6487SOL    HW131097   0.812   4.237   0.273 -2.8509 -2.0808 -1.2517
 6487SOL    HW231098   0.919   4.218   0.375  0.4065  0.0427 -0.1175
 6488SOL     OW31099   1.514   1.767   4.609 -0.3663  0.0297  0.7656
 6488SOL    HW131100   1.431   1.722   4.590  1.2543 -1.5168 -2.6528
 6488SOL    HW231101   1.481   1.840   4.661  0.1499  0.4326  0.5213
 6489SOL     OW31102   3.257   1.370   7.511 -0.6085  0.3188  0.1356
 6489SOL    HW131103   3.223   1.445   7.559 -0.6271  0.6951 -0.4633
 6489SOL    HW231104   3.171   1.344   7.477  0.8424 -2.8839 -1.0758
 6490SOL     OW31105   2.983   1.825   6.854 -0.4410 -0.8714 -0.1182
 6490SOL    HW131106   3.074   1.837   6.825  0.0249 -2.2419  0.7122
 6490SOL    HW231107   2.990   1.762   6.926  4.8487 -0.8192 -0.5678
 6491SOL     OW31108   2.400   4.582   2.202  0.0834  0.4262 -0.1182
 6491SOL    HW131109   2.321   4.629   2.175  0.1950  0.5770 -0.1818
 6491SOL    HW231110   2.439   4.581   2.114  1.1926  2.0384  0.3518
 6492SOL     OW31111   1.353   0.253   3.855 -0.4912  0.2350  0.2385
 6492SOL    HW131112   1.429   0.247   3.797 -0.0829 -1.2333  0.9308
 6492SOL    HW231113   1.354   0.347   3.873 -2.1837  0.4194 -0.5892
 6493SOL     OW31114   3.841   4.388   8.688 -0.2093 -0.0490 -0.1265
 6493SOL    HW131115   3.750   4.415   8.698 -0.3488 -1.1533  1.5315
 6493SOL    HW231116   3.839   4.297   8.657  0.9189 -0.3871  0.7894
 6494SOL     OW31117   3.582   0.398   9.124  0.3158 -0.4621 -0.3775
 6494SOL    HW131118   3.493   0.364   9.139  0.3777 -0.7769 -0.7126
 6494SOL    HW231119   3.632   0.330   9.169 -1.3520 -1.2939  0.2445
 6495SOL     OW31120   0.656   1.902   8.249 -0.2994 -0.0325  0.6042
 6495SOL    HW131121   0.618   1.844   8.315  0.1107 -0.6312  0.3117
 6495SOL    HW231122   0.621   1.868   8.166  2.3681 -3.1602  0.7824
 6496SOL     OW31123   2.439   2.464  11.073  0.5507 -0.5170 -0.6997
 6496SOL    HW131124   2.405   2.469  11.163  2.0170  1.8254 -0.2769
 6496SOL    HW231125   2.413   2.372  11.064  0.8406 -0.7029  0.3641
 6497SOL     OW31126   2.054   4.341   5.657  0.3741  0.6813  0.1933
 6497SOL    HW131127   2.118   4.308   5.594 -0.6666  0.8013 -0.9133
 6497SOL    HW231128   2.115   4.371   5.725 -0.1819 -1.2343  1.5569
 6498SOL     OW31129   3.019   3.078   4.523 -0.2255 -0.2601 -0.2286
 6498SOL    HW131130   2.934   3.122   4.522 -0.0906 -0.0120 -0.9111
 6498SOL    HW231131   2.997   3.007   4.584  0.7271  1.9352  2.6555
 6499SOL     OW31132   4.268   1.155   9.501  0.9003 -0.0380  0.3328
 6499SOL    HW131133   4.362   1.157   9.484  0.7694 -2.4459 -0.6922
 6499SOL    HW231134   4.251   1.061   9.496  1.8168 -0.1569 -0.5158
 6500SOL     OW31135   2.787   3.990   0.318 -0.2325 -0.0384 -0.1527
 6500SOL    HW131136   2.778   4.040   0.399 -2.4832  0.1961 -0.5302
 6500SOL    HW231137   2.870   4.022   0.284 -1.2904  2.4495 -0.4157
 6501SOL     OW31138   1.743   0.779   3.693  0.0589  0.2382  0.2153
 6501SOL    HW131139   1.688   0.823   3.759 -0.7129  1.5002 -1.2585
 6501SOL    HW231140   1.678   0.714   3.669 -1.0978  1.4976 -0.0991
 6502SOL     OW31141   0.056   1.924   6.599 -0.1190 -0.8770 -0.2758
 6502SOL    HW131142   4.727   1.977   6.648  0.9547  0.1009  0.0696
 6502SOL    HW231143   0.082   1.867   6.671 -0.9349 -0.0636  0.6510
 6503SOL     OW31144   2.261   0.235   3.036  0.3030 -0.0346 -0.1924
 6503SOL    HW131145   2.233   0.308   2.980 -1.1672 -0.5135 -0.1051
 6503SOL    HW231146   2.355   0.243   3.049  0.3809 -1.5034  0.1469
 6504SOL     OW31147   1.492   2.043  14.496 -0.3301  0.2366  0.1359
 6504SOL    HW131148   1.527   2.121  14.538  1.1972  0.0231 -0.7474
 6504SOL    HW231149   1.570   2.016  14.447  0.1127 -0.0589  1.0009
 6505SOL     OW31150   0.164   2.843   4.311  0.3616 -0.4864  0.2085
 6505SOL    HW131151   0.126   2.900   4.244 -0.8121 -0.8114  0.5924
 6505SOL    HW231152   0.124   2.762   4.280  0.3453 -0.5011  0.2680
 6506SOL     OW31153   0.947   4.190   2.528 -0.2787  0.4293  0.1097
 6506SOL    HW131154   0.920   4.113   2.478 -0.8903  0.8259 -0.1835
 6506SOL    HW231155   1.041   4.181   2.542 -0.2843  2.7376  1.6534
 6507SOL     OW31156   1.421   0.063   6.968  0.2525  0.0609 -0.0900
 6507SOL    HW131157   1.383   0.149   6.986 -1.4452 -0.6879 -0.0754
 6507SOL    HW231158   1.350   0.015   6.925  0.9461  0.2971 -1.5077
 6508SOL     OW31159   3.793   2.718   7.622 -0.1311  0.1409 -0.1011
 6508SOL    HW131160   3.822   2.650   7.683  0.9044  1.5816  0.9939
 6508SOL    HW231161   3.816   2.796   7.672 -1.0326  0.0821  0.4096
 6509SOL     OW31162   4.336   0.702   6.652 -0.0265  0.3797  0.5385
 6509SOL    HW131163   4.283   0.674   6.576 -0.4216  1.0331  0.5681
 6509SOL    HW231164   4.380   0.619   6.670 -1.0263 -0.0729  0.8810
 6510SOL     OW31165   0.889   1.527   5.787 -0.1184  0.1920  0.1146
 6510SOL    HW131166   0.949   1.602   5.785  0.4269 -0.2513 -0.2982
 6510SOL    HW231167   0.826   1.555   5.722  1.0254  0.2123 -0.9890
 6511SOL     OW31168   2.580   4.731  11.883  0.2967  0.2826  0.3794
 6511SOL    HW131169   2.625   4.647  11.870  0.3009  0.6140 -1.7057
 6511SOL    HW231170   2.644   0.053  11.928  2.6711 -0.7500 -1.7023
 6512SOL     OW31171   4.353   4.111   8.953 -0.1206  0.3082  0.1880
 6512SOL    HW131172   4.307   4.072   9.027 -1.3917 -0.7821 -1.1762
 6512SOL    HW231173   4.346   4.204   8.975  2.3923  0.2994  0.9297
 6513SOL     OW31174   0.510   0.927   7.610 -0.1887 -0.0699  0.6677
 6513SOL    HW131175   0.533   0.856   7.669 -0.0629 -0.4088  0.2067
 6513SOL    HW231176   0.560   0.903   7.532 -0.8593 -1.8261  0.8010
 6514SOL     OW31177   0.720   4.600   9.715  0.1675 -0.0386  0.0329
 6514SOL    HW131178   0.767   4.523   9.747  2.4437  0.8867 -1.0709
 6514SOL    HW231179   0.663   4.613   9.790  1.3493  1.2990  0.6996
 6515SOL     OW31180   4.437   3.268   1.876 -0.2750 -0.4132 -0.1104
 6515SOL    HW131181   4.429   3.271   1.971  2.2165  0.9922  0.0581
 6515SOL    HW231182   4.356   3.223   1.849 -0.8725  0.2511  0.5763
 6516SOL     OW31183   3.346   0.249   2.350  0.1107  0.3439 -0.1554
 6516SOL    HW131184   3.347   0.282   2.440 -0.1365 -0.6017  0.1963
 6516SOL    HW231185   3.346   0.333   2.304  2.0702  0.1382 -0.5028
 6517SOL     OW31186   2.892   3.432   3.013  0.7695 -0.2414 -0.4446
 6517SOL    HW131187   2.853   3.467   2.933 -2.0828  0.6732  1.3659
 6517SOL    HW231188   2.886   3.340   2.986 -0.6856  0.3803 -2.2306
 6518SOL     OW31189   0.783   2.364   6.786  0.1212 -0.0408  0.3532
 6518SOL    HW131190   0.825   2.364   6.873 -1.0267  2.3163  0.9251
 6518SOL    HW231191   0.715   2.431   6.795 -0.1627  0.0212 -2.3542
 6519SOL     OW31192   0.722   4.054   6.933 -0.4740  0.3119 -0.4358
 6519SOL    HW131193   0.683   4.077   6.848 -1.3826  1.9209  0.4231
 6519SOL    HW231194   0.672   4.106   6.995 -0.6716  2.3056 -2.2709
 6520SOL     OW31195   0.282   4.242   1.850 -0.3647  0.0320 -0.1217
 6520SOL    HW131196   0.350   4.285   1.797 -0.9279  0.5679 -0.4096
 6520SOL    HW231197   0.286   4.304   1.922 -1.1857  1.2674 -1.1348
 6521SOL     OW31198   2.966   0.252   6.213  0.2512  0.0366  0.3463
 6521SOL    HW131199   3.057   0.242   6.185  0.5280 -1.3172  1.7260
 6521SOL    HW231200   2.980   0.262   6.307  1.3388 -1.6084  0.3471
 6522SOL     OW31201   0.487   2.105   2.953  0.1651  0.3517  0.1838
 6522SOL    HW131202   0.435   2.024   2.953  0.1425  0.3671  0.0342
 6522SOL    HW231203   0.527   2.107   3.040 -1.0285 -0.8894  0.7548
 6523SOL     OW31204   0.832   2.776   6.871  0.4471  0.3677  0.0473
 6523SOL    HW131205   0.927   2.787   6.870  0.2998  1.5854 -1.0530
 6523SOL    HW231206   0.806   2.737   6.955  2.1097 -2.0798 -0.5830
 6524SOL     OW31207   4.199   0.298   8.512 -0.6572  0.2472 -0.0425
 6524SOL    HW131208   4.182   0.205   8.531 -3.3987  0.5073 -1.2724
 6524SOL    HW231209   4.244   0.293   8.428 -0.9915 -0.1608 -0.1999
 6525SOL     OW31210   3.978   1.832   2.541 -0.0514  0.1022  0.0600
 6525SOL    HW131211   4.062   1.877   2.548  0.3685 -0.4992 -1.0905
 6525SOL    HW231212   3.928   1.910   2.516  0.0336 -0.7793 -2.8922
 6526SOL     OW31213   3.819   3.255   9.562 -0.2781 -0.1378  0.1796
 6526SOL    HW131214   3.747   3.224   9.508  1.3495 -0.3119 -1.9095
 6526SOL    HW231215   3.885   3.210   9.510 -0.2524  0.8545 -0.6622
 6527SOL     OW31216   0.203   0.487   3.021 -0.1120  0.3151 -0.5476
 6527SOL    HW131217   0.265   0.490   3.094 -0.9970 -1.0188  0.2775
 6527SOL    HW231218   0.239   0.554   2.963  2.1100 -0.4529 -0.0791
 6528SOL     OW31219   1.784   3.373   8.292 -0.1519 -0.1968  0.0042
 6528SOL    HW131220   1.789   3.401   8.384 -0.7886  2.6488 -0.8309
 6528SOL    HW231221   1.702   3.324   8.293  0.3434 -1.0019  2.9310
 6529SOL     OW31222   1.525   4.484   0.229  0.0104  0.1600 -0.0127
 6529SOL    HW131223   1.557   4.574   0.234  1.5750 -0.3687 -0.5003
 6529SOL    HW231224   1.585   4.458   0.160  0.5831 -0.5041  0.7462
 6530SOL     OW31225   0.503   3.264   5.961 -0.0868 -0.0428 -0.2542
 6530SOL    HW131226   0.592   3.281   5.991 -0.3726 -0.4206  0.8010
 6530SOL    HW231227   0.482   3.202   6.031  1.1694 -1.3455 -1.0254
 6531SOL     OW31228   3.085   0.124   8.695  0.6257  0.0887  0.4606
 6531SOL    HW131229   3.171   0.120   8.737  0.4412 -0.5144  0.7720
 6531SOL    HW231230   3.117   0.172   8.618  0.3201 -0.6001 -0.0915
 6532SOL     OW31231   0.536   3.232   8.315 -0.4559  0.0928  0.1889
 6532SOL    HW131232   0.476   3.215   8.242  1.1611  1.1809 -1.3695
 6532SOL    HW231233   0.494   3.186   8.388  4.1715 -0.9487  2.1799
 6533SOL     OW31234   2.249   3.074   8.247 -0.1098  0.0252  0.2740
 6533SOL    HW131235   2.311   3.100   8.314  0.1805 -0.4698  0.1995
 6533SOL    HW231236   2.173   3.125   8.276 -0.2216  0.7902 -1.3717
 6534SOL     OW31237   3.624   1.123   4.207 -0.3903 -0.1655  0.1259
 6534SOL    HW131238   3.651   1.158   4.121 -0.3172 -0.1843  0.1412
 6534SOL    HW231239   3.619   1.028   4.196 -2.4061 -0.1870  1.2045
 6535SOL     OW31240   3.286   3.956   4.695  0.2830 -0.2499 -0.1182
 6535SOL    HW131241   3.325   3.874   4.665  1.2933  0.2414 -0.1528
 6535SOL    HW231242   3.344   3.967   4.771 -1.0028  2.8621  0.4244
 6536SOL     OW31243   2.577   0.395   8.805 -0.4110 -0.0193  0.2671
 6536SOL    HW131244   2.663   0.429   8.831  0.5313 -3.2034  1.3064
 6536SOL    HW231245   2.590   0.392   8.711 -0.1443 -1.7898  0.3573
 6537SOL     OW31246   1.625   0.425   6.754  0.5707 -0.5099  0.0361
 6537SOL    HW131247   1.669   0.346   6.784  0.9524 -0.2956  0.0438
 6537SOL    HW231248   1.707   0.474   6.744 -0.0424  0.3463 -0.8075
 6538SOL     OW31249   4.234   1.326  12.920  0.4188  0.2451  0.5435
 6538SOL    HW131250   4.309   1.282  12.880  0.7349  3.0698 -1.9778
 6538SOL    HW231251   4.260   1.379  12.996  0.4207 -1.0430  1.4375
 6539SOL     OW31252   1.682   3.158   2.245 -0.0151 -0.9803 -0.4648
 6539SOL    HW131253   1.587   3.157   2.254  0.0505 -0.2782  0.2986
 6539SOL    HW231254   1.717   3.189   2.328 -0.4305 -1.2101 -0.2090
 6540SOL     OW31255   2.304   1.990   2.561  0.5072  0.1980  0.9331
 6540SOL    HW131256   2.273   2.062   2.615 -0.1559 -0.2339  1.1396
 6540SOL    HW231257   2.236   1.929   2.590  0.9489 -0.2580  1.0267
 6541SOL     OW31258   2.135   3.402   8.452 -0.0075  0.0689  0.1057
 6541SOL    HW131259   2.230   3.407   8.443  0.0420 -0.3762  0.3955
 6541SOL    HW231260   2.122   3.365   8.364  1.5056 -2.5741  0.9903
 6542SOL     OW31261   3.206   3.303   4.526 -0.0414  0.3550 -0.3332
 6542SOL    HW131262   3.123   3.342   4.499  0.9537  2.8403  0.1754
 6542SOL    HW231263   3.181   3.219   4.563  2.1614 -0.2219 -0.1118
 6543SOL     OW31264   4.523   2.957  12.077 -0.4083 -0.1097 -0.5444
 6543SOL    HW131265   4.583   3.008  12.024 -0.1514 -0.7493 -0.8739
 6543SOL    HW231266   4.463   3.027  12.100 -0.7222 -0.1769 -1.1502
 6544SOL     OW31267   1.833   0.866   0.805  0.3413 -0.6386 -0.4738
 6544SOL    HW131268   1.754   0.918   0.818  0.4859 -0.3519 -0.7386
 6544SOL    HW231269   1.899   0.901   0.865  1.9521  0.3058 -2.7897
 6545SOL     OW31270   4.428   0.359  11.430 -0.3853 -0.4238  0.1933
 6545SOL    HW131271   4.397   0.307  11.355 -1.5392  0.8928 -0.2555
 6545SOL    HW231272   4.515   0.321  11.441  0.3984  1.3096 -0.0734
 6546SOL     OW31273   2.914   3.651   4.499  0.0082  0.1974 -0.1630
 6546SOL    HW131274   2.846   3.706   4.460 -0.1895  0.2187  0.2101
 6546SOL    HW231275   2.960   3.723   4.543 -1.0840  0.8355 -0.0586
 6547SOL     OW31276   3.086   1.850   1.715  0.0921 -0.0539 -0.1630
 6547SOL    HW131277   3.109   1.879   1.627  1.2412 -1.0988 -0.2036
 6547SOL    HW231278   3.166   1.870   1.764 -1.7873  1.7688  2.1346
 6548SOL     OW31279   2.829   4.266  10.827 -0.5822  0.3230 -0.5533
 6548SOL    HW131280   2.895   4.291  10.762  0.7495 -0.5505  0.4501
 6548SOL    HW231281   2.792   4.349  10.857 -2.6478 -0.5794 -0.6202
 6549SOL     OW31282   3.515   0.491   5.939 -0.3316  0.1379  0.2312
 6549SOL    HW131283   3.537   0.402   5.909 -0.9490 -0.3165  1.1103
 6549SOL    HW231284   3.452   0.524   5.875  1.3180  0.6473 -1.1277
 6550SOL     OW31285   2.163   3.115  15.880 -0.0657  0.0676 -0.1859
 6550SOL    HW131286   2.099   3.173  15.838 -0.9537 -1.6270 -1.2104
 6550SOL    HW231287   2.245   3.155  15.853  1.1784 -1.5155  1.3007
 6551SOL     OW31288   4.186   3.462   0.711 -0.0152  0.1268 -0.3724
 6551SOL    HW131289   4.212   3.428   0.625  1.9894  0.5116  0.0660
 6551SOL    HW231290   4.263   3.514   0.734 -0.8523  0.7608  1.0023
 6552SOL     OW31291   2.919   4.324   4.586 -0.1725  0.5417 -0.2687
 6552SOL    HW131292   2.941   4.370   4.504 -1.7480 -0.0681 -1.0282
 6552SOL    HW231293   2.995   4.345   4.641 -0.2297 -1.9524  0.7350
 6553SOL     OW31294   1.908   4.710   6.600  0.5546  0.0967 -0.1314
 6553SOL    HW131295   1.834   4.700   6.539  0.8529  0.4112 -0.5432
 6553SOL    HW231296   1.931   4.618   6.613 -0.2774 -0.2253 -0.8715
 6554SOL     OW31297   1.887   3.265   5.052 -0.9910  0.3755 -0.2140
 6554SOL    HW131298   1.948   3.330   5.016  0.0793 -0.6138 -0.1681
 6554SOL    HW231299   1.925   3.186   5.015  0.3667  0.9197  0.0277
 6555SOL     OW31300   0.961   0.375  11.255 -0.0001 -0.4398 -0.0449
 6555SOL    HW131301   0.995   0.387  11.344  1.8796 -2.5813 -0.4614
 6555SOL    HW231302   0.936   0.283  11.252 -1.5827 -0.0813  1.9821
 6556SOL     OW31303   1.190   1.057  16.224 -0.1593 -0.1132  0.0413
 6556SOL    HW131304   1.109   1.104  16.245  1.0398  2.1002 -0.2861
 6556SOL    HW231305   1.174   1.014  16.140  0.3493 -1.9264  0.8835
 6557SOL     OW31306   3.756   3.063   1.185  0.1072  0.2849  0.1024
 6557SOL    HW131307   3.823   3.128   1.209 -1.8526  2.1599  0.4757
 6557SOL    HW231308   3.791   3.019   1.107  1.4423 -0.1079  0.9136
 6558SOL     OW31309   2.201   4.498   7.373 -0.3649  0.3851  0.0941
 6558SOL    HW131310   2.110   4.527   7.374 -0.6632 -0.5677 -0.0928
 6558SOL    HW231311   2.235   4.537   7.454  1.4786  0.1697 -0.5813
 6559SOL     OW31312   0.941   3.993   2.293  0.0949 -0.0074  0.4466
 6559SOL    HW131313   1.034   4.016   2.293  0.3956 -1.1835  2.7451
 6559SOL    HW231314   0.951   3.902   2.263  2.7846 -0.2678  2.0691
 6560SOL     OW31315   4.405   2.561   9.007 -0.6862 -0.1675  1.1271
 6560SOL    HW131316   4.453   2.521   8.935 -0.3278 -0.7849  1.7146
 6560SOL    HW231317   4.452   2.531   9.085  1.1241  2.9323  1.2190
 6561SOL     OW31318   4.262   2.812   8.343  0.5054  0.4016 -0.0947
 6561SOL    HW131319   4.240   2.781   8.256 -1.5248  0.3746  0.4389
 6561SOL    HW231320   4.204   2.759   8.397 -0.7089  1.4294 -0.4051
 6562SOL     OW31321   0.716   2.028   1.851 -0.0492 -0.4096 -0.6178
 6562SOL    HW131322   0.701   1.942   1.891 -0.7817 -1.5680 -3.3823
 6562SOL    HW231323   0.638   2.052   1.801 -0.4925 -0.7007 -0.0759
 6563SOL     OW31324   3.159   2.583   3.687  0.1384 -0.0252 -0.2382
 6563SOL    HW131325   3.184   2.671   3.716  2.7020 -0.7656 -0.1580
 6563SOL    HW231326   3.225   2.578   3.618  1.6205 -1.5835  1.2896
 6564SOL     OW31327   4.673   0.373  16.635  0.1621 -0.1831 -0.1908
 6564SOL    HW131328   4.691   0.282  16.613 -1.1432 -1.3031  3.2626
 6564SOL    HW231329   0.013   0.416  16.593  0.1170  1.7411  1.6774
 6565SOL     OW31330   2.227   1.095   4.602 -0.2361  0.2551 -0.1464
 6565SOL    HW131331   2.275   1.015   4.582 -2.0492 -0.7495 -0.3948
 6565SOL    HW231332   2.274   1.165   4.555  0.2536 -0.3342 -0.5361
 6566SOL     OW31333   3.763   0.541   8.941  0.5828 -0.1814 -0.4177
 6566SOL    HW131334   3.732   0.463   8.988  1.8070  0.8818  2.1374
 6566SOL    HW231335   3.769   0.600   9.016  3.1626  0.3067 -1.0115
 6567SOL     OW31336   4.197   3.019   1.929 -0.0739 -0.7639 -0.1386
 6567SOL    HW131337   4.196   2.949   1.863 -0.0306  0.9274 -1.9321
 6567SOL    HW231338   4.277   2.999   1.977  1.2546  0.7965 -1.6961
 6568SOL     OW31339   3.996   1.441  14.605  0.4595 -0.0169 -0.1056
 6568SOL    HW131340   3.984   1.534  14.586 -1.0102  0.0764  1.2201
 6568SOL    HW231341   3.998   1.443  14.701 -0.6110  2.1254 -0.1183
 6569SOL     OW31342   0.208   1.939   7.944 -0.0049  0.0259 -0.0423
 6569SOL    HW131343   0.152   2.014   7.965 -1.8572 -1.3393 -0.1126
 6569SOL    HW231344   0.263   1.927   8.022  0.0526 -2.1427 -0.4106
 6570SOL     OW31345   1.889   2.624   5.614 -0.0610 -0.2772  0.4525
 6570SOL    HW131346   1.903   2.536   5.650  0.2477 -0.2382  0.4286
 6570SOL    HW231347   1.800   2.644   5.642  0.0435 -0.0680  0.6255
 6571SOL     OW31348   4.047   1.141  13.046 -0.6270 -0.2234  0.0725
 6571SOL    HW131349   4.130   1.172  13.009  0.2176 -1.9166  0.5961
 6571SOL    HW231350   4.053   1.182  13.133  1.4754  0.6519 -0.4864
 6572SOL     OW31351   4.257   2.125   0.200 -0.0743  0.4461 -0.3953
 6572SOL    HW131352   4.309   2.119   0.281  0.5134  0.5967 -0.7662
 6572SOL    HW231353   4.187   2.183   0.232  0.6550  0.8792  0.4136
 6573SOL     OW31354   0.617   0.562   9.887 -0.3391  0.4173 -0.2502
 6573SOL    HW131355   0.557   0.592   9.818  1.0925  1.8980 -0.8543
 6573SOL    HW231356   0.564   0.491   9.924  0.8178  0.0762  0.7391
 6574SOL     OW31357   3.013   3.276   7.348 -0.3934 -0.4550  0.2771
 6574SOL    HW131358   3.063   3.220   7.288  0.4574  0.8483 -0.2329
 6574SOL    HW231359   2.969   3.340   7.292  2.4745  2.0551  0.8758
 6575SOL     OW31360   0.311   0.401   7.075 -0.2060 -0.1322  0.1297
 6575SOL    HW131361   0.258   0.348   7.134 -0.3074 -2.3617 -1.9616
 6575SOL    HW231362   0.358   0.455   7.138 -0.6741  0.3235  0.0929
 6576SOL     OW31363   3.381   3.587  13.370  0.5991  0.1779 -0.2550
 6576SOL    HW131364   3.474   3.587  13.346  0.2597  1.7489 -1.5984
 6576SOL    HW231365   3.346   3.653  13.310  0.4882 -0.0306 -0.4203
 6577SOL     OW31366   1.952   1.352   4.367 -0.1233  0.3530  0.1616
 6577SOL    HW131367   2.010   1.422   4.396 -0.8957  0.3909  1.6268
 6577SOL    HW231368   2.011   1.277   4.374 -1.5517 -0.9648 -1.7391
 6578SOL     OW31369   2.673   4.627   5.095 -0.4548 -0.1536 -0.3093
 6578SOL    HW131370   2.757   4.599   5.131 -1.1019  0.0680  1.3312
 6578SOL    HW231371   2.700   4.686   5.024 -2.4569 -0.7907 -1.6268
 6579SOL     OW31372   1.144   2.751   3.806 -0.4046  0.3011  0.3099
 6579SOL    HW131373   1.079   2.693   3.766  0.8286 -1.2490  0.5582
 6579SOL    HW231374   1.116   2.838   3.775 -0.2529  0.5218  0.7863
 6580SOL     OW31375   3.318   4.602   4.698 -0.2798  0.5971 -0.1788
 6580SOL    HW131376   3.375   4.646   4.761  1.2508 -5.1074  2.4230
 6580SOL    HW231377   3.234   4.642   4.722 -1.3228 -1.0700 -1.0074
 6581SOL     OW31378   0.732   0.654   3.212 -0.3624 -0.1887  0.0615
 6581SOL    HW131379   0.757   0.622   3.298 -0.9505  0.6308  0.5374
 6581SOL    HW231380   0.641   0.628   3.223 -0.2418 -1.7256 -2.6561
 6582SOL     OW31381   0.776   1.368   3.300  0.0615 -0.3615  0.0960
 6582SOL    HW131382   0.767   1.448   3.249 -0.3493  0.7616  1.9271
 6582SOL    HW231383   0.814   1.401   3.381  0.0172  2.1523 -0.8952
 6583SOL     OW31384   0.503   2.194   9.234 -0.0355 -0.3677  0.5086
 6583SOL    HW131385   0.417   2.207   9.274  1.1038 -0.5257  2.9511
 6583SOL    HW231386   0.531   2.280   9.203 -0.6067 -0.3468  0.0435
 6584SOL     OW31387   4.404   0.080   1.378 -0.5121  0.3578  0.1933
 6584SOL    HW131388   4.497   0.083   1.357 -0.3465  1.9693  1.2042
 6584SOL    HW231389   4.368   0.148   1.321  0.7267  0.4598 -0.4761
 6585SOL     OW31390   4.669   2.701   4.202 -0.5168 -0.6090 -0.5404
 6585SOL    HW131391   4.627   2.615   4.200 -0.6336 -0.5999  1.2588
 6585SOL    HW231392   4.707   2.701   4.114  0.3201 -1.5378 -0.1754
 6586SOL     OW31393   2.396   1.658  16.937 -0.3865  0.0819  0.7198
 6586SOL    HW131394   2.464   1.687  16.997  1.5947 -1.6816 -0.6837
 6586SOL    HW231395   2.334   1.609  16.991  1.3157  1.7547  4.1487
 6587SOL     OW31396   0.947   3.411   4.735 -0.5460 -1.1023  0.2595
 6587SOL    HW131397   0.882   3.382   4.799 -1.7611 -0.1504 -0.5413
 6587SOL    HW231398   1.009   3.338   4.736  1.8816  0.8876 -2.3002
 6588SOL     OW31399   0.732   0.093  12.297  0.2820 -0.2385  0.1628
 6588SOL    HW131400   0.815   0.056  12.268 -0.3681 -1.0962 -0.6007
 6588SOL    HW231401   0.736   0.093  12.393 -0.2509 -2.5407  0.1713
 6589SOL     OW31402   1.631   1.370  15.443  0.4182 -0.3873  0.3734
 6589SOL    HW131403   1.673   1.353  15.527  0.9952  0.8807  0.3381
 6589SOL    HW231404   1.632   1.280  15.408  1.0255 -0.9626  1.9000
 6590SOL     OW31405   1.332   1.946   5.358  0.4028 -0.4930  0.3702
 6590SOL    HW131406   1.344   1.927   5.265  2.1972  1.2491  0.2327
 6590SOL    HW231407   1.398   1.893   5.401  0.5965  0.8220  1.7015
 6591SOL     OW31408   1.457   4.479   5.882  0.5531 -0.7248 -0.0817
 6591SOL    HW131409   1.489   4.530   5.957  1.0662 -2.1526  0.6613
 6591SOL    HW231410   1.381   4.532   5.858 -0.4541 -1.9037  0.5090
 6592SOL     OW31411   3.845   3.406   7.904 -0.0189  0.0893 -0.9423
 6592SOL    HW131412   3.889   3.461   7.968 -1.3704 -0.3383  0.3503
 6592SOL    HW231413   3.805   3.470   7.845 -1.8353  0.4340  0.6576
 6593SOL     OW31414   1.910   4.672   3.568 -0.0884 -0.0160  0.0382
 6593SOL    HW131415   1.915   4.587   3.611  2.7300  0.0018 -0.2511
 6593SOL    HW231416   1.876   4.732   3.635  0.5459 -0.3370  0.6530
 6594SOL     OW31417   1.982   0.580   3.007 -0.2334 -0.2046  0.1600
 6594SOL    HW131418   1.901   0.572   3.056 -0.5696 -0.1975 -0.3983
 6594SOL    HW231419   1.972   0.506   2.947 -0.8889 -0.0880  0.1357
 6595SOL     OW31420   3.533   0.732   6.496  0.1561  0.5415  0.6296
 6595SOL    HW131421   3.592   0.807   6.496  0.5332  0.2385  1.0437
 6595SOL    HW231422   3.504   0.738   6.404  3.2564  0.4330 -0.3372
 6596SOL     OW31423   2.071   0.907   8.642  0.0699  0.2332 -0.0521
 6596SOL    HW131424   2.052   0.816   8.664  1.3123  0.6288  2.6536
 6596SOL    HW231425   2.072   0.901   8.547 -1.6373 -0.3757 -0.0209
 6597SOL     OW31426   4.518   4.251   5.948 -0.1854  0.0303  0.0453
 6597SOL    HW131427   4.580   4.218   5.883 -1.5210 -0.5629 -0.9180
 6597SOL    HW231428   4.549   4.207   6.027  1.2334  2.1343  0.6737
 6598SOL     OW31429   0.644   4.022   0.601 -0.2219 -0.0186 -0.0796
 6598SOL    HW131430   0.592   4.011   0.522  0.9505  1.4957 -1.0751
 6598SOL    HW231431   0.729   4.055   0.571 -0.5925  0.0901 -1.0129
 6599SOL     OW31432   1.449   1.893   2.845 -0.9122 -0.5636 -0.0708
 6599SOL    HW131433   1.407   1.807   2.843 -0.9792 -0.6366  5.0542
 6599SOL    HW231434   1.389   1.946   2.896 -1.2578 -2.7201  1.7705
 6600SOL     OW31435   3.979   4.606   6.836  0.5946 -0.0061 -0.1870
 6600SOL    HW131436   4.058   4.629   6.884  0.3331  1.9851 -0.7241
 6600SOL    HW231437   4.001   4.641   6.749  3.9903  1.6114  1.3495
 6601SOL     OW31438   1.742   4.495   3.369  0.3984  0.3039  0.6401
 6601SOL    HW131439   1.685   4.568   3.395 -0.0701  0.5230 -0.9882
 6601SOL    HW231440   1.792   4.488   3.451 -0.3391  2.8058  1.3165
 6602SOL     OW31441   4.701   1.887   2.061 -0.6646  0.3380  0.0349
 6602SOL    HW131442   4.683   1.914   1.971 -0.0905 -1.9283 -0.7720
 6602SOL    HW231443   0.045   1.938   2.084 -1.3220  0.9213  1.0138
 6603SOL     OW31444   0.690   1.074   2.623 -0.5743  0.0267  0.4259
 6603SOL    HW131445   0.768   1.060   2.570 -0.5891 -0.1898  0.4638
 6603SOL    HW231446   0.719   1.113   2.706 -3.6482  1.9967  0.5971
 6604SOL     OW31447   1.614   3.224   6.840  0.0564  0.4062 -0.4979
 6604SOL    HW131448   1.691   3.181   6.877  0.6349  0.5367 -1.5304
 6604SOL    HW231449   1.631   3.210   6.746  0.7784 -0.5608 -0.2232
 6605SOL     OW31450   1.362   2.208   4.372  0.2999  0.2494  0.0438
 6605SOL    HW131451   1.344   2.116   4.352 -0.0768  0.5830 -1.1265
 6605SOL    HW231452   1.454   2.206   4.346  0.2568  0.3254 -0.1172
 6606SOL     OW31453   3.735   0.801   5.199 -0.9193 -0.7901  0.0348
 6606SOL    HW131454   3.806   0.863   5.216  1.2742 -3.1600 -0.5185
 6606SOL    HW231455   3.661   0.855   5.226 -1.5122 -1.1845 -0.8088
 6607SOL     OW31456   3.782   1.011   7.896  0.2389  0.7558  0.6143
 6607SOL    HW131457   3.740   0.932   7.931  0.9183  0.2962  0.3958
 6607SOL    HW231458   3.815   1.054   7.975  3.1514  0.0379 -0.2184
 6608SOL     OW31459   0.923   4.168  10.668  0.5513 -0.7063 -0.4796
 6608SOL    HW131460   1.018   4.169  10.661  0.5509 -0.4298 -0.4147
 6608SOL    HW231461   0.896   4.245  10.618 -0.9813 -0.8484  0.1392
 6609SOL     OW31462   2.087   3.885   9.044 -0.0504 -0.1696  0.7210
 6609SOL    HW131463   2.078   3.940   9.122  2.6552  0.8992  0.2585
 6609SOL    HW231464   1.995   3.884   9.016  0.2255  2.7072 -0.3037
 6610SOL     OW31465   3.933   2.236   3.905 -0.1771 -0.1814 -0.3023
 6610SOL    HW131466   3.966   2.298   3.971  0.4877  1.7411 -2.4275
 6610SOL    HW231467   3.995   2.259   3.836 -1.2686 -0.3713 -1.3485
 6611SOL     OW31468   3.198   2.185   7.079 -0.5704 -0.1706 -0.5763
 6611SOL    HW131469   3.247   2.259   7.044  0.1393  0.5896  2.0485
 6611SOL    HW231470   3.266   2.126   7.110  2.3023  3.1558 -0.6321
 6612SOL     OW31471   0.608   0.230   2.699  0.2183 -0.8702  0.5028
 6612SOL    HW131472   0.618   0.156   2.639 -0.7435  0.1960 -0.9692
 6612SOL    HW231473   0.620   0.189   2.785 -0.6417 -1.0213  0.5525
 6613SOL     OW31474   1.171   0.793   6.765  0.3573  0.3841 -0.4740
 6613SOL    HW131475   1.100   0.738   6.798  0.0351  0.1070 -1.5964
 6613SOL    HW231476   1.139   0.879   6.791 -0.5348 -0.4800  1.2497
 6614SOL     OW31477   4.561   3.180   4.939  0.3188 -0.6267  0.0861
 6614SOL    HW131478   4.654   3.204   4.946 -0.4864  2.1514  1.2377
 6614SOL    HW231479   4.542   3.098   4.984 -0.9207 -1.0588 -1.2386
 6615SOL     OW31480   0.192   1.458   8.885  0.1390 -0.0137  0.2592
 6615SOL    HW131481   0.265   1.490   8.832  1.0381  0.4239  1.7508
 6615SOL    HW231482   0.130   1.413   8.827 -0.4519  1.1066  0.0141
 6616SOL     OW31483   2.876   0.048   0.567  0.1903  0.1502  0.2966
 6616SOL    HW131484   2.846   4.725   0.496  0.6316 -1.3793  1.3375
 6616SOL    HW231485   2.798   0.074   0.616  1.2043  2.0041  0.9198
 6617SOL     OW31486   3.939   4.552   7.965 -0.3527  0.1994  0.1159
 6617SOL    HW131487   3.864   4.494   7.980 -0.3903  0.1473 -0.2790
 6617SOL    HW231488   3.902   4.640   7.971 -1.7061 -0.3361 -0.2228
 6618SOL     OW31489   2.917   2.481   3.589  0.3275  0.0467  0.0446
 6618SOL    HW131490   3.009   2.497   3.610 -0.0309  0.2838  1.4197
 6618SOL    HW231491   2.925   2.514   3.500  2.7729  0.1719  0.3175
 6619SOL     OW31492   0.852   1.620  14.095  0.0986 -0.2826  0.0853
 6619SOL    HW131493   0.849   1.527  14.120  1.0344 -0.6573 -1.1954
 6619SOL    HW231494   0.762   1.634  14.066 -0.0769 -0.9499  0.2911
 6620SOL     OW31495   0.567   4.272   0.508 -0.1670 -0.2659  0.8185
 6620SOL    HW131496   0.500   4.204   0.500 -0.2793 -0.3740  2.6052
 6620SOL    HW231497   0.630   4.217   0.554  1.6302  0.6667 -0.5085
 6621SOL     OW31498   4.218   0.279   4.868  0.1085 -0.6134  0.5150
 6621SOL    HW131499   4.286   0.217   4.896  0.0657 -1.1775 -0.6045
 6621SOL    HW231500   4.244   0.309   4.780  1.5649 -2.4063  0.3244
 6622SOL     OW31501   3.215   1.255   3.134  0.0179  0.1570  0.1252
 6622SOL    HW131502   3.130   1.277   3.097 -1.2140 -4.3996  0.1677
 6622SOL    HW231503   3.208   1.222   3.224 -0.1209  0.3709  0.1917
 6623SOL     OW31504   0.433   3.994  17.431 -0.1784  0.5598  0.0606
 6623SOL    HW131505   0.444   3.969  17.523  0.7388  1.7250  0.2682
 6623SOL    HW231506   0.466   3.917  17.385  0.6782  0.7837  0.2965
 6624SOL     OW31507   3.399   0.337   4.047 -0.2809  0.0180  0.4257
 6624SOL    HW131508   3.324   0.279   4.059  0.0112 -0.1818  1.2932
 6624SOL    HW231509   3.396   0.350   3.953  0.7797 -1.1348  0.2267
 6625SOL     OW31510   2.252   3.012  11.817  0.1154 -0.0910  0.1750
 6625SOL    HW131511   2.341   3.048  11.813 -0.0147  0.1333 -0.6217
 6625SOL    HW231512   2.276   2.945  11.882  0.9559  1.0322  1.0240
 6626SOL     OW31513   0.023   0.834   9.077  0.0076 -0.0585 -0.1371
 6626SOL    HW131514   0.062   0.748   9.060 -0.0182 -0.2250  0.6780
 6626SOL    HW231515   0.013   0.823   9.171 -0.9065 -0.8641 -0.3229
 6627SOL     OW31516   3.528   3.102   6.611 -0.3814 -0.1260 -0.9443
 6627SOL    HW131517   3.584   3.122   6.687  0.3403 -3.0554 -0.7093
 6627SOL    HW231518   3.496   3.013   6.627  0.6979 -0.2329  0.6259
 6628SOL     OW31519   1.685   3.401  15.296 -0.4107  0.3121 -0.0751
 6628SOL    HW131520   1.744   3.385  15.222  0.9277  0.0687  1.0478
 6628SOL    HW231521   1.662   3.312  15.323 -1.7054  0.2833 -1.2860
 6629SOL     OW31522   0.223   3.549   6.122  0.4414  0.0693 -0.0198
 6629SOL    HW131523   0.257   3.485   6.185 -1.4807 -0.1642  0.7784
 6629SOL    HW231524   0.228   3.492   6.045  2.0492 -0.0586  0.1822
 6630SOL     OW31525   1.069   4.182   5.443  0.2359 -0.1420 -0.2677
 6630SOL    HW131526   1.096   4.090   5.441  2.2337  0.4673 -1.6715
 6630SOL    HW231527   1.053   4.189   5.349 -0.0438  0.2806 -0.1850
 6631SOL     OW31528   1.840   1.955   4.446 -0.1255 -0.8575  0.2364
 6631SOL    HW131529   1.916   2.004   4.476 -0.0565 -1.0503  0.3766
 6631SOL    HW231530   1.777   1.974   4.515  0.0730 -0.7222  0.3803
 6632SOL     OW31531   1.819   0.901   2.441 -0.0945  0.2462  0.2015
 6632SOL    HW131532   1.862   0.924   2.358 -0.0194  0.9722  0.4411
 6632SOL    HW231533   1.798   0.808   2.435  1.1135  0.0378 -0.9851
 6633SOL     OW31534   1.826   0.137   4.010 -0.4569  0.5077 -0.0554
 6633SOL    HW131535   1.883   0.143   4.086 -2.5139  0.6202  1.4731
 6633SOL    HW231536   1.742   0.127   4.054 -0.3447 -1.1912 -0.2187
 6634SOL     OW31537   2.592   2.747   8.708 -0.4062  0.5007  0.4050
 6634SOL    HW131538   2.507   2.791   8.707 -0.6087  0.0176 -1.7540
 6634SOL    HW231539   2.651   2.823   8.703 -1.1280  1.1594  1.9086
 6635SOL     OW31540   1.857   2.577  11.781  0.7909 -0.0485  0.0402
 6635SOL    HW131541   1.850   2.522  11.859  0.7035 -0.1375 -0.0290
 6635SOL    HW231542   1.847   2.522  11.703  0.7520  0.1844 -0.1198
 6636SOL     OW31543   1.300   2.927   2.209  0.5676  0.2072 -0.3744
 6636SOL    HW131544   1.383   2.889   2.239 -0.0733 -1.8044 -1.1465
 6636SOL    HW231545   1.239   2.865   2.249  0.4548  0.2666 -0.4559
 6637SOL     OW31546   3.273   2.824  10.365 -0.2376 -0.0383 -0.6276
 6637SOL    HW131547   3.188   2.844  10.405 -0.0056 -2.5598  1.1954
 6637SOL    HW231548   3.284   2.729  10.379 -0.0967 -0.1973 -1.8540
 6638SOL     OW31549   4.114   0.853   8.610  0.6620 -0.3173  0.3717
 6638SOL    HW131550   4.147   0.797   8.680  1.5133 -0.9334 -0.5177
 6638SOL    HW231551   4.197   0.855   8.564 -0.0321  1.8543 -0.7851
 6639SOL     OW31552   3.951   3.090   7.241 -0.5335 -0.3108  0.3256
 6639SOL    HW131553   4.013   3.024   7.271  0.4367 -0.3064 -1.7207
 6639SOL    HW231554   3.985   3.108   7.154 -1.1133  0.8359  0.3353
 6640SOL     OW31555   3.250   3.418   8.649  0.0551  0.4633  0.5387
 6640SOL    HW131556   3.326   3.384   8.601 -0.9261  0.8862 -1.3122
 6640SOL    HW231557   3.290   3.435   8.735  0.8887  0.0162  0.2436
 6641SOL     OW31558   2.024   2.632  10.351 -0.1247 -0.2413 -0.1793
 6641SOL    HW131559   2.026   2.727  10.340 -2.7127 -0.1901 -0.2152
 6641SOL    HW231560   1.936   2.602  10.328 -0.5920  0.1125  1.1770
 6642SOL     OW31561   4.057   3.326   2.359  0.7658  0.0482  0.2305
 6642SOL    HW131562   4.089   3.398   2.414  1.7900  1.1104 -1.7496
 6642SOL    HW231563   4.093   3.248   2.400 -0.5329 -1.7854 -2.0911
 6643SOL     OW31564   2.178   0.884   9.599  0.4319 -0.2230 -0.4373
 6643SOL    HW131565   2.185   0.855   9.690  2.8577 -0.0302 -0.5668
 6643SOL    HW231566   2.144   0.969   9.626  1.4410 -0.2866  1.0285
 6644SOL     OW31567   2.928   4.558   3.035 -0.1286  0.1164  0.2047
 6644SOL    HW131568   2.923   4.511   2.951  0.3484 -1.7166  1.2045
 6644SOL    HW231569   2.977   4.635   3.005  2.4010 -1.3272  0.6205
 6645SOL     OW31570   4.061   4.147   5.725 -0.0177  0.3766 -0.1539
 6645SOL    HW131571   4.101   4.116   5.806  0.4327 -0.3642 -0.6570
 6645SOL    HW231572   3.995   4.079   5.713 -0.6984  1.1633 -0.9142
 6646SOL     OW31573   3.140   2.106  13.313  0.6390 -0.3013  0.2445
 6646SOL    HW131574   3.080   2.179  13.297  3.1680  1.7343 -0.0258
 6646SOL    HW231575   3.153   2.069  13.225  2.3144  3.1274 -0.9718
 6647SOL     OW31576   3.553   3.726   7.625 -0.1131 -0.0336 -0.3426
 6647SOL    HW131577   3.462   3.737   7.598 -0.4177  1.4982  1.2665
 6647SOL    HW231578   3.605   3.771   7.559  0.1947 -0.1427 -0.1744
 6648SOL     OW31579   0.193   0.383   2.631  0.2115  0.0773 -0.8364
 6648SOL    HW131580   0.205   0.322   2.558 -0.0358 -0.6601 -0.2583
 6648SOL    HW231581   0.250   0.457   2.609  1.3590 -1.0811 -1.7404
 6649SOL     OW31582   3.415   4.439   3.605  0.8411 -0.5719 -0.4575
 6649SOL    HW131583   3.333   4.390   3.614 -0.8566  2.2057 -1.0120
 6649SOL    HW231584   3.450   4.432   3.694  0.0893 -1.0668 -0.1992
 6650SOL     OW31585   3.807   0.766   8.131  0.2791 -0.5007 -0.4289
 6650SOL    HW131586   3.797   0.854   8.168  1.3608 -0.8347  0.6354
 6650SOL    HW231587   3.896   0.771   8.096  0.6929  0.6513  0.7738
 6651SOL     OW31588   3.264   0.226   8.456  0.1106  0.1874 -0.1110
 6651SOL    HW131589   3.280   0.172   8.379  0.3213 -0.9047  0.6983
 6651SOL    HW231590   3.204   0.282   8.407 -0.7544  1.2563  2.1451
 6652SOL     OW31591   2.812   3.453  11.262  0.0115 -0.1270  0.6988
 6652SOL    HW131592   2.829   3.459  11.356  0.5235 -2.2727  0.7439
 6652SOL    HW231593   2.733   3.400  11.256  1.3920 -1.9939 -0.9708
 6653SOL     OW31594   4.547   0.669   8.729 -0.6526 -0.0259 -0.1840
 6653SOL    HW131595   4.502   0.585   8.720 -0.3893 -0.2595  0.6890
 6653SOL    HW231596   4.479   0.731   8.703  0.8018  1.1780 -1.1425
 6654SOL     OW31597   1.078   2.200  14.564  0.3002  0.1797 -0.4135
 6654SOL    HW131598   0.992   2.171  14.534 -1.1011  1.9900  1.8548
 6654SOL    HW231599   1.137   2.154  14.505 -1.8785 -0.2905 -2.2216
 6655SOL     OW31600   3.216   0.483   1.710  0.7352  0.3886 -0.3347
 6655SOL    HW131601   3.273   0.478   1.787  0.7784 -1.5026 -0.5045
 6655SOL    HW231602   3.138   0.516   1.754  1.2926 -1.4342  2.0322
 6656SOL     OW31603   3.639   1.837   9.419 -0.8610  0.1544 -0.2007
 6656SOL    HW131604   3.632   1.745   9.392 -1.0116 -0.2226  1.1126
 6656SOL    HW231605   3.616   1.890   9.343 -0.1314  0.3541 -0.2822
 6657SOL     OW31606   3.380   1.147   7.343  0.1637  0.2221 -0.7457
 6657SOL    HW131607   3.351   1.063   7.378  0.8198  0.2755 -0.0850
 6657SOL    HW231608   3.321   1.212   7.380 -1.5037 -2.1248  0.7054
 6658SOL     OW31609   0.305   3.136   8.195 -0.0459 -0.0808  0.3555
 6658SOL    HW131610   0.287   3.044   8.175  2.7232 -0.7588  0.9750
 6658SOL    HW231611   0.333   3.147   8.104 -1.0917  0.9053  0.1628
 6659SOL     OW31612   1.614   0.859   2.969 -0.1600 -0.2369  0.3435
 6659SOL    HW131613   1.683   0.922   2.987 -0.7253  0.2070  0.9866
 6659SOL    HW231614   1.594   0.889   2.880 -0.8795 -1.9732 -0.0845
 6660SOL     OW31615   3.444   3.766   1.370  0.0639  0.4625 -0.6424
 6660SOL    HW131616   3.437   3.673   1.352  0.5164  0.7374 -2.2298
 6660SOL    HW231617   3.350   3.784   1.372  0.7029  3.9580 -1.2888
 6661SOL     OW31618   3.202   2.370   5.137  0.0162 -0.0097  0.1847
 6661SOL    HW131619   3.200   2.464   5.155  0.5988 -0.3497  2.0101
 6661SOL    HW231620   3.192   2.379   5.042 -0.4384  2.4945  0.4464
 6662SOL     OW31621   1.692   2.092  14.288 -0.1617  0.3362  0.0504
 6662SOL    HW131622   1.678   1.998  14.272  0.5354  0.2356  0.0133
 6662SOL    HW231623   1.691   2.120  14.197  0.4803  0.2987  0.0296
 6663SOL     OW31624   0.811   3.201   8.356 -0.3987  0.1326 -0.1166
 6663SOL    HW131625   0.726   3.207   8.312 -0.5874  0.8771  0.3563
 6663SOL    HW231626   0.779   3.194   8.446  0.1719 -0.8591  0.0121
 6664SOL     OW31627   3.632   0.040   6.736  0.4885 -0.1733 -0.1818
 6664SOL    HW131628   3.653   4.725   6.815  0.5883  0.6704  0.3104
 6664SOL    HW231629   3.629   0.128   6.772 -1.3901 -0.7392  1.0445
 6665SOL     OW31630   1.021   3.634  11.326  0.1633 -0.0894 -0.4824
 6665SOL    HW131631   1.073   3.556  11.307  0.7507  1.1777 -3.9726
 6665SOL    HW231632   0.973   3.615  11.407 -0.9585  1.1634 -0.8608
 6666SOL     OW31633   1.581   1.517   6.164  0.7193 -0.0136  0.1516
 6666SOL    HW131634   1.525   1.589   6.135 -0.0630 -0.0557  1.5606
 6666SOL    HW231635   1.588   1.529   6.258  0.4974  2.4732 -0.1530
 6667SOL     OW31636   1.031   2.884   3.492 -0.2104  0.1651 -0.4406
 6667SOL    HW131637   1.108   2.829   3.480 -0.0945  0.1710  0.2556
 6667SOL    HW231638   0.976   2.810   3.520 -1.2325  1.9678  2.2865
 6668SOL     OW31639   2.176   2.943   1.252 -0.2292 -0.3102  0.8846
 6668SOL    HW131640   2.260   2.899   1.244 -0.2653 -0.5276  1.6908
 6668SOL    HW231641   2.216   3.026   1.277 -1.0354 -0.2535  2.0088
 6669SOL     OW31642   0.570   0.411   3.923 -0.0084 -0.0236 -0.2905
 6669SOL    HW131643   0.514   0.487   3.940  0.9342  0.4723  0.6061
 6669SOL    HW231644   0.511   0.361   3.867 -1.4728  1.1605  0.1889
 6670SOL     OW31645   0.115   2.372  10.191 -0.3270 -0.0917  0.2282
 6670SOL    HW131646   0.069   2.392  10.272 -1.9792  3.2411 -1.5096
 6670SOL    HW231647   0.203   2.362  10.226 -0.3463  2.9957  1.1517
 6671SOL     OW31648   1.371   2.060  13.751 -0.3720  0.5055  0.2249
 6671SOL    HW131649   1.344   1.970  13.771  1.3218  0.0209  0.2698
 6671SOL    HW231650   1.440   2.048  13.686  1.5094  2.4862  1.8672
 6672SOL     OW31651   2.001   3.594   0.002  0.2389 -0.1058 -0.5622
 6672SOL    HW131652   2.038   3.595   0.090 -0.6507 -1.4255 -0.1837
 6672SOL    HW231653   2.078   3.588  17.681 -2.2452 -3.2620 -3.6317
 6673SOL     OW31654   3.793   3.764   9.376  0.3841  0.4649 -0.0214
 6673SOL    HW131655   3.739   3.747   9.299  0.2036  1.6773 -0.1664
 6673SOL    HW231656   3.831   3.678   9.396 -0.9689  0.0183  0.6404
 6674SOL     OW31657   4.344   1.760  10.327  0.0488 -0.7201 -0.1905
 6674SOL    HW131658   4.292   1.716  10.260 -0.6733 -0.2673  0.0639
 6674SOL    HW231659   4.370   1.697  10.393  2.5578  1.0949  0.5646
 6675SOL     OW31660   1.643   3.185   6.254 -0.0276 -0.6967 -0.2391
 6675SOL    HW131661   1.624   3.132   6.331 -0.1657 -0.3176 -0.0139
 6675SOL    HW231662   1.738   3.175   6.255  0.0494  0.2536  1.1861
 6676SOL     OW31663   0.697   0.671   5.327  0.2694  0.7244  0.0780
 6676SOL    HW131664   0.724   0.584   5.297 -0.0578  0.7735 -0.3566
 6676SOL    HW231665   0.772   0.718   5.291  1.5697  0.5975  2.6077
 6677SOL     OW31666   3.733   2.053  10.525  0.2828  0.7300  0.5247
 6677SOL    HW131667   3.788   2.084  10.596  1.2838  0.7776 -0.2691
 6677SOL    HW231668   3.715   1.971  10.572  0.1002 -0.1494 -1.0603
 6678SOL     OW31669   2.551   3.020   7.304  0.2218  0.4065 -0.6152
 6678SOL    HW131670   2.597   3.089   7.256 -1.4184  1.2894 -0.9262
 6678SOL    HW231671   2.619   2.953   7.298  1.2939  1.2610  2.1365
 6679SOL     OW31672   3.276   2.586   8.255 -0.1663 -0.0234 -0.2493
 6679SOL    HW131673   3.355   2.581   8.200 -1.3849  2.7445 -2.2147
 6679SOL    HW231674   3.214   2.627   8.196 -0.0276 -0.5816 -0.7900
 6680SOL     OW31675   1.953   4.146   8.768  0.1125 -0.2337 -0.0486
 6680SOL    HW131676   1.859   4.156   8.787 -0.1524 -0.7063 -1.1061
 6680SOL    HW231677   1.994   4.204   8.831 -1.5440 -1.7205  2.4467
 6681SOL     OW31678   4.128   3.461   0.292  0.1959 -0.2461  0.0195
 6681SOL    HW131679   4.033   3.471   0.292  0.1899 -0.3053 -0.3168
 6681SOL    HW231680   4.140   3.554   0.271 -1.8195  0.1162  0.4679
 6682SOL     OW31681   3.205   1.040   7.759 -0.5382 -0.4916  0.5187
 6682SOL    HW131682   3.129   1.013   7.707 -0.2634  1.2244 -0.8068
 6682SOL    HW231683   3.249   0.957   7.773 -1.4719 -1.4776 -2.3561
 6683SOL     OW31684   1.628   4.094   3.738 -0.0658 -0.4148  0.0426
 6683SOL    HW131685   1.555   4.046   3.700  0.0908  0.2878 -1.1677
 6683SOL    HW231686   1.630   4.173   3.684 -2.2422 -0.2660  0.1821
 6684SOL     OW31687   0.018   2.938   9.831 -0.3923 -0.1031 -0.3624
 6684SOL    HW131688   0.019   3.024   9.873  0.0127 -0.5120  0.4578
 6684SOL    HW231689   0.069   2.883   9.890 -1.2090  0.3448  0.7692
 6685SOL     OW31690   3.549   3.549  11.235  0.3904 -0.0498  0.5050
 6685SOL    HW131691   3.468   3.595  11.254  0.1887 -0.6441  1.1061
 6685SOL    HW231692   3.615   3.606  11.273 -1.3464  1.1025  1.7803
 6686SOL     OW31693   1.877   4.476   7.101  0.6463  0.2277 -0.2639
 6686SOL    HW131694   1.907   4.538   7.035  1.4272  0.2311  0.0988
 6686SOL    HW231695   1.799   4.443   7.056 -0.4003  1.5751  0.5616
 6687SOL     OW31696   1.572   2.818  15.420 -0.1478  0.1508  0.2416
 6687SOL    HW131697   1.601   2.828  15.329  1.4427  0.9472  0.8446
 6687SOL    HW231698   1.482   2.847  15.405 -0.5350 -1.6296 -0.9779
 6688SOL     OW31699   4.179   0.376   3.202 -0.3740 -0.1715  0.0417
 6688SOL    HW131700   4.223   0.444   3.151  0.7148  0.7329  2.1818
 6688SOL    HW231701   4.163   0.415   3.288 -2.6332 -2.4680  0.6952
 6689SOL     OW31702   0.140   2.342   2.055  0.2562 -0.6153 -0.5965
 6689SOL    HW131703   0.120   2.348   2.149  0.7734 -0.3511 -0.4982
 6689SOL    HW231704   0.058   2.373   2.017 -0.0345  0.5514  0.9790
 6690SOL     OW31705   4.674   2.535   9.733 -0.2442  0.5078  0.1681
 6690SOL    HW131706   4.704   2.514   9.821  0.7927 -2.0300 -0.7699
 6690SOL    HW231707   4.582   2.542   9.758  0.2741 -0.3649  2.3479
 6691SOL     OW31708   1.022   2.611   2.392 -0.5531 -0.4778  0.2489
 6691SOL    HW131709   1.055   2.551   2.325 -2.3294 -1.1990  0.0188
 6691SOL    HW231710   0.939   2.641   2.355 -0.4992 -1.1519 -0.4222
 6692SOL     OW31711   3.883   1.544   6.225 -0.5342  0.5025  0.0674
 6692SOL    HW131712   3.978   1.541   6.217 -0.5689 -1.8613  0.7446
 6692SOL    HW231713   3.847   1.458   6.247 -0.1754  0.1238 -0.7931
 6693SOL     OW31714   0.223   1.487   0.588  0.3562  0.3221  0.2798
 6693SOL    HW131715   0.296   1.538   0.553 -0.1059  0.1701 -0.9438
 6693SOL    HW231716   0.225   1.418   0.522 -1.8135  0.0051  0.5424
 6694SOL     OW31717   3.258   2.273  15.466 -0.2208  0.7399 -0.6233
 6694SOL    HW131718   3.317   2.347  15.455 -1.5865  1.8913 -0.2855
 6694SOL    HW231719   3.271   2.223  15.385  1.6663  0.6149 -0.2481
 6695SOL     OW31720   1.051   2.862   5.190  0.0234  0.3307  0.1246
 6695SOL    HW131721   1.095   2.946   5.176  1.2722 -0.2091  0.7399
 6695SOL    HW231722   0.991   2.897   5.256  0.5239 -1.4064  1.5099
 6696SOL     OW31723   3.786   0.530   7.165  0.1996  0.1510 -0.3005
 6696SOL    HW131724   3.804   0.590   7.093 -0.2717  0.1948 -0.3861
 6696SOL    HW231725   3.876   0.507   7.185 -0.2253 -1.0598  0.2765
 6697SOL     OW31726   3.947   0.617  16.186  0.0683  0.2005 -0.5516
 6697SOL    HW131727   3.857   0.618  16.219 -0.0809 -3.0136 -0.8733
 6697SOL    HW231728   3.980   0.706  16.192  1.6284 -0.3528 -1.0176
 6698SOL     OW31729   4.041   3.957   5.265  0.3759  0.0068 -0.3099
 6698SOL    HW131730   4.077   3.871   5.288  0.6746  0.3843  0.6517
 6698SOL    HW231731   3.952   3.966   5.299  0.3593 -0.2515 -0.2840
 6699SOL     OW31732   4.550   1.110   6.789 -0.3145  0.8851 -0.1936
 6699SOL    HW131733   4.513   1.175   6.849  3.1269  2.1603  0.4986
 6699SOL    HW231734   4.467   1.091   6.744 -1.1934  0.1725  1.6819
 6700SOL     OW31735   1.296   1.670   2.780  0.6880  0.4389 -0.0788
 6700SOL    HW131736   1.265   1.600   2.837 -0.8465  0.8430 -0.4102
 6700SOL    HW231737   1.248   1.658   2.697 -0.5933  0.4832  0.6464
 6701SOL     OW31738   2.711   3.548   6.991  0.6093  0.0054  0.0611
 6701SOL    HW131739   2.696   3.485   6.921  0.3087  1.0123 -0.7687
 6701SOL    HW231740   2.621   3.574   7.010  0.3443 -0.3744 -0.6606
 6702SOL     OW31741   2.768   1.553   8.852  0.1455 -0.4975 -0.5026
 6702SOL    HW131742   2.863   1.542   8.842  0.2521 -0.6919  0.7743
 6702SOL    HW231743   2.763   1.565   8.947  1.5036  0.9943 -0.6299
 6703SOL     OW31744   2.702   1.625  14.311 -0.3613  0.2643 -0.4833
 6703SOL    HW131745   2.677   1.543  14.268 -1.5854  0.6404 -0.4852
 6703SOL    HW231746   2.797   1.618  14.318 -0.3580  0.7142 -0.0831
 6704SOL     OW31747   2.269   3.669   7.906  0.4245 -0.0187 -0.4516
 6704SOL    HW131748   2.239   3.579   7.917  1.1569 -0.4108 -1.6593
 6704SOL    HW231749   2.203   3.719   7.953 -2.0695 -4.4607  0.7583
 6705SOL     OW31750   4.515   3.136   6.353 -0.5617  0.2002 -0.1861
 6705SOL    HW131751   4.594   3.167   6.397 -0.4035  1.2117 -1.1784
 6705SOL    HW231752   4.564   3.102   6.279  1.1902  0.6217  0.7658
 6706SOL     OW31753   3.165   1.493  17.428  0.0318  0.8040  0.1462
 6706SOL    HW131754   3.193   1.562  17.489  0.0674 -0.2037  1.2573
 6706SOL    HW231755   3.079   1.530  17.409  0.1523  0.6060 -0.8175
 6707SOL     OW31756   1.073   0.133   7.475  0.1438 -1.0429  0.6022
 6707SOL    HW131757   0.988   0.171   7.499  0.7165  0.5152  0.1711
 6707SOL    HW231758   1.091   0.174   7.390 -3.0426 -1.6118 -0.3698
 6708SOL     OW31759   0.262   3.788   6.478  0.1992  0.7320 -0.3177
 6708SOL    HW131760   0.213   3.816   6.555  2.1550  1.4149  0.6474
 6708SOL    HW231761   0.264   3.693   6.492  0.2349  1.1490  2.4069
 6709SOL     OW31762   2.668   0.941   1.342  0.4382  0.6306 -0.3132
 6709SOL    HW131763   2.630   0.889   1.412  0.2962 -0.8490 -1.4920
 6709SOL    HW231764   2.715   1.003   1.398 -0.1089 -1.9339  2.9834
 6710SOL     OW31765   1.614   0.476   7.077  0.6318  0.1162 -0.4059
 6710SOL    HW131766   1.581   0.547   7.022  1.0774  0.6205 -0.0148
 6710SOL    HW231767   1.579   0.508   7.160  0.1540  0.5576 -0.7794
 6711SOL     OW31768   2.953   2.243   9.550  0.0633  0.3300  0.3568
 6711SOL    HW131769   2.888   2.176   9.566 -0.0658  0.3288 -0.1654
 6711SOL    HW231770   2.961   2.270   9.641  0.2981  1.8876 -0.1175
 6712SOL     OW31771   2.567   2.770   5.439 -0.3562 -0.4348  0.3997
 6712SOL    HW131772   2.474   2.761   5.457 -0.3565 -2.3394 -0.5360
 6712SOL    HW231773   2.577   2.863   5.417 -0.4130 -0.4380  0.3622
 6713SOL     OW31774   4.118   2.729   3.008  0.3433  0.2719  0.3590
 6713SOL    HW131775   4.188   2.795   3.007  1.3396 -0.8074 -0.2405
 6713SOL    HW231776   4.132   2.679   2.928  1.6773  4.6235 -2.1207
 6714SOL     OW31777   3.926   3.458   1.737  0.3873 -0.1376 -0.4299
 6714SOL    HW131778   3.849   3.459   1.794  1.4332 -2.3073  0.9940
 6714SOL    HW231779   3.878   3.437   1.656  1.3857  0.2913 -1.1365
 6715SOL     OW31780   4.260   4.275  12.460  0.1248 -0.2246 -0.2547
 6715SOL    HW131781   4.344   4.300  12.497  1.3490  0.0134 -3.1890
 6715SOL    HW231782   4.287   4.267  12.368  2.5367 -1.5941  0.5848
 6716SOL     OW31783   0.097   2.591   7.816  0.1315  0.0004  0.2297
 6716SOL    HW131784   0.068   2.534   7.887 -1.4235 -2.4097 -2.3194
 6716SOL    HW231785   0.170   2.538   7.782  1.7157  1.8688  0.7196
 6717SOL     OW31786   2.174   3.566   2.920 -0.6177  0.8649  0.2485
 6717SOL    HW131787   2.216   3.608   2.995 -1.5017 -1.5947  2.1051
 6717SOL    HW231788   2.252   3.559   2.865 -1.3502  0.1748 -0.7010
 6718SOL     OW31789   1.012   1.604   8.297  0.2384 -0.4175  0.5896
 6718SOL    HW131790   0.987   1.677   8.354  0.0234 -0.8471  1.0464
 6718SOL    HW231791   1.033   1.651   8.216 -1.6247  0.1417  0.4390
 6719SOL     OW31792   0.679   2.170   7.781 -0.2810 -0.3473  0.0724
 6719SOL    HW131793   0.693   2.101   7.845 -1.6527  0.3512  1.1072
 6719SOL    HW231794   0.703   2.249   7.830  0.6826 -0.7331  0.2178
 6720SOL     OW31795   4.274   4.681   5.421  0.5556 -0.5280  0.2715
 6720SOL    HW131796   4.254   4.713   5.509  0.2973  0.4495 -0.1312
 6720SOL    HW231797   4.223   0.011   5.371 -0.8809 -0.9680  1.1730
 6721SOL     OW31798   2.671   3.812   2.786 -0.0041  0.0659 -0.6540
 6721SOL    HW131799   2.621   3.887   2.818  1.6445  1.2033 -0.7444
 6721SOL    HW231800   2.757   3.851   2.803 -0.0569  0.1567 -0.5961
 6722SOL     OW31801   4.714   0.480   2.278  0.0419  0.0802  0.1053
 6722SOL    HW131802   4.707   0.562   2.327  1.2263  0.5467 -0.5064
 6722SOL    HW231803   4.661   0.428   2.339 -2.0308  0.4794 -1.3833
 6723SOL     OW31804   1.693   1.426   7.873 -0.2772 -0.0400  0.6840
 6723SOL    HW131805   1.670   1.334   7.863  0.1227  0.0596 -1.1607
 6723SOL    HW231806   1.780   1.419   7.911  0.7077 -0.5254 -1.6646
 6724SOL     OW31807   0.295   2.760  10.100 -0.6771 -0.1391 -0.4340
 6724SOL    HW131808   0.315   2.669  10.118  0.2804  0.5557  1.9609
 6724SOL    HW231809   0.326   2.793  10.185  0.9020  0.2160 -1.1529
 6725SOL     OW31810   1.339   1.164  16.932 -0.2962 -0.1503 -0.3958
 6725SOL    HW131811   1.394   1.109  16.987 -2.7799 -0.6618  1.5744
 6725SOL    HW231812   1.399   1.169  16.857 -0.4058  1.4502 -0.3881
 6726SOL     OW31813   3.628   2.195   9.125 -0.0779  0.0323  0.2044
 6726SOL    HW131814   3.612   2.287   9.106  0.8756 -0.2509 -1.9006
 6726SOL    HW231815   3.597   2.192   9.216 -0.4022 -2.9428 -0.0191
 6727SOL     OW31816   0.169   1.126  10.656  0.0900 -1.0127 -0.1399
 6727SOL    HW131817   0.242   1.074  10.689 -0.7877 -2.9362 -1.1666
 6727SOL    HW231818   0.131   1.154  10.739  0.8171  1.0953 -0.5250
 6728SOL     OW31819   0.494   0.545   3.273  0.0600 -0.1592 -0.0989
 6728SOL    HW131820   0.443   0.493   3.334 -1.2032 -1.4213 -2.2163
 6728SOL    HW231821   0.504   0.486   3.198  0.3889 -0.5901  0.2769
 6729SOL     OW31822   0.117   4.204   5.026  0.3839 -0.4937  0.2702
 6729SOL    HW131823   0.084   4.115   5.011  0.0269 -0.1209 -1.1234
 6729SOL    HW231824   0.209   4.180   5.016  0.8608  1.9837 -1.0491
 6730SOL     OW31825   3.825   2.786   2.117  0.1103 -0.3988  0.4144
 6730SOL    HW131826   3.794   2.705   2.156  0.1817  0.2146  1.7607
 6730SOL    HW231827   3.848   2.747   2.033 -1.0132  0.1348 -0.1410
 6731SOL     OW31828   3.620   3.497   7.742  0.1650  0.0249  0.4340
 6731SOL    HW131829   3.587   3.583   7.717  1.2896  1.3103  3.3605
 6731SOL    HW231830   3.552   3.440   7.706  0.2526  0.5516 -0.5626
 6732SOL     OW31831   1.940   0.784   1.133  0.0906 -0.1307 -0.3831
 6732SOL    HW131832   1.952   0.875   1.106  0.9728  0.0770  0.6988
 6732SOL    HW231833   2.018   0.768   1.186  0.0978  0.6859 -0.1447
 6733SOL     OW31834   1.644   3.740   2.319  0.0992  0.1246 -0.3918
 6733SOL    HW131835   1.714   3.743   2.254  1.0954 -0.7631  0.6510
 6733SOL    HW231836   1.568   3.718   2.264  0.6994  2.4384 -2.1504
 6734SOL     OW31837   2.274   3.992  13.886  0.1514  0.3075  0.4505
 6734SOL    HW131838   2.325   3.957  13.813 -0.9502 -0.7158  0.1952
 6734SOL    HW231839   2.344   4.025  13.943 -0.7625  1.0859  1.1313
 6735SOL     OW31840   1.000   4.597  12.653  0.4274 -0.0987  0.2193
 6735SOL    HW131841   0.920   4.630  12.613  0.3111 -1.7256 -0.8823
 6735SOL    HW231842   1.063   4.665  12.630 -0.1727  0.6365  0.7332
 6736SOL     OW31843   2.944   0.366   4.068  0.1955  0.1621  0.0684
 6736SOL    HW131844   2.880   0.358   3.998  0.6213 -0.8774 -0.2053
 6736SOL    HW231845   2.960   0.461   4.075 -1.3473  0.4948 -0.9713
 6737SOL     OW31846   2.103   4.126   5.146  0.1564  0.3573  0.2684
 6737SOL    HW131847   2.038   4.068   5.185  0.0661  1.4407  1.7137
 6737SOL    HW231848   2.104   4.202   5.204  2.8481  4.0498 -4.5390
 6738SOL     OW31849   4.607   3.085  12.779 -0.1564  0.1696 -0.0269
 6738SOL    HW131850   4.525   3.060  12.736  0.5155 -2.5595  0.2493
 6738SOL    HW231851   4.628   3.001  12.821 -0.1093 -0.6092 -1.5724
 6739SOL     OW31852   4.031   3.466   3.935 -0.0668  0.3502  0.1096
 6739SOL    HW131853   4.083   3.515   3.999  0.1710  0.9200 -0.5188
 6739SOL    HW231854   3.940   3.479   3.959  0.3590  0.8995  1.4338
 6740SOL     OW31855   3.297   4.117   6.540 -0.2201  0.0646 -0.1336
 6740SOL    HW131856   3.329   4.190   6.594  0.2233 -0.5692  0.4647
 6740SOL    HW231857   3.306   4.039   6.594  0.7102  0.3775  0.1578
 6741SOL     OW31858   0.962   4.007   6.817 -0.3124  0.1085 -0.0101
 6741SOL    HW131859   0.874   4.008   6.857 -0.1117 -0.5187  0.4511
 6741SOL    HW231860   0.947   3.955   6.738 -2.3092  3.1846 -1.6321
 6742SOL     OW31861   1.288   0.482   4.939  0.0620  0.0559 -0.2682
 6742SOL    HW131862   1.281   0.549   5.007 -2.9121  0.2298 -0.7337
 6742SOL    HW231863   1.268   0.538   4.864  0.5214  0.2529 -0.2451
 6743SOL     OW31864   1.988   2.835   9.059  0.1743 -0.7618  0.3154
 6743SOL    HW131865   2.029   2.859   9.142 -0.9979 -0.6297  0.8583
 6743SOL    HW231866   1.922   2.771   9.087 -1.6876  1.8247  1.9325
 6744SOL     OW31867   3.730   2.304  13.822 -0.1011 -0.8462  0.4972
 6744SOL    HW131868   3.729   2.386  13.772 -0.2590 -1.2472 -0.1676
 6744SOL    HW231869   3.667   2.315  13.892  0.8843 -1.2533  1.4455
 6745SOL     OW31870   0.641   3.159   4.686  0.4613  0.0891  0.0468
 6745SOL    HW131871   0.606   3.200   4.607 -0.5471  1.3309  1.1363
 6745SOL    HW231872   0.615   3.067   4.677 -0.7210  0.6100 -1.8637
 6746SOL     OW31873   1.745   0.739   0.392  0.1980  0.4071 -0.3643
 6746SOL    HW131874   1.661   0.771   0.426 -0.2786 -0.6907 -0.5377
 6746SOL    HW231875   1.754   0.647   0.416  2.4524  0.3711 -1.3453
 6747SOL     OW31876   3.535   3.048   7.929 -0.4927 -0.0359 -0.2711
 6747SOL    HW131877   3.498   3.070   7.844 -0.9201  1.4094  0.3015
 6747SOL    HW231878   3.556   3.133   7.966  1.0539  0.1930 -1.6954
 6748SOL     OW31879   1.792   1.905   3.776 -0.2142  0.3732 -0.2099
 6748SOL    HW131880   1.744   1.893   3.694  2.1791 -0.2654 -1.5067
 6748SOL    HW231881   1.871   1.954   3.754 -0.0871 -0.6875 -2.0725
 6749SOL     OW31882   4.594   0.207   5.575 -0.3109  0.1852  0.3497
 6749SOL    HW131883   4.597   0.119   5.611 -1.3049 -0.9409 -2.3573
 6749SOL    HW231884   4.638   0.201   5.490 -0.7356 -0.2705  0.1665
 6750SOL     OW31885   3.909   2.506   5.281  0.6374 -0.2026 -0.1792
 6750SOL    HW131886   3.906   2.598   5.253  0.0814 -0.2935 -0.4103
 6750SOL    HW231887   3.871   2.455   5.210 -0.1284 -1.0098  0.7953
 6751SOL     OW31888   3.719   1.726   2.106  0.0060  0.0182 -1.1200
 6751SOL    HW131889   3.677   1.812   2.108 -1.9332 -0.9622  0.1133
 6751SOL    HW231890   3.671   1.686   2.178  1.8974  0.0269  0.1623
 6752SOL     OW31891   2.702   0.545   9.130  0.4112  0.7077  0.5642
 6752SOL    HW131892   2.777   0.516   9.181  0.6818  2.3466  1.0948
 6752SOL    HW231893   2.740   0.583   9.051 -0.1258  0.0935  0.0082
 6753SOL     OW31894   3.249   3.653   6.978 -0.3381  0.0823  0.2785
 6753SOL    HW131895   3.335   3.618   6.954 -0.9935 -1.4948  0.2424
 6753SOL    HW231896   3.207   3.649   6.892 -1.0567 -1.0027  0.6894
 6754SOL     OW31897   2.693   2.546   2.342  0.3465  0.0974  0.9025
 6754SOL    HW131898   2.676   2.469   2.396  0.2861  0.4931  1.4503
 6754SOL    HW231899   2.765   2.594   2.383  0.9828  1.3351 -1.6382
 6755SOL     OW31900   3.160   3.093  10.709 -0.7638  0.5779 -0.0180
 6755SOL    HW131901   3.107   3.173  10.700  0.6602  1.6038  0.7647
 6755SOL    HW231902   3.156   3.072  10.802  2.5954 -1.2891 -0.2866
 6756SOL     OW31903   2.926   2.537   3.215 -0.1233  0.4601 -0.4051
 6756SOL    HW131904   3.009   2.533   3.167 -0.1035 -0.6200 -0.2813
 6756SOL    HW231905   2.856   2.512   3.155  1.9299 -2.0145 -1.7800
 6757SOL     OW31906   0.108   0.481   8.142 -0.0474  0.3285  0.1012
 6757SOL    HW131907   0.073   0.529   8.067  3.5352 -1.3846 -2.6353
 6757SOL    HW231908   0.084   0.547   8.208 -0.5666  1.0773 -0.8467
 6758SOL     OW31909   2.078   4.599   6.191 -0.5892 -0.2953  0.3368
 6758SOL    HW131910   2.159   4.622   6.237 -0.3146 -0.0322 -0.2865
 6758SOL    HW231911   2.097   4.646   6.110 -0.8069 -1.6382 -0.4978
 6759SOL     OW31912   0.131   3.795   2.606  0.2427 -0.5880 -0.4001
 6759SOL    HW131913   0.079   3.848   2.545 -2.3394 -1.5436  0.9816
 6759SOL    HW231914   0.221   3.804   2.575 -0.1155  0.7537 -1.0434
 6760SOL     OW31915   0.811   1.036   4.669  0.0800  0.2791 -0.0817
 6760SOL    HW131916   0.737   1.084   4.632  1.1561  2.0538  0.0898
 6760SOL    HW231917   0.809   1.067   4.760 -0.2781  2.7541 -0.9404
 6761SOL     OW31918   1.085   0.369   3.636 -0.2076 -0.3406 -0.2426
 6761SOL    HW131919   1.059   0.418   3.715 -0.5988 -0.1812 -0.4702
 6761SOL    HW231920   0.998   0.333   3.616  0.3558 -0.2616 -2.8185
 6762SOL     OW31921   4.728   3.517   9.666  0.3202 -0.1758  0.0738
 6762SOL    HW131922   0.035   3.591   9.621 -1.4882  1.6115  1.3285
 6762SOL    HW231923   0.032   3.532   9.753  1.6626  0.1114 -0.5631
 6763SOL     OW31924   2.240   2.382  16.569 -0.3790  0.0212 -0.0525
 6763SOL    HW131925   2.293   2.309  16.537 -1.7989 -2.0653  2.4254
 6763SOL    HW231926   2.298   2.453  16.598  0.1956 -1.1194  1.5371
 6764SOL     OW31927   4.663   4.221  15.140 -0.9157 -0.4615  0.7743
 6764SOL    HW131928   4.732   4.174  15.188 -0.6306  0.8120  1.6205
 6764SOL    HW231929   4.693   4.216  15.049 -3.9771 -1.0583 -0.1789
 6765SOL     OW31930   1.582   4.722   3.038  0.3827 -0.2034 -0.5237
 6765SOL    HW131931   1.527   4.648   3.063 -2.7953  1.8192 -1.4654
 6765SOL    HW231932   1.559   0.043   3.112  0.3522 -0.3387 -0.4330
 6766SOL     OW31933   0.055   1.804   1.000 -0.1394  0.3464  0.1737
 6766SOL    HW131934   0.085   1.883   0.954 -1.6902 -0.1092 -1.5929
 6766SOL    HW231935   0.066   1.738   0.932 -0.4034  3.4356 -2.8668
 6767SOL     OW31936   1.780   2.178   8.134 -0.1221  0.2685  0.0990
 6767SOL    HW131937   1.872   2.198   8.116  0.4108 -2.1061  0.0872
 6767SOL    HW231938   1.750   2.247   8.194 -1.2546  0.3886 -0.6095
 6768SOL     OW31939   0.093   1.015   9.380  0.2524 -0.2708  0.7241
 6768SOL    HW131940   0.165   1.070   9.408  1.4757 -2.0581  1.0874
 6768SOL    HW231941   0.120   0.925   9.398 -1.6123 -1.1590 -0.8755
 6769SOL     OW31942   4.334   0.496   6.288  0.1488 -0.1820 -0.1163
 6769SOL    HW131943   4.377   0.410   6.287  0.7258  0.1127 -0.7391
 6769SOL    HW231944   4.390   0.552   6.234  0.0223 -0.6465 -0.7431
 6770SOL     OW31945   4.268   0.123   6.705  0.3060  0.2241  0.7183
 6770SOL    HW131946   4.306   0.209   6.685 -0.1733  0.9899  3.0889
 6770SOL    HW231947   4.347   0.074   6.683  0.2475 -0.1654  1.3793
 6771SOL     OW31948   4.652   3.832  14.804 -0.3906  0.7970 -0.7034
 6771SOL    HW131949   4.617   3.799  14.721 -1.3294  1.2893 -0.5018
 6771SOL    HW231950   4.701   3.754  14.832  0.4298  1.8145  0.6995
 6772SOL     OW31951   3.910   0.883  14.833  0.3472 -0.2407 -0.1725
 6772SOL    HW131952   3.872   0.929  14.758 -1.2360 -0.9477  0.1902
 6772SOL    HW231953   3.844   0.813  14.835 -0.8034  0.7622 -3.0363
 6773SOL     OW31954   2.264   1.767  12.378 -0.2143 -0.2885 -0.0924
 6773SOL    HW131955   2.244   1.854  12.412 -0.9911 -1.5813  2.7776
 6773SOL    HW231956   2.226   1.717  12.450  0.0436 -1.2765 -0.6449
 6774SOL     OW31957   3.310   2.287   3.649  0.2755  0.2003  0.3953
 6774SOL    HW131958   3.324   2.264   3.741  1.0279  1.4209  0.5902
 6774SOL    HW231959   3.381   2.348   3.629  2.1328 -1.7003  1.2424
 6775SOL     OW31960   4.378   0.082   6.070  0.1112 -0.1229 -0.1407
 6775SOL    HW131961   4.422   0.036   5.998  1.8843  0.5854  0.4713
 6775SOL    HW231962   4.345   0.009   6.122 -1.0558  1.3323  1.1356
 6776SOL     OW31963   2.215   0.134   0.204  0.3966  0.3365 -0.0291
 6776SOL    HW131964   2.161   0.193   0.151 -2.5291 -0.4508  2.0878
 6776SOL    HW231965   2.153   0.122   0.276  1.4181 -0.8649  0.6524
 6777SOL     OW31966   4.086   0.405  16.361 -0.8717  0.6080 -0.1244
 6777SOL    HW131967   4.108   0.345  16.290  2.6205 -0.3915  1.8389
 6777SOL    HW231968   4.046   0.476  16.310  1.0705 -0.1543 -2.6762
 6778SOL     OW31969   1.373   0.137   2.601  0.2818  0.1753  0.5329
 6778SOL    HW131970   1.326   0.195   2.660 -0.2217 -1.7764  2.0392
 6778SOL    HW231971   1.394   0.186   2.521 -0.0997 -1.3715 -0.5107
 6779SOL     OW31972   2.045   3.212   4.301  0.0857 -0.2840  0.3276
 6779SOL    HW131973   2.107   3.221   4.228  0.2498  0.1197  0.5185
 6779SOL    HW231974   2.027   3.118   4.294 -0.8662 -0.0878  0.1749
 6780SOL     OW31975   3.407   2.299   3.046 -0.1540  0.2106 -0.4260
 6780SOL    HW131976   3.410   2.231   2.978 -0.4317 -0.8340  0.6123
 6780SOL    HW231977   3.500   2.323   3.046 -0.5065  1.5378 -2.1067
 6781SOL     OW31978   3.746   3.279   3.126  0.6304  0.2860  0.2296
 6781SOL    HW131979   3.730   3.201   3.179 -2.4887 -1.0565 -2.7373
 6781SOL    HW231980   3.805   3.244   3.059 -0.4786  1.0137 -1.1130
 6782SOL     OW31981   3.231   1.613   0.984 -0.6242 -0.0260 -0.2502
 6782SOL    HW131982   3.301   1.547   0.987 -0.3141  0.4083  1.9269
 6782SOL    HW231983   3.258   1.659   0.905 -3.4581 -3.1738 -3.0457
 6783SOL     OW31984   2.147   3.752  14.361 -0.0077 -0.0679  0.0161
 6783SOL    HW131985   2.133   3.665  14.399 -0.4133 -0.3362 -0.7404
 6783SOL    HW231986   2.092   3.753  14.282 -1.1094 -0.4787  0.7796
 6784SOL     OW31987   2.730   0.807   9.275 -0.0282 -0.5564  0.5568
 6784SOL    HW131988   2.674   0.746   9.229  1.4190 -0.6930 -1.0271
 6784SOL    HW231989   2.708   0.893   9.238 -0.2334 -1.1148 -0.5976
 6785SOL     OW31990   2.172   1.831   4.450  0.2123  0.2797 -0.1281
 6785SOL    HW131991   2.156   1.863   4.539 -1.8132  0.4111 -0.5341
 6785SOL    HW231992   2.118   1.900   4.412  0.1016  2.0386  3.2627
 6786SOL     OW31993   1.593   3.453   6.952  0.1189  0.5319  0.0140
 6786SOL    HW131994   1.522   3.466   6.889  0.9356 -2.8624 -1.6051
 6786SOL    HW231995   1.616   3.365   6.923 -0.1298  0.2494  0.6933
 6787SOL     OW31996   1.935   0.487  15.469 -0.5195  0.0146  0.2402
 6787SOL    HW131997   2.030   0.487  15.480 -0.5020  1.1365  0.0863
 6787SOL    HW231998   1.935   0.507  15.375  1.4204 -0.1009  0.2028
 6788SOL     OW31999   0.661   3.488  14.714 -0.2000 -0.2937  0.0557
 6788SOL    HW132000   0.684   3.404  14.754  0.1459 -1.0535 -1.7141
 6788SOL    HW232001   0.594   3.513  14.777 -1.0584 -3.3992  0.3933
 6789SOL     OW32002   4.163   2.611   2.193  0.3333  0.4351  0.1782
 6789SOL    HW132003   4.185   2.584   2.104 -0.1388 -0.7596  0.4130
 6789SOL    HW232004   4.185   2.703   2.183 -1.0701  1.1253  3.3149
 6790SOL     OW32005   0.438   0.890   4.853 -0.2713 -0.5493  0.2852
 6790SOL    HW132006   0.489   0.819   4.892  0.6003 -0.0202  0.1048
 6790SOL    HW232007   0.352   0.870   4.891  0.1655 -2.8641  0.0890
 6791SOL     OW32008   3.475   4.038   6.106 -0.3446 -0.1289  0.2273
 6791SOL    HW132009   3.544   3.979   6.074  0.3187  1.5190 -1.3388
 6791SOL    HW232010   3.524   4.104   6.155 -1.6635 -0.7136  2.3203
 6792SOL     OW32011   0.878   0.872  13.735  0.1578  0.1980 -0.1990
 6792SOL    HW132012   0.866   0.965  13.714 -0.9754  0.1018 -0.0111
 6792SOL    HW232013   0.935   0.885  13.810 -0.3091  0.7986  0.0512
 6793SOL     OW32014   1.328   3.141   4.159 -0.5616  0.6473 -0.1335
 6793SOL    HW132015   1.246   3.101   4.188 -1.0990  0.7990 -1.4471
 6793SOL    HW232016   1.357   3.197   4.231 -0.5506 -1.0399  1.1771
 6794SOL     OW32017   2.475   4.423   4.944  0.2108 -0.5028 -0.3763
 6794SOL    HW132018   2.440   4.469   4.868 -2.8286  0.5056  1.6152
 6794SOL    HW232019   2.429   4.468   5.015  0.4436 -1.1782  0.2044
 6795SOL     OW32020   4.528   3.556   6.222 -0.0318 -0.4908 -0.2906
 6795SOL    HW132021   4.450   3.508   6.249 -0.0385 -0.6132 -0.5313
 6795SOL    HW232022   4.592   3.487   6.240  0.0451 -0.2483  0.3541
 6796SOL     OW32023   3.004   0.897   0.678 -0.4592 -0.1998 -0.3689
 6796SOL    HW132024   3.068   0.928   0.614  3.2781 -1.4526  2.7370
 6796SOL    HW232025   2.923   0.941   0.654 -0.7084 -0.5697 -0.1968
 6797SOL     OW32026   3.018   0.732   7.032  0.9637  0.0928 -0.6673
 6797SOL    HW132027   2.953   0.758   6.968  0.0497 -1.8587 -0.5467
 6797SOL    HW232028   3.098   0.773   6.999  0.0177  1.6940 -0.9493
 6798SOL     OW32029   2.253   0.460  13.436  0.4780 -0.3615 -0.0588
 6798SOL    HW132030   2.225   0.551  13.446 -0.9220 -1.1003  2.8768
 6798SOL    HW232031   2.167   0.417  13.446  0.3480  0.1094  0.7991
 6799SOL     OW32032   3.285   1.794  16.176 -0.0259 -0.1306 -0.3109
 6799SOL    HW132033   3.297   1.883  16.143 -1.8872 -0.4236 -1.7815
 6799SOL    HW232034   3.238   1.819  16.256  0.1400  0.4162 -0.3864
 6800SOL     OW32035   3.931   1.044   5.216  0.4172 -0.4641 -0.5714
 6800SOL    HW132036   3.964   1.035   5.306 -1.0734  0.6323  0.0907
 6800SOL    HW232037   3.871   1.116   5.235 -0.1762 -0.8241 -1.0709
 6801SOL     OW32038   2.974   4.254  13.091 -0.1141  0.6269  0.1255
 6801SOL    HW132039   2.933   4.292  13.168 -0.7857  1.5267 -0.6656
 6801SOL    HW232040   3.038   4.321  13.070 -1.1899  1.2758 -1.0991
 6802SOL     OW32041   1.017   3.147   8.187  0.4444 -0.4697 -0.3483
 6802SOL    HW132042   0.951   3.168   8.254  1.5675  1.8619  0.0227
 6802SOL    HW232043   1.005   3.223   8.129  1.0552  0.7743  1.1522
 6803SOL     OW32044   3.066   3.782   9.113  0.2279 -0.2334  0.0435
 6803SOL    HW132045   3.027   3.751   9.195  3.0190  1.1258  1.9073
 6803SOL    HW232046   2.984   3.799   9.067 -0.3035 -2.3391  0.2231
 6804SOL     OW32047   4.307   3.480   8.700 -0.2722 -0.4824 -0.2404
 6804SOL    HW132048   4.331   3.396   8.738 -0.7391 -1.0710 -1.2345
 6804SOL    HW232049   4.394   3.507   8.671 -0.2479 -0.0088  0.2816
 6805SOL     OW32050   4.555   3.499   8.350  0.2067 -0.3813 -0.0620
 6805SOL    HW132051   4.641   3.479   8.389  0.7907  1.2593 -0.5129
 6805SOL    HW232052   4.510   3.415   8.365  1.1977 -0.8360  0.4122
 6806SOL     OW32053   2.298   3.817   2.214 -0.3961 -0.4388 -0.2437
 6806SOL    HW132054   2.210   3.830   2.249  0.1747  1.8580  0.3284
 6806SOL    HW232055   2.279   3.739   2.161  1.5000 -0.8337 -0.3588
 6807SOL     OW32056   2.420   4.026  14.675  0.1286 -0.3920  0.0926
 6807SOL    HW132057   2.328   4.035  14.701  0.0134 -2.5070  0.4354
 6807SOL    HW232058   2.410   3.946  14.623  3.8936  0.5221 -2.0051
 6808SOL     OW32059   2.609   2.821   3.034 -0.3441 -0.4874  0.5628
 6808SOL    HW132060   2.530   2.784   2.994  0.5672 -1.5922 -0.1925
 6808SOL    HW232061   2.667   2.745   3.033 -0.7537 -0.7990  0.4958
 6809SOL     OW32062   3.560   4.010   9.841 -0.1244 -0.4632  0.3888
 6809SOL    HW132063   3.628   4.058   9.888 -1.6808  2.1805 -0.0285
 6809SOL    HW232064   3.486   4.070   9.832  1.0367  0.6867 -1.4713
 6810SOL     OW32065   0.856   3.963  13.440  0.0503 -0.3415 -0.3730
 6810SOL    HW132066   0.792   3.935  13.373 -0.2433  1.6389 -0.9022
 6810SOL    HW232067   0.913   4.022  13.392  0.6979  0.5229  1.4609
 6811SOL     OW32068   0.399   2.444  16.169 -0.4315  0.5019 -0.1274
 6811SOL    HW132069   0.480   2.481  16.136  0.5226  0.7860  2.5384
 6811SOL    HW232070   0.358   2.423  16.085 -0.3841 -0.4169  0.0752
 6812SOL     OW32071   4.637   0.503  11.670  0.0682 -0.3903  0.1481
 6812SOL    HW132072   4.604   0.438  11.609 -0.2824 -0.7965  0.7660
 6812SOL    HW232073   4.642   0.463  11.757 -0.3111 -0.6569  0.0453
 6813SOL     OW32074   1.182   2.953  11.676  0.2446 -0.2332 -0.0719
 6813SOL    HW132075   1.271   2.972  11.707 -0.1907  2.3079 -0.3897
 6813SOL    HW232076   1.127   3.004  11.735 -0.9705 -1.8702  0.1856
 6814SOL     OW32077   0.284   1.147  11.185 -0.3353  0.2853 -0.3355
 6814SOL    HW132078   0.287   1.176  11.276 -0.5036 -0.6330 -0.0364
 6814SOL    HW232079   0.375   1.163  11.161 -0.5827 -0.9613 -2.1547
 6815SOL     OW32080   1.621   4.064  15.413 -0.0550 -0.6052 -0.9555
 6815SOL    HW132081   1.689   4.066  15.345 -0.9731  1.3487 -1.8304
 6815SOL    HW232082   1.609   3.969  15.407  0.0346 -0.8245  2.4052
 6816SOL     OW32083   0.110   0.474   8.565  0.6273  0.0930  0.3378
 6816SOL    HW132084   0.061   0.507   8.640  2.2342 -1.2418  2.0021
 6816SOL    HW232085   0.178   0.430   8.617  1.8308  0.5604 -0.8267
 6817SOL     OW32086   4.148   0.498   3.434 -0.0928  0.3755 -0.1855
 6817SOL    HW132087   4.076   0.492   3.497  0.7232  0.2996  0.7522
 6817SOL    HW232088   4.221   0.518   3.493 -1.9593  1.5230  1.7737
 6818SOL     OW32089   0.088   4.000  13.722  0.0419 -0.1221  0.3780
 6818SOL    HW132090   0.038   4.016  13.642  1.4874  0.0674 -0.5018
 6818SOL    HW232091   0.042   3.920  13.744 -0.0515 -0.7704 -2.1154
 6819SOL     OW32092   2.194   2.813   8.869 -0.0584  0.3984  0.1252
 6819SOL    HW132093   2.194   2.902   8.835 -3.3184 -0.4798 -2.1493
 6819SOL    HW232094   2.115   2.811   8.923  0.0146  1.5113  0.2738
 6820SOL     OW32095   0.074   3.541  13.109  0.0141  0.0359  0.2993
 6820SOL    HW132096   0.118   3.516  13.190 -3.2934  0.9881  2.3554
 6820SOL    HW232097   4.713   3.542  13.121  0.0109  0.7665  0.2029
 6821SOL     OW32098   2.125   0.798   6.563 -0.4424 -0.5293  0.2837
 6821SOL    HW132099   2.199   0.741   6.586  0.3129  0.4233  0.2346
 6821SOL    HW232100   2.181   0.872   6.540 -1.8425  0.0031 -1.3739
 6822SOL     OW32101   4.108   3.502   9.571 -0.6802  0.3850  0.4291
 6822SOL    HW132102   4.199   3.527   9.559 -0.2740 -1.7307 -0.8305
 6822SOL    HW232103   4.119   3.421   9.622 -2.3313  1.0036  1.7601
 6823SOL     OW32104   3.037   1.528   5.006 -0.3232 -0.6938  0.2106
 6823SOL    HW132105   3.098   1.526   5.080 -1.1441 -0.0264  0.9074
 6823SOL    HW232106   2.951   1.531   5.047 -0.7654 -0.9228 -0.7141
 6824SOL     OW32107   4.558   1.417   6.734  0.1679  0.4257 -0.0255
 6824SOL    HW132108   4.521   1.330   6.723  2.4412 -0.5717  0.3448
 6824SOL    HW232109   4.486   1.478   6.718  0.2150  0.4020 -0.3217
 6825SOL     OW32110   1.894   0.275  13.279  0.2070  0.3984 -0.5934
 6825SOL    HW132111   1.801   0.250  13.282  0.1093  0.5326 -2.4919
 6825SOL    HW232112   1.934   0.196  13.241  0.2414 -0.5000  1.3106
 6826SOL     OW32113   0.435   2.274   6.828  0.2980 -0.0122 -0.1407
 6826SOL    HW132114   0.495   2.230   6.767  0.8233  0.6478 -0.1043
 6826SOL    HW232115   0.472   2.231   6.905  0.4379 -1.0258 -0.7779
 6827SOL     OW32116   2.882   3.554   2.142  0.3605 -0.4188 -0.2554
 6827SOL    HW132117   2.939   3.523   2.213  1.1649 -0.0248 -0.7271
 6827SOL    HW232118   2.926   3.628   2.100 -2.3517  0.8862 -0.7949
 6828SOL     OW32119   4.463   3.526   4.514 -0.3213 -0.0529 -0.3318
 6828SOL    HW132120   4.517   3.605   4.517 -1.7849  0.8345  1.9774
 6828SOL    HW232121   4.390   3.559   4.461 -0.6062 -1.0804 -0.5842
 6829SOL     OW32122   2.999   0.338   5.958  0.1566  0.2732  0.4543
 6829SOL    HW132123   2.955   0.305   6.037  0.3709  0.6915  0.7420
 6829SOL    HW232124   2.944   0.414   5.940  0.5107  0.4267  0.0136
 6830SOL     OW32125   0.505   0.820  14.176  0.5341 -0.3156 -0.1109
 6830SOL    HW132126   0.542   0.798  14.090  0.5911 -0.6207 -0.0069
 6830SOL    HW232127   0.481   0.737  14.218  2.1678 -0.2837  0.8840
 6831SOL     OW32128   1.073   1.750   4.207 -0.0520  0.3125 -0.0074
 6831SOL    HW132129   1.151   1.803   4.192  0.8595 -0.2077  2.8912
 6831SOL    HW232130   1.090   1.752   4.301 -1.4573 -2.4065  0.2875
 6832SOL     OW32131   2.128   0.429   2.561 -0.1876 -0.2483 -0.0095
 6832SOL    HW132132   2.217   0.465   2.560 -0.2906 -0.0324 -0.9458
 6832SOL    HW232133   2.082   0.508   2.532 -3.2386 -2.0701  0.0068
 6833SOL     OW32134   3.665   4.239   1.245  0.3586 -0.2306  0.0085
 6833SOL    HW132135   3.573   4.264   1.257  1.1036  1.9904  1.0357
 6833SOL    HW232136   3.672   4.193   1.328  1.6949  2.0621  1.1752
 6834SOL     OW32137   2.861   4.337   6.279 -0.0359 -0.3877 -0.3974
 6834SOL    HW132138   2.920   4.319   6.352 -0.8967 -0.2738  0.3257
 6834SOL    HW232139   2.796   4.384   6.331 -1.6488 -1.1207 -1.7520
 6835SOL     OW32140   3.576   3.803   0.634  0.4697  0.2024 -0.2258
 6835SOL    HW132141   3.511   3.834   0.697  0.2888 -0.0916 -0.2665
 6835SOL    HW232142   3.573   3.708   0.644  2.7561  0.1274 -0.1680
 6836SOL     OW32143   2.193   1.891   7.873 -0.4613  0.2282  0.3404
 6836SOL    HW132144   2.246   1.826   7.828 -0.8915  0.6811 -0.8385
 6836SOL    HW232145   2.177   1.843   7.954  2.1303 -1.0902  0.0554
 6837SOL     OW32146   3.151   4.516   7.531  0.0711 -0.2385 -0.1209
 6837SOL    HW132147   3.235   4.476   7.513 -0.8322 -1.9053 -0.6345
 6837SOL    HW232148   3.103   4.513   7.448 -1.4263  1.2141  0.6870
 6838SOL     OW32149   0.655   1.830   5.954 -0.1817  0.0652  0.3895
 6838SOL    HW132150   0.747   1.807   5.969  0.2907  0.9756 -1.0975
 6838SOL    HW232151   0.645   1.787   5.869 -1.6600  1.3301 -0.0863
 6839SOL     OW32152   4.330   2.096   3.658 -0.1245  0.6676  0.4605
 6839SOL    HW132153   4.317   2.070   3.750 -0.7622  0.4976  0.3259
 6839SOL    HW232154   4.366   2.184   3.666  0.3741  0.5164 -0.1517
 6840SOL     OW32155   3.859   1.227  14.528  0.0215 -0.4061 -0.0013
 6840SOL    HW132156   3.901   1.305  14.563  2.0952 -1.3602 -0.3573
 6840SOL    HW232157   3.767   1.250  14.544 -0.3713 -1.3287 -0.9305
 6841SOL     OW32158   0.403   3.114   8.587 -0.4282 -0.1804 -0.1856
 6841SOL    HW132159   0.325   3.149   8.544 -0.4803  0.2551  0.2670
 6841SOL    HW232160   0.373   3.082   8.673  0.7570  1.9621  0.9972
 6842SOL     OW32161   1.893   4.121   3.714  0.0560  0.1859 -0.7595
 6842SOL    HW132162   1.920   4.056   3.648  1.3832  0.7954 -0.8358
 6842SOL    HW232163   1.801   4.098   3.720 -0.1056  0.2343 -3.0050
 6843SOL     OW32164   3.464   1.984   6.583 -0.6555 -0.3108  0.8870
 6843SOL    HW132165   3.410   1.985   6.504  0.8453 -0.4784 -0.1297
 6843SOL    HW232166   3.486   1.892   6.595 -2.6895 -0.8198  0.6594
 6844SOL     OW32167   4.384   1.870   7.556 -0.6292  0.1584 -0.2882
 6844SOL    HW132168   4.427   1.784   7.553 -1.3994 -0.2262 -0.4010
 6844SOL    HW232169   4.451   1.922   7.512 -0.0383 -1.6959 -1.5825
 6845SOL     OW32170   0.058   4.661   4.808 -0.5623 -0.1305  0.1607
 6845SOL    HW132171   0.020   4.575   4.828  0.0825 -0.5119 -0.2333
 6845SOL    HW232172   0.069   4.670   4.713  4.2802  1.6956  0.8964
 6846SOL     OW32173   1.827   0.552   1.014 -0.2110  0.2856  0.3583
 6846SOL    HW132174   1.841   0.583   1.103 -2.6764  1.8623  0.2060
 6846SOL    HW232175   1.844   0.632   0.964  0.8246 -1.7218 -2.5223
 6847SOL     OW32176   0.084   3.968   7.538  0.2292  0.2360 -0.7043
 6847SOL    HW132177   0.039   3.926   7.465  0.3518 -0.0838 -0.5959
 6847SOL    HW232178   0.137   4.040   7.506  0.4804 -1.0688 -3.1976
 6848SOL     OW32179   4.457   0.261   8.034 -0.2096  0.2397  0.5284
 6848SOL    HW132180   4.521   0.223   8.095  0.5629  0.1490 -0.3467
 6848SOL    HW232181   4.382   0.202   8.046 -1.2464  1.5211  0.3922
 6849SOL     OW32182   0.776   2.387   7.927 -0.1866 -0.0714  0.6061
 6849SOL    HW132183   0.837   2.458   7.908  0.0550 -0.0864  1.3190
 6849SOL    HW232184   0.818   2.351   8.006  0.1241  1.4717  1.1396
 6850SOL     OW32185   0.675   2.238  16.406 -0.2572 -0.0889 -0.1960
 6850SOL    HW132186   0.768   2.224  16.424 -0.4477  1.0051  1.5768
 6850SOL    HW232187   0.649   2.319  16.362  1.6394 -1.0924 -3.1991
 6851SOL     OW32188   2.164   4.528  10.163  0.0325  0.1184 -0.5484
 6851SOL    HW132189   2.169   4.464  10.092  0.3684  0.6328 -0.9937
 6851SOL    HW232190   2.080   4.524  10.207 -0.2679 -0.7019 -1.1995
 6852SOL     OW32191   3.225   2.867   3.652  0.1294 -0.3678 -0.8930
 6852SOL    HW132192   3.260   2.884   3.564 -1.2086 -1.6903 -1.6759
 6852SOL    HW232193   3.248   2.949   3.696  0.7032 -0.4148 -1.0969
 6853SOL     OW32194   2.922   3.551  13.639  0.4426  0.1479 -0.1382
 6853SOL    HW132195   2.950   3.604  13.714 -1.0439  0.8296 -0.0602
 6853SOL    HW232196   2.943   3.465  13.675 -2.4305 -1.2135 -1.7365
 6854SOL     OW32197   0.892   1.786   3.274  0.3831  0.5050  0.4223
 6854SOL    HW132198   0.916   1.780   3.367 -0.0493  0.6594  0.5480
 6854SOL    HW232199   0.814   1.841   3.274 -0.4147 -0.6094  0.9594
 6855SOL     OW32200   4.382   3.316   2.865  0.0890 -0.4936 -0.2017
 6855SOL    HW132201   4.444   3.242   2.869  1.2416  0.4501 -0.6144
 6855SOL    HW232202   4.370   3.343   2.956 -0.5608 -0.4891 -0.2917
 6856SOL     OW32203   4.543   0.126   4.706  0.0479  0.0946  0.1477
 6856SOL    HW132204   4.506   0.119   4.618  0.1846  0.1913  0.0828
 6856SOL    HW232205   4.622   0.073   4.701 -0.3914 -0.7470  2.1806
 6857SOL     OW32206   2.314   0.037  15.221 -0.0012 -0.4385  0.1831
 6857SOL    HW132207   2.302   0.028  15.315 -2.7784  3.1000  0.1804
 6857SOL    HW232208   2.409   0.037  15.222  0.0308  0.6627 -1.7224
 6858SOL     OW32209   3.586   0.877   6.807  0.3489 -0.4499  0.1537
 6858SOL    HW132210   3.615   0.786   6.804  0.6098 -0.4130  1.2266
 6858SOL    HW232211   3.491   0.868   6.812  0.3432 -0.9865 -1.1159
 6859SOL     OW32212   3.663   0.809  12.578  0.0182  0.0693  0.4177
 6859SOL    HW132213   3.579   0.809  12.623 -0.6484 -2.7630 -0.8042
 6859SOL    HW232214   3.674   0.714  12.568 -2.1958 -0.3189  1.5434
 6860SOL     OW32215   0.101   4.041  15.251  0.1638 -0.6333 -0.3355
 6860SOL    HW132216   0.061   3.956  15.265  0.0431 -0.3374  1.1390
 6860SOL    HW232217   0.130   4.069  15.338  0.9280  1.4213 -1.2247
 6861SOL     OW32218   0.340   4.480   1.317 -0.2757  0.1857  0.1510
 6861SOL    HW132219   0.283   4.424   1.370 -1.0548  0.6832 -0.1606
 6861SOL    HW232220   0.380   4.530   1.388  0.1709 -1.1133  0.8261
 6862SOL     OW32221   4.630   1.341   7.769  0.3499  0.0219 -0.0584
 6862SOL    HW132222   4.614   1.267   7.827  1.7873  1.5432  2.2706
 6862SOL    HW232223   4.725   1.345   7.776  0.3734  0.4956 -0.6084
 6863SOL     OW32224   1.832   1.242   0.285  0.3560 -0.3714  0.0950
 6863SOL    HW132225   1.871   1.155   0.281 -0.1535 -0.4781 -3.0665
 6863SOL    HW232226   1.809   1.247   0.192  1.6413  2.4255 -0.0778
 6864SOL     OW32227   2.236   3.880   7.410 -0.2323 -0.2353  0.6171
 6864SOL    HW132228   2.179   3.877   7.487  0.6705 -3.5686  1.1869
 6864SOL    HW232229   2.298   3.950   7.431 -1.7496  1.6923 -1.3570
 6865SOL     OW32230   2.440   3.089   8.463  0.9661 -0.4240  0.0693
 6865SOL    HW132231   2.513   3.119   8.409  2.1734  0.4245  2.1618
 6865SOL    HW232232   2.480   3.123   8.544  2.4573 -0.0229 -0.8315
 6866SOL     OW32233   3.301   1.253  13.138 -0.4566  0.2068  0.1692
 6866SOL    HW132234   3.347   1.177  13.174 -0.0661  1.0248  1.3954
 6866SOL    HW232235   3.225   1.205  13.106 -0.4107  0.7684 -0.7861
 6867SOL     OW32236   2.573   3.103   4.144 -0.1650  0.2409  0.6116
 6867SOL    HW132237   2.537   3.065   4.224  0.0940  1.5025  1.3268
 6867SOL    HW232238   2.523   3.185   4.144 -2.4197 -1.1373  0.8641
 6868SOL     OW32239   2.138   4.545   4.553  0.0631  0.1109  0.3162
 6868SOL    HW132240   2.145   4.453   4.578 -0.7954  0.2656  1.1289
 6868SOL    HW232241   2.088   4.549   4.471 -0.6027 -0.1014  0.7101
 6869SOL     OW32242   3.432   4.645   7.000  0.1418  0.4495 -0.1898
 6869SOL    HW132243   3.451   4.695   6.920  0.0523 -0.0104 -0.4932
 6869SOL    HW232244   3.520   4.633   7.035  0.2893 -0.1067 -0.7647
 6870SOL     OW32245   1.226   3.678   8.707 -0.0871  0.0811  0.3324
 6870SOL    HW132246   1.239   3.650   8.617  3.2719 -0.8499  1.1152
 6870SOL    HW232247   1.317   3.687   8.733 -0.3834  0.6006  1.2045
 6871SOL     OW32248   2.326   1.223   3.464 -0.2543 -0.0920 -0.7350
 6871SOL    HW132249   2.386   1.155   3.492 -0.7774  0.4087  1.5951
 6871SOL    HW232250   2.382   1.297   3.441  1.7478 -0.9359  1.5141
 6872SOL     OW32251   3.309   4.684   6.699 -0.2329 -0.1042 -0.2367
 6872SOL    HW132252   3.248   4.717   6.632  1.1595 -1.5067 -2.2056
 6872SOL    HW232253   3.323   0.037   6.737  0.3898 -0.3560  0.1027
 6873SOL     OW32254   2.061   2.783  14.796 -0.7749 -0.5334 -0.1525
 6873SOL    HW132255   2.075   2.764  14.703 -2.1332  0.1502 -0.5023
 6873SOL    HW232256   2.113   2.715  14.838 -1.6712 -1.4799 -0.5826
 6874SOL     OW32257   3.744   1.933   8.066  0.0408 -0.6459  0.5997
 6874SOL    HW132258   3.791   1.980   7.997 -0.6492 -2.1498 -0.9040
 6874SOL    HW232259   3.812   1.922   8.132 -0.8846  0.8018  1.7958
 6875SOL     OW32260   4.171   4.401   5.733 -0.2603  0.1704 -0.9779
 6875SOL    HW132261   4.261   4.412   5.702 -0.7850  1.3557 -2.0717
 6875SOL    HW232262   4.149   4.312   5.703 -0.2981 -0.6495  1.4433
 6876SOL     OW32263   1.539   1.923   6.671 -0.7251  0.2727  0.0768
 6876SOL    HW132264   1.475   1.851   6.670 -0.2896 -0.1159  0.6587
 6876SOL    HW232265   1.506   1.975   6.597  0.5010  2.0043  0.7399
 6877SOL     OW32266   1.058   3.705   4.925  0.4648  0.1262 -0.5222
 6877SOL    HW132267   1.150   3.719   4.948 -0.0556 -0.2925  1.8434
 6877SOL    HW232268   1.056   3.705   4.829 -0.8503  1.4544 -0.4970
 6878SOL     OW32269   2.463   4.117   9.070 -0.1378 -0.0795 -0.1733
 6878SOL    HW132270   2.456   4.210   9.091 -2.3026  0.5013 -3.5889
 6878SOL    HW232271   2.400   4.085   9.135  1.2061 -2.5270 -0.0521
 6879SOL     OW32272   1.131   2.651  10.329  0.3030  0.5990  0.5183
 6879SOL    HW132273   1.055   2.706  10.345 -2.1626 -3.3691  2.2831
 6879SOL    HW232274   1.126   2.649  10.234 -3.5733  2.2267  0.6931
 6880SOL     OW32275   0.920   2.347   3.726  0.2616  0.5041  0.0733
 6880SOL    HW132276   0.996   2.316   3.776  0.4613  2.7788  1.1682
 6880SOL    HW232277   0.902   2.265   3.680 -1.3881  1.8573 -1.6972
 6881SOL     OW32278   3.188   3.451   4.801  0.3935  0.4753  0.0565
 6881SOL    HW132279   3.243   3.421   4.728  1.3567  1.4907  0.3641
 6881SOL    HW232280   3.122   3.382   4.798 -0.2415  1.0958 -0.1764
 6882SOL     OW32281   4.115   2.119   4.625  0.0707 -0.0389  0.3848
 6882SOL    HW132282   4.197   2.098   4.580  1.1486  2.6814  1.0569
 6882SOL    HW232283   4.055   2.048   4.601  0.1928  0.4816 -1.3973
 6883SOL     OW32284   4.513   2.037  14.227 -0.6227  0.5108  0.0150
 6883SOL    HW132285   4.573   2.106  14.198  1.8917 -2.2708 -1.4142
 6883SOL    HW232286   4.572   1.963  14.245 -0.6692  0.0115 -1.8568
 6884SOL     OW32287   4.013   0.361   7.196  0.0690 -0.1873 -0.1179
 6884SOL    HW132288   4.028   0.408   7.278 -0.7351  3.4292 -2.0536
 6884SOL    HW232289   4.067   0.411   7.135  1.0817 -2.5461 -1.1496
 6885SOL     OW32290   0.309   2.336  14.527 -0.5478  0.2106 -0.2181
 6885SOL    HW132291   0.315   2.336  14.623 -0.9641  2.8241 -0.1839
 6885SOL    HW232292   0.390   2.384  14.508 -0.2574  0.2102  1.0122
 6886SOL     OW32293   2.176   2.652   0.552  0.3666  0.1363  0.5665
 6886SOL    HW132294   2.232   2.578   0.573  0.6077  0.1807  0.0960
 6886SOL    HW232295   2.208   2.654   0.461 -2.4365 -2.5681 -0.4929
 6887SOL     OW32296   3.760   0.011   2.729  0.6078  0.5980 -0.1656
 6887SOL    HW132297   3.681   4.719   2.681  0.2852 -0.0779  0.7351
 6887SOL    HW232298   3.729   0.025   2.818  2.5916 -0.5519  0.7125
 6888SOL     OW32299   1.249   2.901  12.884 -0.5435  0.1645  0.2868
 6888SOL    HW132300   1.319   2.936  12.828  1.2098 -0.7132  1.9204
 6888SOL    HW232301   1.232   2.824  12.829  1.7606  0.3183 -0.6520
 6889SOL     OW32302   0.475   1.901   0.499  0.4900 -0.4230 -0.3791
 6889SOL    HW132303   0.526   1.827   0.467  0.6666  0.4929 -2.2000
 6889SOL    HW232304   0.459   1.946   0.416 -1.5108 -1.2036 -0.4227
 6890SOL     OW32305   1.407   1.783   8.295  0.4185 -0.0558 -0.1979
 6890SOL    HW132306   1.445   1.721   8.358  1.9674  2.4080  1.2919
 6890SOL    HW232307   1.490   1.814   8.260 -1.6049  2.5122 -2.6420
 6891SOL     OW32308   2.499   2.300   5.835 -0.0155  0.5785  0.3500
 6891SOL    HW132309   2.405   2.312   5.828  0.0149  1.1752  0.9881
 6891SOL    HW232310   2.530   2.389   5.820  0.1974  0.3218 -0.7348
 6892SOL     OW32311   3.054   3.553  17.437 -0.0549  0.1898  0.0330
 6892SOL    HW132312   3.102   3.497  17.499 -1.9129  0.0586  1.3367
 6892SOL    HW232313   2.990   3.584  17.501  0.7446 -2.0551  1.9127
 6893SOL     OW32314   4.147   0.840  15.276 -0.0510 -0.1474  0.3323
 6893SOL    HW132315   4.149   0.755  15.320 -1.3674  0.1372  0.9376
 6893SOL    HW232316   4.062   0.835  15.233  0.2874  1.1584 -0.4668
 6894SOL     OW32317   0.863   4.274   4.324 -0.4564 -0.6336  0.2566
 6894SOL    HW132318   0.838   4.261   4.415 -0.4320  0.6811  0.4537
 6894SOL    HW232319   0.778   4.265   4.281  1.3964  1.8707 -3.8779
 6895SOL     OW32320   2.236   0.625   3.327 -0.4594  0.1789 -0.5453
 6895SOL    HW132321   2.141   0.634   3.335 -0.2077  1.7590  0.6989
 6895SOL    HW232322   2.231   0.600   3.235  0.7907 -0.0025 -0.5607
 6896SOL     OW32323   0.731   3.795   6.735  0.1786  0.0539  0.3621
 6896SOL    HW132324   0.690   3.818   6.818  0.4365  0.8969  0.2505
 6896SOL    HW232325   0.720   3.700   6.741  0.3814  0.1136  1.5565
 6897SOL     OW32326   2.185   2.669  16.400  0.0472  0.5132  0.2320
 6897SOL    HW132327   2.128   2.651  16.475 -0.9017  2.0379 -0.1488
 6897SOL    HW232328   2.273   2.661  16.438  0.7600  1.6100 -1.2169
 6898SOL     OW32329   2.176   0.252   5.343 -0.1695  0.1139  0.4945
 6898SOL    HW132330   2.198   0.159   5.337  0.7408  0.2497  1.7571
 6898SOL    HW232331   2.107   0.251   5.408  0.0622 -0.3215  0.7322
 6899SOL     OW32332   2.243   1.958   4.016 -0.2878  0.1863  0.0775
 6899SOL    HW132333   2.159   1.916   3.995 -0.0184  0.1757 -0.9538
 6899SOL    HW232334   2.268   1.900   4.088  1.2239 -2.5511 -2.6484
 6900SOL     OW32335   1.366   4.612   4.566 -0.5312  0.3121  0.8593
 6900SOL    HW132336   1.299   4.647   4.506  0.4174 -1.1448 -1.0430
 6900SOL    HW232337   1.322   4.634   4.648  2.4018  1.5003  2.1044
 6901SOL     OW32338   1.199   3.081   1.999 -0.0109 -0.1175  0.1333
 6901SOL    HW132339   1.180   3.010   1.937 -0.7044  0.7592 -0.6460
 6901SOL    HW232340   1.236   3.023   2.066  1.0530 -0.6876 -0.9645
 6902SOL     OW32341   0.796   4.729   7.806 -0.5630  0.2316 -0.1065
 6902SOL    HW132342   0.886   4.697   7.803 -2.0477 -4.0070  0.4888
 6902SOL    HW232343   0.785   0.023   7.897  2.1319  1.6705 -0.2394
 6903SOL     OW32344   4.519   1.689   1.096  0.2345 -0.0157 -0.4190
 6903SOL    HW132345   4.602   1.731   1.071  0.3025  0.6591  0.9412
 6903SOL    HW232346   4.454   1.759   1.088  1.3724  1.2855  1.5572
 6904SOL     OW32347   3.367   0.821   7.777  0.4684  1.1122  0.0490
 6904SOL    HW132348   3.404   0.871   7.850  0.2402 -1.0511  1.6427
 6904SOL    HW232349   3.449   0.777   7.754  0.2663  0.6041  0.3063
 6905SOL     OW32350   1.917   1.595   6.071  0.3112  0.2024  0.0833
 6905SOL    HW132351   1.867   1.673   6.093  0.1043  0.1503 -0.2042
 6905SOL    HW232352   1.861   1.519   6.085 -2.3070  1.9535 -1.0573
 6906SOL     OW32353   0.987   3.387  15.049 -0.0677  0.1557  0.0813
 6906SOL    HW132354   0.910   3.442  15.058 -1.1775 -1.3376 -0.3169
 6906SOL    HW232355   0.977   3.351  14.961  0.4599  0.0110  0.0765
 6907SOL     OW32356   0.108   0.224  16.234  0.0781 -0.1073 -0.0024
 6907SOL    HW132357   0.144   0.138  16.254 -0.3147 -0.2682  0.0178
 6907SOL    HW232358   0.023   0.225  16.278 -0.7369 -0.4030 -1.5651
 6908SOL     OW32359   0.184   2.411   2.717  0.3846 -0.1788 -0.1357
 6908SOL    HW132360   0.136   2.493   2.732  1.2436  0.3373 -0.2227
 6908SOL    HW232361   0.195   2.403   2.622 -1.2579 -0.3960 -0.3021
 6909SOL     OW32362   3.089   2.040   3.067  0.0291  0.0511  0.2108
 6909SOL    HW132363   3.074   2.116   3.122  1.8460 -0.4162  1.3373
 6909SOL    HW232364   3.176   2.008   3.089 -0.4019 -0.7672  0.7072
 6910SOL     OW32365   2.845   1.073   6.971  0.6018 -0.3310  0.2605
 6910SOL    HW132366   2.939   1.090   6.959  0.7669 -1.4282  0.0394
 6910SOL    HW232367   2.839   0.992   6.921  0.3954 -0.9702  1.3296
 6911SOL     OW32368   1.898   2.433   7.804 -0.5171  0.0848  0.8689
 6911SOL    HW132369   1.954   2.359   7.779 -0.6537 -0.3316  1.8003
 6911SOL    HW232370   1.840   2.438   7.728 -0.1229 -1.0967  0.4925
 6912SOL     OW32371   3.267   2.754   4.569 -0.4296  0.2142 -0.1182
 6912SOL    HW132372   3.294   2.799   4.649 -2.2855 -0.7820  1.0726
 6912SOL    HW232373   3.213   2.824   4.533 -0.4186  1.3398  2.0420
 6913SOL     OW32374   3.317   3.099   8.574 -0.0989 -0.4692  0.4776
 6913SOL    HW132375   3.384   3.031   8.573 -0.9321 -1.2761 -0.2105
 6913SOL    HW232376   3.377   3.174   8.569  0.1917 -0.5758  2.4738
 6914SOL     OW32377   4.159   4.365   6.339  1.0034 -0.1072 -0.5594
 6914SOL    HW132378   4.112   4.379   6.421 -0.2956 -0.9009 -1.1642
 6914SOL    HW232379   4.141   4.273   6.320  1.6502 -0.3141 -0.1771
 6915SOL     OW32380   1.524   3.910   6.464  0.1813  0.6316  0.1146
 6915SOL    HW132381   1.615   3.932   6.443  0.8433 -0.8268  1.4922
 6915SOL    HW232382   1.527   3.926   6.558  4.0808 -1.9592  0.4321
 6916SOL     OW32383   3.007   4.548  12.224  0.1914  0.5388  0.1304
 6916SOL    HW132384   3.057   4.531  12.304  0.6334  0.1898 -0.2193
 6916SOL    HW232385   3.039   4.483  12.162  0.4354 -0.4681  1.3209
 6917SOL     OW32386   0.095   2.134  11.906  0.1595  0.5620  0.6470
 6917SOL    HW132387   0.067   2.173  11.989  0.1483  0.8212  0.5205
 6917SOL    HW232388   0.110   2.217  11.862 -2.2242  1.7000  1.9856
 6918SOL     OW32389   0.358   1.214   8.533  0.0996 -0.3043  0.3088
 6918SOL    HW132390   0.282   1.182   8.484  0.4111  2.6324 -2.0594
 6918SOL    HW232391   0.423   1.215   8.463  0.2545 -0.4354  0.4492
 6919SOL     OW32392   3.788   4.003   2.570  0.1270  0.3214  0.2120
 6919SOL    HW132393   3.762   4.068   2.504  1.6866 -0.3045 -1.0379
 6919SOL    HW232394   3.756   3.926   2.524  0.2591  0.9625 -0.9595
 6920SOL     OW32395   2.396   0.115   9.618  0.6191 -0.2850  0.2590
 6920SOL    HW132396   2.399   0.144   9.709 -0.9004  0.9051 -0.0776
 6920SOL    HW232397   2.442   0.184   9.570 -1.3306  0.5889 -0.3252
 6921SOL     OW32398   1.971   0.442  10.738 -0.0549  0.8777 -0.3293
 6921SOL    HW132399   2.003   0.406  10.821  3.1345  0.5365 -1.7123
 6921SOL    HW232400   2.045   0.447  10.678  2.1778 -0.3350  2.3024
 6922SOL     OW32401   2.814   1.046   6.232 -0.4705  0.3054 -0.1438
 6922SOL    HW132402   2.782   0.966   6.273 -1.5922  2.1533  2.6183
 6922SOL    HW232403   2.895   1.016   6.191 -0.0890  1.8515 -0.5122
 6923SOL     OW32404   4.403   1.577  13.625  0.0321 -0.1279 -0.1857
 6923SOL    HW132405   4.379   1.600  13.715  1.0514  2.6170 -0.6067
 6923SOL    HW232406   4.491   1.610  13.607  0.5630  0.7787  4.1597
 6924SOL     OW32407   3.701   2.723   5.582 -0.2361  0.5560  0.0847
 6924SOL    HW132408   3.633   2.693   5.642  0.8047 -1.8939  0.0575
 6924SOL    HW232409   3.687   2.655   5.517 -0.3278 -0.2109  0.8946
 6925SOL     OW32410   2.473   0.432  12.046  0.0668 -0.5556 -0.4575
 6925SOL    HW132411   2.462   0.338  12.064  1.5782 -0.6334  0.0774
 6925SOL    HW232412   2.440   0.466  12.129 -3.5907  0.4653 -2.3103
 6926SOL     OW32413   0.133   3.778   6.704 -0.0203 -0.4262 -0.1092
 6926SOL    HW132414   0.153   3.688   6.731 -2.5376 -1.7315 -2.6275
 6926SOL    HW232415   0.119   3.813   6.792 -2.1620 -2.5531  0.4228
 6927SOL     OW32416   2.274   2.773   5.881 -0.4703  0.7805 -0.3192
 6927SOL    HW132417   2.355   2.727   5.902 -0.9713 -0.5198 -1.2423
 6927SOL    HW232418   2.232   2.761   5.966 -2.9989  0.2413 -1.6397
 6928SOL     OW32419   4.292   2.599  16.432 -0.6838  0.3811 -0.1449
 6928SOL    HW132420   4.366   2.550  16.466 -2.0033 -2.4399 -1.4040
 6928SOL    HW232421   4.234   2.599  16.508  1.1627  1.5508  1.2726
 6929SOL     OW32422   3.039   1.148  14.189 -0.2638 -0.0432 -0.2330
 6929SOL    HW132423   3.059   1.214  14.256  1.3944 -1.2772  0.4708
 6929SOL    HW232424   3.026   1.204  14.112  2.1422  0.6512 -0.1501
 6930SOL     OW32425   2.522   1.920   4.647 -0.3570  0.2798 -0.0460
 6930SOL    HW132426   2.594   1.935   4.708 -0.0118 -0.5925 -0.2422
 6930SOL    HW232427   2.452   1.911   4.712  0.4488 -1.5496  0.5871
 6931SOL     OW32428   4.647   3.188  11.685  0.0248  0.1729  0.4643
 6931SOL    HW132429   4.626   3.163  11.774  0.0368  1.2618  0.7766
 6931SOL    HW232430   4.656   3.097  11.656  2.2710  0.1682  1.1562
 6932SOL     OW32431   1.481   0.613  17.660 -0.2120  0.4694 -0.5762
 6932SOL    HW132432   1.418   0.582  17.725 -0.0771  2.6418  0.5946
 6932SOL    HW232433   1.532   0.675  17.713 -1.1027  0.7053 -0.0068
 6933SOL     OW32434   1.990   1.235   1.039  0.0318  0.1713 -0.5748
 6933SOL    HW132435   1.980   1.301   0.970 -2.3379  0.4122  0.0324
 6933SOL    HW232436   2.066   1.268   1.088 -1.7870  1.9131  1.0277
 6934SOL     OW32437   4.487   1.037   3.544  0.6312  0.1646 -0.5750
 6934SOL    HW132438   4.399   1.000   3.556  0.2650  1.1785 -0.1542
 6934SOL    HW232439   4.544   0.960   3.546  0.1073 -0.2129 -0.1329
 6935SOL     OW32440   3.507   4.518  10.216  0.7118  0.4575 -0.4929
 6935SOL    HW132441   3.550   4.449  10.266  0.4639 -0.8675 -2.1208
 6935SOL    HW232442   3.467   4.561  10.291 -0.0243  0.6128 -0.9822
 6936SOL     OW32443   0.177   1.002  10.984  0.0349  0.1663  0.1475
 6936SOL    HW132444   0.259   0.991  10.935 -1.2100 -3.5009 -1.1258
 6936SOL    HW232445   0.212   1.035  11.067 -2.1487 -0.6203  1.3806
 6937SOL     OW32446   1.223   2.260   3.609  0.0741 -0.0733  0.1343
 6937SOL    HW132447   1.294   2.227   3.665  0.1623  1.2686  0.8191
 6937SOL    HW232448   1.166   2.277   3.683 -0.3038  0.5668 -0.3120
 6938SOL     OW32449   1.179   3.109   6.224  0.0046 -0.3780 -0.3505
 6938SOL    HW132450   1.232   3.185   6.197  0.1044 -0.7582 -1.2113
 6938SOL    HW232451   1.194   3.106   6.318  2.3799 -0.3037 -0.7184
 6939SOL     OW32452   0.568   2.860   2.825 -0.0066  0.2580  0.0767
 6939SOL    HW132453   0.601   2.893   2.908 -3.5259  2.2373  0.6811
 6939SOL    HW232454   0.597   2.933   2.769  1.0986  0.3544  0.7851
 6940SOL     OW32455   4.253   2.566   1.937 -0.5711 -0.8068  0.5114
 6940SOL    HW132456   4.185   2.557   1.870  0.7019 -0.7978 -0.7876
 6940SOL    HW232457   4.286   2.476   1.934  1.2761 -0.1861  2.7065
 6941SOL     OW32458   1.398   4.318   1.274 -0.1994 -0.2895 -0.2300
 6941SOL    HW132459   1.437   4.297   1.189  0.2686  0.1109 -0.1190
 6941SOL    HW232460   1.469   4.288   1.331 -1.0247  0.4985  1.2006
 6942SOL     OW32461   1.774   0.136   5.086 -0.6942 -0.1723 -0.5084
 6942SOL    HW132462   1.817   0.108   5.005  0.2615  1.4697 -0.5618
 6942SOL    HW232463   1.810   0.070   5.146  1.2387  1.6011  0.3107
 6943SOL     OW32464   4.577   3.396  12.852 -0.1676  0.5624 -0.0552
 6943SOL    HW132465   4.578   3.302  12.867 -2.7635  0.6788  0.7630
 6943SOL    HW232466   4.486   3.417  12.872 -0.1032  1.7775 -1.0145
 6944SOL     OW32467   3.457   3.177   2.351 -0.7936 -0.1080  0.1309
 6944SOL    HW132468   3.470   3.226   2.432  1.3434  0.0683 -0.3360
 6944SOL    HW232469   3.536   3.183   2.298 -1.4739  2.9764 -0.5096
 6945SOL     OW32470   0.886   0.207   1.363 -0.2377 -0.5288  0.4830
 6945SOL    HW132471   0.836   0.132   1.330 -2.0568  0.4688  0.9495
 6945SOL    HW232472   0.937   0.159   1.429  1.8849 -0.0078 -0.7732
 6946SOL     OW32473   2.530   1.779   4.155 -0.3923 -0.0800  0.0722
 6946SOL    HW132474   2.435   1.777   4.172 -0.0380  1.8656  2.2672
 6946SOL    HW232475   2.556   1.843   4.221  2.3818 -1.2115  0.0790
 6947SOL     OW32476   4.604   1.550   5.104  0.1011  0.3430  0.4041
 6947SOL    HW132477   4.578   1.485   5.169 -1.7003  0.0813 -0.5683
 6947SOL    HW232478   4.600   1.628   5.159  1.3468  1.1176 -0.5938
 6948SOL     OW32479   3.693   3.731   1.684 -0.2398  0.2836  0.5262
 6948SOL    HW132480   3.599   3.748   1.691 -0.3501  0.1082 -0.5744
 6948SOL    HW232481   3.716   3.760   1.773  2.6846  0.5370 -0.2889
 6949SOL     OW32482   4.250   0.086   8.070  0.0244 -0.5117  0.4840
 6949SOL    HW132483   4.159   0.060   8.084  0.0431 -0.5015  0.6295
 6949SOL    HW232484   4.287   4.733   8.087 -0.1808 -1.0299 -1.7838
 6950SOL     OW32485   1.563   3.950   1.000  0.2497  0.3431  0.4672
 6950SOL    HW132486   1.647   3.904   1.007  0.8615  1.7212  2.1285
 6950SOL    HW232487   1.536   3.947   1.092 -0.2693 -0.1762  0.2960
 6951SOL     OW32488   2.166   2.554   4.999  0.1888 -0.2329  0.4956
 6951SOL    HW132489   2.232   2.570   5.066 -0.9870  0.9385  1.3827
 6951SOL    HW232490   2.160   2.643   4.964  0.3286 -0.5958 -0.4593
 6952SOL     OW32491   1.242   2.848   8.563 -0.1724 -0.2045 -0.3029
 6952SOL    HW132492   1.322   2.898   8.581  0.4262 -0.6572 -1.6729
 6952SOL    HW232493   1.216   2.882   8.478 -0.2769 -2.6886 -1.2713
 6953SOL     OW32494   3.262   3.720  16.476  0.0859  0.0592 -0.0985
 6953SOL    HW132495   3.247   3.654  16.408  0.2930 -0.3770  0.2830
 6953SOL    HW232496   3.172   3.750  16.492 -0.2504 -1.2713  0.4779
 6954SOL     OW32497   4.633   3.634   1.316  0.4915 -0.1700  0.8253
 6954SOL    HW132498   4.728   3.622   1.316  0.6534  1.0618  2.8475
 6954SOL    HW232499   4.619   3.696   1.388 -0.1568  0.8269 -0.1423
 6955SOL     OW32500   4.334   2.563   3.348  0.0884  0.2403  0.4478
 6955SOL    HW132501   4.363   2.612   3.271 -0.9418  0.8727  0.4555
 6955SOL    HW232502   4.325   2.476   3.309  2.0811 -0.0115  0.5617
 6956SOL     OW32503   3.012   3.553   5.568 -0.2716  0.1962 -0.0200
 6956SOL    HW132504   3.018   3.638   5.523 -1.8201  0.5089  0.3989
 6956SOL    HW232505   3.090   3.505   5.539 -1.6234 -1.3868 -1.0879
 6957SOL     OW32506   3.961   0.672   9.475  0.0307  0.6630  0.0394
 6957SOL    HW132507   3.986   0.581   9.459 -2.5902  0.2993 -2.0097
 6957SOL    HW232508   3.939   0.668   9.568 -1.2694  1.5352 -0.2275
 6958SOL     OW32509   0.387   4.337   4.629  0.3706  0.3028 -0.1730
 6958SOL    HW132510   0.402   4.279   4.704  1.2651 -0.2378 -0.7848
 6958SOL    HW232511   0.477   4.348   4.599 -0.0847  1.8070 -1.0029
 6959SOL     OW32512   4.046   2.842  16.181  0.3698 -0.2082 -0.1685
 6959SOL    HW132513   4.038   2.938  16.176  0.9051 -0.2887 -2.4642
 6959SOL    HW232514   4.040   2.805  16.093 -1.1829  0.4001 -0.3384
 6960SOL     OW32515   0.351   0.334   5.755 -0.0036  0.1258  0.2517
 6960SOL    HW132516   0.415   0.360   5.821 -0.4331 -0.2229  0.8013
 6960SOL    HW232517   0.348   0.238   5.756  0.1049  0.1068 -1.1262
 6961SOL     OW32518   4.658   0.659   5.527  0.0576  0.1438 -0.0970
 6961SOL    HW132519   4.629   0.584   5.580  2.6518 -0.0082  1.1188
 6961SOL    HW232520   4.683   0.617   5.444 -1.2723 -0.5005 -0.1741
 6962SOL     OW32521   4.702   3.051  15.679 -0.5658 -0.4258 -0.3740
 6962SOL    HW132522   4.712   2.987  15.750 -0.2373  0.6095  0.4990
 6962SOL    HW232523   4.714   2.999  15.600  3.3388 -2.0369  1.2752
 6963SOL     OW32524   3.361   0.160  11.753 -0.4351  1.1359  0.6277
 6963SOL    HW132525   3.392   0.248  11.774 -0.9734  1.7596 -1.1780
 6963SOL    HW232526   3.418   0.131  11.681 -1.5280 -1.4346  0.7907
 6964SOL     OW32527   4.586   0.267   2.461 -0.4611  0.0485 -0.0098
 6964SOL    HW132528   4.528   0.235   2.392  1.0423 -0.1737 -1.1703
 6964SOL    HW232529   4.662   0.209   2.455 -1.5678 -1.4717  0.7313
 6965SOL     OW32530   2.025   1.558  13.320 -0.3665 -0.2833 -0.3562
 6965SOL    HW132531   2.107   1.518  13.289 -1.1900 -1.2966 -1.2241
 6965SOL    HW232532   2.053   1.596  13.403 -1.2604 -0.2329 -0.0791
 6966SOL     OW32533   2.802   3.816   7.300 -0.3003  0.0507 -0.3849
 6966SOL    HW132534   2.813   3.788   7.209 -2.0192 -0.6299 -0.3736
 6966SOL    HW232535   2.853   3.748   7.344  1.6798  1.7740 -0.0217
 6967SOL     OW32536   4.569   2.750   6.263 -0.3947  0.0782 -0.1129
 6967SOL    HW132537   4.477   2.759   6.289 -0.5097 -0.3908 -0.3468
 6967SOL    HW232538   4.584   2.655   6.265  1.3468  0.4077  2.1192
 6968SOL     OW32539   0.768   0.272   1.905 -0.6466  0.2355 -0.0305
 6968SOL    HW132540   0.732   0.307   1.987 -1.2224  0.5608 -0.4164
 6968SOL    HW232541   0.765   0.181   1.935 -0.7327 -0.1446 -1.1905
 6969SOL     OW32542   3.764   0.542   7.530  0.1417 -0.4068 -0.2860
 6969SOL    HW132543   3.805   0.457   7.547  0.7223  0.1998  1.3057
 6969SOL    HW232544   3.829   0.579   7.470 -0.8441  2.7252  0.6053
 6970SOL     OW32545   0.952   2.573   7.897 -0.1204 -0.3165 -0.1754
 6970SOL    HW132546   1.044   2.593   7.878  0.6035 -0.2683  3.3932
 6970SOL    HW232547   0.916   2.661   7.912  0.4834 -0.4235  1.9201
 6971SOL     OW32548   3.775   1.497   4.382 -0.2010  0.0345 -0.3910
 6971SOL    HW132549   3.759   1.558   4.311  2.2621  1.0008 -0.1021
 6971SOL    HW232550   3.701   1.439   4.361  0.9439 -2.1468  1.5606
 6972SOL     OW32551   4.438   3.548  16.817  0.2993 -0.2751  0.5217
 6972SOL    HW132552   4.439   3.627  16.870 -2.4224  1.6773 -2.3409
 6972SOL    HW232553   4.359   3.563  16.765  0.9446 -0.0658 -0.4091
 6973SOL     OW32554   0.459   1.831  12.024 -0.9863  0.3731  0.1756
 6973SOL    HW132555   0.495   1.899  11.967  1.1726  0.6245  1.8518
 6973SOL    HW232556   0.398   1.888  12.070 -0.7144  0.4533  0.4379
 6974SOL     OW32557   0.930   0.501  17.695  0.1735 -0.1953  0.1688
 6974SOL    HW132558   0.865   0.543   0.016 -0.7724 -1.6946  0.1764
 6974SOL    HW232559   0.889   0.415  17.689  0.7376 -0.3140 -2.0173
 6975SOL     OW32560   3.519   3.375   3.868 -0.1969 -0.2361 -0.1101
 6975SOL    HW132561   3.517   3.467   3.842 -0.1416 -0.3331 -0.4502
 6975SOL    HW232562   3.423   3.370   3.873 -0.2041 -2.1074 -2.1761
 6976SOL     OW32563   4.232   1.130   1.409 -0.8532 -0.1732 -0.4066
 6976SOL    HW132564   4.291   1.056   1.394  0.8813  1.0011  0.5967
 6976SOL    HW232565   4.276   1.189   1.347 -0.7042  0.6669  0.5059
 6977SOL     OW32566   4.625   3.774   3.456 -0.5440 -0.0129  0.7976
 6977SOL    HW132567   4.586   3.789   3.370  0.5133  1.4163  0.5694
 6977SOL    HW232568   4.559   3.808   3.516 -1.2661 -0.4699  0.2669
 6978SOL     OW32569   1.151   3.072   5.526 -0.0123 -0.2536  0.0402
 6978SOL    HW132570   1.114   3.149   5.570 -0.8323 -0.7673  0.2476
 6978SOL    HW232571   1.070   3.039   5.487  0.5535 -1.9313  0.2901
 6979SOL     OW32572   0.573   2.979   5.199 -0.4945 -0.3597  0.2656
 6979SOL    HW132573   0.558   2.964   5.293  0.7135  1.8004  0.8136
 6979SOL    HW232574   0.496   3.032   5.179  1.3869  1.7602 -1.4354
 6980SOL     OW32575   1.725   1.819   6.341 -0.6103  0.0451  0.1744
 6980SOL    HW132576   1.759   1.825   6.252 -0.2743 -1.0759  0.2299
 6980SOL    HW232577   1.633   1.806   6.317 -0.6582  1.5252 -0.4463
 6981SOL     OW32578   2.769   4.473   4.761 -0.1980  0.5118  0.2514
 6981SOL    HW132579   2.793   4.401   4.703  0.7877  1.8723 -1.0343
 6981SOL    HW232580   2.676   4.456   4.770 -0.1948 -0.2729 -1.2108
 6982SOL     OW32581   0.964   0.732   4.872  0.2392 -0.1736  0.0011
 6982SOL    HW132582   1.012   0.814   4.883  0.7178 -0.4978  0.2997
 6982SOL    HW232583   1.037   0.674   4.853  1.4665  0.9677  1.1967
 6983SOL     OW32584   3.057   0.063   5.431 -0.2694  0.5469  0.3142
 6983SOL    HW132585   3.116   0.138   5.419 -0.5527  0.2667 -2.7057
 6983SOL    HW232586   3.109   4.732   5.479  1.4485  1.7975  0.1591
 6984SOL     OW32587   4.141   4.141   4.505 -0.4595  0.2622  0.4580
 6984SOL    HW132588   4.147   4.067   4.566  1.0977 -1.4924 -1.8244
 6984SOL    HW232589   4.220   4.132   4.452 -0.4691  0.5327  0.3987
 6985SOL     OW32590   4.059   1.367  15.988  0.2128  0.1728 -0.3803
 6985SOL    HW132591   4.091   1.381  16.077  2.7153 -0.8866 -1.0911
 6985SOL    HW232592   3.967   1.354  16.010 -0.1032  0.9355 -1.2093
 6986SOL     OW32593   3.459   0.037   7.501  0.2163  0.2683 -0.2911
 6986SOL    HW132594   3.420   4.732   7.579  2.2094 -1.2023 -0.0263
 6986SOL    HW232595   3.402   0.013   7.428 -1.2277 -2.5121  1.7583
 6987SOL     OW32596   3.445   3.657   4.386 -0.5237  0.0646 -0.7078
 6987SOL    HW132597   3.399   3.580   4.354 -1.0979  0.1317 -0.0377
 6987SOL    HW232598   3.368   3.705   4.416  1.9089  2.7089  1.2888
 6988SOL     OW32599   4.719   0.691   9.332 -0.0956 -0.3463 -0.1165
 6988SOL    HW132600   0.002   0.598   9.322  2.9194  0.0552  1.3227
 6988SOL    HW232601   0.043   0.692   9.408 -1.9758  1.2751  1.2736
 6989SOL     OW32602   0.094   3.936  10.678  0.3358 -0.3117 -0.2029
 6989SOL    HW132603   0.147   3.861  10.652 -1.6867 -1.3432 -1.3881
 6989SOL    HW232604   0.147   3.972  10.749 -1.2749  1.4828  0.0836
 6990SOL     OW32605   4.159   4.317  11.993  0.3345  0.0646  0.2543
 6990SOL    HW132606   4.111   4.395  12.022 -0.5280 -0.2217 -0.4217
 6990SOL    HW232607   4.190   4.341  11.906 -0.7945  0.1176 -0.1283
 6991SOL     OW32608   3.808   4.038   5.384  0.3097 -0.1373 -0.0979
 6991SOL    HW132609   3.715   4.023   5.369  0.4722 -1.0722 -0.2032
 6991SOL    HW232610   3.826   3.980   5.458  2.8748 -1.1275 -1.4871
 6992SOL     OW32611   3.375   2.317  12.494  0.5433  0.3334 -0.0170
 6992SOL    HW132612   3.314   2.276  12.556 -0.2996 -0.0792 -1.0990
 6992SOL    HW232613   3.386   2.242  12.435 -2.1638 -0.9845  1.1337
 6993SOL     OW32614   3.869   0.893   2.710 -0.0711 -0.2314 -0.0041
 6993SOL    HW132615   3.825   0.948   2.774 -1.3318 -0.8872 -0.3207
 6993SOL    HW232616   3.956   0.933   2.700  0.5079 -1.3471  0.4937
 6994SOL     OW32617   2.438   0.258  11.445  0.7229 -0.0905 -0.0563
 6994SOL    HW132618   2.476   0.339  11.413  1.2738  1.0213  3.3975
 6994SOL    HW232619   2.525   0.222  11.463  1.0928  0.4934 -0.6896
 6995SOL     OW32620   4.517   4.036   2.378 -0.0519  0.5255  0.2393
 6995SOL    HW132621   4.494   3.951   2.340  3.3137  0.9138 -2.6395
 6995SOL    HW232622   4.434   4.065   2.418  0.7155 -0.9513  2.9289
 6996SOL     OW32623   4.147   0.190   2.497  1.4102 -0.0787 -0.0169
 6996SOL    HW132624   4.058   0.214   2.523  1.0921 -0.1915 -0.9801
 6996SOL    HW232625   4.202   0.236   2.559  1.5993 -1.9865  1.2367
 6997SOL     OW32626   0.357   2.526  12.202  0.1762 -0.4263  0.1322
 6997SOL    HW132627   0.274   2.557  12.239  0.9927  1.6187  0.2462
 6997SOL    HW232628   0.394   2.485  12.280 -0.1166  1.6842  1.3941
 6998SOL     OW32629   3.016   4.112   9.856  0.5555  0.1114  0.2828
 6998SOL    HW132630   2.954   4.067   9.914  1.7261 -0.1638  1.3272
 6998SOL    HW232631   3.091   4.125   9.914  0.7076  2.6652 -0.5069
 6999SOL     OW32632   2.645   3.995  13.931  0.0592  0.0360  0.8278
 6999SOL    HW132633   2.621   4.082  13.963 -1.2380  0.1099 -0.3232
 6999SOL    HW232634   2.669   4.015  13.840  0.3618 -0.3543  0.8255
 7000SOL     OW32635   2.133   0.646   5.948 -0.2075 -0.8213 -0.2629
 7000SOL    HW132636   2.215   0.642   5.897  0.7174  2.2591  1.0043
 7000SOL    HW232637   2.149   0.716   6.011 -1.1601 -0.0271 -0.9122
 7001SOL     OW32638   0.302   0.600   5.982 -0.5180 -0.2752  0.2836
 7001SOL    HW132639   0.220   0.575   5.941 -1.0481 -1.4870  2.0470
 7001SOL    HW232640   0.365   0.530   5.960 -0.5947 -0.1675 -0.2592
 7002SOL     OW32641   0.255   3.166   7.863  0.0684 -0.1828 -0.3111
 7002SOL    HW132642   0.288   3.124   7.783  2.8622  1.6529 -0.1331
 7002SOL    HW232643   0.164   3.162   7.836 -0.1404  2.4444  0.0087
 7003SOL     OW32644   0.664   1.876   8.572  0.0803  0.3373 -0.1913
 7003SOL    HW132645   0.743   1.827   8.550 -0.2849 -0.6826  0.7722
 7003SOL    HW232646   0.656   1.862   8.666 -0.3923  1.1634 -0.0980
 7004SOL     OW32647   4.607   1.229   6.357  0.1548  0.0634  0.5621
 7004SOL    HW132648   4.696   1.196   6.350  0.2668  0.1890  1.3962
 7004SOL    HW232649   4.595   1.215   6.451 -0.6278  2.3979  0.8119
 7005SOL     OW32650   2.255   4.358  16.783  0.2526 -0.5417  0.3846
 7005SOL    HW132651   2.254   4.393  16.872  1.5067 -0.9865  0.5660
 7005SOL    HW232652   2.170   4.370  16.741  0.3860 -1.4199 -0.1388
 7006SOL     OW32653   0.637   1.409   6.162  0.3010  0.0396 -0.1110
 7006SOL    HW132654   0.626   1.324   6.118 -0.4600  0.9763 -1.7318
 7006SOL    HW232655   0.555   1.411   6.210  0.2000  0.7381 -0.3206
 7007SOL     OW32656   2.336   0.810  10.132 -0.1882 -0.1610 -0.5716
 7007SOL    HW132657   2.351   0.869  10.206 -0.1306 -0.3838 -0.4032
 7007SOL    HW232658   2.262   0.854  10.091  1.8068  2.7698 -1.0302
 7008SOL     OW32659   4.154   4.615   6.192 -1.0416  0.5163  0.6338
 7008SOL    HW132660   4.187   4.535   6.151 -2.7045 -0.4471  1.1431
 7008SOL    HW232661   4.126   4.570   6.271  0.9610  1.0736  1.6503
 7009SOL     OW32662   2.139   1.190   5.603 -0.4195  0.5868 -0.5944
 7009SOL    HW132663   2.164   1.266   5.551  0.9417  1.0483  0.7177
 7009SOL    HW232664   2.059   1.170   5.555 -0.3529  1.2628 -0.9765
 7010SOL     OW32665   2.896   0.915   4.021  0.7367  0.0710  0.0369
 7010SOL    HW132666   2.811   0.957   4.014  0.5691 -0.1345  0.8380
 7010SOL    HW232667   2.923   0.957   4.103 -0.5498  1.5120 -0.2751
 7011SOL     OW32668   2.820   4.410   0.196 -0.6624 -0.5197  0.5416
 7011SOL    HW132669   2.822   4.392   0.102 -1.1613 -0.8307  0.5921
 7011SOL    HW232670   2.730   4.378   0.206 -0.2692 -1.8192 -0.0927
 7012SOL     OW32671   1.303   2.450   6.443  0.2378 -0.6626 -0.2923
 7012SOL    HW132672   1.393   2.469   6.468  0.4817 -1.3777 -0.6319
 7012SOL    HW232673   1.300   2.480   6.352  0.5224  1.9183  0.5380
 7013SOL     OW32674   3.547   2.198   9.365 -1.0967  0.0899  0.0240
 7013SOL    HW132675   3.487   2.154   9.425 -0.8140  0.3348  0.4794
 7013SOL    HW232676   3.581   2.274   9.411 -0.1630 -1.2323  1.5357
 7014SOL     OW32677   4.205   1.475   0.814  0.1910  0.0913 -0.3967
 7014SOL    HW132678   4.293   1.509   0.799 -0.0527  1.1090  0.4897
 7014SOL    HW232679   4.215   1.391   0.770 -2.8575  0.1136 -1.1073
 7015SOL     OW32680   2.405   2.865   0.761 -0.3838  0.0544  0.0660
 7015SOL    HW132681   2.358   2.823   0.834 -1.4113  1.0119 -0.0457
 7015SOL    HW232682   2.339   2.908   0.707 -1.9494 -1.4235  0.7705
 7016SOL     OW32683   0.719   1.042   1.479 -0.0667  0.3166  0.1217
 7016SOL    HW132684   0.777   1.116   1.495 -0.5349  0.5741  0.6294
 7016SOL    HW232685   0.654   1.039   1.549 -1.1748  0.1522 -0.9020
 7017SOL     OW32686   1.572   3.970   7.643  0.4408  0.3537  0.0883
 7017SOL    HW132687   1.517   4.033   7.597 -0.5702 -1.6777 -1.4785
 7017SOL    HW232688   1.509   3.899   7.634 -0.6019  1.2546  0.2414
 7018SOL     OW32689   4.067   2.663   3.275  0.6948 -0.2302  0.3601
 7018SOL    HW132690   4.153   2.635   3.308  0.5044  0.1951  1.2313
 7018SOL    HW232691   4.083   2.706   3.191 -0.5928  0.5338  0.5143
 7019SOL     OW32692   0.738   1.178  10.206  0.9501  0.3711  0.1990
 7019SOL    HW132693   0.780   1.117  10.146  0.4429  0.2538 -0.0319
 7019SOL    HW232694   0.644   1.173  10.187  1.3244  1.5456 -1.9672
 7020SOL     OW32695   4.098   0.996   4.367  0.7702  0.7048 -0.3840
 7020SOL    HW132696   4.006   0.973   4.382  0.3257  3.3559  1.1276
 7020SOL    HW232697   4.146   0.938   4.426 -2.0114 -0.1742  1.0231
 7021SOL     OW32698   1.581   2.471   6.415  0.2289  0.4932  0.7334
 7021SOL    HW132699   1.669   2.437   6.397  0.9791  1.9235  1.7826
 7021SOL    HW232700   1.592   2.566   6.417  0.0921  0.5808 -1.8443
 7022SOL     OW32701   2.492   4.145  11.586 -0.4596  0.2791 -0.7625
 7022SOL    HW132702   2.533   4.059  11.575  2.3078  1.7213 -1.8039
 7022SOL    HW232703   2.418   4.122  11.531 -0.5384 -0.7091 -0.2504
 7023SOL     OW32704   3.430   1.334   7.087  0.1255 -0.2773  0.2456
 7023SOL    HW132705   3.520   1.348   7.116 -0.0113  0.2634  0.4088
 7023SOL    HW232706   3.395   1.290   7.164 -0.5250 -0.3472 -0.0907
 7024SOL     OW32707   2.975   4.288   8.271 -0.3982  0.3743  0.0591
 7024SOL    HW132708   3.067   4.314   8.259 -0.1795 -0.5075 -0.2113
 7024SOL    HW232709   2.931   4.364   8.234 -0.4654 -0.1171 -0.8747
 7025SOL     OW32710   1.376   3.041   3.215 -0.1534  0.3309  0.2081
 7025SOL    HW132711   1.435   3.041   3.140 -1.1978 -1.0558 -0.6198
 7025SOL    HW232712   1.345   3.131   3.205 -2.6476 -0.5937 -0.4375
 7026SOL     OW32713   3.050   1.791   4.877  0.1463 -0.6971 -0.3159
 7026SOL    HW132714   3.078   1.700   4.887 -1.0047 -0.9268  0.9113
 7026SOL    HW232715   2.963   1.774   4.842 -0.1465 -0.3043  0.2222
 7027SOL     OW32716   1.839   3.927   2.421 -0.1990 -0.1606 -0.3468
 7027SOL    HW132717   1.756   3.880   2.411 -0.7687  0.4490  1.5457
 7027SOL    HW232718   1.806   4.014   2.443 -1.1258 -0.4750 -0.5066
 7028SOL     OW32719   1.506   3.617   8.494 -0.0609  0.2450  0.1331
 7028SOL    HW132720   1.505   3.565   8.574 -0.0594  0.0911  0.0321
 7028SOL    HW232721   1.591   3.660   8.501  0.5684 -0.6355 -2.2092
 7029SOL     OW32722   0.532   3.118   2.103  0.7696 -0.6746 -0.6516
 7029SOL    HW132723   0.493   3.202   2.081  1.9847  0.2651  0.7974
 7029SOL    HW232724   0.491   3.051   2.047  1.6683 -0.4969 -1.5122
 7030SOL     OW32725   0.989   1.189   6.048  0.1304 -0.1420  0.2723
 7030SOL    HW132726   1.032   1.149   6.124  0.0279  0.3639  0.5934
 7030SOL    HW232727   0.897   1.186   6.075  0.8180  2.3547  2.9081
 7031SOL     OW32728   0.861   4.227  10.081 -0.5343  0.2841 -0.5540
 7031SOL    HW132729   0.920   4.287  10.126 -1.0981  1.1027 -0.9138
 7031SOL    HW232730   0.794   4.205  10.146 -0.1119 -0.3152 -0.3193
 7032SOL     OW32731   1.246   2.639  17.360 -0.6035  0.4066  0.1660
 7032SOL    HW132732   1.252   2.657  17.266 -0.6131 -1.1790 -0.1421
 7032SOL    HW232733   1.334   2.607  17.381 -0.5763  1.5678  1.8221
 7033SOL     OW32734   4.273   4.084   5.145 -0.3810  0.2106 -0.6489
 7033SOL    HW132735   4.203   4.048   5.199  0.3643 -0.5675 -0.2089
 7033SOL    HW232736   4.282   4.176   5.169  0.3167 -0.6883  2.5192
 7034SOL     OW32737   3.792   1.336   9.143 -0.0972 -0.3321 -0.5952
 7034SOL    HW132738   3.860   1.361   9.080  2.4867 -0.5009  2.1818
 7034SOL    HW232739   3.715   1.347   9.086  0.5834  2.5924 -0.9370
 7035SOL     OW32740   0.931   2.798  11.617  0.2903  0.2633  0.2641
 7035SOL    HW132741   1.021   2.804  11.649  1.0902 -0.0185 -2.0002
 7035SOL    HW232742   0.880   2.790  11.698 -0.4083  0.1518 -0.1874
 7036SOL     OW32743   2.238   1.705  15.756  0.8378 -0.2442  0.0904
 7036SOL    HW132744   2.249   1.778  15.817 -1.5438 -0.6157  0.9682
 7036SOL    HW232745   2.263   1.629  15.810 -1.1543 -0.3489  0.8519
 7037SOL     OW32746   0.783   2.773   4.884  0.0229 -0.0668  0.3543
 7037SOL    HW132747   0.734   2.732   4.955  1.6174 -0.2540  1.3534
 7037SOL    HW232748   0.867   2.731   4.902  0.3588  2.0423  3.8313
 7038SOL     OW32749   3.514   2.742   3.454  0.6841 -0.1429 -0.0975
 7038SOL    HW132750   3.462   2.819   3.432  2.2728  1.2102  0.9662
 7038SOL    HW232751   3.587   2.787   3.495 -1.4585  0.3639  3.1986
 7039SOL     OW32752   1.813   3.263   2.661  0.0444  0.0191  0.0156
 7039SOL    HW132753   1.860   3.259   2.578  1.3704  1.7536  0.6813
 7039SOL    HW232754   1.843   3.348   2.693  1.5567 -0.4152 -0.2575
 7040SOL     OW32755   1.935   4.698   4.691 -0.1823 -0.1170  0.4999
 7040SOL    HW132756   1.982   0.020   4.630 -2.1479  1.2154  0.2021
 7040SOL    HW232757   1.999   4.629   4.709 -0.3509 -0.1561  0.9766
 7041SOL     OW32758   4.068   0.299   6.930  0.8364 -0.2226 -0.5264
 7041SOL    HW132759   4.034   0.219   6.890 -0.0118  0.4806 -1.2213
 7041SOL    HW232760   4.052   0.366   6.863 -1.7571  1.1543  1.4613
 7042SOL     OW32761   0.727   4.673  16.016  0.0433  0.2625 -0.2177
 7042SOL    HW132762   0.717   4.588  15.973 -1.9996 -0.6803  2.1178
 7042SOL    HW232763   0.685   4.732  15.953 -1.8987  0.2176  1.0233
 7043SOL     OW32764   2.701   3.951   3.367  0.2592 -0.1060 -0.2367
 7043SOL    HW132765   2.666   3.960   3.456 -1.9764 -0.0987 -1.1228
 7043SOL    HW232766   2.620   3.964   3.319 -0.1309  0.3250  0.5340
 7044SOL     OW32767   1.865   3.617   5.877  0.1984 -0.3113 -0.2127
 7044SOL    HW132768   1.785   3.669   5.888 -0.8054 -1.8702 -0.0011
 7044SOL    HW232769   1.924   3.688   5.853  0.3733 -0.1778  0.6107
 7045SOL     OW32770   0.775   4.349   7.065 -0.0521 -0.3891  0.0947
 7045SOL    HW132771   0.739   4.370   7.151 -0.7456 -1.6172  0.1042
 7045SOL    HW232772   0.868   4.362   7.083  0.1949 -0.6555 -0.9791
 7046SOL     OW32773   1.272   0.461  15.175 -0.0654  0.1875 -0.0577
 7046SOL    HW132774   1.285   0.385  15.118  1.7568 -0.7555  1.6302
 7046SOL    HW232775   1.350   0.459  15.231 -0.4809 -1.0404  0.4683
 7047SOL     OW32776   4.225   1.554   0.511 -0.2793  0.1101 -0.1115
 7047SOL    HW132777   4.192   1.623   0.454 -2.2367 -0.1700  0.7017
 7047SOL    HW232778   4.172   1.475   0.497  0.4560  0.3204 -4.2841
 7048SOL     OW32779   1.120   1.430   5.974  0.0424 -0.5812 -0.2206
 7048SOL    HW132780   1.042   1.475   5.940  0.4803  0.5753  0.3215
 7048SOL    HW232781   1.091   1.343   6.000  0.6851 -0.6354  0.3011
 7049SOL     OW32782   1.504   4.210   5.935  0.2592 -0.0157  0.3040
 7049SOL    HW132783   1.410   4.205   5.917  0.4578 -0.7505 -0.5242
 7049SOL    HW232784   1.511   4.306   5.932 -2.5676  0.1613 -0.2400
 7050SOL     OW32785   3.636   3.922  14.219  0.2356  0.4794  0.3353
 7050SOL    HW132786   3.555   3.872  14.231  1.1602 -1.4725 -1.4843
 7050SOL    HW232787   3.603   4.007  14.247  2.9599  2.0250 -1.1086
 7051SOL     OW32788   2.566   1.281   1.671 -0.3618 -0.4626 -0.3343
 7051SOL    HW132789   2.513   1.234   1.607  1.2964 -0.3828 -1.7783
 7051SOL    HW232790   2.651   1.296   1.630  0.0973 -2.7249 -0.2128
 7052SOL     OW32791   1.179   0.504   5.891  0.1666  0.0700  0.1303
 7052SOL    HW132792   1.199   0.598   5.891  0.7170 -0.0451 -0.4557
 7052SOL    HW232793   1.165   0.477   5.800  3.6336 -0.6410 -0.1871
 7053SOL     OW32794   3.499   1.592   7.315 -0.1663 -0.6653 -0.3748
 7053SOL    HW132795   3.444   1.646   7.258 -2.0573 -1.3119  0.8379
 7053SOL    HW232796   3.559   1.649   7.362  0.6059 -0.1560 -1.9935
 7054SOL     OW32797   4.622   1.898   3.350  0.2261 -0.2432 -0.5263
 7054SOL    HW132798   4.713   1.877   3.327 -0.2218 -2.2596 -0.5159
 7054SOL    HW232799   4.605   1.874   3.441 -0.8117 -0.5918 -0.8065
 7055SOL     OW32800   3.488   4.060   2.896  0.1677 -0.7149  0.2805
 7055SOL    HW132801   3.536   3.989   2.939  1.3471  0.0829  0.2891
 7055SOL    HW232802   3.432   4.077   2.972 -0.6570 -2.6100  0.0743
 7056SOL     OW32803   1.362   2.623   1.595  0.0807  0.2833  0.5599
 7056SOL    HW132804   1.412   2.632   1.676 -1.6041  0.4648  1.5816
 7056SOL    HW232805   1.436   2.605   1.537 -0.4355  0.0648 -0.0416
 7057SOL     OW32806   1.938   3.738   6.332 -0.3858  0.2964 -0.1885
 7057SOL    HW132807   1.862   3.795   6.347 -1.5105 -1.1217 -0.4420
 7057SOL    HW232808   1.996   3.799   6.288 -0.6722  1.9291  1.7217
 7058SOL     OW32809   0.658   4.142   7.881 -0.0490 -0.1207 -0.0655
 7058SOL    HW132810   0.682   4.089   7.957  0.7166  2.0122  1.1717
 7058SOL    HW232811   0.576   4.178   7.915  0.5154  0.8730  0.2591
 7059SOL     OW32812   3.620   4.447  14.635 -0.2187  0.6569 -0.6202
 7059SOL    HW132813   3.603   4.523  14.580  0.2293  1.3844  0.2646
 7059SOL    HW232814   3.531   4.424  14.661 -0.3088  1.3660 -0.3045
 7060SOL     OW32815   0.941   4.603   9.026 -0.1545 -0.0426 -0.8058
 7060SOL    HW132816   0.890   4.536   9.071 -0.9193  1.5007  0.6253
 7060SOL    HW232817   0.925   4.571   8.937 -1.2474  1.1679 -1.0432
 7061SOL     OW32818   1.220   4.194  10.309 -0.1536  0.0684  0.7120
 7061SOL    HW132819   1.269   4.120  10.346 -0.1603 -0.4528 -0.3259
 7061SOL    HW232820   1.276   4.194  10.231 -0.8280  0.8988  0.2394
 7062SOL     OW32821   1.184   3.594  16.031  0.5104  0.0359  0.1218
 7062SOL    HW132822   1.182   3.681  15.991 -1.5518  0.6987  1.6689
 7062SOL    HW232823   1.161   3.537  15.957 -1.3874  1.2721 -0.2554
 7063SOL     OW32824   1.892   0.998   7.939  0.0040  0.0984  0.1722
 7063SOL    HW132825   1.857   1.081   7.972  1.6641  0.1468  1.8294
 7063SOL    HW232826   1.914   1.015   7.847 -1.8797 -2.3115 -0.7300
 7064SOL     OW32827   2.541   3.962  16.346 -0.2463 -0.3641 -0.4073
 7064SOL    HW132828   2.564   3.904  16.418  3.2731  0.8156 -0.5556
 7064SOL    HW232829   2.446   3.956  16.351 -0.1401  0.0808  2.0588
 7065SOL     OW32830   1.261   3.785   6.182  0.4601  0.1750 -0.6602
 7065SOL    HW132831   1.200   3.721   6.218 -0.3735  0.8880 -0.8280
 7065SOL    HW232832   1.236   3.868   6.222 -0.7954 -0.4360 -0.2081
 7066SOL     OW32833   2.602   4.191  13.458  0.1513 -0.3169  0.4621
 7066SOL    HW132834   2.675   4.184  13.397  0.9425  1.9733  1.1711
 7066SOL    HW232835   2.538   4.215  13.391  1.1984  0.2107 -0.3379
 7067SOL     OW32836   3.392   3.977   8.535  0.9237  0.6018 -0.2274
 7067SOL    HW132837   3.435   3.952   8.617 -0.8754  2.8738  1.4019
 7067SOL    HW232838   3.375   3.888   8.504  0.0300  0.2186  1.3546
 7068SOL     OW32839   3.304   0.923  13.429  0.2633 -0.4115 -0.0778
 7068SOL    HW132840   3.297   1.000  13.485  0.7571  0.7751 -1.6655
 7068SOL    HW232841   3.376   0.879  13.474  0.9120  0.1767 -0.5429
 7069SOL     OW32842   1.830   2.044   5.443 -0.0482  0.1649 -0.6695
 7069SOL    HW132843   1.895   1.974   5.449 -0.1922  0.0500 -0.4073
 7069SOL    HW232844   1.877   2.121   5.411  1.9553 -1.5926 -1.9173
 7070SOL     OW32845   3.803   2.119  11.959 -0.0559 -0.1050  0.3435
 7070SOL    HW132846   3.865   2.074  12.016 -0.3156 -2.0701 -0.9359
 7070SOL    HW232847   3.734   2.152  12.017 -0.0573  1.0087 -0.2872
 7071SOL     OW32848   4.404   3.263   2.126 -0.1595  0.5597 -0.5968
 7071SOL    HW132849   4.352   3.342   2.143 -0.0637  0.4321  0.3309
 7071SOL    HW232850   4.423   3.235   2.216 -0.9658  0.1792 -0.5479
 7072SOL     OW32851   0.473   1.293   5.792  0.1665 -0.2041  0.1372
 7072SOL    HW132852   0.418   1.238   5.736  0.2584 -1.0764  0.8948
 7072SOL    HW232853   0.413   1.301   5.867  0.1215  2.6931 -0.2077
 7073SOL     OW32854   2.300   3.781   9.273 -0.1206  0.5174 -0.2652
 7073SOL    HW132855   2.288   3.723   9.348  3.0063 -1.9593 -1.7085
 7073SOL    HW232856   2.306   3.709   9.210 -1.2225 -2.4320  3.0268
 7074SOL     OW32857   0.748   1.860   3.998 -0.0142 -0.4632  0.0877
 7074SOL    HW132858   0.810   1.788   3.987  0.2207 -0.4219  1.1481
 7074SOL    HW232859   0.789   1.934   3.953  1.3968 -1.6272 -0.5512
 7075SOL     OW32860   4.594   2.048   5.112 -0.1111 -0.4583 -0.6338
 7075SOL    HW132861   4.542   2.017   5.186  1.9495 -1.1140  0.5332
 7075SOL    HW232862   4.684   2.039   5.146  1.1563  0.5318 -3.7459
 7076SOL     OW32863   2.818   4.390   7.032  0.4572 -0.0027 -1.4368
 7076SOL    HW132864   2.859   4.477   7.036  0.2834 -0.0206  0.9620
 7076SOL    HW232865   2.847   4.354   7.117 -1.4151 -1.2003 -1.3177
 7077SOL     OW32866   3.204   1.623   5.229  0.7834 -0.1494  0.3493
 7077SOL    HW132867   3.125   1.674   5.245 -1.6477 -3.1730 -1.8791
 7077SOL    HW232868   3.236   1.595   5.314 -0.1427  1.5903  1.2652
 7078SOL     OW32869   1.451   0.049   3.265  0.2918 -0.0218 -0.7974
 7078SOL    HW132870   1.524   0.061   3.325  0.0590  0.4308 -0.6089
 7078SOL    HW232871   1.381   0.042   3.330  0.7971 -1.5326 -0.4142
 7079SOL     OW32872   0.557   1.786   8.837  0.3038 -0.3900  0.1089
 7079SOL    HW132873   0.607   1.758   8.914 -1.2176 -1.1568  0.8212
 7079SOL    HW232874   0.492   1.843   8.879  2.5058  1.2945  1.2337
 7080SOL     OW32875   3.528   0.598   8.530  0.2514  0.5849 -0.1091
 7080SOL    HW132876   3.604   0.565   8.481 -1.3838 -2.1272 -0.8292
 7080SOL    HW232877   3.579   0.654   8.589 -3.3020  0.5890  2.9473
 7081SOL     OW32878   2.621   0.825   1.103 -0.0009  0.0474 -0.8577
 7081SOL    HW132879   2.619   0.898   1.042  1.0519 -0.2093 -1.1975
 7081SOL    HW232880   2.629   0.868   1.188  2.0084  1.0971 -1.5900
 7082SOL     OW32881   2.981   2.474   9.351 -0.4105 -0.1060 -0.0473
 7082SOL    HW132882   2.961   2.409   9.418 -1.3838  2.0100  1.7559
 7082SOL    HW232883   3.011   2.550   9.402  0.4807  0.4464 -1.4083
 7083SOL     OW32884   1.006   2.918  12.134  0.2888 -0.3094  0.0240
 7083SOL    HW132885   1.015   2.936  12.228 -1.5251 -1.5904  0.4494
 7083SOL    HW232886   1.009   2.823  12.130  2.1233 -0.3276  1.8291
 7084SOL     OW32887   2.415   4.714  12.897 -0.2553  0.0822  0.3055
 7084SOL    HW132888   2.493   4.707  12.843 -1.5683  0.2781 -1.6160
 7084SOL    HW232889   2.445   0.036  12.969  0.9431 -1.2645  0.8610
 7085SOL     OW32890   3.906   0.940   3.994 -0.3498  0.7635  0.3087
 7085SOL    HW132891   3.878   1.029   3.972  1.5238  1.1510 -0.4517
 7085SOL    HW232892   3.829   0.894   3.960  0.2302 -0.3445  0.4989
 7086SOL     OW32893   4.304   0.759   7.191  0.5479 -0.0638  0.0810
 7086SOL    HW132894   4.349   0.809   7.258  1.6204 -0.9354  0.0208
 7086SOL    HW232895   4.383   0.729   7.145  0.8837 -3.0007  2.5043
 7087SOL     OW32896   3.096   1.818  12.834 -0.1547 -0.6785 -0.0086
 7087SOL    HW132897   3.183   1.785  12.813  0.0270 -0.4788  0.4167
 7087SOL    HW232898   3.079   1.866  12.753 -0.0344  2.2073  1.6727
 7088SOL     OW32899   3.560   2.545  12.928  1.0422 -0.4294  0.0227
 7088SOL    HW132900   3.493   2.489  12.887 -0.2328  1.0427  0.1262
 7088SOL    HW232901   3.549   2.517  13.019  1.1641 -0.8943 -0.1050
 7089SOL     OW32902   1.407   1.133   4.991  0.0529  0.1288 -0.1642
 7089SOL    HW132903   1.362   1.134   4.907  0.2824 -0.0303 -0.2880
 7089SOL    HW232904   1.336   1.104   5.049 -0.2066  2.5321  0.7098
 7090SOL     OW32905   0.734   0.201   8.347 -0.2415 -0.1332 -0.4380
 7090SOL    HW132906   0.719   0.268   8.414  1.7476 -1.5729  1.4909
 7090SOL    HW232907   0.790   0.144   8.400 -0.1176 -0.7708 -1.2624
 7091SOL     OW32908   2.128   2.641   7.589 -0.0701 -0.0952  0.1562
 7091SOL    HW132909   2.142   2.549   7.567  0.5501 -0.0782  0.4944
 7091SOL    HW232910   2.201   2.661   7.647  0.0287  1.9099 -0.6614
 7092SOL     OW32911   2.946   3.236   7.659  0.2423  0.2375 -0.4454
 7092SOL    HW132912   2.948   3.328   7.685 -0.9360  0.2263 -0.2958
 7092SOL    HW232913   2.946   3.246   7.564 -2.2024  0.3706 -0.4285
 7093SOL     OW32914   0.643   3.403   2.225 -0.3880 -0.1467  0.4475
 7093SOL    HW132915   0.561   3.354   2.237 -0.4999  0.1460  0.8835
 7093SOL    HW232916   0.669   3.354   2.147 -2.2611  0.7474 -0.7480
 7094SOL     OW32917   4.064   1.559  14.060  0.1760  0.4179 -0.2105
 7094SOL    HW132918   4.093   1.611  14.136 -1.0059  1.1369 -0.2571
 7094SOL    HW232919   4.058   1.622  13.989  2.1431  0.9479  0.0771
 7095SOL     OW32920   0.936   3.488   2.105 -0.1261  0.1150 -0.1718
 7095SOL    HW132921   0.898   3.477   2.192 -1.6051  0.1202 -0.8245
 7095SOL    HW232922   0.883   3.416   2.071  2.9217 -1.2569 -2.0008
 7096SOL     OW32923   4.615   2.155   5.437 -0.7213  0.1728  0.1808
 7096SOL    HW132924   4.711   2.154   5.426 -0.7550  0.9523 -0.2196
 7096SOL    HW232925   4.596   2.066   5.466  0.7245 -0.2110 -0.0499
 7097SOL     OW32926   2.316   2.691   4.584  0.0542  0.4667 -0.1854
 7097SOL    HW132927   2.283   2.696   4.494 -0.5101  2.1349  0.1192
 7097SOL    HW232928   2.255   2.748   4.631 -0.2415 -2.2168  2.6962
 7098SOL     OW32929   0.138   1.212   6.457 -0.3033  0.1525 -0.2483
 7098SOL    HW132930   0.110   1.289   6.505  0.3057 -0.0304  0.4055
 7098SOL    HW232931   0.221   1.189   6.499 -0.9731 -0.8777  0.5137
 7099SOL     OW32932   3.311   4.048   2.162 -0.4453  0.1030 -0.8451
 7099SOL    HW132933   3.300   3.954   2.150  0.3503 -0.0292 -0.5553
 7099SOL    HW232934   3.262   4.067   2.241 -1.8774 -2.4375 -1.1375
 7100SOL     OW32935   0.714   3.229   3.167  0.6561 -0.1549  0.2512
 7100SOL    HW132936   0.775   3.185   3.225  0.8734  0.2240  0.3066
 7100SOL    HW232937   0.762   3.310   3.153 -0.2159  0.4202  0.5909
 7101SOL     OW32938   3.645   3.286   8.013 -0.1160  0.1615  0.7667
 7101SOL    HW132939   3.693   3.340   7.950  0.5194 -0.9185  0.3236
 7101SOL    HW232940   3.710   3.267   8.081  1.8053 -3.5152 -2.0930
 7102SOL     OW32941   0.409   1.995   4.574  0.2506  0.3924  0.0589
 7102SOL    HW132942   0.388   1.994   4.668 -0.9821  0.2649 -0.2197
 7102SOL    HW232943   0.354   2.058   4.528  0.2349 -0.8884 -1.6593
 7103SOL     OW32944   0.439   0.998   6.074  0.2142  0.5519 -0.0688
 7103SOL    HW132945   0.361   1.002   6.019  0.1680 -0.7094 -0.0911
 7103SOL    HW232946   0.406   0.996   6.164  0.3581  0.6977 -0.0136
 7104SOL     OW32947   3.657   0.780  14.113 -0.3272  0.0199 -0.5409
 7104SOL    HW132948   3.600   0.737  14.049  1.7598 -3.7721  0.1897
 7104SOL    HW232949   3.743   0.793  14.074  1.1761 -0.1244  2.7184
 7105SOL     OW32950   4.480   4.126   7.846 -0.1238  0.3673  0.4269
 7105SOL    HW132951   4.567   4.087   7.856  0.1786  0.9338 -0.0659
 7105SOL    HW232952   4.511   4.187   7.780 -1.7010 -1.9743 -2.4649
 7106SOL     OW32953   1.715   4.241   4.856 -0.4116 -0.3674 -0.0028
 7106SOL    HW132954   1.712   4.234   4.761 -1.0102 -1.3061  0.0867
 7106SOL    HW232955   1.810   4.226   4.853 -0.3307 -0.1400  1.3463
 7107SOL     OW32956   2.383   4.555  16.590 -0.1469 -0.1800  0.0339
 7107SOL    HW132957   2.321   4.548  16.517  0.6263 -1.8652 -0.4598
 7107SOL    HW232958   2.346   4.496  16.656 -2.5293  1.8200  0.5276
 7108SOL     OW32959   2.368   2.419   4.675  0.0932 -0.3997  0.3392
 7108SOL    HW132960   2.361   2.512   4.652 -1.4290 -0.2231  1.4598
 7108SOL    HW232961   2.431   2.430   4.746  0.0294  2.9667 -0.1258
 7109SOL     OW32962   4.570   3.486  16.538  0.6104  0.0862 -0.2377
 7109SOL    HW132963   4.558   3.445  16.623 -0.5590 -2.2379 -1.5163
 7109SOL    HW232964   4.617   3.418  16.489  0.3527 -1.2954  1.4549
 7110SOL     OW32965   2.560   0.317   7.443 -0.3513 -0.1329 -0.1566
 7110SOL    HW132966   2.548   0.232   7.400  2.3140 -0.3183 -0.5800
 7110SOL    HW232967   2.495   0.324   7.513 -2.8056  0.3069 -2.4855
 7111SOL     OW32968   0.684   4.226  10.304 -0.2982 -0.2636 -0.0251
 7111SOL    HW132969   0.670   4.297  10.367 -0.9401 -1.3156  1.0044
 7111SOL    HW232970   0.780   4.227  10.307 -0.3078  0.9494 -0.2780
 7112SOL     OW32971   2.119   0.300   7.360 -0.2060 -0.3093 -0.1572
 7112SOL    HW132972   2.033   0.262   7.345 -0.8699  0.6946  1.1760
 7112SOL    HW232973   2.183   0.229   7.372  1.4266  1.4965  1.7616
 7113SOL     OW32974   1.867   4.385   6.594  0.1016 -0.0290 -0.6445
 7113SOL    HW132975   1.910   4.357   6.512  3.0743 -1.2430  1.3133
 7113SOL    HW232976   1.775   4.400   6.576 -0.3199 -1.1897  0.5847
 7114SOL     OW32977   3.231   1.693  17.609 -0.1737 -0.3940 -0.6953
 7114SOL    HW132978   3.227   1.767  17.548 -0.7195  1.3093  1.4116
 7114SOL    HW232979   3.246   1.739  17.691 -1.1714  0.5248 -1.0401
 7115SOL     OW32980   0.630   2.954   2.498  0.5679  0.2347  0.5509
 7115SOL    HW132981   0.650   3.010   2.423 -1.4403  1.1213  0.6722
 7115SOL    HW232982   0.714   2.917   2.522 -0.5637 -1.8822  1.2166
 7116SOL     OW32983   2.814   4.544   9.744 -0.3346  0.4174  0.5226
 7116SOL    HW132984   2.763   4.474   9.784  0.7254 -0.0993  0.9658
 7116SOL    HW232985   2.844   4.508   9.660 -2.2994 -2.3281  1.0143
 7117SOL     OW32986   0.195   0.043   4.214  0.6900 -0.4571 -0.1787
 7117SOL    HW132987   0.145   0.086   4.284 -2.3246 -2.6724 -0.9935
 7117SOL    HW232988   0.237   0.122   4.179  1.0522 -0.9557 -0.8567
 7118SOL     OW32989   0.202   0.840   5.662 -0.6029  0.0671 -0.4487
 7118SOL    HW132990   0.192   0.745   5.658  3.9842 -0.4009 -0.9159
 7118SOL    HW232991   0.208   0.850   5.567 -2.1178  0.4121 -0.5191
 7119SOL     OW32992   2.609   1.776  17.161 -0.0774 -0.0364  0.1827
 7119SOL    HW132993   2.690   1.740  17.127  0.7972  4.1940 -2.2309
 7119SOL    HW232994   2.627   1.751  17.252 -0.9066  0.6104  0.5333
 7120SOL     OW32995   3.182   1.069  12.609 -0.4408  0.0640 -0.0461
 7120SOL    HW132996   3.218   1.099  12.693 -0.8097  0.3944 -0.0121
 7120SOL    HW232997   3.095   1.035  12.627 -1.1375  1.8210 -0.2011
 7121SOL     OW32998   1.646   4.584   2.802 -0.7359 -0.0884 -0.1942
 7121SOL    HW132999   1.611   4.647   2.866  0.4838  2.0588 -1.6167
 7121SOL    HW233000   1.731   4.611   2.768 -0.4998  0.4411  0.8214
 7122SOL     OW33001   1.058   1.123   7.678 -0.5147 -0.2193 -0.1064
 7122SOL    HW133002   1.106   1.040   7.676  1.9129  1.1607  1.5072
 7122SOL    HW233003   1.046   1.136   7.584  1.8936  1.0948 -0.2136
 7123SOL     OW33004   1.229   4.439   2.529  0.2258 -0.2505  0.0742
 7123SOL    HW133005   1.158   4.496   2.500  0.0374  0.3244  1.6479
 7123SOL    HW233006   1.254   4.477   2.613  4.7699 -0.9622 -0.9390
 7124SOL     OW33007   1.550   3.302  16.090 -0.5600 -0.1112  0.5015
 7124SOL    HW133008   1.480   3.247  16.054  1.5273 -1.0334 -2.1178
 7124SOL    HW233009   1.626   3.244  16.097 -1.0383 -1.0211 -1.9520
 7125SOL     OW33010   2.379   1.709   7.789 -0.0463  0.4322 -0.6983
 7125SOL    HW133011   2.395   1.621   7.823  0.0536  0.4935 -0.5868
 7125SOL    HW233012   2.406   1.711   7.697  1.6942 -0.4568 -0.2102
 7126SOL     OW33013   1.296   0.838   6.283 -0.2124  0.6398  0.4403
 7126SOL    HW133014   1.316   0.783   6.207 -0.0347 -1.9146  2.3026
 7126SOL    HW233015   1.285   0.777   6.356  0.1511  0.5746  0.4406
 7127SOL     OW33016   1.413   1.493   3.010  0.2656 -0.1152  0.4915
 7127SOL    HW133017   1.450   1.581   3.001  1.3416 -0.4568  1.5277
 7127SOL    HW233018   1.495   1.443   3.011 -0.1905 -0.8506  0.8915
 7128SOL     OW33019   1.660   0.789   1.753 -0.0626 -0.0784 -0.0363
 7128SOL    HW133020   1.751   0.807   1.729 -0.0324 -1.0404 -0.6251
 7128SOL    HW233021   1.616   0.793   1.668  0.9025  0.3152 -0.5233
 7129SOL     OW33022   2.648   4.696   3.658  0.3240 -0.2463 -0.2780
 7129SOL    HW133023   2.592   0.021   3.609 -1.0225  0.6282  2.3386
 7129SOL    HW233024   2.735   0.002   3.659  1.1222 -1.9312 -1.4483
 7130SOL     OW33025   0.662   2.244   0.279  0.0048 -0.0442  0.3281
 7130SOL    HW133026   0.645   2.202   0.195  0.2450 -1.7838  1.1429
 7130SOL    HW233027   0.673   2.331   0.242 -0.8516  0.2633  0.8053
 7131SOL     OW33028   4.029   0.690   3.270  0.0770 -0.3507  0.0142
 7131SOL    HW133029   3.965   0.621   3.250  0.8398  0.0718 -3.9239
 7131SOL    HW233030   4.098   0.631   3.300  1.9972  0.4112 -2.8553
 7132SOL     OW33031   4.535   4.187   6.322 -0.2911 -0.0020  0.1884
 7132SOL    HW133032   4.477   4.262   6.334  0.3389  0.3448  1.0515
 7132SOL    HW233033   4.617   4.227   6.352  0.7680 -1.3377 -0.9334
 7133SOL     OW33034   3.330   2.404   6.984 -0.4719  0.6066 -0.2157
 7133SOL    HW133035   3.259   2.463   6.960  1.0897  2.3598 -0.5068
 7133SOL    HW233036   3.354   2.395   6.891  0.6074  5.0211 -0.3698
 7134SOL     OW33037   0.410   3.290  12.797 -0.2062  0.2781  0.1718
 7134SOL    HW133038   0.324   3.299  12.757 -0.6521  0.4744  1.1655
 7134SOL    HW233039   0.454   3.215  12.758 -0.1013 -0.3055  1.4214
 7135SOL     OW33040   2.014   2.248   4.165  0.1443 -0.0645 -0.6120
 7135SOL    HW133041   1.944   2.283   4.109  0.6815 -0.2811 -1.4222
 7135SOL    HW233042   2.085   2.259   4.102 -0.7619 -1.0738 -1.8189
 7136SOL     OW33043   0.432   0.936   6.790 -0.0394  0.4840 -0.1118
 7136SOL    HW133044   0.443   1.022   6.831 -0.1024 -0.2833  1.4790
 7136SOL    HW233045   0.377   0.894   6.856 -0.1068  0.1667 -0.3701
 7137SOL     OW33046   1.669   4.434   8.929  0.1631 -0.4896  0.2843
 7137SOL    HW133047   1.715   4.452   8.847 -2.3307 -0.4443 -1.0938
 7137SOL    HW233048   1.695   4.513   8.977  0.1603 -0.2221 -0.1588
 7138SOL     OW33049   1.742   2.207   6.144  0.1179 -0.8193  0.4373
 7138SOL    HW133050   1.797   2.172   6.214  0.5757  0.0381  0.5052
 7138SOL    HW233051   1.778   2.174   6.062  2.4271  2.6823  0.0006
 7139SOL     OW33052   1.484   2.573  10.138  0.4452 -0.0121 -0.3263
 7139SOL    HW133053   1.492   2.490  10.091  0.7535 -1.0124  1.5011
 7139SOL    HW233054   1.454   2.553  10.226  0.3220 -0.8078 -0.5424
 7140SOL     OW33055   3.896   4.654   2.001  0.1825 -0.0738 -0.1592
 7140SOL    HW133056   3.807   4.680   2.025 -0.0908  0.1706 -1.4572
 7140SOL    HW233057   3.927   4.610   2.080  0.2753 -0.7402 -0.5649
 7141SOL     OW33058   4.665   4.176  11.203  0.2341  0.0800 -0.1394
 7141SOL    HW133059   4.678   4.246  11.138 -1.1035 -0.4015 -0.9425
 7141SOL    HW233060   4.695   4.098  11.156  2.8013  0.3838  1.0259
 7142SOL     OW33061   0.268   1.643  10.975  0.2356  0.0638  0.4385
 7142SOL    HW133062   0.293   1.733  10.997 -0.9143  0.8525 -1.4560
 7142SOL    HW233063   0.213   1.652  10.897 -0.5372 -0.4422  0.9365
 7143SOL     OW33064   3.734   1.486   2.417  0.2695 -0.1851 -0.0234
 7143SOL    HW133065   3.705   1.433   2.491 -2.3399 -0.1463 -1.0109
 7143SOL    HW233066   3.717   1.422   2.348 -0.7917  1.1913 -1.0401
 7144SOL     OW33067   4.482   3.683   1.094 -0.5260 -0.2220 -0.4116
 7144SOL    HW133068   4.533   3.680   1.175  0.7896  1.3311 -1.1948
 7144SOL    HW233069   4.461   3.590   1.086 -0.8918 -0.1936  0.2482
 7145SOL     OW33070   1.134   0.414   5.622  0.3670 -0.1254  0.1707
 7145SOL    HW133071   1.080   0.457   5.556 -2.0367  0.9706  2.8534
 7145SOL    HW233072   1.214   0.465   5.610  0.2642  0.0710  0.3165
 7146SOL     OW33073   2.726   3.165   4.782 -0.6531  0.0164  0.8178
 7146SOL    HW133074   2.700   3.096   4.720 -0.5159  1.4020 -0.7799
 7146SOL    HW233075   2.707   3.114   4.860  1.2167 -1.5935  0.2114
 7147SOL     OW33076   0.117   0.490  16.208 -0.0221 -0.1626 -0.1593
 7147SOL    HW133077   0.119   0.514  16.115 -0.0328 -1.8470 -0.6034
 7147SOL    HW233078   0.101   0.396  16.210  1.1855 -0.3236  1.4047
 7148SOL     OW33079   3.036   4.075   0.250  0.5434 -0.3237  0.3410
 7148SOL    HW133080   3.061   4.037   0.166 -1.1032  1.9943 -1.1607
 7148SOL    HW233081   3.109   4.052   0.309 -1.2545 -0.0023  2.7086
 7149SOL     OW33082   3.087   3.883  11.232 -0.3175 -0.0322 -0.5419
 7149SOL    HW133083   3.152   3.949  11.257  1.7950 -1.7831 -1.3673
 7149SOL    HW233084   3.044   3.865  11.315  0.1147 -0.6503 -0.4488
 7150SOL     OW33085   2.206   2.979   0.633  0.5897  0.0403 -0.0491
 7150SOL    HW133086   2.151   2.911   0.593 -0.2989  0.7277 -0.0037
 7150SOL    HW233087   2.141   3.049   0.636  0.1244 -0.4617  1.6785
 7151SOL     OW33088   0.439   2.283   4.211 -0.1373  0.0127  0.4356
 7151SOL    HW133089   0.407   2.238   4.133 -1.0274  0.7759  0.3626
 7151SOL    HW233090   0.378   2.357   4.207  1.8103  1.4568 -2.0011
 7152SOL     OW33091   0.162   0.576   3.877  0.6208 -0.5271  0.1495
 7152SOL    HW133092   0.231   0.580   3.811  0.7563  1.3382  0.4010
 7152SOL    HW233093   0.130   0.667   3.879  0.8546 -0.4773  1.6816
 7153SOL     OW33094   3.541   1.757  16.288  0.4030 -0.3380  0.1694
 7153SOL    HW133095   3.457   1.723  16.258  0.0538  0.4662  0.2274
 7153SOL    HW233096   3.560   1.830  16.229 -0.2650  0.3718  0.8361
 7154SOL     OW33097   3.441   2.555   3.644  0.7229  0.0342 -0.1961
 7154SOL    HW133098   3.455   2.619   3.574 -0.9365  0.5785 -0.0304
 7154SOL    HW233099   3.463   2.618   3.714  0.7750 -1.6527  1.3085
 7155SOL     OW33100   3.414   1.638  12.053  0.4619  0.4578  0.6786
 7155SOL    HW133101   3.379   1.608  11.970  0.5365  2.4348 -0.0867
 7155SOL    HW233102   3.474   1.569  12.079 -0.2014 -0.6881 -0.8413
 7156SOL     OW33103   0.484   3.756   9.106 -0.2505 -0.1486  0.5884
 7156SOL    HW133104   0.457   3.751   9.014 -0.3824 -1.6013  0.6967
 7156SOL    HW233105   0.406   3.718   9.147  1.0325 -1.1328  2.1087
 7157SOL     OW33106   0.954   4.016  15.066 -0.0368  0.0547 -0.5568
 7157SOL    HW133107   0.967   4.058  14.981  1.7642  1.1736  0.2660
 7157SOL    HW233108   1.019   4.066  15.115 -2.6783  1.3249  1.6455
 7158SOL     OW33109   1.624   1.003  13.859 -0.2905  0.3063  0.3071
 7158SOL    HW133110   1.662   1.074  13.807 -1.9211  0.7345 -0.3100
 7158SOL    HW233111   1.679   0.935  13.821  0.9120  0.2597  2.1422
 7159SOL     OW33112   2.396   0.015   4.000  0.0199 -0.5819 -0.1807
 7159SOL    HW133113   2.462   4.682   4.016  2.3770  1.1544 -2.5079
 7159SOL    HW233114   2.333   4.717   4.065 -0.5748  0.2226 -0.3480
 7160SOL     OW33115   0.264   1.693   5.943  0.4171 -0.6551 -0.0973
 7160SOL    HW133116   0.342   1.659   5.986 -0.5406 -0.4447  1.8455
 7160SOL    HW233117   0.273   1.787   5.931  1.0114 -0.7068 -0.0382
 7161SOL     OW33118   1.623   0.212   4.476 -0.5868 -0.3700 -0.4468
 7161SOL    HW133119   1.630   0.126   4.516 -2.3143  0.4742  1.6625
 7161SOL    HW233120   1.667   0.203   4.392  0.4454 -1.3208  0.2089
 7162SOL     OW33121   4.075   2.059  14.568 -0.4345 -0.3699 -0.1124
 7162SOL    HW133122   4.167   2.048  14.544 -0.9271 -0.9492 -1.7511
 7162SOL    HW233123   4.083   2.145  14.610  1.2602  0.0436 -1.2731
 7163SOL     OW33124   0.877   1.454  13.000  0.4550 -0.4512  0.1682
 7163SOL    HW133125   0.960   1.444  13.047  0.3604 -0.5514  0.3119
 7163SOL    HW233126   0.905   1.463  12.908 -0.7466  1.0103 -0.0591
 7164SOL     OW33127   2.479   1.484   2.550 -0.1144  0.2801  0.2024
 7164SOL    HW133128   2.509   1.525   2.469  0.8173  0.1935  0.5027
 7164SOL    HW233129   2.410   1.548   2.566  0.8167  1.1871  0.5594
 7165SOL     OW33130   2.689   3.304   7.588  0.0388 -0.2700  0.5777
 7165SOL    HW133131   2.701   3.251   7.510 -1.7064 -0.2319  0.2813
 7165SOL    HW233132   2.767   3.359   7.588 -0.7959  0.9181  0.9638
 7166SOL     OW33133   3.025   2.001   9.203  0.2078 -0.8217  0.3139
 7166SOL    HW133134   3.086   2.040   9.265  1.3915 -0.4753 -1.0685
 7166SOL    HW233135   2.967   2.076   9.193 -0.3371 -0.7898  3.8931
 7167SOL     OW33136   3.442   1.024  17.152  0.4792 -0.4235 -0.1616
 7167SOL    HW133137   3.392   0.972  17.216 -0.5289 -0.5124 -1.0093
 7167SOL    HW233138   3.469   0.952  17.096  1.6711  0.0640 -0.2152
 7168SOL     OW33139   0.912   2.337   3.380  0.3274 -0.4658  0.3839
 7168SOL    HW133140   0.945   2.337   3.290  0.9142  0.8411  0.6090
 7168SOL    HW233141   0.991   2.375   3.418 -0.0781 -0.2920  1.0445
 7169SOL     OW33142   0.513   0.865   8.293 -0.2295 -0.0146 -0.2722
 7169SOL    HW133143   0.556   0.833   8.214 -3.3417 -2.2040 -1.0670
 7169SOL    HW233144   0.585   0.896   8.347  0.3924 -0.7276 -0.7037
 7170SOL     OW33145   3.215   3.431   7.527 -0.4717 -0.7180 -0.5189
 7170SOL    HW133146   3.154   3.371   7.570 -3.1651  1.2830 -1.5457
 7170SOL    HW233147   3.174   3.459   7.445 -2.0826 -0.3218  0.4412
 7171SOL     OW33148   3.161   4.286   3.531  0.6372 -0.1460 -0.0321
 7171SOL    HW133149   3.080   4.236   3.521  0.3646 -0.2289  2.7123
 7171SOL    HW233150   3.215   4.223   3.483  1.1920  1.1794 -1.1593
 7172SOL     OW33151   3.958   3.082   5.625 -0.1391  0.0280 -0.7158
 7172SOL    HW133152   3.907   3.147   5.674  0.8036 -0.5979  1.1132
 7172SOL    HW233153   3.894   3.042   5.566 -1.9818  0.7342  0.7972
 7173SOL     OW33154   0.423   2.128   3.985  0.4305 -0.1863  0.1371
 7173SOL    HW133155   0.373   2.067   4.039 -1.6285  1.7036  0.3555
 7173SOL    HW233156   0.472   2.078   3.919 -1.5096 -0.2228 -1.2626
 7174SOL     OW33157   2.639   4.715   9.447  0.4964 -0.1133  0.2205
 7174SOL    HW133158   2.698   0.039   9.399  0.0832 -1.2113 -1.5759
 7174SOL    HW233159   2.640   0.006   9.540  0.9800 -0.4342  0.3036
 7175SOL     OW33160   1.419   3.922   5.651 -0.2613 -0.1460 -0.6123
 7175SOL    HW133161   1.386   3.872   5.726  1.3982  0.6684  0.6764
 7175SOL    HW233162   1.372   3.881   5.578  0.5718  0.3431 -1.4213
 7176SOL     OW33163   1.087   1.679  15.931 -0.3273 -0.4711  0.0007
 7176SOL    HW133164   1.008   1.651  15.885  1.1683 -2.6104 -1.2510
 7176SOL    HW233165   1.135   1.603  15.962 -2.0020 -1.7192 -0.4997
 7177SOL     OW33166   4.098   0.398   1.959  0.4983  0.0282  0.4728
 7177SOL    HW133167   4.175   0.369   1.911 -0.9373 -2.4878 -0.2902
 7177SOL    HW233168   4.040   0.327   1.933  0.4993  0.3909 -0.5488
 7178SOL     OW33169   2.595   2.217   4.464 -0.1469 -0.2810  0.5034
 7178SOL    HW133170   2.592   2.196   4.558 -2.0296  1.0050  0.7255
 7178SOL    HW233171   2.631   2.306   4.466  0.7535 -0.6225 -0.9427
 7179SOL     OW33172   2.213   0.109   0.581 -0.2731  0.8221 -0.5039
 7179SOL    HW133173   2.150   0.098   0.652  1.7839 -0.4799  1.1453
 7179SOL    HW233174   2.189   0.190   0.537  1.0312  2.0856  1.1072
 7180SOL     OW33175   3.020   4.585   7.953  0.0866  0.5984 -0.7503
 7180SOL    HW133176   3.025   4.647   7.881  2.1782  0.5479 -0.6602
 7180SOL    HW233177   2.956   4.517   7.932 -0.2235  1.2785 -1.9920
 7181SOL     OW33178   4.519   4.627   3.319  0.0715  0.4522  0.4120
 7181SOL    HW133179   4.595   4.572   3.335  0.8882  1.1855 -0.9741
 7181SOL    HW233180   4.519   4.640   3.224 -0.7152  3.1520  0.7915
 7182SOL     OW33181   3.173   2.099   2.780  0.0246  0.3537 -0.1412
 7182SOL    HW133182   3.128   2.113   2.864 -0.5892  1.1476 -0.6080
 7182SOL    HW233183   3.244   2.037   2.799  0.9162  1.5840  0.5218
 7183SOL     OW33184   3.553   4.423   5.992 -0.5489  0.4819 -0.0466
 7183SOL    HW133185   3.580   4.433   5.901 -1.4356 -4.4267 -0.8550
 7183SOL    HW233186   3.637   4.430   6.036 -0.3938 -0.5288 -0.1827
 7184SOL     OW33187   4.445   2.636  15.574 -0.4193  0.5087  0.5205
 7184SOL    HW133188   4.371   2.698  15.581 -1.4531 -0.3509 -2.5066
 7184SOL    HW233189   4.517   2.686  15.536  0.3813 -0.0529  1.2984
 7185SOL     OW33190   3.258   3.649   9.763 -0.0679  0.3275 -0.2793
 7185SOL    HW133191   3.269   3.744   9.760 -4.1334  0.8215  1.3937
 7185SOL    HW233192   3.247   3.625   9.671  3.5209  0.9358 -0.9027
 7186SOL     OW33193   0.420   2.990   7.164 -0.3589 -0.4323 -0.4449
 7186SOL    HW133194   0.370   3.027   7.091 -1.2796 -0.4960  0.1574
 7186SOL    HW233195   0.355   2.981   7.233 -0.5779  0.7445 -0.4936
 7187SOL     OW33196   1.348   0.524   0.141 -0.3881 -0.1507  0.6401
 7187SOL    HW133197   1.306   0.604   0.174 -2.4918 -0.3939 -1.4613
 7187SOL    HW233198   1.275   0.464   0.132  1.2071 -2.6374  4.3382
 7188SOL     OW33199   0.073   0.316   5.111 -0.1191  0.2873  0.2843
 7188SOL    HW133200   0.166   0.334   5.100 -0.4664  0.0155 -3.1173
 7188SOL    HW233201   0.059   0.239   5.056 -1.0558  0.1042  0.7855
 7189SOL     OW33202   1.039   0.658   7.140 -0.4495  0.3728 -0.0298
 7189SOL    HW133203   1.114   0.632   7.194 -1.7651 -1.7283  0.8133
 7189SOL    HW233204   0.971   0.592   7.155 -1.3929  0.8399 -2.2295
 7190SOL     OW33205   0.774   0.235  17.679  0.0296 -0.5502  0.2609
 7190SOL    HW133206   0.684   0.252  17.707 -0.1298  2.1424 -1.7786
 7190SOL    HW233207   0.799   0.184   0.021 -1.0701 -1.4615  0.0105
 7191SOL     OW33208   0.090   1.013  15.174 -0.2610 -0.1871 -0.4838
 7191SOL    HW133209   0.023   0.954  15.140  0.0346  0.0259 -1.4295
 7191SOL    HW233210   0.150   1.012  15.100 -0.8317 -1.6719 -0.9308
 7192SOL     OW33211   3.379   0.491   6.809 -0.3584 -0.6524  0.2810
 7192SOL    HW133212   3.458   0.541   6.829  0.0261 -1.2868  0.3399
 7192SOL    HW233213   3.374   0.434   6.886  0.7943 -1.4069 -0.1993
 7193SOL     OW33214   4.232   4.065   3.631 -0.5262  0.0967 -0.0461
 7193SOL    HW133215   4.179   4.140   3.606 -0.2924 -0.2599 -1.5956
 7193SOL    HW233216   4.308   4.064   3.573  1.4773 -2.7491  2.5846
 7194SOL     OW33217   4.549   2.196   7.826  0.3584 -0.2417 -0.2915
 7194SOL    HW133218   4.489   2.123   7.809  1.7586 -0.8497 -2.6069
 7194SOL    HW233219   4.609   2.149   7.884  0.1153 -0.7585 -0.4485
 7195SOL     OW33220   0.081   1.289  12.353 -0.3611 -0.5090 -0.0529
 7195SOL    HW133221   0.034   1.234  12.291 -1.6201  3.2323 -2.3979
 7195SOL    HW233222   0.151   1.229  12.377  0.1469  0.6696  1.4261
 7196SOL     OW33223   0.907   2.342   7.037  0.1440 -0.2642  0.0756
 7196SOL    HW133224   0.929   2.435   7.044 -0.0239 -0.2725  0.7016
 7196SOL    HW233225   0.896   2.311   7.127  0.1384 -2.5681 -0.7116
 7197SOL     OW33226   0.322   3.140   4.062 -1.3658  0.3925 -0.7705
 7197SOL    HW133227   0.291   3.191   3.988 -3.4020  1.0044  0.4990
 7197SOL    HW233228   0.293   3.189   4.139  0.5145  1.5399 -0.8018
 7198SOL     OW33229   4.503   0.608   4.430 -0.8592  0.2557  0.5459
 7198SOL    HW133230   4.411   0.588   4.447 -0.7859  0.1682  0.8372
 7198SOL    HW233231   4.495   0.698   4.399 -2.3263  0.3028  1.0707
 7199SOL     OW33232   0.733   2.442   3.546  0.1867  0.5438  0.2722
 7199SOL    HW133233   0.773   2.392   3.475 -0.0892 -1.3551  1.4528
 7199SOL    HW233234   0.796   2.422   3.615 -1.5293 -0.5984  1.5038
 7200SOL     OW33235   1.224   1.285   3.942  0.2855  0.7884 -0.0224
 7200SOL    HW133236   1.258   1.330   4.019 -2.1494  1.0555  0.9069
 7200SOL    HW233237   1.129   1.295   3.952  0.4446  2.4178 -0.1571
 7201SOL     OW33238   3.647   0.527   6.870 -0.2662 -0.4191 -0.0630
 7201SOL    HW133239   3.706   0.571   6.930 -0.6237 -0.0342  0.0057
 7201SOL    HW233240   3.671   0.567   6.786 -1.2787 -0.3262 -0.3102
 7202SOL     OW33241   2.388   0.383   3.600 -0.1358  0.6233  0.0574
 7202SOL    HW133242   2.364   0.325   3.673 -0.2560 -0.2224 -0.6638
 7202SOL    HW233243   2.347   0.340   3.525 -0.2044  0.6413  0.0840
 7203SOL     OW33244   3.652   1.991  16.750  0.0689 -0.1562  0.0807
 7203SOL    HW133245   3.579   1.948  16.705  1.2072 -1.5148 -0.4632
 7203SOL    HW233246   3.619   2.004  16.839 -0.8119 -0.3390 -0.2099
 7204SOL     OW33247   0.922   1.170  13.915  0.4950  0.0460 -0.4222
 7204SOL    HW133248   0.876   1.088  13.932  0.6143  0.1137  0.2182
 7204SOL    HW233249   1.016   1.161  13.930  0.4705  0.1755 -0.1898
 7205SOL     OW33250   3.977   1.173  11.182 -0.0129  0.9817  0.2901
 7205SOL    HW133251   3.968   1.268  11.181 -0.0806  0.9535 -1.0356
 7205SOL    HW233252   4.054   1.160  11.127 -0.5847 -0.1715 -0.2347
 7206SOL     OW33253   4.441   4.444   9.330 -0.1728 -0.1639 -0.4130
 7206SOL    HW133254   4.527   4.447   9.289 -0.5492 -2.2722 -1.4106
 7206SOL    HW233255   4.434   4.352   9.356 -3.7578  0.3998  0.6639
 7207SOL     OW33256   2.357   3.569   3.895  0.1626  0.1405  0.3950
 7207SOL    HW133257   2.430   3.608   3.846 -0.3656 -1.1172 -1.4016
 7207SOL    HW233258   2.285   3.574   3.833  0.4892  0.0697  0.0071
 7208SOL     OW33259   1.846   3.392   4.422 -0.1638  0.3137 -0.0213
 7208SOL    HW133260   1.912   3.365   4.358 -0.5335 -3.1398  1.0549
 7208SOL    HW233261   1.767   3.354   4.385 -0.1916 -1.0378  1.4158
 7209SOL     OW33262   1.898   1.268  17.451  0.0888  0.2076  0.2862
 7209SOL    HW133263   1.844   1.270  17.372 -2.7106 -2.7124  2.1242
 7209SOL    HW233264   1.874   1.177  17.468 -0.8365  0.1454 -1.3230
 7210SOL     OW33265   1.205   0.061  10.476  0.0808 -0.1348  0.5949
 7210SOL    HW133266   1.166   4.713  10.506  0.3171 -0.8619 -1.0810
 7210SOL    HW233267   1.157   0.073  10.394  0.9345  1.3934  0.2960
 7211SOL     OW33268   1.453   4.087   2.754  1.0655 -0.0006  0.1988
 7211SOL    HW133269   1.519   4.051   2.813  0.7875  0.7806  0.9794
 7211SOL    HW233270   1.476   4.180   2.761 -0.9041  0.5736 -0.9021
 7212SOL     OW33271   3.563   2.488  12.460 -0.5632 -0.0801 -0.2513
 7212SOL    HW133272   3.528   2.558  12.404 -0.4752  0.0563 -0.1359
 7212SOL    HW233273   3.486   2.433  12.474 -0.7627  0.4174  0.5722
 7213SOL     OW33274   1.695   2.809  13.081 -0.3575  0.3309  0.0509
 7213SOL    HW133275   1.726   2.859  13.157 -0.3442  1.1813 -0.5185
 7213SOL    HW233276   1.783   2.784  13.051 -0.5264  0.4588 -0.5432
 7214SOL     OW33277   3.472   2.354   4.719  0.3012  0.1355  0.7466
 7214SOL    HW133278   3.385   2.339   4.682  0.5712 -1.1462  0.6462
 7214SOL    HW233279   3.485   2.274   4.770 -0.3068  0.0149  0.7136
 7215SOL     OW33280   2.520   4.726   3.064 -0.1942 -0.0301  1.1954
 7215SOL    HW133281   2.493   4.659   3.001 -0.9300  1.7832 -0.3936
 7215SOL    HW233282   2.603   0.024   3.029 -0.5814  2.4157  2.5235
 7216SOL     OW33283   0.441   2.062  16.638  0.1347 -0.2892 -0.3654
 7216SOL    HW133284   0.476   2.026  16.557  0.8085  0.1771 -0.2826
 7216SOL    HW233285   0.350   2.082  16.616  0.0526 -1.5621 -1.1419
 7217SOL     OW33286   1.392   1.880   2.540 -0.0358 -0.2225  0.1216
 7217SOL    HW133287   1.418   1.913   2.626 -0.5067 -0.7932  0.4826
 7217SOL    HW233288   1.298   1.896   2.538  0.2437  1.6406  1.9983
 7218SOL     OW33289   2.286   2.847  15.696  0.0371  0.5392 -0.1815
 7218SOL    HW133290   2.271   2.755  15.678  0.5766  0.5729 -0.7931
 7218SOL    HW233291   2.362   2.854  15.754 -0.6001  1.9050  0.5103
 7219SOL     OW33292   3.160   3.131  10.997 -0.1132  0.0357  0.5506
 7219SOL    HW133293   3.083   3.183  11.022 -0.7282 -1.8591  2.5770
 7219SOL    HW233294   3.214   3.149  11.073 -0.1338 -1.1742  0.8440
 7220SOL     OW33295   2.422   4.164   1.152  0.0582 -0.1019 -0.4579
 7220SOL    HW133296   2.343   4.132   1.196  0.3363 -1.6754 -1.1045
 7220SOL    HW233297   2.481   4.091   1.167  0.7232  0.3353 -0.9321
 7221SOL     OW33298   0.172   3.058   9.120 -0.6927  0.3529 -0.0725
 7221SOL    HW133299   0.192   3.034   9.030 -1.5538 -1.3104  0.1783
 7221SOL    HW233300   0.085   3.099   9.121 -0.0244  1.7430  0.4835
 7222SOL     OW33301   0.713   3.684   4.190  0.3693  0.5288  0.3048
 7222SOL    HW133302   0.711   3.600   4.144 -1.7811  0.0965  1.1791
 7222SOL    HW233303   0.639   3.683   4.251  0.1064 -0.4141 -0.0179
 7223SOL     OW33304   2.191   2.916  16.291  0.3806  0.1933 -0.2166
 7223SOL    HW133305   2.171   2.828  16.322  1.8533  0.0098  0.2205
 7223SOL    HW233306   2.210   2.965  16.370 -0.9461 -1.0139  0.8496
 7224SOL     OW33307   1.637   1.316   4.969 -0.8538  0.2633 -0.1973
 7224SOL    HW133308   1.557   1.265   4.983 -1.6899  0.9012 -2.6008
 7224SOL    HW233309   1.623   1.346   4.879  0.5965  0.5253 -0.3407
 7225SOL     OW33310   3.407   2.176   1.290  0.2544  0.0039  0.1559
 7225SOL    HW133311   3.339   2.217   1.344  0.9375 -1.9463  2.4974
 7225SOL    HW233312   3.365   2.173   1.204 -0.5264 -0.0062  0.5373
 7226SOL     OW33313   4.706   2.892   7.435 -0.3196 -0.1946 -0.2500
 7226SOL    HW133314   4.721   2.860   7.524 -0.1144  1.0073  0.1457
 7226SOL    HW233315   4.680   2.811   7.392 -1.1119 -0.8626  1.4643
 7227SOL     OW33316   0.571   3.438   4.128 -0.8588  0.1535 -0.4009
 7227SOL    HW133317   0.518   3.495   4.074 -0.0963  1.3221  0.0748
 7227SOL    HW233318   0.558   3.349   4.096 -0.1463  0.2531 -0.9743
 7228SOL     OW33319   1.637   3.979   2.930 -0.2380  0.0744  0.3376
 7228SOL    HW133320   1.664   3.901   2.882  0.8511 -0.2351  1.4299
 7228SOL    HW233321   1.647   3.948   3.020 -1.1160  1.7226  1.0130
 7229SOL     OW33322   2.143   2.414   8.273 -0.3381 -0.4014  0.3401
 7229SOL    HW133323   2.094   2.465   8.338  1.5321  1.4990  0.2369
 7229SOL    HW233324   2.209   2.482   8.263  0.0811 -0.5978  1.8547
 7230SOL     OW33325   3.595   3.926  16.708 -0.5036  0.0219 -0.1211
 7230SOL    HW133326   3.648   4.004  16.692 -0.5914  0.1225  0.0856
 7230SOL    HW233327   3.615   3.870  16.633 -1.3573  0.3657 -0.6106
 7231SOL     OW33328   3.588   3.081   2.658  1.0926  0.8622  0.7842
 7231SOL    HW133329   3.540   3.057   2.738  0.9730  1.3598  0.8633
 7231SOL    HW233330   3.594   2.998   2.611  0.6597  0.9391  0.5991
 7232SOL     OW33331   1.995   1.519  15.071  0.0603  0.9045  0.1606
 7232SOL    HW133332   1.942   1.485  15.143  0.1772  0.0515 -0.1474
 7232SOL    HW233333   2.045   1.439  15.053  0.2855  1.2412 -0.7116
 7233SOL     OW33334   3.484   1.232   2.368 -0.4434 -0.4761  0.1833
 7233SOL    HW133335   3.440   1.305   2.411 -0.8364 -0.6276  0.0394
 7233SOL    HW233336   3.543   1.279   2.309 -1.6142  0.1435 -0.5040
 7234SOL     OW33337   3.081   1.482   6.103  0.4273  0.5588  0.2521
 7234SOL    HW133338   2.993   1.520   6.107 -0.3345 -1.2463  0.3130
 7234SOL    HW233339   3.119   1.528   6.178 -0.6485  2.9672 -0.6435
 7235SOL     OW33340   1.450   1.088   3.416  0.9101  0.0650 -0.1554
 7235SOL    HW133341   1.518   1.126   3.360  0.5632  1.4444  0.3337
 7235SOL    HW233342   1.464   0.995   3.405  0.4363  0.2456 -2.2113
 7236SOL     OW33343   0.244   2.529   4.109  0.5169  0.3226  0.1052
 7236SOL    HW133344   0.329   2.569   4.088  0.9477  0.3595  1.9442
 7236SOL    HW233345   0.177   2.579   4.063 -0.9870 -0.6068  1.3034
 7237SOL     OW33346   4.362   3.220   8.477  0.3037  0.5266 -0.2474
 7237SOL    HW133347   4.329   3.194   8.563  2.4494 -1.0543  0.1133
 7237SOL    HW233348   4.295   3.188   8.417 -0.2465 -2.2430  1.8184
 7238SOL     OW33349   2.545   3.177   3.001 -0.3091  0.3526  0.1957
 7238SOL    HW133350   2.576   3.257   2.959  2.3592 -0.4637  0.6186
 7238SOL    HW233351   2.561   3.182   3.095  0.2501 -1.6891  0.2165
 7239SOL     OW33352   1.747   2.599  10.293  0.2040 -0.4289 -0.5502
 7239SOL    HW133353   1.731   2.506  10.311  2.7182 -0.7953 -0.1492
 7239SOL    HW233354   1.687   2.608  10.219 -0.2281  0.4589 -0.0929
 7240SOL     OW33355   2.789   1.519  16.725 -0.2552  0.2585  0.4067
 7240SOL    HW133356   2.872   1.486  16.759  1.4651  1.5667 -2.4949
 7240SOL    HW233357   2.823   1.564  16.647 -3.1489 -0.5031 -1.2913
 7241SOL     OW33358   0.141   3.764   6.975 -0.7977 -0.7631 -0.4827
 7241SOL    HW133359   0.231   3.796   6.973 -1.2428  0.5457  0.1492
 7241SOL    HW233360   0.105   3.792   7.059  2.1009  2.9019 -0.4671
 7242SOL     OW33361   1.260   1.011   7.301  0.2954 -0.2367  0.3062
 7242SOL    HW133362   1.277   0.933   7.353 -0.0375  0.2007  1.0791
 7242SOL    HW233363   1.300   0.989   7.218  0.3189  0.3346  0.1618
 7243SOL     OW33364   1.730   0.194  11.223 -0.2429 -0.3155 -0.0899
 7243SOL    HW133365   1.747   0.101  11.205  0.0656 -0.8007  2.6373
 7243SOL    HW233366   1.720   0.239  11.139  1.5382  0.5835  0.1812
 7244SOL     OW33367   1.537   1.059   0.002 -0.5468  0.3630  0.6182
 7244SOL    HW133368   1.486   1.077   0.080  1.3327  0.0175  1.9397
 7244SOL    HW233369   1.477   0.998  17.694 -0.1452  1.6749 -1.8095
 7245SOL     OW33370   4.557   3.994   1.099  0.1354  0.2743  1.1732
 7245SOL    HW133371   4.529   3.922   1.156  1.9585 -1.8903 -0.7215
 7245SOL    HW233372   4.518   4.074   1.136  0.5627  0.6454  0.8190
 7246SOL     OW33373   0.846   2.204   4.104 -0.3720 -0.5219  0.7198
 7246SOL    HW133374   0.867   2.297   4.097 -0.8599 -0.3609  1.3935
 7246SOL    HW233375   0.840   2.183   4.010  0.2191 -0.9302  0.7700
 7247SOL     OW33376   3.131   0.659   8.243 -0.7001  0.1516  0.0997
 7247SOL    HW133377   3.105   0.748   8.217  1.8663  0.0253 -2.9770
 7247SOL    HW233378   3.193   0.682   8.313 -0.6259 -2.1680  0.7875
 7248SOL     OW33379   0.704   3.800   9.566 -0.3210  0.6965  0.0089
 7248SOL    HW133380   0.725   3.796   9.659  0.6954 -0.2407 -0.2645
 7248SOL    HW233381   0.749   3.723   9.533  0.1140  1.4454 -1.1642
 7249SOL     OW33382   3.005   4.388   2.460 -0.3981  0.2299 -0.2707
 7249SOL    HW133383   2.951   4.448   2.407  1.1884  1.8869 -0.0148
 7249SOL    HW233384   2.962   4.303   2.447 -2.4822  1.0020  1.4513
 7250SOL     OW33385   3.356   4.684   5.508 -0.2937  0.5675 -0.0107
 7250SOL    HW133386   3.380   0.022   5.449 -1.7543  1.6349  0.7164
 7250SOL    HW233387   3.407   4.614   5.468  0.4196  0.5585  0.9082
 7251SOL     OW33388   0.342   3.751   8.312 -0.7371 -0.8526 -0.0996
 7251SOL    HW133389   0.310   3.729   8.399 -3.3200  0.6092 -0.6827
 7251SOL    HW233390   0.301   3.686   8.256 -2.0587  0.2720 -0.4481
 7252SOL     OW33391   0.038   3.207   3.036 -0.7721 -0.6401 -0.4239
 7252SOL    HW133392   0.068   3.157   3.112  0.7127  1.8635  0.6061
 7252SOL    HW233393   0.121   3.235   2.999 -0.7818 -3.0472 -2.3083
 7253SOL     OW33394   1.479   0.243   7.687  0.1394  0.1990 -0.3329
 7253SOL    HW133395   1.388   0.250   7.658 -0.2321 -0.3152  0.7341
 7253SOL    HW233396   1.471   0.230   7.781  2.5408  0.3019 -0.1235
 7254SOL     OW33397   2.992   3.251   8.981 -0.0002 -0.1600  0.0644
 7254SOL    HW133398   3.039   3.324   9.020 -0.4359 -0.7414  1.7057
 7254SOL    HW233399   2.987   3.278   8.890 -0.0248  0.0709  0.1341
 7255SOL     OW33400   2.162   2.657   6.095  0.0324  0.2979 -0.3407
 7255SOL    HW133401   2.245   2.610   6.104  0.9876  1.4405 -3.1983
 7255SOL    HW233402   2.161   2.705   6.177  1.3440  1.2934 -0.9157
 7256SOL     OW33403   3.303   4.517   7.974 -0.0606 -0.5016 -0.3968
 7256SOL    HW133404   3.214   4.543   7.949 -0.1838 -0.4744  0.0723
 7256SOL    HW233405   3.289   4.456   8.047 -0.4365 -0.6641 -0.6054
 7257SOL     OW33406   1.117   1.934  11.239  0.3675 -0.1440  0.1255
 7257SOL    HW133407   1.128   2.022  11.203  2.1890  0.1229  1.3245
 7257SOL    HW233408   1.122   1.887  11.156 -0.7718  1.2029 -0.6958
 7258SOL     OW33409   1.565   1.701   4.106 -0.0599 -0.1771 -0.0567
 7258SOL    HW133410   1.613   1.774   4.144 -0.3448 -0.4448  0.8096
 7258SOL    HW233411   1.621   1.690   4.029  0.7425 -2.3227  0.8314
 7259SOL     OW33412   3.115   0.222   8.078  0.0162 -0.3439 -0.2571
 7259SOL    HW133413   3.025   0.203   8.051 -0.8100  2.2298  0.6614
 7259SOL    HW233414   3.143   0.133   8.102 -0.9971 -0.7498 -0.5824
 7260SOL     OW33415   2.952   2.646   1.236 -0.4039 -0.3304 -0.0223
 7260SOL    HW133416   2.858   2.645   1.254 -0.2630  0.7948  0.8009
 7260SOL    HW233417   2.992   2.599   1.309  1.0705 -2.2091 -2.0805
 7261SOL     OW33418   2.954   2.196  12.328 -0.2586  0.1829 -0.0278
 7261SOL    HW133419   2.925   2.245  12.251  0.4109 -0.4138 -0.6561
 7261SOL    HW233420   2.966   2.271  12.387 -0.2791 -0.7811  1.2091
 7262SOL     OW33421   1.934   3.052   7.760 -0.4270 -0.1274  0.0743
 7262SOL    HW133422   1.896   2.997   7.829  0.2241 -0.8865 -0.1736
 7262SOL    HW233423   1.997   3.097   7.815  1.9950  0.2285 -2.9984
 7263SOL     OW33424   1.525   2.381  11.990  0.0691 -0.0326  0.3996
 7263SOL    HW133425   1.449   2.323  11.991 -0.0832  0.1285 -0.8712
 7263SOL    HW233426   1.499   2.443  11.921  0.0010  1.3950  1.7201
 7264SOL     OW33427   3.115   0.595   4.384  0.3308 -0.1419 -0.1452
 7264SOL    HW133428   3.070   0.577   4.467  0.8103 -0.9388 -0.0598
 7264SOL    HW233429   3.132   0.505   4.356  1.2423  0.4674 -1.5617
 7265SOL     OW33430   3.727   2.566  12.689 -0.7630 -0.0226  0.1348
 7265SOL    HW133431   3.652   2.529  12.642 -0.6547 -1.4404  1.0694
 7265SOL    HW233432   3.702   2.546  12.779  1.2861  2.6076  1.2605
 7266SOL     OW33433   0.268   2.508   5.026 -0.1035 -0.1004  0.5660
 7266SOL    HW133434   0.296   2.539   5.113 -1.9207 -3.2668  2.2905
 7266SOL    HW233435   0.179   2.477   5.044  0.2461 -1.8518 -0.6786
 7267SOL     OW33436   2.821   2.034   6.909 -0.6613  0.0067  0.2856
 7267SOL    HW133437   2.858   1.951   6.939  1.4552  0.1853 -1.8746
 7267SOL    HW233438   2.900   2.062   6.863  0.0864 -2.9706 -0.2258
 7268SOL     OW33439   1.550   4.271   6.882  0.2373 -0.6605  0.1381
 7268SOL    HW133440   1.519   4.225   6.960 -2.1900  0.1346 -0.3593
 7268SOL    HW233441   1.637   4.235   6.869 -0.0560 -0.8940 -1.1620
 7269SOL     OW33442   2.333   3.269  16.585 -0.6444 -0.2132 -0.4857
 7269SOL    HW133443   2.380   3.187  16.604 -1.0919 -0.9429 -2.4834
 7269SOL    HW233444   2.299   3.287  16.672 -0.5531  1.4670 -0.8045
 7270SOL     OW33445   2.567   1.153   3.632 -0.4756 -0.4352 -0.2089
 7270SOL    HW133446   2.515   1.185   3.705  0.0114  1.1736 -0.5532
 7270SOL    HW233447   2.584   1.238   3.591  0.3387 -2.6525 -4.5218
 7271SOL     OW33448   2.745   3.103  14.179  0.1999 -0.9376 -0.0952
 7271SOL    HW133449   2.824   3.049  14.185  1.0906  0.2435 -1.3717
 7271SOL    HW233450   2.763   3.127  14.088 -2.9223 -1.4003 -0.8360
 7272SOL     OW33451   1.352   0.059   4.103  0.4732  0.0378  0.5265
 7272SOL    HW133452   1.334   0.120   4.031 -2.8960 -0.6549  0.8006
 7272SOL    HW233453   1.330   4.707   4.067  3.2652 -0.6262  0.4195
 7273SOL     OW33454   3.165   2.159   9.376  0.0477  0.3538 -0.1376
 7273SOL    HW133455   3.108   2.211   9.433  0.8381  0.4725  0.5354
 7273SOL    HW233456   3.211   2.221   9.319 -0.1308  0.5590 -0.0575
 7274SOL     OW33457   0.323   0.263   6.731 -0.2086 -0.2333  0.4541
 7274SOL    HW133458   0.344   0.345   6.776 -2.1791  0.0424  0.8827
 7274SOL    HW233459   0.340   0.284   6.639 -0.1675  2.2261  1.0181
 7275SOL     OW33460   1.628   0.639  11.421  0.0884  0.1654  0.4179
 7275SOL    HW133461   1.593   0.568  11.368 -2.8357  1.2458  0.8883
 7275SOL    HW233462   1.722   0.622  11.412 -0.3661 -2.2658  0.3685
 7276SOL     OW33463   3.386   3.093   2.864 -0.1035 -0.3073 -0.2007
 7276SOL    HW133464   3.351   3.038   2.794 -1.7264  2.7004 -1.7532
 7276SOL    HW233465   3.321   3.160   2.884 -0.4386 -0.5559 -0.4764
 7277SOL     OW33466   1.180   1.572   2.544 -0.3075  0.0117 -0.6534
 7277SOL    HW133467   1.114   1.639   2.559  1.2280  1.5278 -0.5594
 7277SOL    HW233468   1.192   1.575   2.449  2.2908  2.0098 -0.2586
 7278SOL     OW33469   0.852   2.050  17.265 -0.2088  0.7038  0.1071
 7278SOL    HW133470   0.945   2.037  17.250 -1.0120 -3.1849 -1.3569
 7278SOL    HW233471   0.815   1.965  17.244  0.2956  0.0950  1.7136
 7279SOL     OW33472   4.290   0.462   8.734  0.1801 -0.7091 -0.3866
 7279SOL    HW133473   4.262   0.402   8.664 -3.0462  1.9791 -1.4180
 7279SOL    HW233474   4.258   0.393   8.791  0.8371 -1.4836 -0.9469
 7280SOL     OW33475   3.803   3.268  16.194 -0.6334  0.5310 -0.5571
 7280SOL    HW133476   3.716   3.307  16.202 -0.4920  0.5407  1.0188
 7280SOL    HW233477   3.796   3.207  16.267  1.3235  2.0078  0.8893
 7281SOL     OW33478   3.723   2.934   3.501  0.3216  0.7096 -0.1260
 7281SOL    HW133479   3.809   2.897   3.517  1.2445  1.1060 -4.1237
 7281SOL    HW233480   3.712   2.988   3.579 -2.8989 -0.6425  0.3749
 7282SOL     OW33481   4.564   3.498   3.466 -0.4262  0.6057 -0.0479
 7282SOL    HW133482   4.473   3.523   3.451 -0.5721 -1.1168 -1.9571
 7282SOL    HW233483   4.619   3.575   3.450  0.0013  0.3446  0.1478
 7283SOL     OW33484   1.629   1.303   3.065  0.1688 -0.6756  0.0963
 7283SOL    HW133485   1.623   1.274   2.974 -3.5540  1.2165 -0.2496
 7283SOL    HW233486   1.722   1.323   3.076 -0.8705  2.8409  2.4872
 7284SOL     OW33487   0.341   3.763   9.720  0.0543 -0.1591 -0.0478
 7284SOL    HW133488   0.340   3.695   9.787  2.1338  0.8602  1.0302
 7284SOL    HW233489   0.300   3.837   9.764 -1.5053  0.7965 -3.1244
 7285SOL     OW33490   0.020   4.368   1.789  0.3895  0.1273  1.0060
 7285SOL    HW133491   0.088   4.336   1.849  1.3404  0.1183 -0.0789
 7285SOL    HW233492   4.709   4.426   1.850  1.9911  1.1498  1.1990
 7286SOL     OW33493   4.492   2.209  10.813  0.5514 -0.0253  0.1253
 7286SOL    HW133494   4.508   2.119  10.840  1.8629  0.8551  2.3097
 7286SOL    HW233495   4.399   2.207  10.837  1.1649  1.3601  2.6280
 7287SOL     OW33496   3.399   3.637   6.691  0.0232  0.2502  0.7186
 7287SOL    HW133497   3.493   3.654   6.700  0.3420  0.3866 -3.0671
 7287SOL    HW233498   3.407   3.542   6.694  1.0113  0.2244 -3.0588
 7288SOL     OW33499   2.272   0.468   8.869  0.1874  0.0813  0.1542
 7288SOL    HW133500   2.345   0.418   8.906  1.0481 -0.3660 -2.1509
 7288SOL    HW233501   2.313   0.487   8.785  0.0499 -0.0367  0.0585
 7289SOL     OW33502   0.478   4.609   8.739 -0.7853  0.1075  0.8219
 7289SOL    HW133503   0.500   4.688   8.689  0.2763  0.6321  2.1261
 7289SOL    HW233504   0.463   4.662   8.817 -0.9996  1.1426  0.0831
 7290SOL     OW33505   1.739   2.973   7.593 -0.7903 -0.4860 -0.3200
 7290SOL    HW133506   1.809   3.029   7.627 -1.4528  0.6003 -0.7518
 7290SOL    HW233507   1.790   2.891   7.596 -0.1956 -0.1729 -2.0979
 7291SOL     OW33508   0.430   2.200   7.411 -0.0633  0.7284 -0.6287
 7291SOL    HW133509   0.454   2.169   7.498  0.4387  1.8898 -0.3492
 7291SOL    HW233510   0.438   2.115   7.368  0.9288  0.5682 -0.1236
 7292SOL     OW33511   0.511   3.447   5.094 -0.4430 -0.1288  0.1093
 7292SOL    HW133512   0.576   3.394   5.140 -1.4139 -0.7601  0.7542
 7292SOL    HW233513   0.435   3.444   5.152 -1.4528 -0.0571 -1.2168
 7293SOL     OW33514   1.034   1.381   1.728  0.2901 -0.2472  0.4189
 7293SOL    HW133515   0.950   1.363   1.771  0.6454  1.6741  1.9068
 7293SOL    HW233516   1.026   1.474   1.709  0.4414 -0.4912 -0.8389
 7294SOL     OW33517   4.148   0.492  16.639 -0.0185 -0.2566  0.2454
 7294SOL    HW133518   4.127   0.481  16.546  1.7220 -0.8447 -0.0835
 7294SOL    HW233519   4.054   0.493  16.659  0.0247 -0.2248  0.4437
 7295SOL     OW33520   0.836   1.825   7.487 -0.2294  0.3442 -0.3027
 7295SOL    HW133521   0.765   1.842   7.549 -0.3219 -0.1332 -0.2779
 7295SOL    HW233522   0.843   1.911   7.446  1.1351 -0.1264 -1.0618
 7296SOL     OW33523   0.570   1.392   2.792  0.2461  0.1470 -0.1422
 7296SOL    HW133524   0.655   1.409   2.834 -0.9998  1.4336  1.8676
 7296SOL    HW233525   0.546   1.305   2.822  0.2708  0.2498  0.1779
 7297SOL     OW33526   0.018   0.476   5.319  0.4072 -0.3871 -0.3458
 7297SOL    HW133527   0.094   0.466   5.376 -0.5137 -3.5935  0.3147
 7297SOL    HW233528   0.045   0.424   5.243 -0.5442 -0.1776 -0.8342
 7298SOL     OW33529   2.652   1.320  11.159  0.0380 -0.2327  0.1424
 7298SOL    HW133530   2.630   1.407  11.190  0.2026  0.2161 -1.0089
 7298SOL    HW233531   2.643   1.327  11.064 -2.5970 -0.1917  0.4098
 7299SOL     OW33532   2.812   2.627   5.019  0.0972  0.3763 -0.4007
 7299SOL    HW133533   2.806   2.660   5.108  0.4373  0.8459 -0.5552
 7299SOL    HW233534   2.769   2.544   5.042  0.1786  1.1220  2.4639
 7300SOL     OW33535   0.094   4.440   8.252  0.3444  0.3924  0.0847
 7300SOL    HW133536   0.124   4.523   8.290  0.8547  0.4151 -0.3698
 7300SOL    HW233537   0.059   4.392   8.327  0.3299 -1.1064 -0.8990
 7301SOL     OW33538   1.912   4.218   6.374 -0.3124 -0.1138  0.1488
 7301SOL    HW133539   1.990   4.237   6.322  0.0155  1.6949  1.3123
 7301SOL    HW233540   1.837   4.245   6.322 -1.1499  1.0745  1.9719
 7302SOL     OW33541   2.110   4.575   3.904 -0.0217 -0.3806 -0.8188
 7302SOL    HW133542   2.147   4.570   3.992 -0.4559  1.8727 -0.5177
 7302SOL    HW233543   2.182   4.606   3.849  0.0177  0.9370 -0.0215
 7303SOL     OW33544   3.060   1.638   3.784 -0.1270 -0.0007 -0.5839
 7303SOL    HW133545   3.067   1.548   3.750 -1.4560 -0.7094  1.0218
 7303SOL    HW233546   3.099   1.693   3.716 -1.6135  0.7834 -0.7983
 7304SOL     OW33547   0.152   0.090  13.664 -0.5230  0.0729 -0.1966
 7304SOL    HW133548   0.238   0.119  13.696 -1.0260  0.6719  0.6009
 7304SOL    HW233549   0.155   4.728  13.666 -1.7809  0.0490  0.3393
 7305SOL     OW33550   1.537   0.819   1.507  0.4708 -0.5241 -0.5658
 7305SOL    HW133551   1.517   0.843   1.417 -0.6042  2.7925  0.5475
 7305SOL    HW233552   1.565   0.907   1.531  1.9706 -0.9251 -0.8527
 7306SOL     OW33553   3.074   2.024   3.771 -0.4899  0.2079  0.8520
 7306SOL    HW133554   3.162   1.988   3.759 -1.4937 -1.7710 -0.5930
 7306SOL    HW233555   3.047   2.030   3.679  0.1226 -1.5204  0.5580
 7307SOL     OW33556   0.542   0.317   9.689 -0.4059  0.0247 -0.3243
 7307SOL    HW133557   0.560   0.403   9.651  2.7155 -0.3486  0.3035
 7307SOL    HW233558   0.603   0.261   9.641 -0.0989  0.9333 -1.0058
 7308SOL     OW33559   4.348   1.630   3.925  0.0558 -0.6728 -0.4744
 7308SOL    HW133560   4.438   1.644   3.952 -0.2081  0.4535 -0.2072
 7308SOL    HW233561   4.305   1.629   4.010 -0.3257  0.8297 -0.6531
 7309SOL     OW33562   3.904   3.920   5.622  0.2204 -0.1709  0.8310
 7309SOL    HW133563   3.870   3.885   5.704 -0.9097 -2.6523 -0.6730
 7309SOL    HW233564   3.975   3.862   5.592  0.2043  0.6943 -0.8805
 7310SOL     OW33565   1.978   0.428  13.502  1.0022  0.0025 -0.1692
 7310SOL    HW133566   1.943   0.376  13.430  1.6443 -2.8214  1.5491
 7310SOL    HW233567   1.896   0.459  13.542  0.1955  1.3103 -2.8269
 7311SOL     OW33568   1.470   3.693  12.763  1.0772  0.0461 -0.4300
 7311SOL    HW133569   1.387   3.715  12.722  0.8133 -0.3868 -0.1259
 7311SOL    HW233570   1.447   3.727  12.850  2.2361 -3.0249  1.1025
 7312SOL     OW33571   2.117   1.473   6.254 -0.1002  0.3597 -0.2646
 7312SOL    HW133572   2.075   1.531   6.191  1.8672  2.7143  0.6345
 7312SOL    HW233573   2.048   1.465   6.320 -0.2653  0.2296 -0.4535
 7313SOL     OW33574   4.655   0.950   8.831  0.3794 -0.2298 -0.0611
 7313SOL    HW133575   4.720   0.919   8.893  0.0226 -1.1267 -0.1250
 7313SOL    HW233576   4.666   0.882   8.764  1.0774  1.1621 -1.3371
 7314SOL     OW33577   2.907   0.394   1.807 -0.2993  0.2990 -0.7274
 7314SOL    HW133578   2.956   0.387   1.889  0.0122 -0.6063 -0.9916
 7314SOL    HW233579   2.826   0.348   1.831  0.1625 -0.3545 -0.4279
 7315SOL     OW33580   0.854   4.619  11.551 -0.6252 -0.2444 -0.5654
 7315SOL    HW133581   0.887   4.557  11.487  0.6937  0.6398 -0.7444
 7315SOL    HW233582   0.931   4.672  11.572  0.6725 -1.3191 -2.6759
 7316SOL     OW33583   0.825   3.487   8.313  0.4424 -0.3684  0.1836
 7316SOL    HW133584   0.819   3.406   8.262 -0.0278 -1.2424  1.6170
 7316SOL    HW233585   0.745   3.525   8.279  1.8125  2.1026 -0.2668
 7317SOL     OW33586   0.982   1.164  14.428 -0.2434  0.2336 -0.1902
 7317SOL    HW133587   0.924   1.111  14.374 -2.7713  1.4016  1.4265
 7317SOL    HW233588   1.051   1.101  14.450  0.0472  0.7373  0.3500
 7318SOL     OW33589   4.642   1.917   9.297 -0.1754  0.3023  0.2697
 7318SOL    HW133590   4.674   1.988   9.354 -0.0199  1.3093 -1.0555
 7318SOL    HW233591   4.587   1.881   9.366 -0.9655 -0.9931 -1.0479
 7319SOL     OW33592   3.573   0.574  15.158 -0.9787 -0.0224  0.9294
 7319SOL    HW133593   3.661   0.553  15.127 -0.5248  0.0152  2.1998
 7319SOL    HW233594   3.541   0.641  15.097  0.3006  0.3088  0.6028
 7320SOL     OW33595   3.644   3.515  12.877 -0.3765  0.7653  0.0154
 7320SOL    HW133596   3.636   3.430  12.834  1.8854  0.2798  0.5808
 7320SOL    HW233597   3.665   3.576  12.806 -0.9637  0.4771 -0.4090
 7321SOL     OW33598   1.573   1.680  15.507  0.0431 -0.0197  0.0399
 7321SOL    HW133599   1.619   1.753  15.466 -0.4482  0.2499 -0.0316
 7321SOL    HW233600   1.586   1.613  15.439 -0.1297 -1.3453  1.3014
 7322SOL     OW33601   0.353   1.765   6.509  0.9968  0.1611 -0.1626
 7322SOL    HW133602   0.319   1.854   6.510 -0.3296 -0.3447 -0.6651
 7322SOL    HW233603   0.448   1.779   6.505  1.0617 -0.1687  0.2207
 7323SOL     OW33604   3.661   1.947   4.820 -0.7026  0.4850 -0.3178
 7323SOL    HW133605   3.737   1.889   4.827 -1.5581 -0.6840 -0.7873
 7323SOL    HW233606   3.710   2.024   4.792  2.6037 -1.1756  0.9297
 7324SOL     OW33607   3.987   0.362   2.861  0.4667 -0.1062 -0.2860
 7324SOL    HW133608   4.008   0.452   2.887  1.2084 -0.1833 -0.5890
 7324SOL    HW233609   3.977   0.373   2.766  1.4011 -0.1366 -0.3951
 7325SOL     OW33610   2.889   1.551  12.795 -0.7371 -0.2644 -0.4145
 7325SOL    HW133611   2.810   1.504  12.772 -1.9511  1.8081 -0.5098
 7325SOL    HW233612   2.862   1.641  12.814  0.6621  0.4240 -1.6634
 7326SOL     OW33613   3.310   2.237   2.451  0.0978 -0.3238  0.3092
 7326SOL    HW133614   3.251   2.247   2.526 -0.7006  2.7901 -0.7043
 7326SOL    HW233615   3.390   2.232   2.501 -0.2712  0.1408  0.9422
 7327SOL     OW33616   3.318   2.521   2.548 -0.1551  0.2927 -0.1310
 7327SOL    HW133617   3.282   2.582   2.484  2.8277  1.4641 -0.7009
 7327SOL    HW233618   3.333   2.442   2.496 -0.0778 -0.1071  0.4917
 7328SOL     OW33619   1.154   1.899   3.875  0.2153 -0.1846  0.2533
 7328SOL    HW133620   1.207   1.819   3.866 -0.2210 -0.5535  0.9002
 7328SOL    HW233621   1.221   1.959   3.843 -1.6695  1.4968 -0.4951
 7329SOL     OW33622   0.683   1.500   8.484  0.5647 -0.1785 -0.2611
 7329SOL    HW133623   0.680   1.409   8.515  0.7852  0.7565  2.4986
 7329SOL    HW233624   0.713   1.545   8.563  0.3700  0.6027 -0.6391
 7330SOL     OW33625   0.592   3.661   4.423 -0.3994 -0.3453  0.2222
 7330SOL    HW133626   0.630   3.645   4.509 -3.2772 -2.1923  1.1446
 7330SOL    HW233627   0.518   3.600   4.421  0.7999 -1.8024  0.0189
 7331SOL     OW33628   1.198   0.203  16.592  0.6616  0.2784 -0.0180
 7331SOL    HW133629   1.194   0.129  16.531 -1.4715 -0.6524  1.2544
 7331SOL    HW233630   1.289   0.230  16.578  1.1954 -0.3486  2.4080
 7332SOL     OW33631   1.441   2.730   1.212 -0.8465  0.3910  0.3401
 7332SOL    HW133632   1.472   2.683   1.290 -0.0937 -1.3807 -1.0373
 7332SOL    HW233633   1.354   2.752   1.246 -0.8280 -0.1564  0.7499
 7333SOL     OW33634   1.041   4.100   3.611 -0.1605 -0.0454 -0.0559
 7333SOL    HW133635   1.079   4.088   3.525  0.0467 -3.2004  0.4790
 7333SOL    HW233636   1.046   4.195   3.621  0.1223 -0.1075  0.4009
 7334SOL     OW33637   3.914   2.041  16.822 -1.2806  0.8364 -0.1612
 7334SOL    HW133638   3.943   1.950  16.830 -1.0752  0.9834  0.7250
 7334SOL    HW233639   3.823   2.028  16.798 -0.4921 -1.7396 -1.8157
 7335SOL     OW33640   4.425   4.252   3.906 -0.0037 -0.1900 -0.2287
 7335SOL    HW133641   4.489   4.320   3.928  0.5987 -0.7821 -0.1816
 7335SOL    HW233642   4.431   4.241   3.812 -0.7151  0.6966 -0.3876
 7336SOL     OW33643   3.670   3.233  15.454 -0.7190 -0.3646  0.3094
 7336SOL    HW133644   3.744   3.277  15.497 -0.7447 -0.1987  0.1844
 7336SOL    HW233645   3.605   3.215  15.521 -0.5540  0.5474  0.7177
 7337SOL     OW33646   2.612   0.979   4.642  0.6478  0.1254 -0.3892
 7337SOL    HW133647   2.645   0.935   4.720 -1.2534  0.0891  0.3967
 7337SOL    HW233648   2.696   0.992   4.598  1.0861 -1.3837 -0.0152
 7338SOL     OW33649   2.236   2.336   5.754  0.9603  0.0602 -0.1565
 7338SOL    HW133650   2.236   2.410   5.693  1.4097 -0.8342 -1.2301
 7338SOL    HW233651   2.168   2.369   5.813  2.8207 -0.8075  2.4707
 7339SOL     OW33652   0.259   3.333   3.877 -0.1286 -0.2121 -0.1334
 7339SOL    HW133653   0.217   3.367   3.798  2.9208 -0.6356 -1.9612
 7339SOL    HW233654   0.344   3.377   3.871  0.0038 -0.5422 -0.7132
 7340SOL     OW33655   2.178   3.026  16.532  0.8425 -0.2059  0.4854
 7340SOL    HW133656   2.117   3.096  16.557  0.4964 -0.2409 -0.2792
 7340SOL    HW233657   2.218   3.013  16.618 -0.2414  1.0785  1.1904
 7341SOL     OW33658   1.186   1.962   4.764 -0.4691 -0.1486  0.2284
 7341SOL    HW133659   1.175   2.034   4.703  0.3870  0.0110  0.2512
 7341SOL    HW233660   1.130   1.897   4.722  2.1984 -1.9308 -0.6330
 7342SOL     OW33661   1.410   1.027   8.165  0.3462 -0.3826  0.5743
 7342SOL    HW133662   1.478   0.960   8.153  0.5871  0.1214 -0.8118
 7342SOL    HW233663   1.346   1.009   8.096  0.9651  1.6178 -0.5153
 7343SOL     OW33664   3.335   3.847   5.901 -0.2478  0.7220 -0.0343
 7343SOL    HW133665   3.350   3.886   5.987 -0.1057 -1.1549  0.7691
 7343SOL    HW233666   3.374   3.760   5.904 -0.7706  0.5162  0.6633
 7344SOL     OW33667   0.579   1.741  13.344 -0.3532 -0.4189  0.5209
 7344SOL    HW133668   0.530   1.711  13.421 -1.8173 -0.0793 -0.2658
 7344SOL    HW233669   0.615   1.824  13.375 -0.5296 -0.5641  1.1167
 7345SOL     OW33670   1.958   1.215  10.344  0.3732  0.4655  0.1430
 7345SOL    HW133671   2.027   1.268  10.303  1.0146 -1.2542 -1.0186
 7345SOL    HW233672   1.990   1.125  10.337  1.4851  0.9450 -1.0680
 7346SOL     OW33673   3.607   3.742   8.080  0.4746  0.5123  0.0265
 7346SOL    HW133674   3.588   3.684   8.153  2.3087  0.1897  0.2496
 7346SOL    HW233675   3.698   3.712   8.076  1.5588  3.8413 -0.4336
 7347SOL     OW33676   2.100   1.456   1.557  0.1808 -0.1649 -0.7179
 7347SOL    HW133677   2.105   1.479   1.649  0.2465  0.9021 -0.9809
 7347SOL    HW233678   2.184   1.411   1.555 -0.2615 -0.9000 -2.7122
 7348SOL     OW33679   2.542   2.715  15.271  0.1652 -0.1656 -0.3088
 7348SOL    HW133680   2.569   2.676  15.189  1.7965 -0.4375  0.3687
 7348SOL    HW233681   2.505   2.637  15.314  1.2828 -0.0913  0.7873
 7349SOL     OW33682   3.040   0.221   4.588  0.5450 -0.1053 -0.0264
 7349SOL    HW133683   3.021   0.261   4.673 -0.2943 -2.2115  0.7656
 7349SOL    HW233684   2.954   0.199   4.552  0.4643  0.8501 -0.4093
 7350SOL     OW33685   0.698   2.354   2.018 -0.4121 -0.0827  0.3262
 7350SOL    HW133686   0.710   2.343   2.112  1.5366  0.0497  0.1057
 7350SOL    HW233687   0.635   2.426   2.013 -0.2449  0.0566  0.2015
 7351SOL     OW33688   1.353   1.161   4.341  0.5938 -0.2712  0.2566
 7351SOL    HW133689   1.383   1.232   4.397 -0.6671 -0.3107  0.9709
 7351SOL    HW233690   1.275   1.137   4.389 -0.1248 -0.4907 -1.0134
 7352SOL     OW33691   3.276   1.888   9.463 -0.5689  0.2466 -0.0863
 7352SOL    HW133692   3.353   1.924   9.506 -0.7387  2.0024 -1.2344
 7352SOL    HW233693   3.238   1.964   9.417  0.1316  0.3824 -0.4433
 7353SOL     OW33694   0.268   2.304   0.443 -0.3582 -0.0587  0.4266
 7353SOL    HW133695   0.190   2.273   0.397 -1.0247 -1.0829  2.2172
 7353SOL    HW233696   0.329   2.308   0.370  0.8566  1.4909  1.5112
 7354SOL     OW33697   4.031   4.459   9.226  0.1508 -0.1207  0.1166
 7354SOL    HW133698   4.012   4.431   9.137  0.4969 -1.0700  0.3397
 7354SOL    HW233699   4.050   4.381   9.278 -1.7298 -0.4331  0.3455
 7355SOL     OW33700   2.168   1.286   0.481 -0.2180 -0.0792 -0.2787
 7355SOL    HW133701   2.167   1.269   0.387 -0.8498 -1.1716 -0.0781
 7355SOL    HW233702   2.139   1.376   0.476  0.7795 -0.0572 -5.4165
 7356SOL     OW33703   3.129   1.243   8.660 -0.3973 -0.2463  0.4178
 7356SOL    HW133704   3.052   1.195   8.632  0.3925 -1.3714  0.1859
 7356SOL    HW233705   3.128   1.234   8.756 -1.8709 -0.6156  0.3689
 7357SOL     OW33706   1.088   0.459  11.011  0.1465  0.7298 -0.6242
 7357SOL    HW133707   1.056   0.428  11.096  0.1944 -0.0161 -0.8778
 7357SOL    HW233708   1.072   0.379  10.960 -2.0116  2.5787 -2.8734
 7358SOL     OW33709   0.013   4.167   6.750 -0.2598  0.4214  0.3611
 7358SOL    HW133710   0.051   4.207   6.673  0.2647  0.5464  0.6856
 7358SOL    HW233711   4.690   4.104   6.706 -0.1051  1.1490 -0.8618
 7359SOL     OW33712   4.058   2.916   9.632  0.1388 -0.0532 -0.2653
 7359SOL    HW133713   4.084   2.989   9.575 -0.7752  2.3053  2.3229
 7359SOL    HW233714   4.116   2.933   9.706 -0.8302 -0.5780  0.6077
 7360SOL     OW33715   4.079   0.044   3.466 -0.5325  0.3013 -0.1440
 7360SOL    HW133716   4.160   0.061   3.418  0.6098 -3.8995  0.3202
 7360SOL    HW233717   4.101   4.707   3.526 -2.6736 -1.4721 -1.4789
 7361SOL     OW33718   3.764   3.245   5.858 -0.6134  0.2700  0.5836
 7361SOL    HW133719   3.670   3.237   5.872 -0.6431  1.3983  1.0454
 7361SOL    HW233720   3.763   3.260   5.764 -0.6091  0.8260  0.6699
 7362SOL     OW33721   1.099   3.044  14.496 -0.1722 -0.4144 -0.1005
 7362SOL    HW133722   1.125   2.953  14.511 -1.2135 -0.6125  0.5064
 7362SOL    HW233723   1.008   3.028  14.471  0.3831  1.3951 -3.2640
 7363SOL     OW33724   2.816   0.036  13.557  0.6180  0.0502  0.2279
 7363SOL    HW133725   2.840   4.705  13.623 -1.0820  1.3062  2.1114
 7363SOL    HW233726   2.813   4.717  13.478  0.0996 -0.6237  0.6960
 7364SOL     OW33727   2.489   1.595  15.576  0.4145  0.2948 -0.2893
 7364SOL    HW133728   2.422   1.632  15.633  0.6126  1.9974 -1.1685
 7364SOL    HW233729   2.523   1.676  15.537 -1.1091  0.1410 -1.9364
 7365SOL     OW33730   2.148   0.176   1.030  0.6796  0.6843  0.2242
 7365SOL    HW133731   2.161   0.128   0.948  0.5135 -0.9857  1.1787
 7365SOL    HW233732   2.119   0.262   0.999 -1.5210 -0.4014 -0.7550
 7366SOL     OW33733   2.998   2.189   6.189 -0.5796 -0.3775 -0.3541
 7366SOL    HW133734   3.011   2.155   6.100  0.2351 -1.1987  0.0726
 7366SOL    HW233735   3.040   2.274   6.197  0.1768 -1.0980  2.9801
 7367SOL     OW33736   2.365   2.893   8.638 -0.2506 -0.0353  0.0820
 7367SOL    HW133737   2.367   2.935   8.552  1.0223 -1.0289 -0.3781
 7367SOL    HW233738   2.354   2.970   8.694 -0.2547  1.0825 -1.4477
 7368SOL     OW33739   3.680   0.309  11.661 -0.5700  0.7493 -0.1172
 7368SOL    HW133740   3.622   0.234  11.666  2.3172 -1.3925  1.3732
 7368SOL    HW233741   3.619   0.383  11.667  0.5440  1.8340 -2.0757
 7369SOL     OW33742   1.366   3.057   5.371  0.4966  0.2363  0.0929
 7369SOL    HW133743   1.372   3.147   5.339 -2.6737  0.2473 -0.4008
 7369SOL    HW233744   1.296   3.057   5.435  0.2443  1.1963 -0.1852
 7370SOL     OW33745   2.848   1.222  13.992  0.4457  0.3023  0.1594
 7370SOL    HW133746   2.911   1.246  13.924 -0.5570 -2.7373 -1.8240
 7370SOL    HW233747   2.773   1.235  13.935  1.1866 -0.5333 -1.0096
 7371SOL     OW33748   3.643   0.665   0.010 -0.0090  0.7484  0.1076
 7371SOL    HW133749   3.630   0.713   0.092 -1.4064  0.1033  0.2691
 7371SOL    HW233750   3.685   0.739  17.701 -1.6401  0.5044 -1.8547
 7372SOL     OW33751   0.515   1.175   6.898  0.1785 -0.4471 -0.0194
 7372SOL    HW133752   0.559   1.174   6.983  0.0251  1.6405  0.0895
 7372SOL    HW233753   0.572   1.227   6.841  1.6139  0.3776  2.1849
 7373SOL     OW33754   4.431   0.768   8.026 -0.0572  0.0113 -0.0969
 7373SOL    HW133755   4.525   0.771   8.042 -0.5558 -0.8649  3.1509
 7373SOL    HW233756   4.424   0.677   7.999 -0.3912  0.4502 -1.4746
 7374SOL     OW33757   2.967   2.061   8.183 -0.3918 -0.2067  0.5114
 7374SOL    HW133758   2.900   2.078   8.117  0.3299 -1.5423 -0.5455
 7374SOL    HW233759   2.908   2.017   8.245 -1.6944  0.4099 -0.2955
 7375SOL     OW33760   1.940   3.964   7.003  0.3505  0.1643 -0.0927
 7375SOL    HW133761   2.025   3.922   7.018 -1.7081 -3.1577  2.4534
 7375SOL    HW233762   1.933   4.027   7.076 -1.1258  0.3948 -0.4359
 7376SOL     OW33763   4.324   3.907   9.566  0.4586  0.6010 -0.4991
 7376SOL    HW133764   4.301   3.961   9.642 -0.2373  0.4538 -0.6041
 7376SOL    HW233765   4.366   3.831   9.606  1.3885  1.7941  0.7743
 7377SOL     OW33766   3.887   4.489  15.485 -0.0249  0.2083  0.2268
 7377SOL    HW133767   3.879   4.537  15.402 -3.3364  0.8483  0.9092
 7377SOL    HW233768   3.974   4.457  15.465 -0.6386 -0.8949 -0.6591
 7378SOL     OW33769   4.211   4.656   7.064 -0.4388 -0.2258 -0.0183
 7378SOL    HW133770   4.209   4.605   7.145 -0.4449 -0.5951 -0.2512
 7378SOL    HW233771   4.276   4.614   7.008 -0.0068 -3.1114  2.6123
 7379SOL     OW33772   1.755   3.396   6.014 -0.0884 -0.6021  0.6097
 7379SOL    HW133773   1.679   3.447   6.043  1.9889  1.8713  1.6601
 7379SOL    HW233774   1.815   3.461   5.979 -1.3432  0.3204  0.1701
 7380SOL     OW33775   4.318   3.821  11.625 -0.7054  0.9360 -0.1243
 7380SOL    HW133776   4.400   3.828  11.674 -0.4775  0.4395 -0.4251
 7380SOL    HW233777   4.320   3.895  11.565  1.3655  0.6030 -0.4655
 7381SOL     OW33778   1.033   0.420   8.481  0.4205  0.2832 -0.0848
 7381SOL    HW133779   1.054   0.512   8.493  1.5656 -0.0235  0.2888
 7381SOL    HW233780   1.071   0.390   8.564  0.2762 -0.5016 -0.3053
 7382SOL     OW33781   0.766   1.839   5.168  0.0620 -0.3710 -0.4087
 7382SOL    HW133782   0.838   1.888   5.208 -0.0231 -2.2550  1.9974
 7382SOL    HW233783   0.697   1.905   5.161  0.2232 -0.3938 -2.2623
 7383SOL     OW33784   0.948   2.718   4.226  0.5528  0.1861  0.2479
 7383SOL    HW133785   0.898   2.771   4.289  1.1046 -2.6280  3.0631
 7383SOL    HW233786   1.036   2.740   4.257  0.2875  0.7365  0.6159
 7384SOL     OW33787   2.066   0.112   6.017 -0.3801  0.5689  0.5262
 7384SOL    HW133788   1.989   0.164   6.039 -1.0399 -0.4870  0.6984
 7384SOL    HW233789   2.042   0.043   5.954 -1.1982  1.3798 -0.0542
 7385SOL     OW33790   0.507   3.757  17.333  0.4274  0.1272 -0.1470
 7385SOL    HW133791   0.466   3.702  17.266  0.3524 -0.5395  0.4556
 7385SOL    HW233792   0.581   3.707  17.365 -0.3633 -1.7806 -1.2725
 7386SOL     OW33793   0.236   3.693   4.538  0.2775 -0.3805  0.5790
 7386SOL    HW133794   0.212   3.610   4.498  0.3244  0.1633 -0.5912
 7386SOL    HW233795   0.281   3.735   4.464 -2.6376  1.7657  0.0231
 7387SOL     OW33796   2.586   0.830   6.169 -1.1266  0.2474 -0.3470
 7387SOL    HW133797   2.524   0.826   6.243 -1.3531  2.1806 -0.4394
 7387SOL    HW233798   2.589   0.737   6.146  0.1607  0.7622 -2.1888
 7388SOL     OW33799   1.046   1.339  14.805  0.0704  0.0248  0.4751
 7388SOL    HW133800   1.123   1.335  14.861 -0.0997 -0.8967  0.6340
 7388SOL    HW233801   1.076   1.305  14.721  1.5418  2.1178  0.1380
 7389SOL     OW33802   1.950   1.492   0.556 -1.1300  0.4528 -0.3202
 7389SOL    HW133803   1.887   1.564   0.552 -0.0067  1.5500  1.2294
 7389SOL    HW233804   1.889   1.419   0.558 -0.7887  0.1748  0.0633
 7390SOL     OW33805   2.483   2.441   6.632  0.2467 -0.1820 -0.1679
 7390SOL    HW133806   2.540   2.497   6.685 -0.6464  1.1525 -0.6336
 7390SOL    HW233807   2.396   2.473   6.654  0.5715  1.1462 -0.7621
 7391SOL     OW33808   3.300   1.500   0.539  0.3059  0.2459  0.1849
 7391SOL    HW133809   3.282   1.592   0.557 -1.1054 -0.1954  0.9752
 7391SOL    HW233810   3.220   1.457   0.566  0.1792 -0.7448 -1.7664
 7392SOL     OW33811   3.042   2.239   6.608  0.1383  0.5947 -0.0862
 7392SOL    HW133812   3.060   2.179   6.680  0.9444  0.9042 -0.0259
 7392SOL    HW233813   3.039   2.171   6.541  1.5583 -0.7945  1.2524
 7393SOL     OW33814   1.920   3.730   4.844 -0.0987  0.4876  0.3790
 7393SOL    HW133815   1.906   3.734   4.939 -1.3947  3.1309  0.0673
 7393SOL    HW233816   1.831   3.733   4.810  0.3889  1.1551 -0.8218
 7394SOL     OW33817   0.047   4.168  11.588 -0.3695 -0.2376  0.1183
 7394SOL    HW133818   0.127   4.180  11.638 -0.2752  0.3156 -0.1664
 7394SOL    HW233819   0.058   4.245  11.531 -0.1470  1.0519  1.9230
 7395SOL     OW33820   0.472   1.055   3.429 -0.2367  0.7946  0.4828
 7395SOL    HW133821   0.550   1.038   3.482  0.5867 -1.0241 -1.2881
 7395SOL    HW233822   0.484   1.148   3.410 -1.3793  0.9501  0.5349
 7396SOL     OW33823   0.806   0.464   1.339  0.0771  0.3955  0.5264
 7396SOL    HW133824   0.839   0.374   1.345  0.5115  0.5173 -0.0722
 7396SOL    HW233825   0.873   0.513   1.293  1.7492 -0.1560  2.3662
 7397SOL     OW33826   2.567   1.093   1.011 -0.2837 -0.3195 -1.0839
 7397SOL    HW133827   2.638   1.128   0.958  1.0955 -0.9920  0.3208
 7397SOL    HW233828   2.588   1.151   1.085  0.1334 -0.2888 -1.2317
 7398SOL     OW33829   3.250   1.052  13.641 -0.5039 -0.3389 -0.2936
 7398SOL    HW133830   3.192   1.057  13.717  2.2992  1.9835  1.6807
 7398SOL    HW233831   3.340   1.070  13.669 -0.5046  0.5008 -0.8340
 7399SOL     OW33832   4.609   2.074   2.250  0.0295  0.5341  0.4631
 7399SOL    HW133833   4.525   2.037   2.277 -0.4328  2.2106  1.3407
 7399SOL    HW233834   4.614   2.026   2.168 -1.0383 -0.5134  1.0202
 7400SOL     OW33835   1.251   0.624   6.481 -0.1833 -0.8545  0.6181
 7400SOL    HW133836   1.261   0.606   6.575 -0.3716 -1.1773  0.5764
 7400SOL    HW233837   1.156   0.634   6.473 -0.1852 -0.8019  0.7143
 7401SOL     OW33838   2.309   3.414   7.613  0.5332 -0.6437 -0.3833
 7401SOL    HW133839   2.261   3.497   7.609 -0.4336 -1.1208  1.0924
 7401SOL    HW233840   2.343   3.413   7.524  0.8566 -3.6711 -0.2398
 7402SOL     OW33841   4.301   1.429  13.173  0.5518 -0.6764 -0.1247
 7402SOL    HW133842   4.384   1.437  13.126  0.1149 -0.4452 -0.8611
 7402SOL    HW233843   4.328   1.364  13.237 -0.2356 -0.7018  0.1795
 7403SOL     OW33844   0.544   2.134   0.640 -0.0937  0.1778 -0.0203
 7403SOL    HW133845   0.590   2.140   0.724 -1.8463  1.2683  0.8561
 7403SOL    HW233846   0.570   2.046   0.614  0.4469  0.3697 -0.1449
 7404SOL     OW33847   1.910   0.983   3.875 -0.5087  0.2620  0.4137
 7404SOL    HW133848   1.957   0.911   3.832 -0.1140  0.6015  0.2825
 7404SOL    HW233849   1.822   0.949   3.890 -0.7677  0.7713  0.0537
 7405SOL     OW33850   2.742   2.545   3.025  0.5590  0.3675 -0.3940
 7405SOL    HW133851   2.665   2.544   2.967  1.5648  0.3117 -1.7178
 7405SOL    HW233852   2.812   2.574   2.967  2.1661 -1.7842  0.4810
 7406SOL     OW33853   1.234   1.872  17.326  0.5633 -0.0044  0.3299
 7406SOL    HW133854   1.272   1.955  17.357  1.1042  0.2752 -1.0730
 7406SOL    HW233855   1.174   1.855  17.399 -0.5844 -1.7361 -1.0290
 7407SOL     OW33856   3.154   4.094   6.143  0.0557  0.2632  0.1875
 7407SOL    HW133857   3.121   4.057   6.225  2.1264 -0.8945  0.4985
 7407SOL    HW233858   3.247   4.074   6.158 -0.8628 -0.3366  5.0045
 7408SOL     OW33859   3.707   2.089   1.295  0.2127  0.2176  0.9857
 7408SOL    HW133860   3.706   1.994   1.301  4.3953  0.1062 -0.0632
 7408SOL    HW233861   3.612   2.099   1.289  0.5669  2.5158 -1.0265
 7409SOL     OW33862   2.229   1.425  13.237  0.2855 -0.6053  0.7851
 7409SOL    HW133863   2.295   1.415  13.305 -1.1352  1.5824  2.4988
 7409SOL    HW233864   2.293   1.443  13.168 -1.7859  1.9807 -0.4872
 7410SOL     OW33865   4.454   4.063  11.334  0.3070 -0.2500 -0.2399
 7410SOL    HW133866   4.532   4.106  11.299 -0.5408  1.5312  0.0694
 7410SOL    HW233867   4.448   3.985  11.279  0.6048  0.0793 -0.7427
 7411SOL     OW33868   0.567   3.608   8.472  0.0697  0.4168 -0.5564
 7411SOL    HW133869   0.605   3.521   8.485 -0.7863  0.2942  1.2416
 7411SOL    HW233870   0.551   3.610   8.378 -1.1469 -3.2375 -0.4160
 7412SOL     OW33871   2.042   1.307   8.903 -0.0744  0.4053  0.2767
 7412SOL    HW133872   1.959   1.338   8.864 -0.0225 -0.3467 -0.4195
 7412SOL    HW233873   2.026   1.228   8.954 -0.5534  0.6530  0.5148
 7413SOL     OW33874   4.026   0.639   1.826  0.1774  0.1327  0.5990
 7413SOL    HW133875   4.044   0.557   1.872 -0.6069 -1.0010 -1.1168
 7413SOL    HW233876   4.112   0.677   1.842 -0.2548  1.6566 -0.6786
 7414SOL     OW33877   3.529   1.549  16.553 -0.5211 -0.2587 -0.0805
 7414SOL    HW133878   3.437   1.525  16.558 -0.5536  0.0026  0.4906
 7414SOL    HW233879   3.536   1.607  16.629  3.4744 -1.8274  0.7360
 7415SOL     OW33880   2.613   3.754   1.051  0.0551  0.1285 -0.4201
 7415SOL    HW133881   2.554   3.803   0.994  1.3642  1.1151 -0.9181
 7415SOL    HW233882   2.546   3.717   1.109 -0.3953  0.0688 -0.9734
 7416SOL     OW33883   4.521   3.559   3.152 -0.4418  0.1763 -0.3200
 7416SOL    HW133884   4.444   3.538   3.099 -0.1152 -1.2925 -0.2142
 7416SOL    HW233885   4.523   3.486   3.214  1.8742  0.1124 -0.4818
 7417SOL     OW33886   0.162   4.096   2.241 -0.3743  0.2960  0.3108
 7417SOL    HW133887   0.118   4.177   2.266 -1.9778 -0.2597 -0.6927
 7417SOL    HW233888   0.183   4.093   2.148  1.9349  0.7496  0.8186
 7418SOL     OW33889   0.087   2.213   8.522 -0.4736  0.4019  0.4176
 7418SOL    HW133890   0.004   2.239   8.562 -0.6099 -0.6113  0.7819
 7418SOL    HW233891   0.113   2.129   8.559  1.5232  0.5455 -0.6836
 7419SOL     OW33892   0.476   3.956   6.448  0.2008 -0.3466  0.0984
 7419SOL    HW133893   0.402   3.895   6.456 -1.4211  1.4476 -1.1513
 7419SOL    HW233894   0.446   4.000   6.368  0.1392  0.5318  0.6043
 7420SOL     OW33895   3.847   3.912   3.083  0.0291  0.5872 -0.4450
 7420SOL    HW133896   3.868   3.820   3.103  0.4616  0.8636  0.3785
 7420SOL    HW233897   3.922   3.934   3.029 -0.2168  1.0088 -0.6107
 7421SOL     OW33898   0.615   4.586   1.491  0.1054  0.1286  0.7844
 7421SOL    HW133899   0.532   4.630   1.471 -0.5067 -1.5870 -0.5047
 7421SOL    HW233900   0.668   4.611   1.415 -2.3655  1.9480 -0.3825
 7422SOL     OW33901   2.247   1.908   9.239  0.3927 -0.8244 -0.0109
 7422SOL    HW133902   2.295   1.831   9.209  3.9095  1.6296 -0.6134
 7422SOL    HW233903   2.177   1.866   9.290 -0.6486  0.6960 -0.1882
 7423SOL     OW33904   1.249   0.578   7.273 -0.5869 -0.2512 -0.2308
 7423SOL    HW133905   1.295   0.495   7.262  2.6091  1.5837 -0.7619
 7423SOL    HW233906   1.317   0.644   7.263 -1.3103  0.5364  0.0495
 7424SOL     OW33907   3.858   3.812   6.464  0.5547 -0.0708  0.4535
 7424SOL    HW133908   3.788   3.845   6.520  1.4041  0.9454  0.9361
 7424SOL    HW233909   3.899   3.758   6.532 -0.5168 -0.6808  0.6088
 7425SOL     OW33910   2.529   2.783   7.097 -0.9290  0.1761 -0.0950
 7425SOL    HW133911   2.528   2.688   7.085  2.4571  0.0949  0.2286
 7425SOL    HW233912   2.434   2.795   7.098 -0.6632  2.2238 -0.7064
 7426SOL     OW33913   0.293   2.179   6.221 -0.4458  0.4277  0.3039
 7426SOL    HW133914   0.300   2.158   6.128  0.0162 -1.5111  0.7805
 7426SOL    HW233915   0.207   2.221   6.225 -0.2566  0.6281  2.2034
 7427SOL     OW33916   1.675   3.143   3.667  0.0201 -0.2982 -0.0353
 7427SOL    HW133917   1.583   3.124   3.651 -0.0626 -0.1726  0.2841
 7427SOL    HW233918   1.666   3.220   3.723 -4.7330  1.3753 -3.2110
 7428SOL     OW33919   2.310   3.127   2.576 -0.1840 -0.3965 -0.1173
 7428SOL    HW133920   2.247   3.151   2.644 -0.7691 -0.6834 -0.5663
 7428SOL    HW233921   2.391   3.105   2.622 -0.0554 -1.2980 -0.7859
 7429SOL     OW33922   0.120   4.590   2.198 -0.3840 -0.0633 -0.0778
 7429SOL    HW133923   0.181   4.614   2.268 -2.8375  0.7283  1.7905
 7429SOL    HW233924   0.073   4.673   2.194 -0.8858 -0.3437  0.0136
 7430SOL     OW33925   1.455   2.856   4.737 -0.1199 -0.4466  0.4046
 7430SOL    HW133926   1.429   2.796   4.667 -2.3555  1.8683 -0.7398
 7430SOL    HW233927   1.367   2.875   4.770 -0.2284  0.9090 -0.6590
 7431SOL     OW33928   4.543   4.205   4.835  0.1719 -0.2349  0.2157
 7431SOL    HW133929   4.470   4.213   4.774  0.7743  0.5366 -0.4097
 7431SOL    HW233930   4.605   4.154   4.783 -1.0597 -0.5781 -0.9208
 7432SOL     OW33931   2.090   4.292   9.099  0.3113  0.2111  0.3297
 7432SOL    HW133932   2.080   4.314   9.006  3.4597  0.8988  0.1414
 7432SOL    HW233933   2.186   4.283   9.103  0.0665 -2.9282 -1.0772
 7433SOL     OW33934   3.050   1.015   8.432  0.1698  0.1852  0.5868
 7433SOL    HW133935   2.982   1.081   8.417 -1.4746 -1.6058  0.1750
 7433SOL    HW233936   3.110   1.062   8.374  0.2598 -0.5546  0.0785
 7434SOL     OW33937   3.085   0.380   5.656  0.4985  0.5999  0.1413
 7434SOL    HW133938   3.019   0.321   5.691  1.3717 -0.6387 -0.2813
 7434SOL    HW233939   3.058   0.469   5.680 -0.4410 -0.1091  1.7085
 7435SOL     OW33940   0.508   3.521  14.949 -0.3481 -0.0816  0.4768
 7435SOL    HW133941   0.470   3.521  15.037  0.2840 -0.9490  0.7503
 7435SOL    HW233942   0.597   3.522  14.983 -0.1457 -1.7247 -0.0215
 7436SOL     OW33943   3.402   1.527  11.809  0.2890  0.3957  0.3772
 7436SOL    HW133944   3.434   1.447  11.851  2.1246  0.8520 -0.1757
 7436SOL    HW233945   3.328   1.496  11.756  0.8550  2.2796 -1.4948
 7437SOL     OW33946   2.722   2.993   4.556  0.1174 -0.3044  0.3096
 7437SOL    HW133947   2.715   2.899   4.570 -2.3214  0.2558  2.7308
 7437SOL    HW233948   2.640   3.021   4.515  0.2392  1.0414  0.9729
 7438SOL     OW33949   1.361   3.224   4.462  0.6004 -0.1562 -0.3238
 7438SOL    HW133950   1.277   3.179   4.466 -0.2388  1.5112  0.9500
 7438SOL    HW233951   1.343   3.314   4.433  0.6717  0.2225  0.8043
 7439SOL     OW33952   4.688   3.254   9.180  0.0150  0.1811  0.4722
 7439SOL    HW133953   4.654   3.326   9.127  0.3507  1.2320  1.6741
 7439SOL    HW233954   4.714   3.316   9.248  1.1814 -0.9224  1.0400
 7440SOL     OW33955   2.299   3.873  11.711 -0.1024  0.2845  0.1304
 7440SOL    HW133956   2.374   3.889  11.769  0.9274 -0.8109 -0.9106
 7440SOL    HW233957   2.231   3.930  11.747 -1.4211 -1.3948  0.2869
 7441SOL     OW33958   0.945   3.931   5.912  0.4839  0.1123 -0.4161
 7441SOL    HW133959   0.896   4.007   5.946  0.2046 -0.9687  1.6201
 7441SOL    HW233960   0.904   3.858   5.959  0.4978  1.1820  1.2549
 7442SOL     OW33961   2.916   0.281  13.580 -0.1870  0.5309 -0.4414
 7442SOL    HW133962   2.907   0.190  13.550 -0.1414  0.0921  0.8704
 7442SOL    HW233963   2.990   0.275  13.641 -0.0386 -1.0524 -0.7734
 7443SOL     OW33964   3.889   1.151   5.817 -0.1498 -0.3294 -0.5646
 7443SOL    HW133965   3.863   1.198   5.738 -0.6500 -0.4758 -0.4863
 7443SOL    HW233966   3.913   1.221   5.878  0.8768 -0.2002 -1.1221
 7444SOL     OW33967   0.368   0.034  13.086 -0.3695  0.4238  0.3315
 7444SOL    HW133968   0.398   0.104  13.144  1.9201  1.3106 -1.9366
 7444SOL    HW233969   0.448   4.722  13.059 -0.8305  0.1655 -0.6197
 7445SOL     OW33970   3.309   2.548   9.649 -0.0629 -0.0135  0.1975
 7445SOL    HW133971   3.316   2.644   9.645 -0.3932  0.0452  1.1582
 7445SOL    HW233972   3.330   2.524   9.739  1.4547 -3.4417 -1.0945
 7446SOL     OW33973   3.971   3.221   4.096 -0.1609  0.2861  0.3790
 7446SOL    HW133974   3.942   3.304   4.059  1.8575  0.1591 -1.4554
 7446SOL    HW233975   4.066   3.217   4.085 -0.4844 -1.2864 -1.8432
 7447SOL     OW33976   0.359   3.534   4.861 -0.5637 -0.1130 -0.6998
 7447SOL    HW133977   0.391   3.480   4.934  1.7983  3.4593  0.9268
 7447SOL    HW233978   0.282   3.575   4.902 -2.0811 -1.2608 -2.4052
 7448SOL     OW33979   0.580   3.864   5.673  0.2573  0.3182  0.7755
 7448SOL    HW133980   0.501   3.894   5.717 -1.7155 -1.1688 -1.7340
 7448SOL    HW233981   0.612   3.949   5.642  2.7034 -0.6770  0.5819
 7449SOL     OW33982   1.458   4.082   1.974  0.4447 -0.1500  0.0451
 7449SOL    HW133983   1.500   4.063   1.890  0.5585 -3.1002  0.7628
 7449SOL    HW233984   1.417   4.162   1.942 -0.0098  0.6739  2.7452
 7450SOL     OW33985   1.661   4.688   8.479 -0.9748 -0.1537 -0.5170
 7450SOL    HW133986   1.567   4.693   8.496 -0.8699  0.2057 -0.0462
 7450SOL    HW233987   1.664   0.024   8.414 -0.4754  1.6511  1.4881
 7451SOL     OW33988   0.360   2.291  16.399 -0.2247 -0.3178  0.3832
 7451SOL    HW133989   0.351   2.335  16.315  0.4985 -1.1016 -0.1072
 7451SOL    HW233990   0.413   2.215  16.373 -1.1223 -1.1181  0.8917
 7452SOL     OW33991   3.423   4.725   9.973 -0.3525  0.4492 -0.3208
 7452SOL    HW133992   3.465   4.693  10.053  0.4583 -1.9207 -1.6900
 7452SOL    HW233993   3.328   4.729   9.985 -0.1030  0.2806  1.7221
 7453SOL     OW33994   0.435   4.046   9.602 -0.5915 -0.0102 -0.6524
 7453SOL    HW133995   0.394   4.028   9.686  0.4700 -0.5803 -0.2544
 7453SOL    HW233996   0.504   3.980   9.598  0.4850  0.9243  2.2327
 7454SOL     OW33997   1.625   1.067   4.396 -0.1691  0.0333  0.1436
 7454SOL    HW133998   1.531   1.077   4.380 -0.8291 -1.8918  2.9369
 7454SOL    HW233999   1.648   0.978   4.371  1.5490 -0.1715  2.3973
 7455SOL     OW34000   1.672   1.613   4.766  0.3523  0.0134 -0.3452
 7455SOL    HW134001   1.649   1.523   4.741  1.0589 -0.1600 -0.3707
 7455SOL    HW234002   1.627   1.667   4.701 -3.1789 -2.3148  0.1535
 7456SOL     OW34003   1.670   4.300   1.966 -0.0566 -0.1961 -0.1637
 7456SOL    HW134004   1.577   4.299   1.945 -0.8760 -2.6389  3.5102
 7456SOL    HW234005   1.667   4.359   2.041 -0.9672 -0.2847 -0.1336
 7457SOL     OW34006   2.660   1.686  17.434 -0.0639 -0.0113  0.2749
 7457SOL    HW134007   2.675   1.681  17.528 -2.3508 -0.6200  0.5955
 7457SOL    HW234008   2.617   1.603  17.414 -0.3658  0.1819  0.1271
 7458SOL     OW34009   0.973   1.416  12.718 -0.4279 -0.1232 -0.5719
 7458SOL    HW134010   0.994   1.361  12.642 -1.3606 -0.3075 -0.7016
 7458SOL    HW234011   0.991   1.501  12.678  1.9434  0.6243  2.1750
 7459SOL     OW34012   3.877   3.652   3.169 -0.1587 -0.2462 -0.5132
 7459SOL    HW134013   3.823   3.581   3.206  0.2408 -0.1725  0.2243
 7459SOL    HW234014   3.960   3.645   3.216  1.2115 -0.2751 -2.9589
 7460SOL     OW34015   0.012   1.227   7.242  0.1992 -0.4547  0.3493
 7460SOL    HW134016   0.008   1.217   7.337  1.2152 -0.0575  0.4400
 7460SOL    HW234017   4.657   1.203   7.217  0.9821 -1.8238 -1.0796
 7461SOL     OW34018   0.414   1.890   0.005  0.7884  0.2048  0.0677
 7461SOL    HW134019   0.385   1.802   0.028  0.9861  0.5092  1.4991
 7461SOL    HW234020   0.475   1.871  17.668  1.7196  0.3706  0.8199
 7462SOL     OW34021   3.023   1.493   8.751 -0.3246  0.3567 -0.1529
 7462SOL    HW134022   3.061   1.410   8.722  4.0406  2.4104 -0.3435
 7462SOL    HW234023   3.000   1.542   8.672  3.1363  0.4797 -1.0824
 7463SOL     OW34024   2.349   3.005   5.757  0.1304 -0.2551 -0.0699
 7463SOL    HW134025   2.290   2.943   5.799 -0.1655 -0.2070 -0.4169
 7463SOL    HW234026   2.285   3.068   5.722  0.0566  0.0119  0.5443
 7464SOL     OW34027   0.028   1.364   1.982  0.1849  0.2732  0.1303
 7464SOL    HW134028   0.026   1.343   2.075  1.1404 -1.6024 -0.2576
 7464SOL    HW234029   4.709   1.444   1.985 -0.6972 -0.3196  0.5189
 7465SOL     OW34030   0.053   0.421   1.983 -0.2897 -0.2121  0.4877
 7465SOL    HW134031   0.032   0.458   2.069  1.0162 -1.8607  1.5258
 7465SOL    HW234032   0.124   0.360   2.002  0.1725 -0.2793 -1.4168
 7466SOL     OW34033   1.740   3.634   3.616 -0.2893 -0.3886 -0.0059
 7466SOL    HW134034   1.736   3.690   3.694 -0.8584  0.8002 -0.8902
 7466SOL    HW234035   1.650   3.602   3.627  0.0139 -1.0400  0.5917
 7467SOL     OW34036   0.331   4.611   6.602  0.4133  0.0338  0.2701
 7467SOL    HW134037   0.360   4.582   6.515  1.3610 -1.2459  1.0081
 7467SOL    HW234038   0.333   4.525   6.643 -1.9387  0.0525  0.4171
 7468SOL     OW34039   2.046   1.805  15.015 -0.3282  0.3950 -0.0012
 7468SOL    HW134040   2.019   1.793  14.924  1.9833 -0.5193 -0.5464
 7468SOL    HW234041   2.042   1.715  15.049  1.3298  0.6237  0.7613
 7469SOL     OW34042   4.515   1.467   8.260 -0.3211 -0.0596 -0.3742
 7469SOL    HW134043   4.522   1.371   8.266  1.3608  0.1121  0.4695
 7469SOL    HW234044   4.514   1.479   8.165 -0.3716  0.7196 -0.2746
 7470SOL     OW34045   4.426   2.040  11.292 -0.2397  0.5623  0.4517
 7470SOL    HW134046   4.358   1.999  11.345  0.3840 -0.4104  0.5153
 7470SOL    HW234047   4.384   2.110  11.242 -0.0952 -0.7454 -1.4857
 7471SOL     OW34048   0.131   1.671  10.742 -0.2758  0.4376 -0.3488
 7471SOL    HW134049   0.140   1.580  10.713 -3.6249 -0.4085  1.2745
 7471SOL    HW234050   0.081   1.713  10.672  0.2745  0.8396 -0.4997
 7472SOL     OW34051   1.958   0.985   4.651 -0.3862  0.3589  0.2519
 7472SOL    HW134052   2.047   0.992   4.618 -1.5776 -0.5571 -3.1293
 7472SOL    HW234053   1.911   0.927   4.592  1.0896 -0.8442  0.2563
 7473SOL     OW34054   1.126   4.541   6.603  0.4431 -0.4477  0.1171
 7473SOL    HW134055   1.042   4.584   6.590 -0.2883 -1.4009  1.6560
 7473SOL    HW234056   1.091   4.458   6.636  3.9945 -2.6799 -1.6330
 7474SOL     OW34057   3.493   2.006   8.429 -0.4885 -0.0478  0.3911
 7474SOL    HW134058   3.508   1.914   8.449 -0.0397  0.2524  1.4599
 7474SOL    HW234059   3.583   2.039   8.417 -0.3211 -0.4755  0.4627
 7475SOL     OW34060   1.739   0.626   0.697  0.8093  0.1227  0.0098
 7475SOL    HW134061   1.767   0.693   0.759  0.0442  0.8023 -0.3885
 7475SOL    HW234062   1.723   0.682   0.621 -2.0448 -1.7365 -0.7510
 7476SOL     OW34063   4.625   2.137   4.022 -0.0163  0.1198 -0.1633
 7476SOL    HW134064   4.561   2.093   3.965  0.6871 -2.6189  1.1630
 7476SOL    HW234065   4.682   2.179   3.958 -3.0487  1.5711 -1.8987
 7477SOL     OW34066   4.364   1.952   3.264 -0.1886  0.3824 -0.0857
 7477SOL    HW134067   4.285   1.945   3.318  0.1551 -0.4197  0.3267
 7477SOL    HW234068   4.418   1.886   3.308 -1.5876 -1.4055 -1.0401
 7478SOL     OW34069   2.243   2.481   3.391  0.5526 -0.1648  0.1269
 7478SOL    HW134070   2.310   2.534   3.348  0.1212 -1.3489 -2.0084
 7478SOL    HW234071   2.227   2.527   3.473 -0.8555 -0.9879  0.3141
 7479SOL     OW34072   3.525   3.037  14.285  0.1382 -0.2868  0.8395
 7479SOL    HW134073   3.604   3.038  14.231  1.3069  1.0507  2.5831
 7479SOL    HW234074   3.561   3.005  14.367 -1.1846  1.8455  2.2436
 7480SOL     OW34075   1.281   2.162  10.998 -0.1226  0.9106 -0.2093
 7480SOL    HW134076   1.251   2.193  11.084  0.0485 -1.0966  0.5540
 7480SOL    HW234077   1.372   2.188  11.016 -0.7336  2.5116  0.6389
 7481SOL     OW34078   2.588   2.721   4.611  0.3464 -0.1711 -0.1882
 7481SOL    HW134079   2.496   2.694   4.622 -0.2777  1.4310 -1.4222
 7481SOL    HW234080   2.593   2.787   4.679 -1.6459 -2.6827  2.4100
 7482SOL     OW34081   2.492   3.986  17.578  0.2706 -0.3195  0.4010
 7482SOL    HW134082   2.410   3.948  17.609 -0.0744 -1.5376 -2.0266
 7482SOL    HW234083   2.532   4.015  17.661 -3.2400 -1.1008  2.3484
 7483SOL     OW34084   4.275   0.665   3.996  0.0286 -0.0384  0.6019
 7483SOL    HW134085   4.362   0.702   4.015  0.2853 -0.4156  0.1421
 7483SOL    HW234086   4.217   0.722   4.047  2.0716  0.8642  1.9430
 7484SOL     OW34087   1.041   2.843  10.773 -0.1256 -0.0505  0.2614
 7484SOL    HW134088   1.029   2.770  10.833  0.3059 -0.0485  0.3472
 7484SOL    HW234089   0.991   2.916  10.809 -1.5248  0.3530 -2.4733
 7485SOL     OW34090   2.905   1.649   7.315  0.7072  0.3495  0.5308
 7485SOL    HW134091   2.950   1.701   7.382  0.5518  0.8413  0.2545
 7485SOL    HW234092   2.812   1.664   7.329  0.8795 -1.0952  3.2000
 7486SOL     OW34093   0.593   4.030   8.866 -0.2752  0.6557  0.2264
 7486SOL    HW134094   0.688   4.030   8.857 -0.6697 -1.2799 -3.7046
 7486SOL    HW234095   0.574   3.937   8.855  2.3556  0.5470 -3.1058
 7487SOL     OW34096   0.689   4.102   2.317 -0.0056 -0.1460 -0.3660
 7487SOL    HW134097   0.769   4.057   2.290  0.4813  0.1464  0.5939
 7487SOL    HW234098   0.665   4.125   2.227 -3.1203  1.3839  0.8546
 7488SOL     OW34099   2.704   1.366  14.208 -0.5875 -0.2435 -0.0697
 7488SOL    HW134100   2.645   1.292  14.195  0.7236 -1.2153 -0.4539
 7488SOL    HW234101   2.767   1.356  14.137 -0.5479  1.6877 -0.3273
 7489SOL     OW34102   3.029   3.660  14.702  0.1352 -0.3023  0.2686
 7489SOL    HW134103   2.988   3.717  14.767  0.8614 -0.7992  1.1616
 7489SOL    HW234104   2.952   3.666  14.645 -0.4858  1.1378  1.2560
 7490SOL     OW34105   1.379   3.581   0.352  0.1814  0.1178  0.3240
 7490SOL    HW134106   1.473   3.578   0.336  0.1931  1.4691  0.1242
 7490SOL    HW234107   1.379   3.652   0.416 -0.7065  1.1410 -0.8039
 7491SOL     OW34108   3.590   0.499   1.436  0.2336 -0.0849 -0.2913
 7491SOL    HW134109   3.588   0.593   1.420 -0.2653 -0.2479 -1.1681
 7491SOL    HW234110   3.685   0.488   1.444  0.4434  0.1874 -2.4128
 7492SOL     OW34111   2.697   1.458   7.923  0.0762 -0.0527  0.3025
 7492SOL    HW134112   2.758   1.415   7.984 -0.7835 -1.6067  0.0786
 7492SOL    HW234113   2.715   1.544   7.961  0.5822  0.5473 -1.3063
 7493SOL     OW34114   2.355   2.825   8.184 -0.3297 -0.1526  0.1900
 7493SOL    HW134115   2.326   2.909   8.217  0.9162 -0.0852  1.1340
 7493SOL    HW234116   2.449   2.838   8.170 -0.2859  1.0529  1.6631
 7494SOL     OW34117   2.633   0.146   4.883 -0.1154  0.0068  0.0461
 7494SOL    HW134118   2.542   0.139   4.855 -0.0716 -1.0010  0.1496
 7494SOL    HW234119   2.670   0.175   4.800 -2.8020  0.8819 -0.8448
 7495SOL     OW34120   0.154   2.022   0.819  0.0770  0.1405 -0.0855
 7495SOL    HW134121   0.179   2.107   0.784 -4.0139  0.5310 -2.0519
 7495SOL    HW234122   0.232   1.968   0.810 -1.1822 -1.4932 -1.3397
 7496SOL     OW34123   2.529   0.694   8.236  0.0182  0.3786  0.3934
 7496SOL    HW134124   2.476   0.702   8.156  0.1638  1.7566  0.4303
 7496SOL    HW234125   2.584   0.771   8.219  1.2403 -0.4484  0.6197
 7497SOL     OW34126   4.690   0.529   6.311  0.4763 -0.2562  0.2263
 7497SOL    HW134127   4.715   0.437   6.307 -1.2806 -0.7291  0.3134
 7497SOL    HW234128   0.032   0.573   6.271  1.5135 -1.3618  0.9860
 7498SOL     OW34129   4.460   4.322  11.847  0.1676  0.6009  1.3756
 7498SOL    HW134130   4.470   4.275  11.930  0.8965 -2.0272 -0.2057
 7498SOL    HW234131   4.528   4.388  11.847 -1.5645  2.3794 -0.3843
 7499SOL     OW34132   2.754   0.939   1.706 -0.0441 -0.2553  0.2016
 7499SOL    HW134133   2.843   0.933   1.741 -0.7475  2.9194  2.5765
 7499SOL    HW234134   2.757   1.023   1.660 -3.4093 -1.0826 -1.5264
 7500SOL     OW34135   2.237   3.669  13.253 -0.8186  0.1666  0.1297
 7500SOL    HW134136   2.159   3.724  13.249 -1.4692 -0.6673  1.1601
 7500SOL    HW234137   2.289   3.698  13.179  0.9383  0.4426  1.4834
 7501SOL     OW34138   2.369   4.498   8.190  0.4890 -0.4946 -0.2750
 7501SOL    HW134139   2.427   4.457   8.126 -1.4092  0.7144 -2.7709
 7501SOL    HW234140   2.295   4.438   8.182 -0.1526  0.0772  1.2978
 7502SOL     OW34141   1.936   2.889  10.191  0.6807 -0.8395 -0.4665
 7502SOL    HW134142   1.849   2.895  10.229  0.3258  1.1222 -1.5985
 7502SOL    HW234143   1.916   2.842  10.110  1.8647 -3.3805  0.7247
 7503SOL     OW34144   4.420   1.335   3.150 -0.4045 -0.4370  0.4143
 7503SOL    HW134145   4.477   1.294   3.215  0.2811 -0.6930 -0.3423
 7503SOL    HW234146   4.389   1.406   3.205 -0.7917 -1.8780  2.0545
 7504SOL     OW34147   1.355   0.730  16.299 -0.0019  0.3132  0.0443
 7504SOL    HW134148   1.319   0.772  16.378 -0.0940 -2.0421  1.2664
 7504SOL    HW234149   1.336   0.639  16.322 -0.1436  0.5632  0.9229
 7505SOL     OW34150   0.057   0.468   6.650 -0.1265 -0.5941  0.0154
 7505SOL    HW134151   0.110   0.503   6.722  0.7205 -0.5818 -0.6014
 7505SOL    HW234152   0.123   0.476   6.580  0.5349 -0.3249  0.6719
 7506SOL     OW34153   3.110   3.121   7.855  0.0841 -0.5828 -0.0162
 7506SOL    HW134154   3.054   3.143   7.780 -0.3159 -1.0787  0.1393
 7506SOL    HW234155   3.128   3.206   7.897  0.3122 -1.3512  1.4503
 7507SOL     OW34156   0.384   4.373   6.829  0.3152 -0.1540 -0.2623
 7507SOL    HW134157   0.473   4.408   6.840  0.1343  0.7413 -1.7647
 7507SOL    HW234158   0.365   4.358   6.922 -0.6998 -1.2672 -0.6483
 7508SOL     OW34159   3.867   2.968   4.278  0.4615 -1.2591  0.4652
 7508SOL    HW134160   3.962   2.953   4.279  0.2666 -2.5514 -2.0402
 7508SOL    HW234161   3.861   3.063   4.271 -0.3776 -1.1510  2.4036
 7509SOL     OW34162   3.352   3.006   5.020  0.4068 -0.1933  0.4166
 7509SOL    HW134163   3.396   3.090   5.008 -0.3997  0.0725 -0.7479
 7509SOL    HW234164   3.350   3.014   5.115 -2.3138  2.6329  0.1318
 7510SOL     OW34165   3.445   4.647  10.443 -0.1526 -0.2858  0.1895
 7510SOL    HW134166   3.524   4.699  10.460  2.6774 -4.5388 -0.1294
 7510SOL    HW234167   3.378   4.713  10.461 -0.7641 -0.8271 -0.1164
 7511SOL     OW34168   0.161   0.225   8.075 -0.2906 -0.1365  0.4576
 7511SOL    HW134169   0.138   0.244   7.984  2.0631 -0.0448 -0.1177
 7511SOL    HW234170   0.145   0.310   8.116 -2.7623  2.0265 -5.0450
 7512SOL     OW34171   4.712   4.040   6.025  0.4430  0.2746  0.1016
 7512SOL    HW134172   4.711   4.055   5.931 -0.9958  1.2791  0.2717
 7512SOL    HW234173   4.723   3.945   6.024 -2.6293 -0.0703 -0.4818
 7513SOL     OW34174   4.398   2.811   2.004  0.5130  0.0828  0.5125
 7513SOL    HW134175   4.365   2.739   1.950 -0.4283  2.4855 -2.0822
 7513SOL    HW234176   4.457   2.853   1.942  1.0682  0.5553  1.3690
 7514SOL     OW34177   3.069   2.570  15.256 -0.7669  0.2549 -0.2634
 7514SOL    HW134178   2.979   2.602  15.251 -0.4848  1.1115  0.0054
 7514SOL    HW234179   3.042   2.487  15.293 -1.4979  0.4363 -0.4005
 7515SOL     OW34180   3.287   1.625   6.606 -0.0813 -0.3321  0.1095
 7515SOL    HW134181   3.373   1.644   6.570 -0.6753  1.1265 -0.5856
 7515SOL    HW234182   3.250   1.566   6.541  0.0393 -1.5903  1.1762
 7516SOL     OW34183   1.752   3.940  15.718 -0.1695  0.0827 -0.6082
 7516SOL    HW134184   1.713   3.863  15.758  1.6784 -0.2705  0.4893
 7516SOL    HW234185   1.674   3.996  15.714  0.1439  0.5934  0.2769
 7517SOL     OW34186   0.602   3.248   6.537 -0.1004  0.0244  0.2091
 7517SOL    HW134187   0.661   3.226   6.609 -0.6183 -2.3162 -0.0730
 7517SOL    HW234188   0.629   3.172   6.485 -1.9615  1.0547 -2.2351
 7518SOL     OW34189   0.838   1.094   4.942  0.0219 -0.7258 -0.3748
 7518SOL    HW134190   0.806   1.179   4.975  0.4489 -1.2926  1.5313
 7518SOL    HW234191   0.931   1.116   4.938 -0.0293 -0.9725 -2.4390
 7519SOL     OW34192   1.707   1.305   3.367 -0.1095 -0.6977 -0.1528
 7519SOL    HW134193   1.763   1.324   3.292 -0.6084  0.5438 -0.2008
 7519SOL    HW234194   1.771   1.324   3.436 -1.4371 -3.5597  1.8559
 7520SOL     OW34195   0.647   1.066   4.278 -0.1210  0.2069 -0.0777
 7520SOL    HW134196   0.646   1.122   4.356  0.7469  1.2461 -0.8080
 7520SOL    HW234197   0.718   1.005   4.298 -0.2672 -0.6720 -2.2568
 7521SOL     OW34198   3.064   3.619   6.782 -0.2822  0.6454 -0.1030
 7521SOL    HW134199   3.046   3.525   6.794  0.6819  0.4160 -0.4614
 7521SOL    HW234200   2.979   3.659   6.765  0.9336  3.2908  0.0566
 7522SOL     OW34201   1.865   3.471   5.538  0.3713 -0.1454 -0.1941
 7522SOL    HW134202   1.903   3.442   5.620 -2.5012 -1.3539  0.7068
 7522SOL    HW234203   1.932   3.534   5.512  0.3598  0.1979  0.6220
 7523SOL     OW34204   2.017   2.864  12.165  0.2152 -0.7631 -0.2434
 7523SOL    HW134205   1.975   2.842  12.082 -1.3712  2.2508 -0.2198
 7523SOL    HW234206   2.029   2.778  12.205  0.9794 -0.5696 -0.0461
 7524SOL     OW34207   0.791   0.508   7.684  0.2071 -0.1768  0.1988
 7524SOL    HW134208   0.860   0.570   7.705  2.0743 -1.0283 -3.4661
 7524SOL    HW234209   0.718   0.518   7.745  1.7165  1.3042  1.7484
 7525SOL     OW34210   2.134   1.568   4.107  0.3868  0.1584  0.2245
 7525SOL    HW134211   2.109   1.633   4.041 -0.0538 -0.8280 -0.5988
 7525SOL    HW234212   2.051   1.552   4.151  0.3964  0.1609  0.2434
 7526SOL     OW34213   4.109   0.186   1.408 -0.0111 -0.0480 -0.3600
 7526SOL    HW134214   4.134   0.094   1.402  1.4876  0.3924 -0.7169
 7526SOL    HW234215   4.013   0.187   1.414 -0.0247  4.4740 -1.4040
 7527SOL     OW34216   4.172   3.277  15.694  0.2163  0.3459 -0.2109
 7527SOL    HW134217   4.125   3.268  15.612 -0.4218  2.0669 -0.0371
 7527SOL    HW234218   4.264   3.265  15.670  0.4639  0.0349  0.8914
 7528SOL     OW34219   0.137   4.593   9.606  0.0629  0.4156 -0.0162
 7528SOL    HW134220   0.069   4.616   9.669 -0.5341  0.5720 -0.7134
 7528SOL    HW234221   0.109   4.641   9.528  0.5278  0.0870 -0.3865
 7529SOL     OW34222   3.624   3.194  10.303 -0.1021  0.1390  0.1996
 7529SOL    HW134223   3.606   3.100  10.291 -1.2607  0.4381 -0.4049
 7529SOL    HW234224   3.594   3.195  10.394 -0.0199 -3.4974  0.2994
 7530SOL     OW34225   0.106   3.266   6.792  0.0359  0.0877  0.3318
 7530SOL    HW134226   0.146   3.287   6.877  1.0071  0.0941 -0.1252
 7530SOL    HW234227   0.183   3.285   6.739  0.8202 -0.9323  1.0963
 7531SOL     OW34228   1.654   1.123   7.420  0.1156  0.1764 -0.0252
 7531SOL    HW134229   1.680   1.080   7.338  3.0478  0.2970  0.8254
 7531SOL    HW234230   1.679   1.214   7.405 -1.7411  0.4545 -1.4518
 7532SOL     OW34231   1.102   3.851   6.595 -0.1722  0.1326 -0.8274
 7532SOL    HW134232   1.140   3.876   6.511  0.6086 -1.0461 -0.8353
 7532SOL    HW234233   1.010   3.847   6.570 -0.2141 -2.8358 -0.1514
 7533SOL     OW34234   3.905   3.811   0.662 -0.2967  0.1183 -0.1613
 7533SOL    HW134235   3.853   3.864   0.722  1.1847  2.1056 -0.6438
 7533SOL    HW234236   3.992   3.841   0.688 -0.1270 -1.8364  1.5171
 7534SOL     OW34237   0.647   3.032   8.888  0.4626 -0.3830 -0.8443
 7534SOL    HW134238   0.685   2.947   8.867 -1.2599 -1.1393 -0.9582
 7534SOL    HW234239   0.665   3.045   8.981 -0.1120 -0.1860 -0.7571
 7535SOL     OW34240   3.530   1.400   7.511 -0.5378  0.5866  0.4081
 7535SOL    HW134241   3.438   1.381   7.493  0.1007 -3.2807  1.2502
 7535SOL    HW234242   3.539   1.489   7.477  0.2859  0.9922  1.6650
 7536SOL     OW34243   2.113   0.697   8.394 -0.0267 -0.1790 -0.1124
 7536SOL    HW134244   2.103   0.750   8.315 -3.0835 -3.7067 -2.1100
 7536SOL    HW234245   2.039   0.639   8.377 -0.3399  0.0567  0.4173
 7537SOL     OW34246   4.235   1.391   8.380  0.2414 -0.5251 -0.6686
 7537SOL    HW134247   4.290   1.417   8.306  0.5000  1.4176  0.2031
 7537SOL    HW234248   4.204   1.304   8.357 -3.3138 -0.0863  2.3019
 7538SOL     OW34249   2.756   0.532  12.076  0.3703  0.0793 -0.4294
 7538SOL    HW134250   2.666   0.500  12.082  0.0976  0.9070 -0.0349
 7538SOL    HW234251   2.804   0.451  12.060  0.5398  0.0579  0.1615
 7539SOL     OW34252   4.345   2.209   6.766  0.3874 -0.2467  0.3649
 7539SOL    HW134253   4.299   2.162   6.696  0.8173  0.3385 -0.3154
 7539SOL    HW234254   4.314   2.149   6.833 -0.9596  0.6899  0.5758
 7540SOL     OW34255   1.421   4.617   2.643 -0.4441 -0.2522 -0.1313
 7540SOL    HW134256   1.486   4.608   2.712 -1.1650 -0.7403  0.4860
 7540SOL    HW234257   1.419   4.711   2.624  0.1730 -0.0405  0.8490
 7541SOL     OW34258   3.355   1.498  17.035 -0.1098 -0.1993 -0.5882
 7541SOL    HW134259   3.404   1.579  17.052  1.7035 -1.9533  2.4355
 7541SOL    HW234260   3.369   1.448  17.115 -1.0070  1.1552  0.4330
 7542SOL     OW34261   3.445   2.213   7.848  0.2194  0.2917 -0.2472
 7542SOL    HW134262   3.422   2.156   7.775  3.9926 -0.3060 -0.9684
 7542SOL    HW234263   3.364   2.263   7.847  0.8098  1.2779  0.5649
 7543SOL     OW34264   0.349   2.536   7.938  0.1505  0.2278  0.4731
 7543SOL    HW134265   0.386   2.592   8.006  1.2156  1.1225 -0.8760
 7543SOL    HW234266   0.379   2.448   7.961  1.1189  0.6104  0.6494
 7544SOL     OW34267   3.090   3.515  12.939 -0.1655 -0.4739  0.1094
 7544SOL    HW134268   3.098   3.443  12.877 -0.7325 -0.0761 -0.4319
 7544SOL    HW234269   3.015   3.558  12.898 -1.6144 -1.8216  1.3649
 7545SOL     OW34270   1.038   3.553   9.774  0.0074  0.4243  0.3897
 7545SOL    HW134271   0.988   3.474   9.794  1.7566 -0.4691  1.1624
 7545SOL    HW234272   0.991   3.583   9.696 -0.5987 -0.3270  0.4617
 7546SOL     OW34273   3.860   3.651   7.528  0.2347 -0.1911 -0.0975
 7546SOL    HW134274   3.879   3.648   7.621 -3.3512 -1.4513  0.5954
 7546SOL    HW234275   3.830   3.742   7.523 -0.6169 -0.4373  0.4208
 7547SOL     OW34276   2.155   1.215  17.525 -0.4684  0.1624 -0.1872
 7547SOL    HW134277   2.137   1.146  17.588  2.5342 -0.3817  0.0937
 7547SOL    HW234278   2.067   1.240  17.499 -0.9465  0.6932  1.9422
 7548SOL     OW34279   2.714   0.232   5.406  0.2272 -0.0699  0.4135
 7548SOL    HW134280   2.780   0.238   5.337 -0.4707 -0.9522 -0.3234
 7548SOL    HW234281   2.666   0.313   5.391 -0.9550 -1.0574 -1.0523
 7549SOL     OW34282   1.391   4.616   6.494  0.8985  0.5573  0.1714
 7549SOL    HW134283   1.332   4.678   6.450 -1.3613 -0.4663  1.7252
 7549SOL    HW234284   1.322   4.578   6.549  0.0361  1.8625 -0.0155
 7550SOL     OW34285   0.363   0.358   3.455  0.3925 -0.3702 -0.1558
 7550SOL    HW134286   0.348   0.377   3.547  3.3176  2.8707 -0.3509
 7550SOL    HW234287   0.273   0.354   3.423  0.8967 -0.7521 -1.5234
 7551SOL     OW34288   1.651   2.509   1.725  0.2674 -0.2982 -0.0859
 7551SOL    HW134289   1.603   2.588   1.751 -1.5686 -2.3456  2.7756
 7551SOL    HW234290   1.684   2.517   1.636  0.9163  0.6969  0.2483
 7552SOL     OW34291   3.250   0.251   3.745  0.0841  0.2203 -0.7159
 7552SOL    HW134292   3.178   0.283   3.691 -2.0803 -0.1387  1.9071
 7552SOL    HW234293   3.286   0.337   3.766 -0.5851 -0.0607  1.5772
 7553SOL     OW34294   0.857   0.839   2.147 -0.4159 -0.8434 -0.4031
 7553SOL    HW134295   0.818   0.768   2.095  0.1209 -1.3387 -0.1334
 7553SOL    HW234296   0.856   0.912   2.084 -0.8621 -0.4462  0.0654
 7554SOL     OW34297   4.281   1.703  13.850  0.2248  0.0236 -0.2782
 7554SOL    HW134298   4.196   1.745  13.839 -0.4556 -0.5605  2.7621
 7554SOL    HW234299   4.290   1.728  13.942 -1.9230  1.1743 -0.3700
 7555SOL     OW34300   2.098   1.259  15.042  0.5585 -0.3452 -0.0254
 7555SOL    HW134301   2.079   1.212  15.123 -1.3129 -1.0970 -0.9106
 7555SOL    HW234302   2.079   1.189  14.979  0.6803 -0.2059 -0.2185
 7556SOL     OW34303   2.196   3.159   5.589  0.1822  0.5812  1.2029
 7556SOL    HW134304   2.247   3.233   5.557 -0.0048  0.4188  0.5156
 7556SOL    HW234305   2.149   3.133   5.509 -0.3178  2.4889  0.8849
 7557SOL     OW34306   1.036   2.553   2.663 -0.3556 -0.0795  0.8368
 7557SOL    HW134307   1.124   2.549   2.625 -0.7806 -0.4350 -0.0996
 7557SOL    HW234308   1.005   2.598   2.585 -0.4410 -1.4719  0.0663
 7558SOL     OW34309   0.630   0.560   7.492  0.0894 -0.4691 -0.5831
 7558SOL    HW134310   0.562   0.527   7.551  1.4642 -2.8087 -0.3256
 7558SOL    HW234311   0.703   0.529   7.545 -0.0856 -0.6527 -0.4428
 7559SOL     OW34312   3.505   3.360   8.259  0.5228  0.4140  0.2069
 7559SOL    HW134313   3.426   3.307   8.275  0.8307 -0.9361 -2.7201
 7559SOL    HW234314   3.552   3.302   8.200 -3.0443 -1.3468 -0.8982
 7560SOL     OW34315   0.129   3.523   9.895 -0.3088  0.1781 -0.0697
 7560SOL    HW134316   0.218   3.555   9.906 -1.7255  4.1605  0.0003
 7560SOL    HW234317   0.100   3.484   9.978  0.5422  1.8880  1.0570
 7561SOL     OW34318   0.395   0.829  11.147 -0.1640 -0.0996 -0.5899
 7561SOL    HW134319   0.476   0.799  11.107 -0.3403  3.2375 -3.5061
 7561SOL    HW234320   0.427   0.873  11.226  0.4264  1.3623 -1.6286
 7562SOL     OW34321   3.276   2.746   0.550 -0.3367 -0.1039 -0.3246
 7562SOL    HW134322   3.296   2.826   0.500 -1.6166 -0.4585 -1.4106
 7562SOL    HW234323   3.347   2.688   0.523  1.0330  1.0783  0.7125
 7563SOL     OW34324   2.951   2.556   8.508 -0.0741 -0.0401 -0.2577
 7563SOL    HW134325   2.967   2.640   8.550  1.5788 -1.3142  1.6738
 7563SOL    HW234326   2.888   2.518   8.568 -0.5657  1.4634  0.1799
 7564SOL     OW34327   0.149   0.635   1.657 -0.4672 -0.1196  0.2108
 7564SOL    HW134328   0.074   0.575   1.662 -0.9853  0.5966  0.9445
 7564SOL    HW234329   0.222   0.575   1.670 -0.9457 -1.1323 -1.7149
 7565SOL     OW34330   1.096   1.767   7.720  0.6628  0.2539 -0.0144
 7565SOL    HW134331   1.082   1.700   7.653 -2.1922 -0.5069  1.3376
 7565SOL    HW234332   1.189   1.762   7.739  0.7681 -2.7371 -1.3836
 7566SOL     OW34333   2.833   2.611   6.449 -0.1756 -0.0681  0.3058
 7566SOL    HW134334   2.850   2.685   6.508  1.3770  1.8495 -2.5811
 7566SOL    HW234335   2.911   2.622   6.395  0.7112 -0.0017  1.5937
 7567SOL     OW34336   1.427   3.681  14.145  0.0140 -0.3877  0.2212
 7567SOL    HW134337   1.432   3.587  14.157  0.4955 -0.7729 -3.0442
 7567SOL    HW234338   1.331   3.690  14.148  0.0601  0.1773  0.1047
 7568SOL     OW34339   1.373   1.771   1.190 -0.7869  0.3138 -0.5899
 7568SOL    HW134340   1.364   1.859   1.154 -1.0007  1.0666  1.3099
 7568SOL    HW234341   1.468   1.766   1.200 -0.6806  0.9982 -1.3543
 7569SOL     OW34342   3.702   3.513  10.722  0.0179 -0.3357 -0.2067
 7569SOL    HW134343   3.719   3.425  10.688  1.6703 -0.6386  1.4345
 7569SOL    HW234344   3.665   3.494  10.808  0.7764  0.0732  0.2101
 7570SOL     OW34345   3.416   2.723   5.218 -0.4191  0.2201  0.1046
 7570SOL    HW134346   3.423   2.658   5.148  0.4383  0.0094  0.3887
 7570SOL    HW234347   3.344   2.678   5.263  1.8232 -3.3474  0.1037
 7571SOL     OW34348   2.467   0.041   2.501  0.0930  0.3207 -0.0062
 7571SOL    HW134349   2.544   4.719   2.490  0.6587  1.1070 -0.1079
 7571SOL    HW234350   2.405   4.708   2.473  0.8093 -0.2595 -0.2038
 7572SOL     OW34351   2.019   2.515   2.305  0.0511 -0.3574 -0.2409
 7572SOL    HW134352   1.964   2.593   2.315 -3.3452 -2.4605 -2.5897
 7572SOL    HW234353   2.101   2.557   2.278 -1.0072  2.3984  0.8556
 7573SOL     OW34354   2.166   3.859   7.152 -0.0108  0.1070 -0.2040
 7573SOL    HW134355   2.193   3.879   7.241 -1.1106  2.0364 -0.3090
 7573SOL    HW234356   2.143   3.767   7.159  1.5843 -0.1414  1.6212
 7574SOL     OW34357   0.978   2.453  12.970 -0.1693  0.6471 -0.2060
 7574SOL    HW134358   0.919   2.389  13.011  1.6872  0.5107  2.2471
 7574SOL    HW234359   1.065   2.421  12.991  0.7773  3.6754  0.4202
 7575SOL     OW34360   3.750   3.923   0.833  0.1371 -0.4662  0.1628
 7575SOL    HW134361   3.710   3.978   0.901 -1.1616 -1.8047  0.4858
 7575SOL    HW234362   3.685   3.928   0.763 -0.4486 -1.9279  0.6015
 7576SOL     OW34363   0.645   3.621   1.695 -0.2402 -0.3593 -0.2968
 7576SOL    HW134364   0.604   3.647   1.778 -1.2918 -0.3120 -0.8266
 7576SOL    HW234365   0.573   3.574   1.652 -0.3568 -0.8251  0.4015
 7577SOL     OW34366   2.193   0.144  16.702 -0.3719 -0.3708 -0.0929
 7577SOL    HW134367   2.273   0.091  16.706  0.0009  0.1919 -0.0351
 7577SOL    HW234368   2.239   0.228  16.707 -0.9700 -0.1368  1.4816
 7578SOL     OW34369   0.153   1.950   7.125 -0.2322 -0.4107 -0.1887
 7578SOL    HW134370   0.244   1.922   7.131 -0.2312 -0.7936 -2.1909
 7578SOL    HW234371   0.112   1.878   7.173 -0.4446 -0.6704 -0.7666
 7579SOL     OW34372   1.943   2.129  17.680  0.1246 -0.2611  0.1811
 7579SOL    HW134373   2.023   2.144  17.731 -0.1818 -1.1067  0.9157
 7579SOL    HW234374   1.964   2.191  17.611 -0.2728 -0.8207 -0.4365
 7580SOL     OW34375   3.932   0.607   3.838 -0.0840 -0.3972 -0.7615
 7580SOL    HW134376   3.853   0.658   3.853 -0.1812 -0.5132 -0.8852
 7580SOL    HW234377   3.920   0.561   3.922 -0.6947  1.3845  0.1162
 7581SOL     OW34378   4.611   0.452   5.707 -0.0985 -0.6112  0.1867
 7581SOL    HW134379   4.621   0.358   5.689  0.8379 -0.7661  1.5405
 7581SOL    HW234380   4.522   0.452   5.742 -0.8158 -3.0020 -1.5728
 7582SOL     OW34381   3.646   2.342   5.246 -0.3142 -0.5426  0.2542
 7582SOL    HW134382   3.580   2.282   5.213  0.3426 -0.4251 -1.2457
 7582SOL    HW234383   3.709   2.281   5.285  0.5201 -0.2366 -0.6281
 7583SOL     OW34384   1.396   0.687   4.504 -0.3723  0.4640  0.1873
 7583SOL    HW134385   1.439   0.602   4.508 -1.3684 -0.0210  0.5087
 7583SOL    HW234386   1.417   0.720   4.417  0.9959 -1.0106 -0.0428
 7584SOL     OW34387   2.412   4.702   9.011  0.0438  0.1863  0.1190
 7584SOL    HW134388   2.358   0.043   9.036 -1.4706 -0.9133  0.1642
 7584SOL    HW234389   2.488   0.003   9.057 -0.2766 -2.2071  2.4988
 7585SOL     OW34390   0.835   3.254   6.367 -0.1880 -0.5334  0.2654
 7585SOL    HW134391   0.849   3.169   6.409  1.8172  1.1551  3.0977
 7585SOL    HW234392   0.804   3.237   6.278 -0.0207 -1.5512  0.4054
 7586SOL     OW34393   0.378   1.950   7.686  0.0378 -0.0305  0.2855
 7586SOL    HW134394   0.288   1.940   7.656  0.3924  1.4857 -1.2669
 7586SOL    HW234395   0.361   1.944   7.780  0.4171  0.3143  0.3745
 7587SOL     OW34396   1.916   4.673   7.307 -0.0661  0.4084 -0.6077
 7587SOL    HW134397   1.864   4.671   7.226 -0.6925  1.6571 -0.2404
 7587SOL    HW234398   1.872   4.611   7.364 -2.0699  3.0835  0.7467
 7588SOL     OW34399   2.509   0.981   7.416  0.4075  0.6715  0.4206
 7588SOL    HW134400   2.543   0.917   7.355 -2.8589  0.0640 -0.7368
 7588SOL    HW234401   2.584   1.041   7.412  0.1326  1.1640  2.4644
 7589SOL     OW34402   0.189   0.775  14.587  0.8566 -0.1495  0.4076
 7589SOL    HW134403   0.135   0.847  14.557 -1.4632 -2.3572 -0.6720
 7589SOL    HW234404   0.271   0.824  14.592 -0.3915  2.2081 -2.3470
 7590SOL     OW34405   4.044   0.654   5.820 -0.1413  0.8415 -0.3596
 7590SOL    HW134406   4.101   0.677   5.746  1.0180  0.1839  0.3253
 7590SOL    HW234407   4.076   0.566   5.842  0.6360  1.3313  0.4356
 7591SOL     OW34408   3.178   4.006   2.563 -0.4699  0.0433 -0.4696
 7591SOL    HW134409   3.146   4.052   2.640 -0.7965 -1.5543  0.3557
 7591SOL    HW234410   3.261   3.963   2.586 -1.0506 -1.2813 -0.8094
 7592SOL     OW34411   2.528   1.712   2.379 -0.2534  0.0616  0.1735
 7592SOL    HW134412   2.530   1.665   2.296 -0.6769  0.4830 -0.0812
 7592SOL    HW234413   2.588   1.784   2.359  1.3849 -1.6285 -0.9632
 7593SOL     OW34414   1.844   1.676   4.456  0.0887 -0.3624  0.0483
 7593SOL    HW134415   1.803   1.760   4.433  1.7337 -0.2361 -2.4483
 7593SOL    HW234416   1.781   1.637   4.516 -0.2244  0.4828  0.2715
 7594SOL     OW34417   0.133   3.011   1.753 -0.2761  0.8343 -0.4815
 7594SOL    HW134418   0.054   3.026   1.804 -0.0718  1.0232 -0.2203
 7594SOL    HW234419   0.159   2.922   1.776 -2.6320 -0.2032 -1.8795
 7595SOL     OW34420   1.252   2.972  11.406  0.0907 -0.1265 -0.2332
 7595SOL    HW134421   1.215   2.960  11.494  0.4704 -1.1210 -0.2103
 7595SOL    HW234422   1.192   2.916  11.357  0.3729 -0.2260 -0.4642
 7596SOL     OW34423   1.815   2.798   7.878  0.2853 -0.9805  0.2934
 7596SOL    HW134424   1.896   2.753   7.900  0.5143 -1.5586 -1.7242
 7596SOL    HW234425   1.795   2.764   7.791  0.3717  0.8211 -0.4334
 7597SOL     OW34426   2.797   0.038  11.673  0.3369 -0.0492  0.5599
 7597SOL    HW134427   2.808   4.689  11.721 -0.2182 -0.2764  0.2970
 7597SOL    HW234428   2.879   0.081  11.694  0.7979 -0.6873  0.0898
 7598SOL     OW34429   3.001   3.900   7.917  0.2299  0.2394 -0.0773
 7598SOL    HW134430   2.982   3.855   7.999  1.6498  0.6700  0.4829
 7598SOL    HW234431   3.084   3.945   7.928  0.6037 -0.8239  1.3471
 7599SOL     OW34432   4.195   0.136  15.723  0.0326 -0.3328  0.1999
 7599SOL    HW134433   4.105   0.105  15.715 -0.0563  0.0953 -0.4682
 7599SOL    HW234434   4.200   0.203  15.791  0.8537  0.0569 -0.2440
 7600SOL     OW34435   0.542   2.269  17.152 -0.7652 -0.4493 -0.1170
 7600SOL    HW134436   0.622   2.306  17.114 -1.5905  0.7414 -0.7201
 7600SOL    HW234437   0.471   2.280  17.088 -0.4436  0.0462 -0.3859
 7601SOL     OW34438   3.027   2.157   5.137 -0.5168  0.3418 -0.0733
 7601SOL    HW134439   3.027   2.201   5.222  3.3124 -0.2697  0.2619
 7601SOL    HW234440   3.113   2.190   5.110 -0.9729  0.5938 -1.1950
 7602SOL     OW34441   1.432   1.588   7.058 -0.3752 -0.1855  0.3935
 7602SOL    HW134442   1.407   1.678   7.079 -0.4848 -0.1341  0.0477
 7602SOL    HW234443   1.374   1.572   6.984  0.5089 -2.7256  0.2429
 7603SOL     OW34444   1.043   3.872   8.612  0.1944 -0.1098  0.1943
 7603SOL    HW134445   1.101   3.797   8.618 -1.5579 -1.3736  1.4077
 7603SOL    HW234446   0.966   3.832   8.653 -0.6941 -1.1250 -2.4576
 7604SOL     OW34447   4.627   4.055   9.251  0.2097 -0.8459  0.0239
 7604SOL    HW134448   4.694   4.029   9.188 -0.3453 -0.6037 -0.6703
 7604SOL    HW234449   4.672   4.137   9.272  1.3040 -2.0172  2.2383
 7605SOL     OW34450   2.763   0.380   4.504 -0.4953 -0.2941  0.5397
 7605SOL    HW134451   2.705   0.447   4.467 -1.1206 -1.3369 -0.3453
 7605SOL    HW234452   2.797   0.342   4.423 -0.6067  0.9128 -0.0785
 7606SOL     OW34453   3.593   0.040  17.217 -0.8332 -0.0074  0.2673
 7606SOL    HW134454   3.526   0.028  17.285  0.4594 -0.5117  1.4493
 7606SOL    HW234455   3.535   0.052  17.142 -2.1521 -1.7106  1.0232
 7607SOL     OW34456   2.292   0.890   2.130 -0.3265  0.1420  0.4136
 7607SOL    HW134457   2.333   0.813   2.168 -2.9742 -0.6465  1.6896
 7607SOL    HW234458   2.213   0.855   2.089 -0.0717 -0.8672  0.8014
 7608SOL     OW34459   2.796   1.313   5.074  0.0344 -0.2104 -0.6856
 7608SOL    HW134460   2.796   1.308   4.979 -0.1966  1.5332 -0.7689
 7608SOL    HW234461   2.750   1.394   5.097 -2.6806 -1.7036 -0.8520
 7609SOL     OW34462   4.582   0.440  17.217 -0.2445  0.3781 -0.2225
 7609SOL    HW134463   4.574   0.532  17.191  0.9634  0.8139  0.9138
 7609SOL    HW234464   4.658   0.449  17.275 -0.0328  2.0885 -0.7420
 7610SOL     OW34465   2.159   0.590   7.948  0.8776 -0.4392 -0.1467
 7610SOL    HW134466   2.198   0.505   7.928 -0.9203 -1.0851 -0.9699
 7610SOL    HW234467   2.237   0.636   7.977  0.2310  0.3156  0.4011
 7611SOL     OW34468   0.572   3.832   6.026  0.1228  0.0655 -0.4512
 7611SOL    HW134469   0.530   3.757   6.068 -0.6998  1.1706  0.6804
 7611SOL    HW234470   0.662   3.800   6.025  0.2123  0.2418  1.0582
 7612SOL     OW34471   3.728   3.768  16.493  0.2086  0.2977  0.3150
 7612SOL    HW134472   3.789   3.763  16.420  0.8881  2.1014  0.7546
 7612SOL    HW234473   3.661   3.700  16.486  2.8848 -2.2019 -0.6994
 7613SOL     OW34474   2.337   0.749   5.451  0.2367  0.0853  0.1646
 7613SOL    HW134475   2.412   0.725   5.505  1.6061  0.0298 -1.7995
 7613SOL    HW234476   2.313   0.830   5.496 -2.4213  0.4396 -1.8732
 7614SOL     OW34477   1.795   1.373   5.568  0.1126 -0.0953  0.0468
 7614SOL    HW134478   1.700   1.377   5.578 -0.1154 -0.1989 -1.9924
 7614SOL    HW234479   1.808   1.422   5.486  0.8136 -0.6628 -0.1863
 7615SOL     OW34480   0.328   2.409   9.067  0.6274  0.6587  0.3187
 7615SOL    HW134481   0.261   2.349   9.101  1.6033 -0.3041  0.5376
 7615SOL    HW234482   0.325   2.477   9.134  2.5004  1.7296 -0.6972
 7616SOL     OW34483   0.299   3.877   7.987  0.4097 -0.2126 -0.0657
 7616SOL    HW134484   0.360   3.929   8.039 -0.4535 -0.7527  1.5047
 7616SOL    HW234485   0.225   3.859   8.045 -0.0219 -2.2963 -1.2833
 7617SOL     OW34486   4.670   0.566   3.019 -0.1627 -0.6435  0.9694
 7617SOL    HW134487   4.733   0.498   3.044  1.4954 -0.4330 -2.7326
 7617SOL    HW234488   4.663   0.555   2.924  0.7844  0.1361  0.8188
 7618SOL     OW34489   1.319   3.712   6.661  0.1765  0.6099 -0.3633
 7618SOL    HW134490   1.245   3.771   6.648  0.2298  0.9885  1.0700
 7618SOL    HW234491   1.394   3.765   6.687  2.0227 -1.4853 -1.3995
 7619SOL     OW34492   4.461   0.475   5.337  0.1606  0.3914 -0.4695
 7619SOL    HW134493   4.555   0.481   5.322  0.1261  2.2626  0.0748
 7619SOL    HW234494   4.437   0.414   5.267  2.3780  0.5463 -1.3865
 7620SOL     OW34495   4.148   0.289  15.939  0.0119  0.4889  0.7240
 7620SOL    HW134496   4.089   0.364  15.929 -2.6153 -2.1609 -3.9022
 7620SOL    HW234497   4.159   0.282  16.033 -0.8544  1.0850  0.8730
 7621SOL     OW34498   3.617   0.602   2.518  0.8015 -0.2838  0.2373
 7621SOL    HW134499   3.669   0.567   2.446  0.8661 -0.0471  0.1717
 7621SOL    HW234500   3.601   0.689   2.482  0.5705 -0.1091  0.7606
 7622SOL     OW34501   2.819   0.285   7.903  0.1056 -0.2692  0.0863
 7622SOL    HW134502   2.887   0.353   7.902 -1.7505  1.5619 -0.4460
 7622SOL    HW234503   2.781   0.297   7.816 -1.6940  0.5374  0.9877
 7623SOL     OW34504   0.086   3.720   9.500 -0.2048 -0.6269  0.0498
 7623SOL    HW134505   0.165   3.706   9.449 -0.4913  1.2964 -0.9178
 7623SOL    HW234506   0.028   3.752   9.431  0.6877  1.4528  0.2645
 7624SOL     OW34507   0.621   2.414   2.790 -0.1963 -0.2092 -0.1833
 7624SOL    HW134508   0.572   2.477   2.737 -0.6598 -0.6827 -0.3150
 7624SOL    HW234509   0.697   2.472   2.797 -2.4458  2.7897 -0.5891
 7625SOL     OW34510   1.110   0.070  12.299  0.1530  0.4598  0.7284
 7625SOL    HW134511   1.198   0.049  12.268  0.4232  0.7801  1.2867
 7625SOL    HW234512   1.069   0.046  12.215  1.3739  1.4362 -0.1520
 7626SOL     OW34513   0.156   3.242   2.263 -0.6396  0.0443 -0.2409
 7626SOL    HW134514   0.175   3.201   2.347 -0.2653 -0.2198 -0.4523
 7626SOL    HW234515   0.071   3.281   2.284 -0.2844 -0.1668  1.5203
 7627SOL     OW34516   4.445   2.171   5.676  0.3378 -0.3594  0.3241
 7627SOL    HW134517   4.466   2.078   5.686 -2.6980 -0.9655  1.0935
 7627SOL    HW234518   4.469   2.193   5.586  0.4087  0.9794  0.6781
 7628SOL     OW34519   3.044   4.576   0.895 -0.3355 -1.0563 -0.5774
 7628SOL    HW134520   2.974   4.603   0.955 -0.3308 -1.3151 -0.4531
 7628SOL    HW234521   3.116   4.557   0.955 -0.4714 -1.3118 -0.4928
 7629SOL     OW34522   3.581   0.851   4.172 -0.3173 -0.6003  0.1519
 7629SOL    HW134523   3.509   0.799   4.136  1.0052 -1.0786 -1.7968
 7629SOL    HW234524   3.579   0.822   4.263 -0.1152  2.0052  0.9962
 7630SOL     OW34525   0.742   4.171   8.599 -0.5667  0.1380 -0.5060
 7630SOL    HW134526   0.751   4.248   8.543 -0.0839  0.7989  0.4688
 7630SOL    HW234527   0.763   4.209   8.685  1.6392 -3.0819  0.3912
 7631SOL     OW34528   3.587   4.659  11.854  0.2471 -0.9263  0.4961
 7631SOL    HW134529   3.612   0.010  11.891 -0.7811  0.1961 -1.3727
 7631SOL    HW234530   3.666   4.621  11.815 -0.2314 -1.7043  0.2883
 7632SOL     OW34531   0.961   1.479   4.204 -0.1353  0.1210  0.1807
 7632SOL    HW134532   0.960   1.452   4.112  0.1905 -0.0050  0.2137
 7632SOL    HW234533   0.966   1.574   4.193  0.4140  0.3171  2.2701
 7633SOL     OW34534   4.482   4.120  14.940 -0.2124 -0.0993 -0.1311
 7633SOL    HW134535   4.514   4.143  15.028 -1.2548  1.7469 -0.2413
 7633SOL    HW234536   4.424   4.050  14.971  0.2387  0.1639  1.3446
 7634SOL     OW34537   4.511   0.092   4.431  0.5979  0.0281 -0.0669
 7634SOL    HW134538   4.562   0.028   4.381  1.2663 -0.5046  1.3157
 7634SOL    HW234539   4.445   0.120   4.367  1.4169  1.4060 -0.3088
 7635SOL     OW34540   2.359   2.788   6.249  0.5329  0.3799  0.1557
 7635SOL    HW134541   2.409   2.706   6.256  1.5562  0.8899 -1.1756
 7635SOL    HW234542   2.296   2.775   6.320 -0.4803 -4.2992 -1.5918
 7636SOL     OW34543   4.485   1.270   7.303  0.3329  0.0157  0.0347
 7636SOL    HW134544   4.463   1.208   7.372 -1.2274  0.3997 -0.0952
 7636SOL    HW234545   4.428   1.341   7.335 -1.2212 -0.1918 -2.2416
 7637SOL     OW34546   1.218   4.343  12.298  0.7997  0.4673 -0.0535
 7637SOL    HW134547   1.219   4.396  12.378  0.1454 -1.2479  1.0925
 7637SOL    HW234548   1.137   4.382  12.265  1.2704 -0.6915 -2.5379
 7638SOL     OW34549   1.707   0.011   4.824 -1.1772 -0.4236 -0.3431
 7638SOL    HW134550   1.774   4.707   4.767 -0.4583  0.8147 -0.3011
 7638SOL    HW234551   1.657   0.064   4.762  1.2087  0.3224 -1.6104
 7639SOL     OW34552   3.690   3.466   6.020  0.5487 -1.0147 -0.3051
 7639SOL    HW134553   3.754   3.536   6.025  1.0782 -1.5691  0.7110
 7639SOL    HW234554   3.743   3.401   5.975 -0.3086 -2.1169  0.2720
 7640SOL     OW34555   0.425   3.520   4.605 -0.3282 -0.0845 -0.6076
 7640SOL    HW134556   0.354   3.584   4.609 -1.1478 -1.3762  5.3255
 7640SOL    HW234557   0.419   3.501   4.698 -0.2813 -0.3902 -0.6636
 7641SOL     OW34558   0.318   0.527   6.822  0.2778  0.6143  0.4209
 7641SOL    HW134559   0.298   0.485   6.906 -0.1623  0.5964  0.3099
 7641SOL    HW234560   0.313   0.620   6.841 -0.1470  0.5250  0.7468
 7642SOL     OW34561   4.620   4.684   9.749  0.0384  0.4334  0.5913
 7642SOL    HW134562   4.583   0.021   9.696  0.5287 -0.2853 -0.7013
 7642SOL    HW234563   4.545   4.626   9.760  0.6785 -0.0465  2.3671
 7643SOL     OW34564   4.626   1.950   7.482 -0.0212  0.4454 -0.1898
 7643SOL    HW134565   4.678   1.880   7.522  0.2578  0.2311 -0.9163
 7643SOL    HW234566   4.700   2.004   7.453 -0.3749  0.2547 -1.4302
 7644SOL     OW34567   2.831   2.204   4.939  0.6142 -0.0985  0.2705
 7644SOL    HW134568   2.893   2.268   4.904  1.3009 -0.0155  1.6521
 7644SOL    HW234569   2.886   2.151   4.996 -3.6906 -4.4820  0.3993
 7645SOL     OW34570   2.060   3.928   9.497  0.0580  0.3169  0.3507
 7645SOL    HW134571   2.053   3.972   9.412  1.4189 -0.6461 -0.2519
 7645SOL    HW234572   2.155   3.923   9.509  0.3883  1.2460 -1.7569
 7646SOL     OW34573   0.379   1.207   3.952  0.4817 -0.6060  0.3417
 7646SOL    HW134574   0.289   1.236   3.970  0.9874  0.0621  1.7634
 7646SOL    HW234575   0.420   1.275   3.898 -1.6997  0.3193 -0.1594
 7647SOL     OW34576   2.619   2.328   8.919 -0.7345 -0.3572  0.2690
 7647SOL    HW134577   2.544   2.270   8.932  0.7287 -1.6740  2.8551
 7647SOL    HW234578   2.594   2.408   8.966 -0.9709  0.6296 -1.5504
 7648SOL     OW34579   2.086   4.686   8.329  0.1755  0.1028 -0.2411
 7648SOL    HW134580   2.099   0.030   8.383 -0.3292 -0.9301  1.3709
 7648SOL    HW234581   2.155   4.700   8.264  0.2949  3.0455  0.5288
 7649SOL     OW34582   4.454   2.821   9.774  0.2477  0.5274  0.3675
 7649SOL    HW134583   4.504   2.741   9.791 -1.5759 -0.2084  2.3314
 7649SOL    HW234584   4.405   2.807   9.694 -0.1217  0.3506  0.6257
 7650SOL     OW34585   1.981   4.254   5.369 -0.0454  0.3157 -0.0307
 7650SOL    HW134586   1.929   4.253   5.449  0.2876 -1.2383  0.1716
 7650SOL    HW234587   2.072   4.243   5.398  1.0448  0.5911 -3.2624
 7651SOL     OW34588   3.699   3.562   6.328 -0.2402 -0.3686 -0.2996
 7651SOL    HW134589   3.755   3.548   6.252 -0.4893 -0.7628 -0.4108
 7651SOL    HW234590   3.667   3.652   6.318  0.2444 -0.2906 -1.1440
 7652SOL     OW34591   4.081   1.632   3.200 -0.5062 -0.0277  0.1010
 7652SOL    HW134592   4.124   1.561   3.152  1.6145 -0.1489  2.1669
 7652SOL    HW234593   4.075   1.700   3.133  1.0918  1.1206  1.1023
 7653SOL     OW34594   3.347   4.511  14.788  1.1593 -0.4890  0.9941
 7653SOL    HW134595   3.255   4.534  14.799  0.6262 -0.6413 -3.1534
 7653SOL    HW234596   3.385   4.543  14.869 -2.0390  1.2983  1.7853
 7654SOL     OW34597   3.211   3.957  16.257  0.0972 -0.0578 -0.0068
 7654SOL    HW134598   3.116   3.973  16.253 -0.4608 -3.4650 -0.2083
 7654SOL    HW234599   3.230   4.005  16.338 -2.8775  0.4241  0.4044
 7655SOL     OW34600   1.556   1.486   7.570 -0.0560 -0.0963 -0.5774
 7655SOL    HW134601   1.585   1.576   7.583  0.3499 -0.5036  1.3278
 7655SOL    HW234602   1.636   1.436   7.554  0.5134 -0.3751  3.1500
 7656SOL     OW34603   2.170   3.432   7.954  0.2589 -0.2665  0.1167
 7656SOL    HW134604   2.230   3.427   8.029 -0.4439  0.9999  0.7761
 7656SOL    HW234605   2.207   3.363   7.899 -1.1905  0.8924 -2.2847
 7657SOL     OW34606   3.485   1.802   8.107 -0.0311 -0.1761 -0.5018
 7657SOL    HW134607   3.420   1.871   8.104 -0.5231 -0.6576 -0.9139
 7657SOL    HW234608   3.564   1.855   8.118 -0.5808  0.2227  1.5070
 7658SOL     OW34609   1.386   0.546   5.632  0.2130  0.7627 -0.2844
 7658SOL    HW134610   1.435   0.534   5.551 -0.8872  1.1936 -1.0342
 7658SOL    HW234611   1.424   0.629   5.662 -0.1273  1.0031 -0.5148
 7659SOL     OW34612   3.499   2.003   2.390 -0.7295 -0.1587  0.1591
 7659SOL    HW134613   3.412   2.044   2.388 -0.1791  1.0514  1.2162
 7659SOL    HW234614   3.529   2.019   2.301 -1.0258  1.0560  0.2793
 7660SOL     OW34615   4.189   0.483  11.513  0.0000  0.0772  0.7809
 7660SOL    HW134616   4.251   0.410  11.507  2.1657  1.8799  1.2640
 7660SOL    HW234617   4.155   0.478  11.423 -0.4432  0.1644  0.9469
 7661SOL     OW34618   0.291   4.093   9.407  0.0742 -0.1725  0.5729
 7661SOL    HW134619   0.348   4.083   9.483  0.3385 -0.7782  0.2881
 7661SOL    HW234620   0.312   4.013   9.360  0.9352  0.1341  0.4441
 7662SOL     OW34621   2.309   0.015   5.396  0.0259  0.4695 -0.0680
 7662SOL    HW134622   2.387   0.036   5.447  2.1216  2.5716 -4.0309
 7662SOL    HW234623   2.352   4.704   5.323 -1.2561  2.0723 -1.8581
 7663SOL     OW34624   2.000   3.118  10.343 -0.3555  0.5011  0.2241
 7663SOL    HW134625   1.936   3.188  10.353 -2.2533 -0.8097 -2.8774
 7663SOL    HW234626   1.947   3.038  10.340 -0.0114  0.2323  1.2855
 7664SOL     OW34627   0.820   0.437   6.590  0.7383  0.9720 -0.0838
 7664SOL    HW134628   0.817   0.342   6.602 -2.4995  1.0719  0.0451
 7664SOL    HW234629   0.736   0.459   6.632  1.1318  0.6724  0.8383
 7665SOL     OW34630   2.682   0.799  10.019  0.1944 -0.0627  0.2801
 7665SOL    HW134631   2.726   0.726   9.976  0.8469  0.7966 -0.5236
 7665SOL    HW234632   2.756   0.855  10.045 -0.7932 -0.0514  3.1586
 7666SOL     OW34633   1.616   1.415   8.578  0.5420 -0.1992 -0.1112
 7666SOL    HW134634   1.664   1.339   8.611 -0.5909 -0.5619  0.7183
 7666SOL    HW234635   1.563   1.368   8.514 -1.3377  1.1891  0.4063
 7667SOL     OW34636   0.235   3.359   9.600 -0.2085 -0.3186  0.2231
 7667SOL    HW134637   0.200   3.382   9.686 -0.5100 -3.3911  0.9145
 7667SOL    HW234638   0.247   3.265   9.608  1.1851 -0.2112 -0.5350
 7668SOL     OW34639   4.150   1.549  12.619  0.4499 -0.3110  0.1393
 7668SOL    HW134640   4.157   1.565  12.525  0.9547 -2.1434 -0.1506
 7668SOL    HW234641   4.236   1.510  12.633  1.1765  1.7478  1.3679
 7669SOL     OW34642   1.638   3.582   0.289  0.1825 -0.3439  0.1839
 7669SOL    HW134643   1.629   3.583   0.194 -0.3487 -3.0309  0.2131
 7669SOL    HW234644   1.654   3.490   0.307  0.5556 -0.3648 -0.2551
 7670SOL     OW34645   3.646   3.122   9.388  0.2067  0.1478  0.1668
 7670SOL    HW134646   3.688   3.038   9.371  0.5299  0.4702 -0.6482
 7670SOL    HW234647   3.566   3.098   9.341 -1.0209  0.9123  1.8652
 7671SOL     OW34648   0.300   1.797   9.004  0.0489 -0.2489  0.7325
 7671SOL    HW134649   0.348   1.812   9.085  2.1528  3.1878 -1.1290
 7671SOL    HW234650   0.223   1.851   9.023  0.1512 -0.0445  0.5733
 7672SOL     OW34651   0.237   2.862   9.472 -0.2187 -0.6672 -0.4203
 7672SOL    HW134652   0.231   2.828   9.562  1.8459 -0.0236 -0.0523
 7672SOL    HW234653   0.247   2.955   9.492 -0.9841 -0.4759 -0.9123
 7673SOL     OW34654   2.606   0.064   0.709 -0.0862 -0.0513 -0.0735
 7673SOL    HW134655   2.556   0.069   0.791  1.2141  1.7621  0.6007
 7673SOL    HW234656   2.615   4.703   0.701  1.5732  0.2345 -1.5186
 7674SOL     OW34657   0.125   1.446   7.066  0.5146  0.1963 -0.0761
 7674SOL    HW134658   0.118   1.369   7.122 -1.1690 -0.5956 -1.3499
 7674SOL    HW234659   0.150   1.405   6.983 -0.4522  0.1976 -0.3725
 7675SOL     OW34660   2.871   2.698  17.207  0.2590 -0.7484 -0.6591
 7675SOL    HW134661   2.944   2.756  17.183  0.0042 -0.2319 -0.1761
 7675SOL    HW234662   2.795   2.754  17.186 -1.3157 -2.8839 -0.6256
 7676SOL     OW34663   2.234   4.155   7.144  0.3819 -0.4790  1.1736
 7676SOL    HW134664   2.290   4.176   7.069  0.5735 -0.6743  1.2644
 7676SOL    HW234665   2.218   4.062   7.134 -0.4637 -0.1870 -0.2912
 7677SOL     OW34666   4.456   1.977   3.891 -0.0067  0.0031 -0.3067
 7677SOL    HW134667   4.363   1.972   3.913  0.3057  0.4681  1.0801
 7677SOL    HW234668   4.490   1.889   3.906 -2.8688 -1.1022 -0.2941
 7678SOL     OW34669   2.966   1.678   0.993  0.3842  0.3462 -0.6223
 7678SOL    HW134670   3.061   1.664   0.999  0.4383  1.0290  0.0867
 7678SOL    HW234671   2.959   1.743   1.063  0.4349 -1.4256  1.0525
 7679SOL     OW34672   3.536   3.022  10.774 -0.6155  0.1586  0.2256
 7679SOL    HW134673   3.546   2.957  10.844 -2.0143  1.6687  1.8339
 7679SOL    HW234674   3.476   2.974  10.717  1.4458 -2.9061  0.5967
 7680SOL     OW34675   1.139   4.055   8.183  0.0827  0.4257  0.2316
 7680SOL    HW134676   1.070   4.122   8.179 -2.8520 -2.5559  0.6151
 7680SOL    HW234677   1.084   3.978   8.196  3.6134 -2.2624 -0.8462
 7681SOL     OW34678   4.161   2.723   9.038 -0.1576 -0.0666 -0.0946
 7681SOL    HW134679   4.247   2.681   9.027  0.8447  2.4222 -1.6807
 7681SOL    HW234680   4.172   2.775   9.117 -1.9765 -0.9078  0.7093
 7682SOL     OW34681   2.805   1.733   3.281 -0.0590  0.2757  0.2770
 7682SOL    HW134682   2.887   1.703   3.241  0.3142  0.1163  1.1684
 7682SOL    HW234683   2.795   1.824   3.253 -0.8350  0.0273 -0.2762
 7683SOL     OW34684   1.073   0.865   2.611 -0.5323 -0.3384 -0.3737
 7683SOL    HW134685   1.160   0.859   2.652 -0.2332  3.0642 -0.5525
 7683SOL    HW234686   1.056   0.771   2.618 -0.5379 -0.4680 -2.1969
 7684SOL     OW34687   2.648   0.551   7.879 -0.2801  0.2548 -0.0798
 7684SOL    HW134688   2.667   0.550   7.973 -0.2817 -3.5499 -0.1202
 7684SOL    HW234689   2.720   0.503   7.839 -0.6283 -0.1528 -0.2126
 7685SOL     OW34690   0.603   1.757   0.840 -0.0991  0.1079 -0.0215
 7685SOL    HW134691   0.660   1.695   0.795  1.6944  0.9150  1.1523
 7685SOL    HW234692   0.629   1.758   0.932  0.3853 -2.0534 -0.1306
 7686SOL     OW34693   1.453   0.759   3.770 -0.2962 -0.2619 -0.2037
 7686SOL    HW134694   1.483   0.840   3.810  0.0898 -0.2186 -0.5750
 7686SOL    HW234695   1.468   0.695   3.840 -0.9692  0.9476  1.0363
 7687SOL     OW34696   2.922   3.807   5.478  0.8116  0.1922 -0.0971
 7687SOL    HW134697   2.962   3.851   5.553 -0.1316  1.8110 -0.5566
 7687SOL    HW234698   2.839   3.780   5.517  0.2732 -1.1594 -2.2043
 7688SOL     OW34699   3.635   3.544   9.702 -0.0715 -0.1520 -0.1305
 7688SOL    HW134700   3.604   3.581   9.785 -1.6471 -1.1054 -0.2875
 7688SOL    HW234701   3.604   3.607   9.637  1.8169 -0.1651 -1.0209
 7689SOL     OW34702   0.830   1.552   2.557 -0.8579  0.0211  0.2149
 7689SOL    HW134703   0.847   1.500   2.636  2.0037  2.3445  1.1489
 7689SOL    HW234704   0.868   1.488   2.498  0.4852 -0.1455  1.2511
 7690SOL     OW34705   1.190   1.712   8.108  0.4410 -0.1322  0.1776
 7690SOL    HW134706   1.220   1.771   8.039  2.0036 -0.7261  0.3516
 7690SOL    HW234707   1.273   1.692   8.151  1.6507  1.3087 -1.4859
 7691SOL     OW34708   2.545   0.036   5.509 -0.3852 -0.0593 -0.3741
 7691SOL    HW134709   2.615   0.085   5.468  0.4153 -2.1822 -1.5527
 7691SOL    HW234710   2.583   0.029   5.597 -1.0619 -1.5407 -0.1881
 7692SOL     OW34711   3.740   3.982   4.997 -0.1708  0.6588  0.8923
 7692SOL    HW134712   3.646   3.990   5.010 -0.2875  0.8132 -0.0545
 7692SOL    HW234713   3.756   3.888   4.996  2.5988  1.0893  3.7110
 7693SOL     OW34714   0.292   0.412   4.772  0.7939  0.2723 -0.1015
 7693SOL    HW134715   0.384   0.437   4.777  0.5483  0.7597  2.0406
 7693SOL    HW234716   0.291   0.317   4.758  3.4613  0.3969 -0.9637
 7694SOL     OW34717   2.849   4.372   7.309  0.8648 -0.0243  0.2733
 7694SOL    HW134718   2.936   4.412   7.313 -0.0309  1.8770  0.6472
 7694SOL    HW234719   2.866   4.288   7.353  0.7251  0.2257  0.8031
 7695SOL     OW34720   0.812   1.588   3.123  0.5074 -0.1122  0.5986
 7695SOL    HW134721   0.785   1.665   3.073 -0.9554 -0.7805  0.3321
 7695SOL    HW234722   0.867   1.626   3.191  0.0454 -1.2031  1.5947
 7696SOL     OW34723   1.267   0.506  17.283  0.2936  0.8152 -0.2510
 7696SOL    HW134724   1.233   0.480  17.369 -2.0300 -0.7528 -1.6335
 7696SOL    HW234725   1.307   0.425  17.251 -0.9027  0.4548 -0.8712
 7697SOL     OW34726   4.024   3.787   2.701  0.1606 -0.4185  0.0764
 7697SOL    HW134727   4.051   3.849   2.769 -0.3625 -1.9596  1.7070
 7697SOL    HW234728   4.037   3.840   2.622 -1.5884  0.4115  0.3507
 7698SOL     OW34729   3.233   0.861   6.902  0.4523 -0.1159 -0.0713
 7698SOL    HW134730   3.253   0.914   6.980  0.7361  0.5205 -0.5771
 7698SOL    HW234731   3.272   0.924   6.841  2.3017 -2.2047 -1.0780
 7699SOL     OW34732   3.612   0.777   9.472 -0.1773  0.4135 -0.2374
 7699SOL    HW134733   3.587   0.699   9.521  1.4052  0.2824  0.3743
 7699SOL    HW234734   3.592   0.849   9.531  0.8355 -0.6962  1.4544
 7700SOL     OW34735   1.254   4.345   7.433  0.0837  0.0556 -0.1513
 7700SOL    HW134736   1.181   4.318   7.378 -0.9252  3.3397 -0.3853
 7700SOL    HW234737   1.253   4.440   7.420  3.8706  0.0484 -0.4501
 7701SOL     OW34738   0.873   2.244  13.104  0.1708  0.5054 -0.7423
 7701SOL    HW134739   0.931   2.252  13.180 -0.8938 -2.3818  0.3665
 7701SOL    HW234740   0.822   2.164  13.116 -0.7939  1.1339 -0.6331
 7702SOL     OW34741   1.348   1.761   7.841  0.6136 -0.7509  0.2200
 7702SOL    HW134742   1.437   1.727   7.844  0.5361 -1.2599 -3.5559
 7702SOL    HW234743   1.359   1.849   7.806  2.1740 -0.2578  1.9752
 7703SOL     OW34744   3.157   2.021  12.199 -0.2791 -0.8546  0.2521
 7703SOL    HW134745   3.147   1.939  12.247 -0.8085  0.2947  2.1367
 7703SOL    HW234746   3.102   2.080  12.252 -0.0555  1.2781 -1.9195
 7704SOL     OW34747   4.518   3.634   6.573 -0.5155 -0.7181 -0.4959
 7704SOL    HW134748   4.509   3.598   6.662 -0.8175  1.4197  0.3317
 7704SOL    HW234749   4.429   3.658   6.550 -0.0493  1.4473 -0.0542
 7705SOL     OW34750   1.461   0.957   0.274  0.4807  0.1349  0.3721
 7705SOL    HW134751   1.408   1.035   0.291 -0.0897  0.5017 -3.0285
 7705SOL    HW234752   1.475   0.925   0.363 -1.5054 -0.7331  0.3567
 7706SOL     OW34753   1.164   1.346   2.684 -0.3548 -0.1859 -0.1884
 7706SOL    HW134754   1.213   1.412   2.635  2.7243 -1.3391  1.3116
 7706SOL    HW234755   1.131   1.398   2.757  0.5756 -1.2498  1.0081
 7707SOL     OW34756   2.809   0.774   2.361 -0.6933  0.3051 -0.1620
 7707SOL    HW134757   2.806   0.682   2.389  0.8348  0.4129  0.3697
 7707SOL    HW234758   2.893   0.769   2.315 -1.5930  2.4681 -2.0034
 7708SOL     OW34759   3.859   0.064   5.228  0.8582 -0.0928  0.1016
 7708SOL    HW134760   3.818   4.714   5.209  0.6123  0.2215 -0.7676
 7708SOL    HW234761   3.815   0.124   5.169  0.2851 -0.0471  0.5765
 7709SOL     OW34762   0.999   4.358  12.812 -0.4124 -0.3925 -0.0902
 7709SOL    HW134763   0.972   4.435  12.763  1.2238  0.0730 -0.2654
 7709SOL    HW234764   0.965   4.286  12.757  0.7956 -1.6528  0.8132
 7710SOL     OW34765   3.311   1.066   8.236  0.1596  0.0743  0.2168
 7710SOL    HW134766   3.327   1.114   8.317 -1.6857  0.7293  0.1989
 7710SOL    HW234767   3.316   1.137   8.171  0.6548  0.2123  0.4094
 7711SOL     OW34768   3.017   4.120   3.729  0.4866  0.5977 -0.4448
 7711SOL    HW134769   2.967   4.042   3.703 -0.9693  1.1110  0.7741
 7711SOL    HW234770   2.970   4.149   3.808  0.9284  2.2216 -0.7644
 7712SOL     OW34771   3.748   3.289   2.564 -0.4191 -0.0807  0.5810
 7712SOL    HW134772   3.749   3.251   2.476 -3.1612  2.8182 -0.7135
 7712SOL    HW234773   3.690   3.229   2.611  2.0149 -1.9058  1.2246
 7713SOL     OW34774   3.369   2.069   7.629  0.6210 -0.3919 -0.7633
 7713SOL    HW134775   3.294   2.037   7.679  2.1761 -1.0792  1.1675
 7713SOL    HW234776   3.338   2.056   7.540 -2.3388 -1.8346  0.4951
 7714SOL     OW34777   1.200   1.476   7.647 -0.2343 -0.7523 -0.5669
 7714SOL    HW134778   1.187   1.483   7.552 -1.9297  0.6595 -0.2332
 7714SOL    HW234779   1.283   1.432   7.663  0.1419 -1.1011 -3.5164
 7715SOL     OW34780   4.003   0.343   9.062 -0.1521  0.3059  0.1503
 7715SOL    HW134781   4.040   0.416   9.012 -0.0264  0.0481 -0.1378
 7715SOL    HW234782   3.977   0.281   8.994 -0.8420  0.2457  0.4677
 7716SOL     OW34783   3.762   4.592   4.352  0.2016  0.2032  0.0512
 7716SOL    HW134784   3.849   4.557   4.369  0.7553  1.3970 -0.3248
 7716SOL    HW234785   3.722   4.595   4.440 -1.0914  1.5512 -0.5675
 7717SOL     OW34786   3.678   1.594   8.863  0.0716 -0.3783 -0.2400
 7717SOL    HW134787   3.735   1.524   8.831  1.1337  1.2689 -1.9359
 7717SOL    HW234788   3.622   1.541   8.921  0.4702  0.7394  1.1627
 7718SOL     OW34789   1.181   3.402  17.435  0.3167 -0.3275 -0.2846
 7718SOL    HW134790   1.138   3.318  17.454  1.3432 -0.3925  1.8262
 7718SOL    HW234791   1.160   3.409  17.342  3.4400  0.8725 -0.9009
 7719SOL     OW34792   1.280   1.652   4.550  0.1269  0.0898 -0.6790
 7719SOL    HW134793   1.187   1.673   4.539 -0.7526 -2.4473  1.6997
 7719SOL    HW234794   1.295   1.595   4.475  1.0348  0.7236 -0.9814
 7720SOL     OW34795   1.994   1.713   7.257 -0.4518 -0.3504  0.4229
 7720SOL    HW134796   1.963   1.725   7.167  2.0916 -0.1279 -0.4381
 7720SOL    HW234797   2.029   1.625   7.241  1.8896  0.6200  0.1648
 7721SOL     OW34798   0.279   0.762   8.362  0.2107  0.2823  0.1136
 7721SOL    HW134799   0.268   0.817   8.439  2.5932  2.5065 -1.1491
 7721SOL    HW234800   0.361   0.796   8.327  1.1681 -0.1624  1.9916
 7722SOL     OW34801   3.775   1.437  15.741  0.3670 -0.8240 -0.1718
 7722SOL    HW134802   3.755   1.515  15.690  1.5603 -0.5497 -0.2187
 7722SOL    HW234803   3.787   1.480  15.826 -3.4590  0.4470 -0.2891
 7723SOL     OW34804   1.642   2.348   8.332 -0.3109 -0.1682 -0.2706
 7723SOL    HW134805   1.571   2.364   8.393  0.0921  0.8682 -0.0693
 7723SOL    HW234806   1.606   2.265   8.300  1.3261 -0.7952 -0.5342
 7724SOL     OW34807   0.936   3.038  16.225  0.1910 -0.0026  0.2088
 7724SOL    HW134808   0.958   3.026  16.132 -0.6736 -0.7416  0.0903
 7724SOL    HW234809   0.995   3.105  16.258  0.9026 -0.8687  0.6860
 7725SOL     OW34810   0.808   2.275   1.297  0.4566 -0.1845  0.3950
 7725SOL    HW134811   0.770   2.198   1.340  4.0393 -0.8399  2.3969
 7725SOL    HW234812   0.757   2.348   1.334 -0.8654 -0.4592 -0.8680
 7726SOL     OW34813   0.342   1.395  10.855 -0.3662  0.2100  0.1359
 7726SOL    HW134814   0.411   1.333  10.881 -0.3967  0.0099 -0.2647
 7726SOL    HW234815   0.368   1.470  10.908 -0.4963 -0.2793  0.8986
 7727SOL     OW34816   0.062   1.084   2.494  0.3863  1.0395 -0.5156
 7727SOL    HW134817   0.005   1.103   2.568  0.6384  1.3902 -0.4104
 7727SOL    HW234818   0.131   1.029   2.531 -1.5171 -0.7213  0.4163
 7728SOL     OW34819   3.261   4.262   8.822 -0.1172 -0.6473 -0.9713
 7728SOL    HW134820   3.179   4.223   8.854 -0.1777  0.1019 -0.1991
 7728SOL    HW234821   3.318   4.259   8.899  0.0968 -1.4574 -1.1544
 7729SOL     OW34822   3.753   2.084   8.437  0.3328  0.2937 -0.0087
 7729SOL    HW134823   3.764   2.166   8.389 -1.4830  0.0307 -0.8780
 7729SOL    HW234824   3.796   2.018   8.383  0.7106  0.5177  0.0181
 7730SOL     OW34825   2.986   1.397   7.444 -0.8728 -0.0540 -0.4565
 7730SOL    HW134826   2.971   1.480   7.399  1.4876 -0.3544 -1.7924
 7730SOL    HW234827   2.927   1.405   7.519 -0.5780  1.3130 -0.3799
 7731SOL     OW34828   3.560   0.242   9.564 -0.7311  0.1334  0.2824
 7731SOL    HW134829   3.575   0.221   9.656 -1.5571  0.1903  0.4295
 7731SOL    HW234830   3.563   0.336   9.580 -0.0784 -0.0134  1.0124
 7732SOL     OW34831   1.336   0.421   3.529  0.1005 -0.7717  0.2309
 7732SOL    HW134832   1.249   0.438   3.563  0.5682  1.3241  0.3362
 7732SOL    HW234833   1.335   0.483   3.457  0.8344 -0.2547  0.6578
 7733SOL     OW34834   3.505   3.177   0.900  0.9673 -0.0350  0.8511
 7733SOL    HW134835   3.532   3.112   0.835 -1.2168  0.5456 -0.6384
 7733SOL    HW234836   3.433   3.220   0.855 -0.7365 -1.0146  2.6348
 7734SOL     OW34837   4.252   1.040   4.995  0.4845  0.1553 -0.4854
 7734SOL    HW134838   4.233   1.120   5.045  0.5473 -0.0589 -0.1216
 7734SOL    HW234839   4.247   1.074   4.905  0.5423 -3.6868 -1.9052
 7735SOL     OW34840   4.466   3.655  10.014  0.0944  0.1228 -0.1602
 7735SOL    HW134841   4.429   3.570   9.989  1.1931 -0.0160 -1.3522
 7735SOL    HW234842   4.476   3.703   9.932 -0.8204 -1.2614 -1.0770
 7736SOL     OW34843   3.144   2.093   7.444 -0.2513 -0.1151  0.2947
 7736SOL    HW134844   3.091   2.136   7.510  0.0311 -0.2695  0.6203
 7736SOL    HW234845   3.091   2.110   7.366  0.9250  0.2969 -0.4142
 7737SOL     OW34846   2.232   2.663   3.630 -0.2771 -0.0680 -0.1575
 7737SOL    HW134847   2.276   2.726   3.573 -1.0294 -2.0235 -2.8604
 7737SOL    HW234848   2.142   2.685   3.607 -0.2550 -0.6239 -0.7560
 7738SOL     OW34849   2.014   1.152   6.200 -0.3334  0.6784  0.4288
 7738SOL    HW134850   2.078   1.204   6.151 -1.8059  0.8876 -1.2870
 7738SOL    HW234851   1.943   1.217   6.194 -0.3887  0.4504 -1.6426
 7739SOL     OW34852   0.974   1.782   5.726  0.2324 -0.2290  0.1893
 7739SOL    HW134853   1.052   1.825   5.692  0.8694  0.0371  2.0067
 7739SOL    HW234854   0.931   1.862   5.756 -1.7023 -0.2787 -2.4402
 7740SOL     OW34855   2.192   4.080  10.955  0.0341  0.1891 -0.0319
 7740SOL    HW134856   2.138   4.001  10.959  0.0297  0.1045 -1.4594
 7740SOL    HW234857   2.126   4.142  10.988  0.3097  0.4315  0.0653
 7741SOL     OW34858   2.185   1.701  15.501 -0.6331  0.5379 -0.3922
 7741SOL    HW134859   2.092   1.707  15.480 -1.1574 -2.5940  1.1062
 7741SOL    HW234860   2.204   1.696  15.594 -1.2751 -2.7014 -0.4444
 7742SOL     OW34861   0.594   4.018   8.439  0.0030  0.0807  0.2817
 7742SOL    HW134862   0.656   4.042   8.508 -0.1865 -0.2862  0.5796
 7742SOL    HW234863   0.518   4.059   8.479  1.6006 -0.9714  4.4271
 7743SOL     OW34864   1.845   0.568  12.067 -0.4830  0.5583 -0.1419
 7743SOL    HW134865   1.916   0.506  12.086 -2.1969 -0.9988  1.1537
 7743SOL    HW234866   1.851   0.574  11.972  0.8031 -1.5392 -0.1864
 7744SOL     OW34867   2.684   1.656   9.421  0.0700  0.0701  0.1579
 7744SOL    HW134868   2.760   1.689   9.373 -1.3299  0.5040 -1.7094
 7744SOL    HW234869   2.704   1.562   9.429 -0.9784 -0.1374  0.3091
 7745SOL     OW34870   0.415   2.577  17.062  0.3953 -0.2306 -0.9368
 7745SOL    HW134871   0.383   2.494  17.027  1.1598 -0.5935 -0.7719
 7745SOL    HW234872   0.355   2.590  17.135  0.3463 -1.6984 -0.7107
 7746SOL     OW34873   1.885   2.697   0.228 -0.1668 -0.7440  0.1666
 7746SOL    HW134874   1.967   2.744   0.246 -1.5248  1.6606  0.0644
 7746SOL    HW234875   1.832   2.731   0.299  0.2440  0.0198  0.1123
 7747SOL     OW34876   1.850   3.193  13.582  0.1642  0.0823 -0.1808
 7747SOL    HW134877   1.909   3.268  13.577  0.6215 -0.1507  1.7885
 7747SOL    HW234878   1.910   3.125  13.553  0.5313  0.2666  0.1399
 7748SOL     OW34879   3.485   1.543   9.354 -0.5960 -0.4096  0.3094
 7748SOL    HW134880   3.499   1.449   9.346 -0.0110 -0.4112  1.4072
 7748SOL    HW234881   3.391   1.549   9.336 -0.4651  1.6757  0.3830
 7749SOL     OW34882   4.479   3.899  13.594 -0.0123  0.0822 -0.3114
 7749SOL    HW134883   4.450   3.924  13.682 -1.0916  0.6136 -0.8170
 7749SOL    HW234884   4.494   3.984  13.552 -2.1723 -0.2018 -1.6701
 7750SOL     OW34885   2.028   1.441   7.913  0.1778 -0.1556 -0.9227
 7750SOL    HW134886   2.002   1.502   7.844  0.5244 -2.0725 -2.7436
 7750SOL    HW234887   2.097   1.388   7.874 -1.3300 -3.3506  0.7699
 7751SOL     OW34888   4.614   0.503  13.580 -0.1161  0.2759  0.4725
 7751SOL    HW134889   4.706   0.528  13.592 -0.7847  2.3982  1.2264
 7751SOL    HW234890   4.566   0.555  13.644 -1.8658  0.3266 -0.8755
 7752SOL     OW34891   2.597   0.967   6.647  0.8541  0.1962 -0.0419
 7752SOL    HW134892   2.582   1.040   6.707 -1.7465  0.6210 -1.2159
 7752SOL    HW234893   2.559   0.896   6.700 -3.0289  1.6254 -0.9421
 7753SOL     OW34894   2.520   1.163  14.291 -0.4660  0.6198  0.6824
 7753SOL    HW134895   2.479   1.171  14.378  0.1881 -0.2419  1.0732
 7753SOL    HW234896   2.441   1.184  14.242 -0.6934 -0.9932  0.3489
 7754SOL     OW34897   2.764   1.433   7.118  0.0379  0.0275  0.3113
 7754SOL    HW134898   2.735   1.468   7.033  2.2717 -0.5000 -0.6734
 7754SOL    HW234899   2.781   1.515   7.165  1.5912 -0.2438  0.2296
 7755SOL     OW34900   0.524   1.956   6.330  0.4235  0.0944 -0.1973
 7755SOL    HW134901   0.563   1.919   6.409  1.1195 -0.9266 -1.0101
 7755SOL    HW234902   0.457   2.006   6.375 -0.4390 -1.4607  0.2521
 7756SOL     OW34903   1.477   1.524   6.620  0.1494  0.4796  0.5523
 7756SOL    HW134904   1.406   1.587   6.629 -0.1924 -0.2285  2.9073
 7756SOL    HW234905   1.432   1.444   6.591  1.2684 -0.4798  1.4328
 7757SOL     OW34906   3.921   3.560   6.112 -0.4250 -0.4115 -0.1698
 7757SOL    HW134907   3.972   3.616   6.054 -1.9393  0.8479 -0.2855
 7757SOL    HW234908   3.991   3.541   6.175 -1.2239  0.7206  1.0488
 7758SOL     OW34909   0.292   3.297   2.979 -0.1344  0.5275  0.2491
 7758SOL    HW134910   0.299   3.208   2.946 -0.0589  0.7636 -0.3791
 7758SOL    HW234911   0.347   3.302   3.057 -1.2823 -0.4462  1.1297
 7759SOL     OW34912   0.226   2.680   3.428  0.5826 -0.1895  0.0025
 7759SOL    HW134913   0.301   2.653   3.375  1.3875 -3.1528  2.6043
 7759SOL    HW234914   0.245   2.634   3.510  1.7947  0.3169 -0.0067
 7760SOL     OW34915   2.741   0.067   9.060 -0.1056  0.1073  0.3504
 7760SOL    HW134916   2.793   0.106   8.990 -0.4238  0.4401  0.3023
 7760SOL    HW234917   2.758   0.135   9.125  0.3741  0.7231 -0.4217
 7761SOL     OW34918   2.609   3.448   4.455 -0.4157  0.5296 -0.0153
 7761SOL    HW134919   2.671   3.413   4.391  2.1656 -0.5433  3.0742
 7761SOL    HW234920   2.581   3.521   4.400  1.0213  0.9657 -0.1854
 7762SOL     OW34921   0.963   2.094   6.733 -0.5538  0.3529 -0.2139
 7762SOL    HW134922   0.925   2.049   6.657 -0.2151 -1.4272  0.6693
 7762SOL    HW234923   1.017   2.158   6.687  0.6424  0.9391  2.0609
 7763SOL     OW34924   1.518   2.818  17.180  0.0796  0.5746 -0.0518
 7763SOL    HW134925   1.542   2.725  17.182  1.0664  0.7961 -1.2531
 7763SOL    HW234926   1.477   2.825  17.266 -1.0833 -3.6044 -0.2523
 7764SOL     OW34927   2.651   3.893  15.839  0.7815  0.3118 -0.1851
 7764SOL    HW134928   2.567   3.893  15.792  0.2874  0.9534  0.6852
 7764SOL    HW234929   2.685   3.973  15.798  0.3482 -0.8960 -2.8681
 7765SOL     OW34930   0.854   1.605  17.574 -0.5569 -0.6690  0.5955
 7765SOL    HW134931   0.881   1.665  17.505  1.7103 -0.0710  2.0146
 7765SOL    HW234932   0.803   1.536  17.531 -0.9225  0.1292 -0.2524
 7766SOL     OW34933   4.406   1.006   7.392 -1.0184  0.2412  0.2430
 7766SOL    HW134934   4.397   0.977   7.483  2.1227  1.1493  0.8649
 7766SOL    HW234935   4.484   0.963   7.358 -1.2676 -0.2156  0.2509
 7767SOL     OW34936   1.398   3.453   6.745 -0.3746  0.3517  0.1380
 7767SOL    HW134937   1.431   3.413   6.665 -1.2001 -0.0177 -0.0238
 7767SOL    HW234938   1.359   3.529   6.701  1.5817  1.0271 -0.4324
 7768SOL     OW34939   4.329   3.926   1.463 -0.0276  0.2090  0.2756
 7768SOL    HW134940   4.237   3.951   1.468 -0.5806 -2.0418  1.7758
 7768SOL    HW234941   4.339   3.878   1.546  1.9842 -0.4424 -0.3366
 7769SOL     OW34942   1.778   0.403  15.664 -0.9274 -0.5451 -0.7013
 7769SOL    HW134943   1.687   0.396  15.635 -1.9967  1.3329  2.2199
 7769SOL    HW234944   1.831   0.432  15.589  0.2781  0.6798  0.6207
 7770SOL     OW34945   4.552   4.361  13.301 -0.9089  0.1624  0.2962
 7770SOL    HW134946   4.594   4.328  13.221  0.4080  0.3108  0.9121
 7770SOL    HW234947   4.632   4.404  13.334 -0.5887 -0.3725  0.2242
 7771SOL     OW34948   1.019   1.236   6.664  0.1465  0.4467  0.0454
 7771SOL    HW134949   1.032   1.170   6.733 -1.4353  1.9999  1.8202
 7771SOL    HW234950   0.985   1.183   6.592  2.4994  0.9027 -1.4202
 7772SOL     OW34951   0.116   2.076   8.278 -0.1202  0.6496  0.6472
 7772SOL    HW134952   0.115   2.121   8.193 -1.6586 -0.2074  0.2153
 7772SOL    HW234953   0.162   2.138   8.334  1.8584 -0.6541  0.5021
 7773SOL     OW34954   0.639   3.054   9.173  0.0160  0.0880 -0.2951
 7773SOL    HW134955   0.587   3.131   9.198 -0.5503  0.4987 -2.7208
 7773SOL    HW234956   0.626   2.986   9.239  2.6036  0.8671  0.9783
 7774SOL     OW34957   1.655   0.689  15.298 -0.0627  0.2314 -0.0908
 7774SOL    HW134958   1.626   0.598  15.309  1.4044 -0.4820 -1.9646
 7774SOL    HW234959   1.656   0.704  15.203 -0.8030 -0.1719 -0.1641
 7775SOL     OW34960   4.417   0.913   0.650  0.4525 -0.4668  0.7299
 7775SOL    HW134961   4.480   0.954   0.710 -1.6975  1.7761  1.4072
 7775SOL    HW234962   4.474   0.906   0.573 -0.5092  1.8445 -0.1807
 7776SOL     OW34963   2.195   0.215   9.469 -0.0422 -0.1349 -0.3211
 7776SOL    HW134964   2.281   0.206   9.510  1.1070  3.3214 -1.9971
 7776SOL    HW234965   2.226   0.236   9.381 -1.0109  1.1483 -0.3525
 7777SOL     OW34966   0.852   0.921   3.287  0.3075  0.7894 -0.1255
 7777SOL    HW134967   0.919   0.864   3.324  0.4413  0.3408 -1.0671
 7777SOL    HW234968   0.796   0.868   3.229 -0.3025  1.4453 -0.1452
 7778SOL     OW34969   4.590   4.553   5.526  0.0064  0.0925 -0.2907
 7778SOL    HW134970   4.577   4.608   5.449 -2.1734  0.3066  0.2505
 7778SOL    HW234971   4.624   4.620   5.584  0.9262 -1.4335  0.9425
 7779SOL     OW34972   2.672   0.140   4.595 -0.6330  0.1051  0.1031
 7779SOL    HW134973   2.643   0.102   4.512 -3.4247 -0.1286  1.1898
 7779SOL    HW234974   2.702   0.228   4.573 -2.0040 -0.0164 -2.1786
 7780SOL     OW34975   3.673   4.250   3.680  0.1136  0.2527 -0.0707
 7780SOL    HW134976   3.752   4.270   3.630  0.3802 -1.4058 -0.3085
 7780SOL    HW234977   3.680   4.323   3.742  3.2142 -0.3369  0.2536
 7781SOL     OW34978   3.086   0.153  11.792 -0.2775 -0.7644  0.3615
 7781SOL    HW134979   3.127   0.077  11.751  0.4550 -0.0154 -0.2917
 7781SOL    HW234980   3.157   0.212  11.768 -1.6757  0.0936 -1.7702
 7782SOL     OW34981   3.749   1.533  12.834  0.0948  0.1865  0.3485
 7782SOL    HW134982   3.822   1.488  12.875 -0.7327 -0.7788  0.7638
 7782SOL    HW234983   3.679   1.471  12.856 -1.3719  1.4472 -0.7566
 7783SOL     OW34984   3.781   4.310   5.623  0.4395 -0.1392 -0.1311
 7783SOL    HW134985   3.713   4.360   5.668 -0.1860  1.0815 -2.4372
 7783SOL    HW234986   3.841   4.295   5.697  0.1325 -1.3981 -0.1368
 7784SOL     OW34987   2.292   3.596  12.274 -0.5777 -0.4479 -0.1916
 7784SOL    HW134988   2.246   3.660  12.220  0.4225  1.8333  1.6613
 7784SOL    HW234989   2.289   3.531  12.204  0.6619  0.7628 -1.3676
 7785SOL     OW34990   0.168   3.793   5.824  0.4374  0.3911  0.2137
 7785SOL    HW134991   0.227   3.866   5.843  0.4113  0.4070  0.2339
 7785SOL    HW234992   0.237   3.735   5.793  0.7405  0.5968  0.4988
 7786SOL     OW34993   3.043   3.491   2.404  0.0804  0.3250 -0.8749
 7786SOL    HW134994   3.103   3.423   2.435 -2.0131 -1.3838 -0.5945
 7786SOL    HW234995   3.078   3.566   2.452  0.3029 -0.3543  0.0372
 7787SOL     OW34996   3.652   0.732   6.048  0.2993  0.0547  0.2917
 7787SOL    HW134997   3.606   0.656   6.010 -2.5997  1.3258  1.2102
 7787SOL    HW234998   3.688   0.774   5.970 -4.5899  0.1269 -1.9946
 7788SOL     OW34999   2.660   0.195   6.594  0.2414 -0.2041  0.1953
 7788SOL    HW135000   2.617   0.263   6.646 -0.8339 -1.2222  0.6421
 7788SOL    HW235001   2.684   0.248   6.519 -2.8509  1.7519  0.5949
 7789SOL     OW35002   0.755   4.084   2.749  0.3230 -0.5002 -0.1683
 7789SOL    HW135003   0.731   4.019   2.683  0.0147 -1.9117  1.3216
 7789SOL    HW235004   0.832   4.127   2.713 -0.6586  0.1774 -1.4513
 7790SOL     OW35005   4.439   0.399   5.078  0.1527  0.8408 -0.5718
 7790SOL    HW135006   4.413   0.307   5.073  0.3320  0.7599 -0.0131
 7790SOL    HW235007   4.364   0.440   5.035 -1.6939 -1.0178  0.8866
 7791SOL     OW35008   3.459   3.016   3.910  0.1588 -0.4777 -0.1392
 7791SOL    HW135009   3.411   3.058   3.840  1.7083 -2.0745 -2.1527
 7791SOL    HW235010   3.433   3.073   3.982  0.2518 -2.6400  1.6235
 7792SOL     OW35011   0.741   4.101   5.047 -0.1289  0.0851 -0.4754
 7792SOL    HW135012   0.810   4.137   4.991  1.7540 -2.3233  0.3083
 7792SOL    HW235013   0.687   4.179   5.034 -2.1154 -1.3159 -0.5168
 7793SOL     OW35014   3.433   0.891  12.737  0.4840 -0.6014  0.4121
 7793SOL    HW135015   3.386   0.809  12.751  0.2139 -0.5250 -0.0260
 7793SOL    HW235016   3.418   0.942  12.816  1.0765  1.1860 -0.6247
 7794SOL     OW35017   4.027   4.440   1.651  0.1262  0.6522 -0.3111
 7794SOL    HW135018   3.978   4.437   1.569  1.8118  1.8711 -1.3773
 7794SOL    HW235019   3.967   4.384   1.701 -0.0081  0.9123 -0.1821
 7795SOL     OW35020   0.375   4.337  15.220 -0.5887 -0.3228  0.0390
 7795SOL    HW135021   0.420   4.421  15.220  0.1090 -0.6937  0.2006
 7795SOL    HW235022   0.285   4.367  15.231 -0.7426 -0.3484 -1.2548
 7796SOL     OW35023   2.631   4.578   2.364  0.4200  0.2843  0.2535
 7796SOL    HW135024   2.561   4.572   2.299 -1.0415 -1.0701  1.9436
 7796SOL    HW235025   2.709   4.573   2.309  0.3734 -0.2144  0.2321
 7797SOL     OW35026   2.245   3.211   5.020 -0.0690  0.6143  0.5059
 7797SOL    HW135027   2.224   3.301   4.995 -1.4226  0.7721  2.1996
 7797SOL    HW235028   2.171   3.180   5.073  1.0717 -0.3477  1.5570
 7798SOL     OW35029   3.982   4.183   1.174 -0.3022 -0.2269  0.6694
 7798SOL    HW135030   3.888   4.203   1.182  0.0433  2.2050 -1.3141
 7798SOL    HW235031   3.989   4.121   1.101 -0.4073 -1.5234  1.7478
 7799SOL     OW35032   1.488   0.597  11.646  0.0931 -0.3540  0.2349
 7799SOL    HW135033   1.525   0.607  11.559  0.8879  2.5365  0.9239
 7799SOL    HW235034   1.563   0.610  11.704 -0.0378  1.3912  0.0090
 7800SOL     OW35035   0.898   2.097   3.568  0.0807 -0.4807 -0.2990
 7800SOL    HW135036   0.912   2.124   3.477 -0.5781  3.7518  0.8218
 7800SOL    HW235037   0.915   2.003   3.563  2.0366 -0.1283 -0.0614
 7801SOL     OW35038   1.771   0.389   7.829 -0.4919  0.6728  0.1993
 7801SOL    HW135039   1.773   0.316   7.767  1.0898  1.6214 -0.8599
 7801SOL    HW235040   1.839   0.448   7.796 -0.4097  0.1168 -0.6357
 7802SOL     OW35041   1.066   3.651   4.668  0.4913  0.2275 -0.1239
 7802SOL    HW135042   1.039   3.560   4.684 -0.6435  0.4989 -0.4538
 7802SOL    HW235043   1.016   3.674   4.589 -0.5284  2.4203  1.1632
 7803SOL     OW35044   3.915   1.437  16.568  0.2087  0.0959  0.6768
 7803SOL    HW135045   3.859   1.391  16.632  0.6083  2.1162  2.4639
 7803SOL    HW235046   3.931   1.525  16.601  2.2748 -0.0765  0.1370
 7804SOL     OW35047   4.496   4.692   5.273 -0.3328  0.3475 -0.0816
 7804SOL    HW135048   4.402   4.680   5.288 -0.5380  1.2925 -0.6521
 7804SOL    HW235049   4.516   4.637   5.198  2.7056 -0.0364  0.9901
 7805SOL     OW35050   1.276   2.042   6.740  0.2129  0.4485 -0.2779
 7805SOL    HW135051   1.258   2.131   6.711 -0.3792  0.8511  1.3701
 7805SOL    HW235052   1.311   1.999   6.662 -2.0193 -1.4386 -0.2354
 7806SOL     OW35053   0.869   0.488   4.835  0.7968 -0.2086 -0.2350
 7806SOL    HW135054   0.881   0.582   4.852 -2.0125  0.0521  0.3823
 7806SOL    HW235055   0.815   0.486   4.756  2.2659 -0.8155 -1.1998
 7807SOL     OW35056   1.112   2.804  16.356 -0.2372  0.5305  0.0691
 7807SOL    HW135057   1.056   2.864  16.306  0.5282  0.7752 -0.4979
 7807SOL    HW235058   1.200   2.820  16.322  0.3270 -0.7010  0.9675
 7808SOL     OW35059   2.028   3.004  13.512  0.8454  0.2283 -0.5060
 7808SOL    HW135060   2.121   2.994  13.533  0.8500 -1.2410 -1.2299
 7808SOL    HW235061   2.034   3.007  13.416 -1.3126  0.6713 -0.6172
 7809SOL     OW35062   0.623   2.100   2.216 -0.4930 -0.2784  0.0073
 7809SOL    HW135063   0.682   2.033   2.182 -1.5518 -0.6569 -1.0609
 7809SOL    HW235064   0.687   2.167   2.239  0.1045 -0.9697  0.3448
 7810SOL     OW35065   2.698   1.172  10.107  0.2256 -0.0326  0.6108
 7810SOL    HW135066   2.606   1.162  10.082 -0.0525  2.5785  0.5923
 7810SOL    HW235067   2.719   1.234  10.037  0.7804 -0.6644  0.2137
 7811SOL     OW35068   0.562   2.338   8.933  0.2900  0.7764  1.1383
 7811SOL    HW135069   0.477   2.360   8.970 -0.4100 -0.5356  0.2944
 7811SOL    HW235070   0.614   2.372   9.006 -0.6653 -0.1950  2.2648
 7812SOL     OW35071   4.511   1.876   0.837 -0.3063  0.2395  0.1675
 7812SOL    HW135072   4.580   1.939   0.857 -0.8372  1.7481 -2.6947
 7812SOL    HW235073   4.455   1.887   0.914  0.5712 -0.9020  0.9566
 7813SOL     OW35074   0.246   1.813   9.325 -0.1597 -0.4694 -0.5148
 7813SOL    HW135075   0.210   1.897   9.298  0.0621  0.0962  0.9528
 7813SOL    HW235076   0.287   1.838   9.407 -1.2795  0.5837 -0.2826
 7814SOL     OW35077   0.488   2.037   4.896 -0.1615  0.1617 -0.0082
 7814SOL    HW135078   0.573   2.067   4.926  0.3432 -0.2001 -1.0691
 7814SOL    HW235079   0.425   2.095   4.939 -1.2767 -1.3507  0.4264
 7815SOL     OW35080   2.276   3.451   6.776  0.2029  0.1759 -0.0208
 7815SOL    HW135081   2.214   3.498   6.721 -0.5053  0.4323  0.9837
 7815SOL    HW235082   2.305   3.519   6.837 -0.9492 -1.4378  2.3210
 7816SOL     OW35083   1.963   1.231   3.845 -0.0238  0.0759 -0.0390
 7816SOL    HW135084   2.057   1.215   3.842 -0.1051  0.1336 -2.2351
 7816SOL    HW235085   1.936   1.143   3.870 -1.8288  0.6735  0.1185
 7817SOL     OW35086   2.882   1.420   3.377  0.0724 -0.3231 -0.1112
 7817SOL    HW135087   2.800   1.470   3.373  0.3368  0.1624  0.5866
 7817SOL    HW235088   2.911   1.438   3.288 -2.2089 -0.7922 -0.9686
 7818SOL     OW35089   3.377   2.754   2.987  0.3175 -0.2564  0.4884
 7818SOL    HW135090   3.387   2.781   2.896 -0.4551 -1.4848  0.0476
 7818SOL    HW235091   3.465   2.723   3.008  0.9165 -0.0222 -1.6695
 7819SOL     OW35092   0.322   1.299   2.202  0.3722 -0.2999  0.2672
 7819SOL    HW135093   0.386   1.257   2.260 -1.1057  1.4710  3.1272
 7819SOL    HW235094   0.304   1.224   2.144  0.6627 -1.3118  1.4860
 7820SOL     OW35095   2.526   0.603  17.588 -0.5646 -0.3194 -0.1759
 7820SOL    HW135096   2.582   0.673  17.555 -0.2253  0.1480  1.3729
 7820SOL    HW235097   2.496   0.570  17.503 -3.2100  0.2180  0.5586
 7821SOL     OW35098   4.031   0.913   6.163  0.5398  0.4037 -0.5404
 7821SOL    HW135099   4.050   0.827   6.200  2.3217  0.3008 -1.6377
 7821SOL    HW235100   4.093   0.917   6.090  1.5135  2.3694  0.3921
 7822SOL     OW35101   2.126   0.932   7.267 -0.5777 -0.1163 -0.0358
 7822SOL    HW135102   2.090   1.000   7.211  3.7929  0.9364 -1.5657
 7822SOL    HW235103   2.192   0.893   7.210 -2.2933 -1.7884 -0.8817
 7823SOL     OW35104   2.297   2.778   2.966  0.2582  0.2339  0.2840
 7823SOL    HW135105   2.256   2.858   2.999 -0.7608 -0.2739  0.2517
 7823SOL    HW235106   2.234   2.768   2.895 -0.3305 -0.1432  0.8641
 7824SOL     OW35107   2.455   3.264  17.267  0.4220 -0.2649 -0.2530
 7824SOL    HW135108   2.521   3.223  17.210  0.8438 -0.8985  0.6963
 7824SOL    HW235109   2.514   3.282  17.340 -2.9826  1.7501  1.9759
 7825SOL     OW35110   2.408   0.852   6.412  0.0105 -0.2798 -0.0706
 7825SOL    HW135111   2.431   0.782   6.473  0.9296  1.1433  1.2200
 7825SOL    HW235112   2.381   0.930   6.461  0.2165 -0.6956  0.7010
 7826SOL     OW35113   0.576   2.994   9.794  0.7281 -0.3818  0.1602
 7826SOL    HW135114   0.568   3.029   9.705 -1.5276 -0.0886  0.4779
 7826SOL    HW235115   0.511   2.924   9.799  0.2051 -0.0141 -1.4707
 7827SOL     OW35116   2.975   0.316  10.099  0.1717  0.5219 -0.4855
 7827SOL    HW135117   2.939   0.277  10.019  0.8513  0.0078 -0.5387
 7827SOL    HW235118   3.028   0.383  10.057 -0.8783  1.8922  0.3803
 7828SOL     OW35119   2.027   4.430  16.663 -0.0867  0.7421 -0.0430
 7828SOL    HW135120   2.023   4.521  16.634  2.8969  0.5886 -0.9528
 7828SOL    HW235121   1.934   4.408  16.659 -0.0375  0.3632  0.7802
 7829SOL     OW35122   4.300   1.746   5.875  0.5434  0.5082 -0.1641
 7829SOL    HW135123   4.296   1.813   5.944  0.1140 -0.4930  0.7910
 7829SOL    HW235124   4.303   1.663   5.924  0.4576  0.6279  0.0452
 7830SOL     OW35125   3.563   3.954   2.403 -0.4530 -0.1128  0.2564
 7830SOL    HW135126   3.515   3.935   2.483 -2.6551 -0.4485 -1.1670
 7830SOL    HW235127   3.592   3.865   2.387  1.8102  0.6115  0.2486
 7831SOL     OW35128   1.458   1.556  14.963 -0.0260 -0.0249  0.5968
 7831SOL    HW135129   1.463   1.631  14.904  0.9748 -1.5781 -1.2881
 7831SOL    HW235130   1.542   1.512  14.951 -0.7907 -1.1077 -0.8065
 7832SOL     OW35131   1.321   0.188   5.836 -0.7169  0.1940 -0.2232
 7832SOL    HW135132   1.310   0.266   5.782 -1.2114  0.3344  0.0833
 7832SOL    HW235133   1.398   0.205   5.890 -2.0650 -0.7174  1.9763
 7833SOL     OW35134   0.279   0.451  13.853 -0.1133 -0.4756 -0.6868
 7833SOL    HW135135   0.233   0.406  13.923 -1.1993  0.3893 -0.8270
 7833SOL    HW235136   0.366   0.413  13.857 -0.4984 -1.2445  0.3573
 7834SOL     OW35137   4.220   3.609  16.185 -0.5877 -0.3333 -0.1175
 7834SOL    HW135138   4.154   3.539  16.187 -2.1893  1.1816 -0.8140
 7834SOL    HW235139   4.217   3.626  16.091 -0.9747  0.9021  0.1281
 7835SOL     OW35140   3.242   1.874   6.165  0.7049 -0.3306  0.4286
 7835SOL    HW135141   3.165   1.832   6.203  0.1165  0.2609 -0.1070
 7835SOL    HW235142   3.262   1.819   6.088 -0.6383 -0.3526  0.1025
 7836SOL     OW35143   2.299   0.596   6.538 -0.0238  0.1188 -0.2963
 7836SOL    HW135144   2.284   0.512   6.582  1.3997 -0.5723 -1.1308
 7836SOL    HW235145   2.307   0.559   6.450 -0.9462  1.3626 -0.8983
 7837SOL     OW35146   0.160   2.297  12.871 -0.3500 -0.1966  0.4790
 7837SOL    HW135147   0.238   2.342  12.905 -0.0888 -0.6126  0.4238
 7837SOL    HW235148   0.183   2.205  12.881 -2.3031 -0.5694  1.4449
 7838SOL     OW35149   1.102   4.351  16.946 -0.3647 -0.5274  0.1519
 7838SOL    HW135150   1.060   4.422  16.996 -1.1225  1.2562 -2.9991
 7838SOL    HW235151   1.085   4.378  16.856 -3.4890 -1.5806  0.4222
 7839SOL     OW35152   3.862   0.478   4.068  0.3820  0.5653  0.2350
 7839SOL    HW135153   3.828   0.390   4.055 -0.6528  0.7155  1.9079
 7839SOL    HW235154   3.920   0.462   4.143  1.1357  0.5047 -0.3711
 7840SOL     OW35155   0.768   4.484   4.808 -0.1332 -0.1597  0.2201
 7840SOL    HW135156   0.785   4.518   4.720 -1.4164 -0.8206 -0.2771
 7840SOL    HW235157   0.852   4.488   4.854  0.1457 -0.1278 -0.2872
 7841SOL     OW35158   0.677   0.629  17.324 -0.0862 -0.9453 -0.9186
 7841SOL    HW135159   0.688   0.578  17.244  1.1595 -1.1223 -0.6327
 7841SOL    HW235160   0.582   0.628  17.335  0.2306 -2.9847  1.6735
 7842SOL     OW35161   3.023   2.233   5.414  0.2719  0.7828 -0.3435
 7842SOL    HW135162   2.975   2.290   5.473  0.4941  1.4278 -0.7913
 7842SOL    HW235163   3.107   2.231   5.461  0.4997  1.0011 -0.7410
 7843SOL     OW35164   4.473   0.509   1.930 -0.3571 -0.1017 -0.3702
 7843SOL    HW135165   4.412   0.568   1.974 -1.3309 -1.8070  0.5350
 7843SOL    HW235166   4.414   0.444   1.893  1.9807 -1.0813 -2.4140
 7844SOL     OW35167   0.659   1.071   8.052  0.1017 -0.6733  0.0179
 7844SOL    HW135168   0.743   1.059   8.008 -0.0941  3.1484 -1.4011
 7844SOL    HW235169   0.681   1.119   8.132 -1.7871  0.9574 -0.4174
 7845SOL     OW35170   0.627   4.297  15.616 -0.1994 -0.3198 -0.1985
 7845SOL    HW135171   0.537   4.264  15.627  0.0406 -0.7887  0.3469
 7845SOL    HW235172   0.644   4.280  15.524 -1.5539 -2.9309  0.0333
 7846SOL     OW35173   3.803   4.438  11.912  0.1599  0.3112 -0.9575
 7846SOL    HW135174   3.840   4.419  11.826 -0.3960  0.7166 -1.2880
 7846SOL    HW235175   3.881   4.470  11.957 -0.6576  1.2452 -0.1875
 7847SOL     OW35176   4.494   3.096   0.419 -0.0377  0.7716  0.0831
 7847SOL    HW135177   4.431   3.032   0.452 -0.5691  0.6990 -1.0715
 7847SOL    HW235178   4.524   3.134   0.501  2.1095  1.7699 -1.1561
 7848SOL     OW35179   1.388   3.456   5.666  0.0183  0.0447 -0.1946
 7848SOL    HW135180   1.463   3.460   5.726 -0.6076  0.3024  0.5653
 7848SOL    HW235181   1.428   3.395   5.604 -2.6006 -1.2544 -0.6072
 7849SOL     OW35182   2.147   2.714   6.418  1.0304 -0.0149  0.1040
 7849SOL    HW135183   2.116   2.732   6.507 -0.9707 -0.3589 -0.5160
 7849SOL    HW235184   2.090   2.644   6.385  0.7179  0.6742 -0.8381
 7850SOL     OW35185   2.486   2.276   3.847  0.7765  0.5132  0.0405
 7850SOL    HW135186   2.508   2.347   3.907  0.5140 -1.4440  2.4805
 7850SOL    HW235187   2.418   2.226   3.893  0.5047  1.0181  0.1856
 7851SOL     OW35188   3.047   3.877   5.224  0.2575 -0.2046  0.1580
 7851SOL    HW135189   3.009   3.828   5.297 -0.3927  0.3032  0.1587
 7851SOL    HW235190   2.969   3.909   5.180  0.4124 -0.4741 -0.3142
 7852SOL     OW35191   1.917   1.514   9.432 -0.5872 -0.0902 -0.2474
 7852SOL    HW135192   1.913   1.463   9.351  1.4498 -0.7276  0.0466
 7852SOL    HW235193   1.826   1.512   9.459 -0.9053 -1.3312 -1.3995
 7853SOL     OW35194   2.604   1.390   9.553 -0.2214 -0.0134 -0.2516
 7853SOL    HW135195   2.544   1.461   9.574 -1.5143 -1.2488  0.1980
 7853SOL    HW235196   2.550   1.311   9.547  0.1077 -0.5170  3.7308
 7854SOL     OW35197   1.634   1.358  10.814 -0.2714 -0.1393  0.4892
 7854SOL    HW135198   1.611   1.332  10.903 -4.9045 -1.0544 -0.9876
 7854SOL    HW235199   1.656   1.448  10.838  0.1027 -0.2716  0.6513
 7855SOL     OW35200   0.004   2.392   3.023 -0.7322 -0.4414  0.4490
 7855SOL    HW135201   0.003   2.383   3.118 -2.8573 -1.1279  0.3630
 7855SOL    HW235202   0.077   2.334   3.001  0.1186  0.1593  1.6688
 7856SOL     OW35203   0.437   4.480   5.499 -0.1159 -0.0643 -0.1638
 7856SOL    HW135204   0.378   4.502   5.427  1.6150 -1.3537 -1.9715
 7856SOL    HW235205   0.523   4.494   5.460 -0.0368  0.3771  0.1641
 7857SOL     OW35206   0.804   2.183   4.670  0.6492 -0.7565 -0.2270
 7857SOL    HW135207   0.712   2.197   4.648  0.3163 -0.0371  1.6523
 7857SOL    HW235208   0.830   2.246   4.737  1.6066 -2.8754  1.3715
 7858SOL     OW35209   4.453   0.121   7.773 -0.3802 -0.3292 -0.2365
 7858SOL    HW135210   4.391   0.116   7.701 -2.4630  3.3281  1.2853
 7858SOL    HW235211   4.409   0.169   7.844 -0.7216 -0.8667 -0.0860
 7859SOL     OW35212   2.579   2.564   5.834  0.0962 -0.0332 -0.5001
 7859SOL    HW135213   2.673   2.545   5.830 -0.0825 -1.0455  0.1678
 7859SOL    HW235214   2.584   2.639   5.775 -0.2583  0.8848  0.6484
 7860SOL     OW35215   0.566   1.672  17.048 -0.6945 -0.1333 -0.0759
 7860SOL    HW135216   0.483   1.635  17.078 -0.8522  1.0284  0.9329
 7860SOL    HW235217   0.533   1.744  16.993  1.0917 -0.1984 -1.2155
 7861SOL     OW35218   4.163   3.314   1.745  0.1732  0.0700 -0.3343
 7861SOL    HW135219   4.087   3.372   1.744  0.4198  0.3934  0.0250
 7861SOL    HW235220   4.236   3.371   1.724  0.7772  0.4092  2.6238
 7862SOL     OW35221   3.459   4.010   1.474 -0.2874 -0.5635  0.3492
 7862SOL    HW135222   3.396   3.988   1.543  0.0341 -2.0323  0.1681
 7862SOL    HW235223   3.464   3.926   1.428  2.0557  1.2473 -2.6088
 7863SOL     OW35224   0.255   2.242   9.357 -0.0147  0.2381 -0.2446
 7863SOL    HW135225   0.181   2.282   9.311 -1.5008 -2.2686 -0.0531
 7863SOL    HW235226   0.216   2.191   9.428  1.8574  1.7350  1.8249
 7864SOL     OW35227   3.005   3.857   5.740 -0.3558 -0.1987  0.0555
 7864SOL    HW135228   3.010   3.766   5.769 -1.0521 -0.6162 -1.0920
 7864SOL    HW235229   3.015   3.912   5.817  1.9731  1.3748 -1.3683
 7865SOL     OW35230   2.205   4.575   4.165 -0.3306 -0.1754  0.1501
 7865SOL    HW135231   2.246   4.603   4.247 -0.5391  2.1461 -0.5356
 7865SOL    HW235232   2.234   4.485   4.177  0.1121  0.2350  2.1096
 7866SOL     OW35233   3.897   2.481   8.512  0.0019 -0.7789 -0.0598
 7866SOL    HW135234   3.846   2.473   8.593 -0.3409  0.4823 -0.1598
 7866SOL    HW235235   3.920   2.390   8.490 -0.8028 -1.3523  1.4635
 7867SOL     OW35236   4.305   1.472   5.944  0.7662  0.2002  0.1859
 7867SOL    HW135237   4.386   1.490   5.897  0.8470 -2.2372 -0.6235
 7867SOL    HW235238   4.334   1.389   5.981  0.0937  0.1001  0.5046
 7868SOL     OW35239   1.562   2.176   0.240 -1.0110  0.3101  0.1090
 7868SOL    HW135240   1.578   2.138   0.154 -3.1546  0.3812 -0.3317
 7868SOL    HW235241   1.650   2.209   0.255 -1.0608  0.7727 -0.6021
 7869SOL     OW35242   4.045   4.109   7.919  0.1072 -0.3071 -0.5664
 7869SOL    HW135243   4.010   4.113   8.008  0.9775  0.9602 -0.2883
 7869SOL    HW235244   4.062   4.201   7.899 -1.9943  0.5351  1.4082
 7870SOL     OW35245   2.157   2.413   6.846  0.0393  0.5828  0.1127
 7870SOL    HW135246   2.202   2.495   6.824  1.0753  0.4836  1.8780
 7870SOL    HW235247   2.223   2.343   6.847  0.6495  1.1510  0.1444
 7871SOL     OW35248   4.448   4.467   6.327  0.2424 -0.5260  0.1078
 7871SOL    HW135249   4.396   4.467   6.246  1.8799 -2.1704 -0.9487
 7871SOL    HW235250   4.527   4.518   6.309 -0.1425  0.8974  2.4994
 7872SOL     OW35251   0.578   0.326   0.741  0.1301  0.0731  0.0637
 7872SOL    HW135252   0.662   0.350   0.779 -0.7419  0.0557  2.0596
 7872SOL    HW235253   0.604   0.244   0.699  1.3631  0.8811 -0.7228
 7873SOL     OW35254   2.750   2.218   0.699  0.0932  0.0649  0.5389
 7873SOL    HW135255   2.823   2.277   0.712  1.1137 -0.8966 -0.7856
 7873SOL    HW235256   2.762   2.155   0.770 -2.4578  1.7784  2.5112
 7874SOL     OW35257   2.026   4.460  12.645  0.0966 -0.3510  0.0049
 7874SOL    HW135258   2.046   4.367  12.652  1.0431 -0.2067 -0.7571
 7874SOL    HW235259   2.001   4.484  12.734  0.1767  2.8660 -0.8116
 7875SOL     OW35260   3.274   2.616  10.056  0.6400 -0.5746  0.0011
 7875SOL    HW135261   3.286   2.710  10.045  1.1255 -0.6071  0.2506
 7875SOL    HW235262   3.270   2.607  10.152 -0.1330 -1.4209 -0.1023
 7876SOL     OW35263   0.288   0.822   1.344  0.1141  0.2211 -0.5092
 7876SOL    HW135264   0.341   0.898   1.318  2.6416 -1.0577  0.8450
 7876SOL    HW235265   0.353   0.754   1.326  0.4919  0.8849 -1.6727
 7877SOL     OW35266   3.514   0.384  16.066  0.1123 -0.1126  0.1533
 7877SOL    HW135267   3.577   0.409  16.134 -0.0953  1.5689 -0.2778
 7877SOL    HW235268   3.441   0.348  16.117  0.8633 -1.2292  0.4349
 7878SOL     OW35269   2.123   2.289   5.024  0.0663  0.7774  0.0516
 7878SOL    HW135270   2.149   2.326   5.108  1.1857  2.2313 -0.9319
 7878SOL    HW235271   2.099   2.376   4.990  0.9619  1.6908  1.7854
 7879SOL     OW35272   2.679   2.157   7.265 -0.2162  0.5733  0.6099
 7879SOL    HW135273   2.643   2.246   7.273  0.1494  0.7869 -0.1493
 7879SOL    HW235274   2.629   2.118   7.193 -1.2253  2.7679  0.1105
 7880SOL     OW35275   0.527   2.347   8.021 -0.0200 -0.4806 -0.0298
 7880SOL    HW135276   0.613   2.373   7.987  0.4640 -0.8624  0.9093
 7880SOL    HW235277   0.559   2.284   8.085  0.0731  0.5431  0.9323
 7881SOL     OW35278   2.257   3.365  16.880 -0.1390  0.8250 -0.2446
 7881SOL    HW135279   2.220   3.449  16.853 -2.0902 -0.9118 -2.9937
 7881SOL    HW235280   2.239   3.376  16.973 -0.1056 -1.3189  0.0255
 7882SOL     OW35281   0.655   2.771   3.283 -0.3156 -0.1441 -0.0339
 7882SOL    HW135282   0.698   2.720   3.214  1.5616  2.4180 -0.7495
 7882SOL    HW235283   0.579   2.716   3.302 -1.4199  0.7797 -1.8194
 7883SOL     OW35284   4.587   2.264   8.644  0.4645 -0.3438 -0.3471
 7883SOL    HW135285   4.496   2.237   8.630 -0.3554  1.9340  0.6200
 7883SOL    HW235286   4.583   2.310   8.728 -1.0177 -1.7407  0.3436
 7884SOL     OW35287   4.332   2.313   3.217 -0.3137 -0.4409 -0.0661
 7884SOL    HW135288   4.405   2.257   3.246 -0.5400 -1.5481 -1.6158
 7884SOL    HW235289   4.331   2.295   3.123  1.4161  0.0948 -0.1757
 7885SOL     OW35290   0.587   3.701  16.210  0.0153 -0.0319 -0.8527
 7885SOL    HW135291   0.514   3.750  16.170  0.2647  0.2203 -0.9991
 7885SOL    HW235292   0.659   3.731  16.155  1.1274 -1.3442 -0.1001
 7886SOL     OW35293   4.608   0.093   8.452  0.2999 -0.1778  0.4752
 7886SOL    HW135294   4.662   0.115   8.527 -0.0151 -0.0620  0.6663
 7886SOL    HW235295   4.662   0.082   8.374 -1.5376 -1.5480 -0.6264
 7887SOL     OW35296   4.339   4.428   5.011  0.1204  0.3036 -0.1483
 7887SOL    HW135297   4.268   4.407   4.951 -0.7401 -0.9135  1.3075
 7887SOL    HW235298   4.310   4.389   5.093  0.4166  1.2963  0.4264
 7888SOL     OW35299   0.752   1.542   0.746 -0.1424  0.3970 -0.0616
 7888SOL    HW135300   0.814   1.545   0.673 -1.1193  1.2412 -0.8624
 7888SOL    HW235301   0.666   1.544   0.703 -0.0491 -2.0456 -0.3680
 7889SOL     OW35302   2.698   2.236  15.298  0.7823 -0.1182  0.4234
 7889SOL    HW135303   2.696   2.264  15.206 -1.3779  2.6743  1.3231
 7889SOL    HW235304   2.604   2.235  15.313  0.4161 -0.5496 -1.8766
 7890SOL     OW35305   1.545   1.413  17.557  0.3923 -0.3893 -0.3561
 7890SOL    HW135306   1.519   1.328  17.521  1.5036 -0.5478 -0.8053
 7890SOL    HW235307   1.481   1.467  17.511 -0.0792 -1.2740 -0.7393
 7891SOL     OW35308   1.552   3.617   1.956 -0.0807 -0.4552  0.2891
 7891SOL    HW135309   1.634   3.664   1.967 -0.9100  1.5159 -1.8774
 7891SOL    HW235310   1.572   3.526   1.977  0.5150 -0.2282  0.6830
 7892SOL     OW35311   3.427   0.405  11.776  0.5449 -0.0676 -0.2492
 7892SOL    HW135312   3.440   0.460  11.698 -1.5246  0.8179  0.0198
 7892SOL    HW235313   3.360   0.457  11.820 -0.5804  0.2918 -2.3966
 7893SOL     OW35314   1.944   0.559  15.827 -0.0525 -0.5018  0.1835
 7893SOL    HW135315   2.027   0.511  15.820  0.0252 -0.3890  0.3262
 7893SOL    HW235316   1.898   0.511  15.758 -0.9718 -0.0749  0.4998
 7894SOL     OW35317   3.099   3.587   0.297  0.1834 -0.3731 -0.5237
 7894SOL    HW135318   3.095   3.538   0.378 -0.0988  0.3811 -0.0814
 7894SOL    HW235319   3.148   3.666   0.320  2.4911 -1.0392 -3.0763
 7895SOL     OW35320   0.454   0.020   8.977 -0.4786 -0.4484 -0.4081
 7895SOL    HW135321   0.507   4.701   9.037 -0.4734 -2.1557 -1.9300
 7895SOL    HW235322   0.470   0.108   9.012  1.4297 -0.4323 -1.3132
 7896SOL     OW35323   4.037   0.409  10.582 -0.1545 -0.3544 -0.0762
 7896SOL    HW135324   4.117   0.444  10.544 -0.0996  0.4909  0.8052
 7896SOL    HW235325   4.028   0.465  10.660 -3.0639  0.8430 -1.2745
 7897SOL     OW35326   0.229   3.576   8.122  0.0190  0.6522  0.1893
 7897SOL    HW135327   0.180   3.611   8.048 -2.6992 -2.1284  0.6569
 7897SOL    HW235328   0.277   3.508   8.075 -3.3392 -1.1362 -0.7152
 7898SOL     OW35329   2.326   4.519   5.965 -0.3629  0.0663 -0.0109
 7898SOL    HW135330   2.416   4.489   5.982 -0.6972 -0.0873  1.4668
 7898SOL    HW235331   2.278   4.437   5.980 -2.1218  1.1938  0.4779
 7899SOL     OW35332   1.113   1.032   3.023  0.3344 -0.6886  0.2043
 7899SOL    HW135333   1.170   1.107   3.007 -0.0743 -0.5596 -0.6527
 7899SOL    HW235334   1.052   1.080   3.079  1.1429  0.2652  0.2663
 7900SOL     OW35335   2.387   0.344   5.652  0.1509  0.2102  0.2293
 7900SOL    HW135336   2.354   0.297   5.728 -1.7181  2.7211  0.9753
 7900SOL    HW235337   2.323   0.414   5.641  1.0098  1.1188  1.0592
 7901SOL     OW35338   2.827   4.098  17.642 -0.3284 -0.0125  0.0277
 7901SOL    HW135339   2.815   4.018  17.694  0.4690  0.3090  0.7124
 7901SOL    HW235340   2.842   4.067  17.553 -1.8943  1.1123 -0.6263
 7902SOL     OW35341   3.308   3.705  14.670  0.1904 -0.0019 -0.4703
 7902SOL    HW135342   3.317   3.731  14.578  0.6332  1.6349  0.0404
 7902SOL    HW235343   3.214   3.687  14.673  0.2531  0.0132  1.6143
 7903SOL     OW35344   4.106   1.985   7.995  0.0495 -0.0885  0.2468
 7903SOL    HW135345   4.023   2.034   7.991 -0.1655 -0.5362 -0.6096
 7903SOL    HW235346   4.129   2.003   8.087  0.5980  2.6364 -0.4088
 7904SOL     OW35347   4.126   1.381   6.963 -0.5016  0.5293 -0.5975
 7904SOL    HW135348   4.031   1.393   6.953 -0.4095  1.4398 -0.3924
 7904SOL    HW235349   4.132   1.377   7.058 -1.7748 -0.9950 -0.5847
 7905SOL     OW35350   3.492   2.306   9.657 -0.1867  0.3108 -0.4439
 7905SOL    HW135351   3.443   2.385   9.634  0.5158  1.4144  1.8313
 7905SOL    HW235352   3.469   2.316   9.750  1.2765 -0.5689 -0.0002
 7906SOL     OW35353   3.697   0.758   0.586 -0.3430  0.1621  0.3459
 7906SOL    HW135354   3.781   0.740   0.543 -0.5743  1.2390 -0.5529
 7906SOL    HW235355   3.636   0.693   0.553 -0.4708  0.7290 -0.5086
 7907SOL     OW35356   0.365   0.619  14.299  0.3081 -0.1407 -0.0423
 7907SOL    HW135357   0.274   0.646  14.302  0.2323 -0.4833  0.7352
 7907SOL    HW235358   0.368   0.564  14.377  0.0927  1.8225  1.3620
 7908SOL     OW35359   1.130   1.408   6.313 -0.4005  0.5315 -0.6109
 7908SOL    HW135360   1.042   1.370   6.306  1.1146 -2.8427 -1.4037
 7908SOL    HW235361   1.159   1.425   6.224 -1.1094 -1.6158 -1.2665
 7909SOL     OW35362   3.416   2.095   6.856  0.3023  0.0946  0.0312
 7909SOL    HW135363   3.465   2.177   6.843 -0.2322  0.4912  0.5410
 7909SOL    HW235364   3.413   2.058   6.767  1.6574 -0.4785  0.2163
 7910SOL     OW35365   4.467   0.001  14.544  0.1020  0.3550  0.3028
 7910SOL    HW135366   4.521   0.059  14.490  1.7845 -1.8439 -0.3748
 7910SOL    HW235367   4.382   0.045  14.548  0.6677  1.3982  1.0117
 7911SOL     OW35368   1.643   4.156  12.189  0.2591  0.2124  0.1223
 7911SOL    HW135369   1.575   4.171  12.255  0.1858 -3.0327  0.7842
 7911SOL    HW235370   1.606   4.094  12.126 -1.2175  1.0155  0.1885
 7912SOL     OW35371   2.178   2.062  17.492  0.2052  0.6163  0.2617
 7912SOL    HW135372   2.180   1.993  17.559  1.9870  0.3332 -0.0911
 7912SOL    HW235373   2.269   2.067  17.463  0.3342  0.2323  0.5837
 7913SOL     OW35374   4.101   3.292   6.588  0.0193 -0.1129 -0.0450
 7913SOL    HW135375   4.193   3.283   6.563 -0.1382 -0.6013 -0.4558
 7913SOL    HW235376   4.056   3.263   6.509  1.4495  2.8216 -1.9636
 7914SOL     OW35377   2.386   3.720   4.657 -0.4938  0.3171 -0.5964
 7914SOL    HW135378   2.428   3.640   4.690  0.4502  1.0726  0.0306
 7914SOL    HW235379   2.419   3.793   4.709  0.7504 -0.1779 -0.6901
 7915SOL     OW35380   2.175   3.125   4.080 -0.3191  0.9386  0.0303
 7915SOL    HW135381   2.161   3.032   4.061 -1.1269  0.8170  1.2475
 7915SOL    HW235382   2.264   3.120   4.117 -0.7750 -1.0626  0.8769
 7916SOL     OW35383   3.831   0.917   2.311  0.6538  0.0595  0.3356
 7916SOL    HW135384   3.894   0.847   2.328 -0.8108 -1.3547  0.0376
 7916SOL    HW235385   3.853   0.934   2.219  1.3867  0.8751  0.6688
 7917SOL     OW35386   3.256   4.262   9.517  0.4615 -0.4640  0.1951
 7917SOL    HW135387   3.320   4.252   9.587 -0.5382  1.3146  1.3551
 7917SOL    HW235388   3.177   4.247   9.568 -0.1615 -1.1522 -0.9634
 7918SOL     OW35389   1.641   2.344  10.359 -0.5376 -0.3093  0.2121
 7918SOL    HW135390   1.671   2.279  10.422  1.5811 -1.6069 -2.1378
 7918SOL    HW235391   1.560   2.295  10.343 -0.3923 -0.5988  0.3622
 7919SOL     OW35392   0.173   0.954   0.557 -0.1752 -0.3058  0.3758
 7919SOL    HW135393   0.189   0.860   0.558  2.1513  0.0516 -2.3398
 7919SOL    HW235394   0.081   0.954   0.533 -0.0869  0.1166  0.0261
 7920SOL     OW35395   2.294   0.015   8.152  0.2711  0.0659 -0.0732
 7920SOL    HW135396   2.308   0.072   8.076  3.0316 -0.4215  0.0764
 7920SOL    HW235397   2.314   4.663   8.116 -0.6783 -0.2826  0.2538
 7921SOL     OW35398   3.866   2.648   9.324  0.0151  0.6234  0.1437
 7921SOL    HW135399   3.900   2.635   9.412  3.2165 -1.0324 -1.3252
 7921SOL    HW235400   3.934   2.608   9.269 -0.0195  0.0050  0.5493
 7922SOL     OW35401   3.091   3.497   3.219 -0.1765 -0.0377 -0.3740
 7922SOL    HW135402   3.014   3.494   3.161 -0.9448  1.9898  0.5340
 7922SOL    HW235403   3.072   3.415   3.264 -1.6645 -1.0133 -2.7643
 7923SOL     OW35404   4.210   1.738   7.947 -0.3873  0.4302  0.1631
 7923SOL    HW135405   4.297   1.759   7.979  0.0342  1.0573 -1.3809
 7923SOL    HW235406   4.166   1.819   7.972  1.2046  1.8247 -1.5612
 7924SOL     OW35407   3.416   2.003   3.617 -0.0622 -0.3130 -0.2155
 7924SOL    HW135408   3.355   2.066   3.579  0.3343  0.0670 -0.2296
 7924SOL    HW235409   3.461   2.058   3.682 -1.8778  2.7445 -1.5169
 7925SOL     OW35410   1.386   3.862   2.197  0.2685  0.1742  0.0103
 7925SOL    HW135411   1.375   3.768   2.182  0.6697 -0.2465  2.4096
 7925SOL    HW235412   1.365   3.893   2.109  0.1499 -1.5615 -0.5744
 7926SOL     OW35413   0.320   1.523  13.741 -0.1569  0.2717  0.6628
 7926SOL    HW135414   0.240   1.472  13.752  0.1824 -1.1288 -3.4408
 7926SOL    HW235415   0.372   1.511  13.821  2.0622  1.5058 -0.5776
 7927SOL     OW35416   2.243   0.204  14.972  0.0849 -0.1306 -0.1642
 7927SOL    HW135417   2.260   0.229  15.062  0.2806  1.6066 -0.6721
 7927SOL    HW235418   2.323   0.152  14.958  0.7120  0.3147  1.7826
 7928SOL     OW35419   4.175   1.238   8.849 -0.6438  0.1978  0.2155
 7928SOL    HW135420   4.230   1.171   8.888  1.5777  1.5363 -0.5983
 7928SOL    HW235421   4.158   1.198   8.764 -1.1543  2.5081 -0.7720
 7929SOL     OW35422   4.396   0.150  16.682  0.8341  0.4834 -0.0907
 7929SOL    HW135423   4.356   0.204  16.614 -0.1869  0.3989  0.4396
 7929SOL    HW235424   4.357   0.186  16.762 -0.1639 -1.5293  0.3276
 7930SOL     OW35425   0.908   2.924   7.242  0.3326 -0.4033 -0.4260
 7930SOL    HW135426   0.837   2.882   7.291  2.4776 -1.9876  1.3403
 7930SOL    HW235427   0.844   2.961   7.182  0.4253  1.6510  0.7418
 7931SOL     OW35428   2.212   2.589  17.026 -0.2056 -0.3345 -0.7867
 7931SOL    HW135429   2.186   2.676  16.996  0.8083  0.2754  0.0913
 7931SOL    HW235430   2.267   2.619  17.099  2.6771  1.2511 -3.5976
 7932SOL     OW35431   3.148   3.830   7.322  0.2758  0.0871 -0.2079
 7932SOL    HW135432   3.161   3.869   7.236 -0.3116  0.6497 -0.0317
 7932SOL    HW235433   3.071   3.775   7.308 -0.4390  2.0091 -3.7373
 7933SOL     OW35434   2.834   3.984   2.578  0.3023  0.5975  0.1928
 7933SOL    HW135435   2.811   3.892   2.565  0.3232  0.6257 -0.0473
 7933SOL    HW235436   2.878   3.974   2.662  0.0937  0.8364  0.3321
 7934SOL     OW35437   3.077   3.739  15.747  0.2695 -0.8332  0.0381
 7934SOL    HW135438   3.049   3.745  15.656  0.9053 -0.5973 -0.1421
 7934SOL    HW235439   3.041   3.819  15.786 -0.3250 -0.9527 -0.2827
 7935SOL     OW35440   2.329   1.983   6.975  0.8255  0.4688 -0.0153
 7935SOL    HW135441   2.279   1.907   6.946 -0.5531  1.5171 -0.3770
 7935SOL    HW235442   2.268   2.029   7.033  0.9689  0.3873  0.1985
 7936SOL     OW35443   0.229   3.643   9.169 -0.0657  0.2023  0.2094
 7936SOL    HW135444   0.226   3.552   9.142  1.2755  1.1205 -3.0942
 7936SOL    HW235445   0.133   3.641   9.167 -0.1393  1.5319  1.8945
 7937SOL     OW35446   3.956   0.976   2.044  0.1555  0.1621 -0.9844
 7937SOL    HW135447   3.975   1.062   2.007  0.6180  0.7008  0.5250
 7937SOL    HW235448   3.870   0.968   2.002 -1.5677  0.3819  2.4972
 7938SOL     OW35449   0.929   0.488   3.824 -0.2405 -0.1101 -0.1338
 7938SOL    HW135450   0.876   0.451   3.753 -1.0902  0.2284  0.3196
 7938SOL    HW235451   0.904   0.578   3.805  0.4182 -0.0878 -0.8707
 7939SOL     OW35452   2.500   3.603  13.033 -0.6217 -0.2516 -0.0960
 7939SOL    HW135453   2.504   3.578  12.940  0.1928 -1.6000  0.3073
 7939SOL    HW235454   2.535   3.525  13.076 -0.5741 -0.1857 -0.0164
 7940SOL     OW35455   0.490   4.310   9.738 -0.2724  0.4148 -0.1325
 7940SOL    HW135456   0.475   4.248   9.666  0.6484 -1.7647  1.5557
 7940SOL    HW235457   0.577   4.285   9.768 -1.9209 -2.1089  2.4769
 7941SOL     OW35458   3.812   2.263   8.262 -0.0722  0.6260  0.2311
 7941SOL    HW135459   3.874   2.323   8.222 -0.6165 -0.8293 -2.8251
 7941SOL    HW235460   3.743   2.269   8.195 -0.8187  3.1477  1.2304
 7942SOL     OW35461   4.430   2.988   8.226 -0.0384  0.1301  0.0566
 7942SOL    HW135462   4.376   2.936   8.286  0.3799  0.8477  1.0510
 7942SOL    HW235463   4.368   3.044   8.180  0.1410  0.0990 -0.2248
 7943SOL     OW35464   3.303   4.116   3.391 -0.9929  0.0945  0.5733
 7943SOL    HW135465   3.392   4.143   3.415  0.0088 -3.4340  0.7226
 7943SOL    HW235466   3.318   4.023   3.407  1.0173  0.4782  0.8309
 7944SOL     OW35467   0.014   0.988   1.921  0.0190 -0.3911 -0.1132
 7944SOL    HW135468   0.008   0.925   1.849 -0.1380 -1.5899  0.9533
 7944SOL    HW235469   4.665   0.974   1.967  2.0250 -2.2244  2.9718
 7945SOL     OW35470   0.526   2.707   5.707  0.3724  0.1830 -0.4930
 7945SOL    HW135471   0.560   2.789   5.674 -0.5930  0.6476 -0.3293
 7945SOL    HW235472   0.570   2.696   5.792 -1.2101  0.7358  0.3955
 7946SOL     OW35473   0.775   2.788   2.039 -0.4733 -0.2879 -0.1812
 7946SOL    HW135474   0.689   2.777   1.997 -0.9488  2.2822  0.1433
 7946SOL    HW235475   0.822   2.717   1.995  0.0527  0.6261 -1.1163
 7947SOL     OW35476   3.566   1.832   2.618 -0.0737  0.3537 -0.0453
 7947SOL    HW135477   3.623   1.878   2.680 -2.0209  0.6121  1.5502
 7947SOL    HW235478   3.534   1.897   2.557  0.5327 -0.0439 -0.7973
 7948SOL     OW35479   4.117   1.157   4.744 -0.5107  0.4539 -0.1647
 7948SOL    HW135480   4.105   1.247   4.774 -0.5093  0.7905 -1.1814
 7948SOL    HW235481   4.061   1.145   4.667  0.2705  2.5204 -1.0473
 7949SOL     OW35482   0.762   2.264  10.672  0.3685 -0.1285 -0.1784
 7949SOL    HW135483   0.793   2.280  10.761 -0.4258  1.7994 -0.2359
 7949SOL    HW235484   0.783   2.171  10.663  3.4861  0.7226 -1.7373
 7950SOL     OW35485   2.730   2.501   8.662  0.0386  0.1501 -0.3207
 7950SOL    HW135486   2.656   2.442   8.649 -2.1959  2.9984 -0.4655
 7950SOL    HW235487   2.684   2.585   8.672  0.4849  0.5681 -1.6933
 7951SOL     OW35488   4.421   0.994   3.895 -0.2993 -0.4660  0.2868
 7951SOL    HW135489   4.418   0.954   3.982 -0.1516  3.4358  2.0536
 7951SOL    HW235490   4.495   0.953   3.851  0.9403  2.5050 -0.4080
 7952SOL     OW35491   3.984   0.254   4.981 -0.1522  0.1144  0.3410
 7952SOL    HW135492   4.059   0.267   4.924  1.5597 -1.2445  2.2967
 7952SOL    HW235493   4.002   0.290   5.067 -1.4353  0.0972  0.6205
 7953SOL     OW35494   0.269   4.323   3.493  0.7086 -0.5629  0.2278
 7953SOL    HW135495   0.318   4.242   3.510  2.8172  0.6290 -0.2719
 7953SOL    HW235496   0.190   4.287   3.452  0.0020  1.9983 -0.6098
 7954SOL     OW35497   2.560   3.333   3.890 -0.2921  0.2360  0.3895
 7954SOL    HW135498   2.516   3.264   3.839 -0.2385  2.3357 -2.4755
 7954SOL    HW235499   2.485   3.390   3.909 -0.0950  0.5839  0.1175
 7955SOL     OW35500   0.660   3.244  16.116 -0.2406 -0.3433  0.4907
 7955SOL    HW135501   0.613   3.205  16.190 -2.0482 -0.9364 -0.9750
 7955SOL    HW235502   0.632   3.186  16.045 -0.6824  0.3004  0.1383
 7956SOL     OW35503   4.077   0.273   3.977  0.2974  0.8976  0.1288
 7956SOL    HW135504   4.020   0.288   3.901 -0.1415 -0.9969  0.0772
 7956SOL    HW235505   4.082   0.177   3.975  0.1137  0.8910 -0.0643
 7957SOL     OW35506   4.585   4.087  10.851  0.3950  0.2174  0.3144
 7957SOL    HW135507   4.657   4.108  10.792 -0.4921 -0.1095 -0.8779
 7957SOL    HW235508   4.633   4.060  10.929 -0.8513 -2.3229  0.1791
 7958SOL     OW35509   1.034   3.937   2.615  0.2415  0.2513 -0.3020
 7958SOL    HW135510   1.038   3.955   2.709  2.4005 -1.1076 -0.1386
 7958SOL    HW235511   1.106   3.994   2.591  0.3984 -0.3515 -1.2660
 7959SOL     OW35512   0.376   3.014  13.058  0.3794  0.0099 -0.0115
 7959SOL    HW135513   0.327   3.015  12.976  0.7537  1.5342 -0.2134
 7959SOL    HW235514   0.354   2.927  13.089 -1.1033  0.1976 -0.5155
 7960SOL     OW35515   0.812   1.962   2.831  0.7006 -0.4031  0.2288
 7960SOL    HW135516   0.807   1.981   2.738  0.2287 -1.0923  0.1109
 7960SOL    HW235517   0.758   1.883   2.829  0.5676 -0.3119  0.1831
 7961SOL     OW35518   4.491   0.571   9.188 -0.0271 -0.4832 -0.2363
 7961SOL    HW135519   4.565   0.631   9.180 -0.9243  0.4968 -1.3368
 7961SOL    HW235520   4.442   0.615   9.118  0.6446  0.6082 -0.0251
 7962SOL     OW35521   1.684   1.567  17.301  0.2822 -0.1065 -0.3221
 7962SOL    HW135522   1.590   1.586  17.295  0.7069  1.4128 -2.0961
 7962SOL    HW235523   1.726   1.635  17.248  0.1852  1.0251  1.0387
 7963SOL     OW35524   2.556   0.539   9.630 -0.2398  0.0232 -0.4026
 7963SOL    HW135525   2.571   0.452   9.593 -1.1481  0.0365 -0.8026
 7963SOL    HW235526   2.643   0.562   9.663 -0.0703 -1.3078  0.0474
 7964SOL     OW35527   3.563   1.492  15.221  0.0222 -0.4129  0.3485
 7964SOL    HW135528   3.654   1.463  15.217 -0.0412 -0.7287  1.2096
 7964SOL    HW235529   3.544   1.512  15.129 -0.6337 -2.0297  0.1285
 7965SOL     OW35530   0.099   4.461   6.073 -0.2262 -0.0107 -0.8953
 7965SOL    HW135531   0.134   4.458   5.984 -2.2594 -1.6841 -1.6437
 7965SOL    HW235532   0.100   4.371   6.105  2.0316  0.4772  0.4341
 7966SOL     OW35533   3.705   1.771   0.251  0.3612 -0.0573 -0.1620
 7966SOL    HW135534   3.768   1.703   0.275 -1.4472 -2.0486 -1.0927
 7966SOL    HW235535   3.746   1.850   0.286  2.3898 -0.4797 -1.5370
 7967SOL     OW35536   3.953   3.698   1.976 -0.0639 -0.0721 -0.1845
 7967SOL    HW135537   3.945   3.771   1.915  1.5357 -0.4181 -0.8089
 7967SOL    HW235538   3.931   3.621   1.924  3.8690 -0.2951 -1.5327
 7968SOL     OW35539   4.731   1.403   9.608 -0.5495 -0.8801  0.0884
 7968SOL    HW135540   0.051   1.455   9.548 -1.4793  0.9125  0.8063
 7968SOL    HW235541   4.642   1.418   9.577  0.2622  0.8683 -1.4008
 7969SOL     OW35542   4.525   1.214   2.271 -0.3667  0.0094 -1.5620
 7969SOL    HW135543   4.597   1.154   2.254  2.7022  3.3228 -0.3315
 7969SOL    HW235544   4.565   1.301   2.275  0.0148 -0.2101 -0.5532
 7970SOL     OW35545   0.580   4.234   9.358  0.0013  0.3938  0.4753
 7970SOL    HW135546   0.514   4.222   9.426 -0.0454  3.0056  0.9042
 7970SOL    HW235547   0.585   4.149   9.315  2.1883 -0.0638  1.6356
 7971SOL     OW35548   2.014   1.489   7.472  0.4384  0.2711 -0.0461
 7971SOL    HW135549   2.105   1.472   7.448  0.5780  1.3071 -0.2488
 7971SOL    HW235550   2.015   1.574   7.515  1.7946 -0.1494  0.7400
 7972SOL     OW35551   1.467   2.641   5.032 -0.0966 -0.0052  0.1299
 7972SOL    HW135552   1.432   2.706   4.971  1.2028 -0.0630 -0.6798
 7972SOL    HW235553   1.480   2.698   5.107 -0.4865  1.6965 -1.1054
 7973SOL     OW35554   0.532   1.714   3.290 -0.3201 -0.2063 -0.2079
 7973SOL    HW135555   0.505   1.803   3.315 -0.7801 -0.6550  0.9223
 7973SOL    HW235556   0.454   1.672   3.253  1.2603 -1.0085 -2.6109
 7974SOL     OW35557   3.844   2.759   1.832 -0.3710 -0.3445 -0.2153
 7974SOL    HW135558   3.774   2.788   1.773 -0.0379  3.0743  1.0465
 7974SOL    HW235559   3.919   2.757   1.773 -1.9109 -0.9309 -2.1284
 7975SOL     OW35560   4.255   0.996   2.933  0.3480 -0.1922  0.7076
 7975SOL    HW135561   4.234   1.009   3.025 -0.8240 -1.6806  0.6516
 7975SOL    HW235562   4.278   0.903   2.931 -1.2078 -0.5682  0.5164
 7976SOL     OW35563   3.833   2.464  12.374 -0.3502 -0.2862  0.0957
 7976SOL    HW135564   3.814   2.455  12.281 -0.2131  2.0580 -0.1590
 7976SOL    HW235565   3.751   2.435  12.414  0.8175 -0.8885  2.0480
 7977SOL     OW35566   0.009   3.369   8.542  0.4413  0.5235  0.2601
 7977SOL    HW135567   0.070   3.384   8.469  2.2285 -1.4929  1.3158
 7977SOL    HW235568   4.715   3.281   8.515  1.7352 -0.1200  0.9862
 7978SOL     OW35569   3.767   0.510   8.180 -0.3277  0.6673  0.0051
 7978SOL    HW135570   3.802   0.598   8.173  0.5447  0.3413  0.2623
 7978SOL    HW235571   3.767   0.504   8.276  0.7122  0.2126 -0.0272
 7979SOL     OW35572   3.708   1.742   6.309 -0.3726  0.2637  0.4122
 7979SOL    HW135573   3.648   1.713   6.239 -0.7748  2.0763  0.0151
 7979SOL    HW235574   3.779   1.686   6.279  0.1246  0.9134  0.3802
 7980SOL     OW35575   4.348   3.030  11.858  0.2183  0.0323 -0.2298
 7980SOL    HW135576   4.327   3.091  11.929 -1.9961  0.3985 -1.1951
 7980SOL    HW235577   4.314   2.948  11.895 -0.4754  0.4277  0.0088
 7981SOL     OW35578   1.756   0.086   5.700  0.0017 -0.0387 -0.5404
 7981SOL    HW135579   1.741   0.083   5.794  0.9625  1.9707 -0.3094
 7981SOL    HW235580   1.671   0.121   5.671  0.7726  2.0179 -0.3444
 7982SOL     OW35581   2.340   3.098   6.518  0.1364  0.7031 -0.1973
 7982SOL    HW135582   2.245   3.112   6.511  0.1720  2.1155  2.1531
 7982SOL    HW235583   2.361   3.100   6.425  2.0778 -0.3673  0.2135
 7983SOL     OW35584   4.336   2.220   5.020  0.0263 -0.1866  0.3840
 7983SOL    HW135585   4.346   2.127   4.999 -2.1060 -0.5978  1.2162
 7983SOL    HW235586   4.377   2.256   4.942 -0.4011  0.3701  0.4214
 7984SOL     OW35587   2.431   3.637   7.242 -0.1711 -0.3681  0.5708
 7984SOL    HW135588   2.449   3.566   7.303 -2.2685  0.1446  1.7838
 7984SOL    HW235589   2.365   3.686   7.291  0.3078 -0.9747  1.8188
 7985SOL     OW35590   2.599   4.298  16.494  0.3460 -0.2011  0.2546
 7985SOL    HW135591   2.600   4.390  16.467 -0.0446  0.2663  1.7899
 7985SOL    HW235592   2.634   4.308  16.583  0.5785 -0.8837  0.2387
 7986SOL     OW35593   1.201   3.965   4.367  0.0341  0.6455  0.5924
 7986SOL    HW135594   1.241   3.915   4.438  1.2410  1.3938  0.4548
 7986SOL    HW235595   1.278   3.974   4.310  0.6269 -1.7827  1.0219
 7987SOL     OW35596   0.534   1.198   4.777 -0.2429 -1.1767 -0.4465
 7987SOL    HW135597   0.479   1.253   4.833  0.7576 -0.6067 -0.0244
 7987SOL    HW235598   0.546   1.130   4.844  1.2282  0.6846  1.1628
 7988SOL     OW35599   4.324   2.655   6.620 -0.3001  0.6514  0.5633
 7988SOL    HW135600   4.358   2.575   6.659  1.2293  1.0026 -0.0652
 7988SOL    HW235601   4.361   2.655   6.532 -0.8977 -0.5711  0.3108
 7989SOL     OW35602   4.506   2.466   0.156  0.8147 -0.4211  0.0297
 7989SOL    HW135603   4.542   2.537   0.103 -2.4398  1.0246 -0.2548
 7989SOL    HW235604   4.582   2.452   0.212 -1.5819 -2.3174  2.7866
 7990SOL     OW35605   2.452   0.916   5.103 -0.5516  0.0967  0.8357
 7990SOL    HW135606   2.442   0.825   5.132 -1.5627 -0.9035 -2.7589
 7990SOL    HW235607   2.364   0.950   5.118 -1.3002 -2.1668  1.5889
 7991SOL     OW35608   0.738   3.389   6.104  0.3056  0.7553 -0.1506
 7991SOL    HW135609   0.680   3.457   6.139  0.8054  2.3625 -2.4632
 7991SOL    HW235610   0.815   3.439   6.075 -0.1401  0.2756 -2.1441
 7992SOL     OW35611   2.940   2.343  15.336 -0.5295 -0.1786 -0.0134
 7992SOL    HW135612   2.974   2.282  15.271 -1.7565  1.2930 -2.0575
 7992SOL    HW235613   2.850   2.311  15.336 -1.0211  1.2223 -0.0586
 7993SOL     OW35614   2.906   3.539   8.799  0.3723 -0.2830 -0.2600
 7993SOL    HW135615   2.928   3.449   8.777  0.5556 -0.0638 -0.9670
 7993SOL    HW235616   2.820   3.548   8.758 -0.5404  0.3964  1.8005
 7994SOL     OW35617   0.031   1.152   3.198 -0.0038  0.2260 -0.0644
 7994SOL    HW135618   0.109   1.179   3.247  0.4372  0.1702 -0.7469
 7994SOL    HW235619   0.078   1.096   3.136  1.1006  1.9407 -0.7668
 7995SOL     OW35620   3.230   2.855   5.967  0.2846  0.3927 -0.1271
 7995SOL    HW135621   3.272   2.929   5.924  1.9072  1.6126  3.5751
 7995SOL    HW235622   3.296   2.785   5.963  1.2620  1.4707 -2.5042
 7996SOL     OW35623   4.048   3.837  14.644  0.1024  0.1207 -0.8197
 7996SOL    HW135624   4.037   3.759  14.589  0.9508 -0.3551 -0.3187
 7996SOL    HW235625   3.986   3.897  14.603 -0.4521 -0.9110 -1.4937
 7997SOL     OW35626   2.652   2.643   7.438  0.4533 -0.5434  0.0958
 7997SOL    HW135627   2.683   2.696   7.364  1.1015 -0.5983  0.3315
 7997SOL    HW235628   2.575   2.691   7.469 -0.4560 -0.1706 -2.7645
 7998SOL     OW35629   2.164   0.458   2.123 -0.2226  0.1125  0.4838
 7998SOL    HW135630   2.092   0.458   2.186 -1.0002  0.7327 -0.4052
 7998SOL    HW235631   2.185   0.365   2.116 -1.2458 -0.0656 -0.2297
 7999SOL     OW35632   2.307   3.435  13.656  0.1149  0.4258  0.0929
 7999SOL    HW135633   2.255   3.492  13.599  1.0706 -0.5327 -1.7274
 7999SOL    HW235634   2.355   3.503  13.704 -2.8001  1.6547  1.2682
 8000SOL     OW35635   3.005   0.344   2.504 -0.1377  0.4449  0.0979
 8000SOL    HW135636   3.071   0.408   2.532 -0.6668  0.2877  1.7204
 8000SOL    HW235637   2.923   0.394   2.509 -0.2370  0.2898  0.0136
 8001SOL     OW35638   1.900   4.192  12.162 -0.0001 -0.3752  0.2541
 8001SOL    HW135639   1.921   4.263  12.223 -0.4865 -1.4195  1.6418
 8001SOL    HW235640   1.806   4.176  12.169 -0.0908  0.8879  1.7670
 8002SOL     OW35641   4.110   4.284   3.564 -0.3565 -0.1354  0.0566
 8002SOL    HW135642   4.152   4.370   3.557 -0.0109 -0.1208  2.3761
 8002SOL    HW235643   4.065   4.302   3.647  1.9216 -0.4243  1.3512
 8003SOL     OW35644   2.801   0.531   5.957 -0.3337  0.5762 -0.0007
 8003SOL    HW135645   2.830   0.617   5.925  0.0079  0.0520 -1.0834
 8003SOL    HW235646   2.742   0.512   5.883  1.2523  0.9153 -1.3512
 8004SOL     OW35647   1.965   1.699   9.105 -0.0948 -0.3161  0.4968
 8004SOL    HW135648   2.007   1.711   9.021 -1.3117 -0.1695 -0.0978
 8004SOL    HW235649   1.876   1.673   9.079 -0.5983  0.1596  1.6975
 8005SOL     OW35650   3.798   1.728   5.802  0.3901 -0.6740 -0.0068
 8005SOL    HW135651   3.865   1.744   5.735 -0.1358  0.9069 -0.1555
 8005SOL    HW235652   3.850   1.748   5.880 -0.9570 -3.3432  1.5595
 8006SOL     OW35653   2.974   2.327   9.792 -1.0380  0.1973  0.0193
 8006SOL    HW135654   2.880   2.346   9.789 -1.1259 -0.6941 -2.9480
 8006SOL    HW235655   2.977   2.242   9.837 -0.0395 -0.2310 -0.8411
 8007SOL     OW35656   2.917   0.582  14.873 -0.5895  0.4997 -0.5150
 8007SOL    HW135657   2.835   0.574  14.824 -0.3685  0.8483 -0.9474
 8007SOL    HW235658   2.945   0.670  14.848 -1.6558  0.6791 -1.0835
 8008SOL     OW35659   2.651   1.693  11.490 -0.4126 -0.3790  0.2897
 8008SOL    HW135660   2.717   1.667  11.554 -2.1867  0.9520  2.6722
 8008SOL    HW235661   2.694   1.664  11.410  0.0719  0.1544  0.3606
 8009SOL     OW35662   4.033   3.022   3.699  0.4870 -0.2336  0.3792
 8009SOL    HW135663   4.003   2.973   3.622 -0.0244  0.2690  0.2638
 8009SOL    HW235664   4.054   2.959   3.769  0.0675 -1.3038 -0.4611
 8010SOL     OW35665   4.605   3.023   8.040 -0.5196 -0.7222  0.2941
 8010SOL    HW135666   4.674   2.956   8.032  0.4458  0.2744  0.3048
 8010SOL    HW235667   4.543   2.976   8.096 -0.5425  0.0647  0.9222
 8011SOL     OW35668   2.472   1.921   8.312  0.3761 -0.5499  0.3723
 8011SOL    HW135669   2.566   1.934   8.302  0.2096  0.5191  0.1936
 8011SOL    HW235670   2.458   1.871   8.232  1.0982 -2.4942  1.4785
 8012SOL     OW35671   0.299   2.297   5.425  0.4145 -0.2235 -0.0836
 8012SOL    HW135672   0.338   2.383   5.437  1.7574 -1.3348  3.4397
 8012SOL    HW235673   0.204   2.310   5.413  0.3164 -0.6722  0.2240
 8013SOL     OW35674   0.862   0.964  17.704 -0.5070  0.3453  0.0621
 8013SOL    HW135675   0.866   0.941   0.062  2.2985 -0.4517 -0.2735
 8013SOL    HW235676   0.854   0.879  17.661 -0.6215  0.9696 -1.1543
 8014SOL     OW35677   0.839   1.688   5.469 -0.0801  0.3879  0.6346
 8014SOL    HW135678   0.755   1.733   5.475  0.3967  1.1560  1.5429
 8014SOL    HW235679   0.902   1.742   5.517 -0.1019 -0.3793  1.5415
 8015SOL     OW35680   3.406   4.723   9.523 -0.0601 -0.5244  0.3096
 8015SOL    HW135681   3.476   4.657   9.519  0.5132  0.2449 -2.3301
 8015SOL    HW235682   3.460   0.066   9.544 -0.3463  0.5902 -3.0196
 8016SOL     OW35683   0.792   1.032  14.284 -0.4567  0.6061  0.1820
 8016SOL    HW135684   0.792   0.983  14.202  0.6548  0.5471  0.2167
 8016SOL    HW235685   0.765   0.963  14.345 -2.6419  0.3907 -1.0157
 8017SOL     OW35686   4.029   3.855   1.400  0.3266 -0.2705  0.4891
 8017SOL    HW135687   3.965   3.790   1.430 -0.4011  0.9253  1.5033
 8017SOL    HW235688   3.983   3.932   1.433  1.1375 -0.4699  2.1034
 8018SOL     OW35689   2.656   0.632   6.630  0.1614 -0.0017  0.7348
 8018SOL    HW135690   2.735   0.580   6.613  1.1433  0.4633  3.7533
 8018SOL    HW235691   2.651   0.684   6.550  1.7069  1.8380  1.8384
 8019SOL     OW35692   4.502   2.521   5.600  0.2372 -0.3200 -0.7892
 8019SOL    HW135693   4.525   2.604   5.557  1.8823  0.6821  2.0361
 8019SOL    HW235694   4.428   2.484   5.553  0.1076  0.8801 -1.5491
 8020SOL     OW35695   0.578   1.262  10.886 -0.3750 -0.4690 -1.1014
 8020SOL    HW135696   0.578   1.175  10.926  2.1910 -1.7348 -3.8690
 8020SOL    HW235697   0.621   1.322  10.948 -2.8537  0.4333 -0.2501
 8021SOL     OW35698   2.880   2.369   7.113  0.3320  0.1844  0.4330
 8021SOL    HW135699   2.848   2.283   7.141 -0.2781  0.0724 -0.5856
 8021SOL    HW235700   2.913   2.346   7.026 -0.3972  0.4187  0.0928
 8022SOL     OW35701   3.531   1.802   8.766 -0.3078  0.0146  0.0447
 8022SOL    HW135702   3.587   1.866   8.723  1.0835 -0.2775  1.4057
 8022SOL    HW235703   3.592   1.729   8.775 -0.6710 -0.2177  0.6316
 8023SOL     OW35704   0.141   1.752   8.372  0.2937  0.0490  0.1448
 8023SOL    HW135705   0.062   1.715   8.412  0.2018  0.1557  0.0642
 8023SOL    HW235706   0.174   1.674   8.328 -2.4156 -1.3477  0.5723
 8024SOL     OW35707   0.803   1.503   3.779  0.1267  0.6856 -0.3216
 8024SOL    HW135708   0.853   1.487   3.859 -1.4092  2.3039  0.9616
 8024SOL    HW235709   0.845   1.447   3.714 -2.9868 -0.5028 -1.3140
 8025SOL     OW35710   0.154   1.315   5.053  0.4144 -0.5696  0.6009
 8025SOL    HW135711   0.142   1.328   5.147 -2.0424 -0.9699  0.3422
 8025SOL    HW235712   0.102   1.235   5.044  1.6684 -1.4911  1.3977
 8026SOL     OW35713   4.453   3.168   9.723  0.0601  0.4086 -0.0644
 8026SOL    HW135714   4.438   3.211   9.639  0.7249  1.8159  0.5542
 8026SOL    HW235715   4.512   3.101   9.688  0.1573 -0.2889  1.4503
 8027SOL     OW35716   0.995   4.599   2.543 -0.1537  0.1048  0.5700
 8027SOL    HW135717   1.021   4.635   2.627  2.8920 -1.2097  0.2085
 8027SOL    HW235718   0.944   4.674   2.514 -0.2941  0.4615  1.7561
 8028SOL     OW35719   3.040   1.281   5.232  0.9270 -0.4820 -0.0189
 8028SOL    HW135720   3.014   1.283   5.324 -1.0303 -2.1073 -0.5336
 8028SOL    HW235721   2.973   1.331   5.186  2.3178 -0.0820 -1.6348
 8029SOL     OW35722   0.521   1.109  12.727 -0.2431 -0.2904 -0.2182
 8029SOL    HW135723   0.595   1.167  12.743 -1.3167  1.2918 -1.0099
 8029SOL    HW235724   0.523   1.058  12.808  3.7871 -0.4487 -0.4364
 8030SOL     OW35725   0.016   0.176   3.025 -0.0357  0.6722  0.5903
 8030SOL    HW135726   0.090   0.226   2.988  1.1052 -0.7307  0.9716
 8030SOL    HW235727   4.676   0.232   3.047 -0.7467 -0.9561  2.3490
 8031SOL     OW35728   2.801   3.509   9.405 -0.1861  0.1293 -0.5171
 8031SOL    HW135729   2.871   3.572   9.420 -1.7423  1.4186  1.2391
 8031SOL    HW235730   2.740   3.557   9.460  0.4605  0.6307 -0.2482
 8032SOL     OW35731   2.473   4.343   4.498 -0.1085  0.3669 -0.5524
 8032SOL    HW135732   2.431   4.403   4.560 -2.4870 -0.4020 -1.4048
 8032SOL    HW235733   2.535   4.304   4.559  1.9457  3.0191 -0.9478
 8033SOL     OW35734   4.108   1.765   7.513 -0.1945 -0.9340 -0.3275
 8033SOL    HW135735   4.058   1.825   7.569 -0.2091 -1.7453  0.5328
 8033SOL    HW235736   4.193   1.810   7.521 -1.1048  0.8151 -0.3807
 8034SOL     OW35737   0.174   4.637   8.426 -0.0571 -0.0862 -0.5564
 8034SOL    HW135738   0.108   4.634   8.496 -1.1748 -0.7564 -1.6534
 8034SOL    HW235739   0.201   4.729   8.428  0.6403 -0.2958 -0.4878
 8035SOL     OW35740   2.390   0.446   6.006  0.2143  0.1752 -0.2250
 8035SOL    HW135741   2.419   0.482   5.922  0.8228 -0.4537 -0.2898
 8035SOL    HW235742   2.316   0.393   5.976 -0.8456  0.3458  2.0896
 8036SOL     OW35743   1.207   3.766   1.970 -0.5407  0.1126  0.2920
 8036SOL    HW135744   1.130   3.791   2.021  0.9508  2.8514  1.2456
 8036SOL    HW235745   1.227   3.679   2.003  1.5298  1.2197  2.0021
 8037SOL     OW35746   2.236   1.586   0.519 -0.3562 -0.0969 -0.0613
 8037SOL    HW135747   2.168   1.653   0.506 -1.0288 -0.8246 -0.3277
 8037SOL    HW235748   2.256   1.575   0.426  0.4846 -0.1472  0.1347
 8038SOL     OW35749   2.201   4.080   5.704  0.1370 -0.4531  0.0779
 8038SOL    HW135750   2.106   4.064   5.704 -0.0376  0.5927  0.0668
 8038SOL    HW235751   2.231   4.031   5.628 -0.3807  0.6426 -0.8229
 8039SOL     OW35752   2.391   3.565  12.740 -0.5225  0.4829  0.5271
 8039SOL    HW135753   2.359   3.521  12.661 -0.9032  1.2041  0.2726
 8039SOL    HW235754   2.333   3.538  12.812 -0.5752 -2.5621 -0.6572
 8040SOL     OW35755   2.269   1.437   7.389 -0.2435  0.3830 -0.3427
 8040SOL    HW135756   2.325   1.477   7.323  0.4435  2.1670  1.3208
 8040SOL    HW235757   2.310   1.351   7.394  1.7434  1.3681  0.0611
 8041SOL     OW35758   0.609   3.363  12.969  0.1692 -0.1340  0.6023
 8041SOL    HW135759   0.634   3.272  12.986  1.2068 -0.0031 -0.2769
 8041SOL    HW235760   0.520   3.353  12.935 -0.0217 -1.8801  1.5796
 8042SOL     OW35761   1.562   0.414   9.039 -0.8544 -0.2246  0.2942
 8042SOL    HW135762   1.560   0.437   8.946  2.3200 -4.5481 -0.8576
 8042SOL    HW235763   1.509   0.486   9.074  0.6494  0.3188  1.4661
 8043SOL     OW35764   3.541   3.231   2.091  0.2103 -0.0588  0.3745
 8043SOL    HW135765   3.450   3.221   2.119  0.5800 -0.3509  1.4634
 8043SOL    HW235766   3.551   3.168   2.020 -0.1814  1.4192 -0.9965
 8044SOL     OW35767   3.284   0.109   5.745 -0.1749  0.4273 -0.6612
 8044SOL    HW135768   3.263   0.037   5.805 -0.0409  1.2613  0.4002
 8044SOL    HW235769   3.302   0.063   5.663 -1.7630 -1.0494 -0.1747
 8045SOL     OW35770   1.575   2.927   7.927 -0.3735  0.8437 -0.0550
 8045SOL    HW135771   1.543   2.848   7.969  0.7282  0.2627 -0.3162
 8045SOL    HW235772   1.667   2.901   7.915 -0.6296  0.5007 -1.2699
 8046SOL     OW35773   2.641   0.430   5.764  0.0911 -0.4336  0.5116
 8046SOL    HW135774   2.576   0.360   5.761 -1.3296  0.9580 -1.2947
 8046SOL    HW235775   2.608   0.498   5.705 -0.7649 -0.8720  0.4843
 8047SOL     OW35776   2.799   1.791   8.270  0.3223  0.4048 -0.5748
 8047SOL    HW135777   2.798   1.867   8.329 -3.7976 -1.1248  1.3409
 8047SOL    HW235778   2.743   1.731   8.319  0.1326 -1.1926 -2.7614
 8048SOL     OW35779   3.671   3.916  11.754 -1.0244  0.3651  0.3251
 8048SOL    HW135780   3.711   3.838  11.793 -1.2501  0.7401  1.3005
 8048SOL    HW235781   3.650   3.973  11.828 -0.9463 -0.6653  1.1397
 8049SOL     OW35782   4.690   3.174  16.132  0.1453 -0.1632  0.1359
 8049SOL    HW135783   4.676   3.126  16.214 -0.2580 -0.0408  0.1418
 8049SOL    HW235784   4.688   3.096  16.076 -1.3814 -1.3121  1.7437
 8050SOL     OW35785   3.091   0.053  16.937  0.0116  0.1295 -0.4537
 8050SOL    HW135786   3.028   0.118  16.970 -0.4361 -0.9887  0.8999
 8050SOL    HW235787   3.017   0.003  16.902  0.0151 -1.5090  1.8617
 8051SOL     OW35788   2.634   3.162   8.272 -0.0895 -0.0374  0.1963
 8051SOL    HW135789   2.576   3.207   8.210 -0.0002  1.7988  1.4506
 8051SOL    HW235790   2.659   3.092   8.212  0.9085 -0.1049  0.6852
 8052SOL     OW35791   3.256   0.403   9.934  0.2946  0.6263 -0.5464
 8052SOL    HW135792   3.237   0.403   9.840  1.5403 -1.0525 -0.8015
 8052SOL    HW235793   3.200   0.475   9.964  1.1550  0.3479  1.7699
 8053SOL     OW35794   2.016   3.800   5.765 -0.4057 -0.4589 -0.0924
 8053SOL    HW135795   1.980   3.886   5.742 -1.5865 -1.3309 -1.4536
 8053SOL    HW235796   2.090   3.825   5.821 -1.5478  3.4827 -0.3084
 8054SOL     OW35797   3.601   3.965   4.679 -0.0521 -0.2049  0.2193
 8054SOL    HW135798   3.541   3.895   4.706 -0.7278  0.0728 -0.5781
 8054SOL    HW235799   3.618   3.945   4.588  2.2969  0.5983  0.5003
 8055SOL     OW35800   1.682   2.280  16.436 -0.2710 -0.0948  0.4309
 8055SOL    HW135801   1.736   2.218  16.485  1.0756  0.9685  0.2986
 8055SOL    HW235802   1.599   2.236  16.417 -0.0637  0.1310 -1.0685
 8056SOL     OW35803   1.009   1.752   2.738 -0.5057  0.3835  0.2029
 8056SOL    HW135804   1.071   1.808   2.787 -1.7523  0.4312  1.7398
 8056SOL    HW235805   0.919   1.778   2.761 -0.7561 -0.2818 -0.0436
 8057SOL     OW35806   0.903   1.423  17.288 -0.0166  0.4330  0.0848
 8057SOL    HW135807   0.833   1.483  17.260 -1.6938 -1.5042  0.0873
 8057SOL    HW235808   0.988   1.459  17.263  1.5349 -2.9915  0.5540
 8058SOL     OW35809   1.854   4.685   5.272  0.3723  0.1676 -0.3719
 8058SOL    HW135810   1.788   4.682   5.341  0.4575  1.8629 -0.2328
 8058SOL    HW235811   1.884   4.593   5.271 -1.4966 -0.4367  0.6359
 8059SOL     OW35812   4.028   3.430  10.002 -0.3594  0.1816  0.0731
 8059SOL    HW135813   3.983   3.408   9.920 -0.6558  1.0779 -0.0017
 8059SOL    HW235814   4.120   3.427   9.974 -0.2944 -1.7577  0.4730
 8060SOL     OW35815   1.828   1.460   2.033 -0.4194  0.3853 -0.1138
 8060SOL    HW135816   1.739   1.433   2.056  0.2787  0.3173  2.4985
 8060SOL    HW235817   1.849   1.524   2.101 -1.4474 -1.3727  1.8670
 8061SOL     OW35818   2.983   0.437   7.274 -0.8107 -1.0873  0.4122
 8061SOL    HW135819   3.074   0.458   7.297 -0.8149 -0.6913  0.0686
 8061SOL    HW235820   2.941   0.483   7.346 -2.2479 -0.2508 -0.9588
 8062SOL     OW35821   1.346   1.037   7.689 -0.3605 -0.0567  0.2746
 8062SOL    HW135822   1.383   1.121   7.661 -1.1040  0.7227  1.6303
 8062SOL    HW235823   1.400   0.983   7.632 -1.1399  0.8653 -1.3372
 8063SOL     OW35824   0.017   1.333   4.804 -0.5847 -0.0997  0.0935
 8063SOL    HW135825   0.005   1.258   4.746 -1.5527  0.9533 -1.0606
 8063SOL    HW235826   0.061   1.308   4.885  0.7012 -2.8181 -1.4681
 8064SOL     OW35827   4.650   2.624   8.492  0.5844 -0.5569  0.3094
 8064SOL    HW135828   4.650   2.676   8.572 -2.1854  0.4261 -0.3460
 8064SOL    HW235829   4.733   2.579   8.508  1.3419  0.6640 -0.2382
 8065SOL     OW35830   4.082   1.136   6.734 -0.5027 -0.4899  0.3794
 8065SOL    HW135831   4.025   1.059   6.744 -1.9633  0.4657 -0.5715
 8065SOL    HW235832   4.169   1.098   6.722  0.1070  0.6183  1.3211
 8066SOL     OW35833   3.250   1.815   0.605 -0.0703  0.0011  0.3188
 8066SOL    HW135834   3.309   1.882   0.570 -0.9156  0.3945 -0.3758
 8066SOL    HW235835   3.163   1.853   0.590  0.5493  0.7753 -1.2166
 8067SOL     OW35836   1.282   1.900   4.192 -0.2867  0.1571 -0.4352
 8067SOL    HW135837   1.366   1.879   4.232 -1.6328 -2.8479  0.8578
 8067SOL    HW235838   1.307   1.913   4.101 -0.2202 -0.4340 -0.5070
 8068SOL     OW35839   3.318   1.777   7.179 -0.1498 -0.0240  0.1251
 8068SOL    HW135840   3.241   1.754   7.127 -1.1107 -2.5507  2.6365
 8068SOL    HW235841   3.345   1.857   7.135 -0.2934 -0.1898 -0.2655
 8069SOL     OW35842   1.217   0.328   6.413  0.2735  0.2632 -0.2120
 8069SOL    HW135843   1.240   0.415   6.446  2.1784  0.4137 -1.9810
 8069SOL    HW235844   1.235   0.348   6.322  0.1853  0.1572 -0.2524
 8070SOL     OW35845   4.691   0.072   8.187  0.2777  0.2033  0.2998
 8070SOL    HW135846   0.045   0.107   8.171  0.2466 -0.0824 -0.4667
 8070SOL    HW235847   4.676   0.025   8.105 -1.3465 -1.6193  1.6391
 8071SOL     OW35848   2.993   3.004  10.255 -0.0439 -0.4173 -0.3406
 8071SOL    HW135849   3.049   2.946  10.204 -2.1025 -0.1183 -2.9964
 8071SOL    HW235850   2.910   2.979  10.214  0.6179 -0.1464 -1.8470
 8072SOL     OW35851   1.715   0.326   3.182  0.0609  0.0005 -0.0728
 8072SOL    HW135852   1.759   0.409   3.167  1.5580 -0.9485 -0.8884
 8072SOL    HW235853   1.753   0.262   3.122  0.2648 -1.3917  1.5560
 8073SOL     OW35854   1.529   3.278   8.289 -0.0784  0.4899  0.3363
 8073SOL    HW135855   1.479   3.212   8.240 -0.2237  0.9274 -0.1008
 8073SOL    HW235856   1.491   3.353   8.244  1.5768  2.6084  2.5080
 8074SOL     OW35857   2.756   3.400  10.902  0.5915 -0.0769  0.2783
 8074SOL    HW135858   2.798   3.355  10.976  2.8483  0.8493 -0.4510
 8074SOL    HW235859   2.832   3.390  10.845  0.0803  1.8629 -0.7372
 8075SOL     OW35860   2.882   4.177  16.837 -0.1637  0.5714  0.1525
 8075SOL    HW135861   2.906   4.159  16.746 -0.6910  0.3154  0.0618
 8075SOL    HW235862   2.950   4.134  16.889 -1.3842 -2.2574 -0.5990
 8076SOL     OW35863   1.444   3.824   2.522  0.1393  0.1470 -0.1519
 8076SOL    HW135864   1.464   3.917   2.513  1.9428 -0.1603  0.5380
 8076SOL    HW235865   1.506   3.782   2.463  0.5648  1.8674 -0.9431
 8077SOL     OW35866   3.981   1.475   9.619 -0.4139 -0.3095  1.0055
 8077SOL    HW135867   3.992   1.570   9.617 -0.3862 -0.3105  1.0993
 8077SOL    HW235868   3.909   1.474   9.556 -0.1627 -2.0086  0.7408
 8078SOL     OW35869   0.249   2.106  11.645 -0.1130  0.1352 -0.2005
 8078SOL    HW135870   0.344   2.121  11.653  0.1832  0.0143 -3.6008
 8078SOL    HW235871   0.237   2.052  11.723 -0.7955 -0.9572 -1.0683
 8079SOL     OW35872   2.984   2.830  15.035 -0.0526 -0.0711  0.3368
 8079SOL    HW135873   2.989   2.887  15.112  3.1344  0.6426 -0.3727
 8079SOL    HW235874   2.939   2.756  15.076 -1.5128 -0.1771 -1.4447
 8080SOL     OW35875   2.295   1.456   5.913  0.6935  0.4316  0.0816
 8080SOL    HW135876   2.325   1.466   6.003  0.3602  0.2188  0.2160
 8080SOL    HW235877   2.210   1.415   5.929  1.0342 -1.2479 -2.4321
 8081SOL     OW35878   1.300   0.800  11.581 -0.6383  0.8102 -0.1893
 8081SOL    HW135879   1.283   0.717  11.625  2.4813 -1.3376 -3.0712
 8081SOL    HW235880   1.387   0.821  11.615 -0.0990 -1.7352  0.0008
 8082SOL     OW35881   2.020   4.108   2.111 -0.0077 -0.0955 -0.0440
 8082SOL    HW135882   2.075   4.109   2.190  0.8737  0.4051 -0.6658
 8082SOL    HW235883   1.970   4.028   2.128 -0.8148  0.4095 -0.0129
 8083SOL     OW35884   1.892   4.724   2.595  0.2588  0.1097 -0.0676
 8083SOL    HW135885   1.987   4.730   2.597  0.2359  0.5123 -0.1820
 8083SOL    HW235886   1.880   4.652   2.533  0.1881  1.6156 -1.7767
 8084SOL     OW35887   2.676   2.523   4.458 -0.2549  0.1115 -0.0865
 8084SOL    HW135888   2.602   2.557   4.408 -3.0095 -2.7749  1.9890
 8084SOL    HW235889   2.666   2.590   4.526  0.3687 -1.1816  1.2728
 8085SOL     OW35890   0.110   2.633   9.357 -0.0511 -0.0429 -0.3235
 8085SOL    HW135891   0.163   2.707   9.387 -1.7428 -0.3133  3.3440
 8085SOL    HW235892   0.119   2.568   9.427  0.2053 -1.2833 -1.5144
 8086SOL     OW35893   0.359   3.918  10.848  0.0854  0.5244 -0.2380
 8086SOL    HW135894   0.324   3.871  10.924 -1.3197  1.9424 -0.0100
 8086SOL    HW235895   0.453   3.899  10.854  0.1542  0.8604 -0.3026
 8087SOL     OW35896   2.732   1.498   7.641 -0.2259 -0.2589  0.4861
 8087SOL    HW135897   2.742   1.501   7.736  3.7003 -0.0466  0.0799
 8087SOL    HW235898   2.732   1.402   7.632 -0.7858 -0.2461  0.3691
 8088SOL     OW35899   0.727   2.109   5.000 -0.9477  0.1480  0.3335
 8088SOL    HW135900   0.735   2.204   4.995  1.6039 -0.0202  1.3379
 8088SOL    HW235901   0.806   2.082   4.955 -0.5904  1.6920  0.0418
 8089SOL     OW35902   3.275   3.210   9.835 -0.2539  0.1166  0.5232
 8089SOL    HW135903   3.331   3.203   9.912  0.6844 -0.8463 -0.2382
 8089SOL    HW235904   3.209   3.270   9.869 -0.5027  1.0328 -1.6022
 8090SOL     OW35905   2.461   1.094   7.072  0.1387 -0.7843 -0.7053
 8090SOL    HW135906   2.546   1.103   7.116  1.2214  0.4971 -3.0249
 8090SOL    HW235907   2.486   1.012   7.029  1.1625 -0.9350  0.1736
 8091SOL     OW35908   1.028   1.274   5.676 -0.4631 -0.1942 -0.2452
 8091SOL    HW135909   1.029   1.331   5.599  1.1908  0.4588  0.2431
 8091SOL    HW235910   0.971   1.331   5.727 -0.1163  0.5042 -0.6368
 8092SOL     OW35911   2.225   2.006   7.220  0.1315 -0.1507  0.6873
 8092SOL    HW135912   2.138   2.007   7.259 -0.4181  2.0485 -0.6298
 8092SOL    HW235913   2.268   2.053   7.292  3.7117 -0.2131 -1.4270
 8093SOL     OW35914   0.471   1.510   5.601 -0.1605  0.1305 -0.2879
 8093SOL    HW135915   0.472   1.452   5.525  3.1050  1.2165 -1.0915
 8093SOL    HW235916   0.483   1.447   5.672  1.5925 -1.2167 -1.7758
 8094SOL     OW35917   3.755   0.389   4.941  0.2046 -0.1535  0.0374
 8094SOL    HW135918   3.688   0.336   4.897  0.4129 -1.7117  1.5658
 8094SOL    HW235919   3.826   0.326   4.954  0.0002 -0.6951 -1.4511
 8095SOL     OW35920   0.204   2.011   3.076  0.0672  0.4595 -0.8447
 8095SOL    HW135921   0.115   1.982   3.057  0.2765 -0.5486 -0.2653
 8095SOL    HW235922   0.211   2.097   3.035  2.6244  0.3705 -0.6428
 8096SOL     OW35923   3.897   3.967   9.531 -0.0476  0.1177  0.0683
 8096SOL    HW135924   3.873   3.937   9.619  0.0659 -0.0190  0.0522
 8096SOL    HW235925   3.857   3.902   9.474  1.1976  0.5623 -1.3239
 8097SOL     OW35926   4.539   4.726   2.568  0.3762 -0.2204 -0.0785
 8097SOL    HW135927   4.458   4.704   2.613 -0.0779  1.1917 -0.1861
 8097SOL    HW235928   4.498   0.031   2.491 -1.0072  0.4069  0.9790
 8098SOL     OW35929   1.880   0.211   7.275  0.6964  0.4990 -0.1096
 8098SOL    HW135930   1.857   0.119   7.290 -1.0159  0.9807  0.2492
 8098SOL    HW235931   1.851   0.235   7.187 -0.0503  0.9151  0.2492
 8099SOL     OW35932   1.401   1.143   9.247 -0.2228  0.1488  0.1844
 8099SOL    HW135933   1.333   1.092   9.290 -0.1618  0.5077  0.7015
 8099SOL    HW235934   1.449   1.078   9.194 -0.3975  0.9992 -1.0225
 8100SOL     OW35935   2.013   3.160   5.309 -0.0029  0.2972  0.2405
 8100SOL    HW135936   1.923   3.136   5.331 -0.7654  1.4847 -1.5863
 8100SOL    HW235937   2.009   3.252   5.282  1.0332  0.6173  1.1391
 8101SOL     OW35938   4.240   3.821   7.001  0.4599 -0.3247 -0.2216
 8101SOL    HW135939   4.243   3.734   6.962  2.3344  0.3600 -1.6149
 8101SOL    HW235940   4.232   3.867   6.918  0.5154 -0.0829 -0.0927
 8102SOL     OW35941   2.982   1.194   7.797  0.2069  1.0322  0.1121
 8102SOL    HW135942   2.962   1.196   7.891  0.7427  0.2390  0.2425
 8102SOL    HW235943   3.065   1.147   7.796 -0.0544  0.5906 -0.9638
 8103SOL     OW35944   1.434   2.355   9.672  0.3980 -0.0378  0.4961
 8103SOL    HW135945   1.485   2.274   9.663 -2.1211 -1.8676  3.0183
 8103SOL    HW235946   1.505   2.414   9.698  1.2346 -1.1368  0.7238
 8104SOL     OW35947   0.820   4.621  15.604 -0.4427 -0.3431  0.3212
 8104SOL    HW135948   0.877   4.547  15.627 -2.4395 -1.9381  0.1166
 8104SOL    HW235949   0.737   4.584  15.633 -0.5573  0.3202  0.8261
 8105SOL     OW35950   4.475   3.854  12.000 -0.5079 -0.1622  0.2211
 8105SOL    HW135951   4.506   3.943  11.984 -1.7066  0.0148 -1.0958
 8105SOL    HW235952   4.510   3.807  11.924  0.3157 -3.4307  2.6523
 8106SOL     OW35953   3.077   0.442  17.452  0.0560 -1.0214 -0.2241
 8106SOL    HW135954   3.150   0.392  17.489  0.0448 -1.1279 -0.3464
 8106SOL    HW235955   2.998   0.410  17.496 -0.2346  0.8030  0.5913
 8107SOL     OW35956   4.376   3.069   9.032  0.6309 -0.3198 -0.2931
 8107SOL    HW135957   4.347   3.158   9.015  0.7692 -0.2676 -0.2470
 8107SOL    HW235958   4.459   3.054   8.988 -0.2113 -0.7445 -1.7589
 8108SOL     OW35959   0.450   3.406   6.356  0.4708  0.3248 -0.2548
 8108SOL    HW135960   0.359   3.375   6.355  0.3755  0.5828  0.7109
 8108SOL    HW235961   0.482   3.349   6.426 -0.4521  1.1052  0.8060
 8109SOL     OW35962   1.700   1.236  11.078  0.0807  0.3339  0.0909
 8109SOL    HW135963   1.768   1.285  11.124  0.8340 -0.4584 -0.1571
 8109SOL    HW235964   1.750   1.205  11.003 -1.8160  1.3564 -1.5805
 8110SOL     OW35965   0.326   1.804   8.173  0.1718  0.4439  0.2565
 8110SOL    HW135966   0.382   1.735   8.208  1.6778  3.2142  3.2095
 8110SOL    HW235967   0.288   1.831   8.257 -1.4160 -0.4279 -0.1782
 8111SOL     OW35968   0.844   1.454   2.901 -0.7702  0.1683  0.0909
 8111SOL    HW135969   0.935   1.429   2.916 -0.5496  2.3264  2.3977
 8111SOL    HW235970   0.818   1.481   2.990 -1.3846 -0.9049  0.2404
 8112SOL     OW35971   2.083   3.931   4.725 -0.4659 -0.0192 -0.3113
 8112SOL    HW135972   2.027   3.856   4.745 -2.0487  1.7567  1.9779
 8112SOL    HW235973   2.034   4.007   4.756  1.1450  0.9986 -0.2925
 8113SOL     OW35974   0.951   1.187  16.930  0.2594  0.2475  0.2113
 8113SOL    HW135975   0.888   1.236  16.984 -1.2140 -0.1279 -1.1468
 8113SOL    HW235976   0.908   1.101  16.929  1.6252 -0.3974 -2.8896
 8114SOL     OW35977   2.403   4.479  13.062  0.3011 -0.2282  0.0521
 8114SOL    HW135978   2.400   4.543  12.991  0.1921 -0.4489 -0.1415
 8114SOL    HW235979   2.339   4.419  13.024  0.0082 -1.2231  2.0932
 8115SOL     OW35980   1.344   4.691   2.354 -0.1833  0.3939 -0.2948
 8115SOL    HW135981   1.376   4.689   2.443 -0.4454 -2.7213 -0.2474
 8115SOL    HW235982   1.373   4.608   2.315 -2.8580 -0.9745  0.5968
 8116SOL     OW35983   3.950   4.675  13.442  0.5475 -0.1443 -0.5646
 8116SOL    HW135984   4.008   0.015  13.421  1.1046 -0.7497 -1.1705
 8116SOL    HW235985   3.945   4.694  13.535  1.4076  0.4373 -0.6295
 8117SOL     OW35986   1.154   0.078  12.564 -0.2091  0.0224  0.3162
 8117SOL    HW135987   1.130   0.073  12.472  0.1284 -1.6288  0.3249
 8117SOL    HW235988   1.151   0.173  12.578  1.5849  0.3624 -1.6791
 8118SOL     OW35989   2.232   3.280   0.124 -0.1284 -0.4216  0.0110
 8118SOL    HW135990   2.274   3.359   0.158  2.5898 -0.7160 -2.6257
 8118SOL    HW235991   2.176   3.245   0.193 -0.7477  0.8063  0.1424
 8119SOL     OW35992   0.215   3.596   2.936  0.1974  0.0406  0.5176
 8119SOL    HW135993   0.252   3.532   2.876 -2.0388  0.2838 -1.1193
 8119SOL    HW235994   0.123   3.571   2.936 -0.5525  2.8346 -3.4196
 8120SOL     OW35995   2.568   3.273   5.132 -0.4378 -0.1572 -0.2181
 8120SOL    HW135996   2.496   3.212   5.118 -0.6079  0.4676 -2.0457
 8120SOL    HW235997   2.525   3.349   5.171  0.1717 -0.1971  0.5460
 8121SOL     OW35998   1.487   4.717   4.992 -0.4969  0.4452  0.2919
 8121SOL    HW135999   1.572   0.010   4.957 -0.0077 -0.7881  0.5419
 8121SOL    HW236000   1.435   0.058   4.960 -2.1079 -1.9544 -2.6638
 8122SOL     OW36001   3.809   1.643   7.071 -0.1362  0.0082 -0.3890
 8122SOL    HW136002   3.900   1.636   7.101  0.0266  1.2386 -0.6089
 8122SOL    HW236003   3.775   1.730   7.090  2.2801  1.0714 -0.9511
 8123SOL     OW36004   3.784   0.254  15.914  0.1060 -0.2297 -0.7637
 8123SOL    HW136005   3.853   0.319  15.903 -0.1286  0.3380  1.0322
 8123SOL    HW236006   3.792   0.235  16.007 -0.8653 -2.6988 -1.1862
 8124SOL     OW36007   3.630   3.147   3.708 -0.5002  0.1216  0.0474
 8124SOL    HW136008   3.698   3.128   3.773  1.5128 -0.4417 -2.2183
 8124SOL    HW236009   3.599   3.227   3.750  1.0174  1.4956 -1.4763
 8125SOL     OW36010   2.444   1.284   7.648 -0.5424  0.6219  0.3526
 8125SOL    HW136011   2.413   1.235   7.571  1.0070  2.4493 -1.4301
 8125SOL    HW236012   2.538   1.266   7.652 -0.1389  2.3900 -1.0795
 8126SOL     OW36013   4.308   4.356   5.273  0.6562  0.3434 -0.2841
 8126SOL    HW136014   4.273   4.445   5.271  0.2441  0.1871  0.2457
 8126SOL    HW236015   4.251   4.312   5.335  1.0953 -0.2232 -0.2844
 8127SOL     OW36016   2.237   3.818   5.951 -0.5275  0.2627  0.1348
 8127SOL    HW136017   2.264   3.875   6.023 -0.2152  1.8445 -1.2222
 8127SOL    HW236018   2.295   3.742   5.956 -3.3197 -1.6684  2.3100
 8128SOL     OW36019   0.479   2.937   4.070 -0.0577  0.2843 -0.0090
 8128SOL    HW136020   0.464   2.911   4.160  0.0319  2.7492  0.7215
 8128SOL    HW236021   0.412   3.006   4.072  0.0912  0.5066 -2.1733
 8129SOL     OW36022   3.968   1.633   9.238 -0.6730 -0.0448  0.4040
 8129SOL    HW136023   4.021   1.562   9.204 -0.0106 -0.3420  2.0609
 8129SOL    HW236024   3.937   1.673   9.157 -2.4780  1.9538  2.0546
 8130SOL     OW36025   2.671   1.077   4.045 -0.0610 -0.2013 -0.5801
 8130SOL    HW136026   2.676   1.155   4.101 -0.5014 -0.5502 -0.0604
 8130SOL    HW236027   2.634   1.120   3.968 -0.8090  0.8849  0.3861
 8131SOL     OW36028   1.978   4.272   4.216 -0.1461 -0.1110 -0.2971
 8131SOL    HW136029   1.899   4.320   4.192 -1.0875 -1.1273  0.7772
 8131SOL    HW236030   2.012   4.236   4.133 -0.3296  0.9490 -0.8319
 8132SOL     OW36031   0.567   4.080   6.680 -0.5437 -0.0733  0.1789
 8132SOL    HW136032   0.577   4.157   6.625 -0.4404 -0.5797 -0.5076
 8132SOL    HW236033   0.563   4.013   6.612  0.7325  0.8937 -0.8529
 8133SOL     OW36034   1.590   0.751   3.371  0.1588  0.0985  0.0947
 8133SOL    HW136035   1.509   0.790   3.403  0.2103  0.6835 -0.4659
 8133SOL    HW236036   1.639   0.833   3.360 -1.3361  0.8167 -1.2568
 8134SOL     OW36037   1.374   3.937  13.649 -0.2544  0.4962  0.2022
 8134SOL    HW136038   1.364   3.895  13.564 -1.2806  1.3680 -0.1042
 8134SOL    HW236039   1.285   3.943  13.681 -0.0872 -0.7863  0.8900
 8135SOL     OW36040   2.416   1.538   6.165  0.1809  0.4728 -0.0444
 8135SOL    HW136041   2.447   1.450   6.185 -0.1454  0.7008  1.4543
 8135SOL    HW236042   2.340   1.552   6.222 -0.7307 -0.3516 -1.0586
 8136SOL     OW36043   2.244   0.216   3.427  0.2504 -0.1528 -0.0633
 8136SOL    HW136044   2.212   0.165   3.353 -0.6447 -0.9309  0.8483
 8136SOL    HW236045   2.185   0.187   3.497 -2.6653  1.9328 -1.7218
 8137SOL     OW36046   1.158   1.567   2.290 -0.2506  0.9671  0.2292
 8137SOL    HW136047   1.226   1.507   2.261  0.4864  1.6061  0.6448
 8137SOL    HW236048   1.203   1.651   2.284  2.0299 -0.1274  2.3399
 8138SOL     OW36049   3.735   3.196   7.707  0.8102 -0.8126 -0.2703
 8138SOL    HW136050   3.758   3.251   7.782 -0.4691  0.5304 -0.8702
 8138SOL    HW236051   3.689   3.258   7.650 -0.2431  1.5493  3.1686
 8139SOL     OW36052   1.060   4.376   1.735  0.0224  0.2375 -0.0119
 8139SOL    HW136053   1.151   4.389   1.710 -0.7270  1.4312 -2.1132
 8139SOL    HW236054   1.029   4.319   1.665  0.0617 -1.3586  1.2771
 8140SOL     OW36055   1.869   0.712   6.507 -0.2198  0.1855  0.5374
 8140SOL    HW136056   1.839   0.678   6.423  0.5844 -1.1352  0.7850
 8140SOL    HW236057   1.961   0.730   6.489 -0.1092  0.5245  1.4299
 8141SOL     OW36058   2.542   0.951   8.676  0.0639 -0.2617 -0.5089
 8141SOL    HW136059   2.473   0.999   8.722  0.4365 -2.3255  2.1862
 8141SOL    HW236060   2.506   0.868   8.646 -2.3850  0.4195  0.5018
 8142SOL     OW36061   3.853   0.596  15.103  0.4656  0.0180  0.2907
 8142SOL    HW136062   3.924   0.534  15.120 -1.7782 -2.8679 -0.7505
 8142SOL    HW236063   3.879   0.678  15.143  0.9028 -0.0503  0.1467
 8143SOL     OW36064   1.142   3.906   3.769 -0.1454 -0.3663 -0.5719
 8143SOL    HW136065   1.128   3.923   3.862  1.8706  0.1228 -0.3540
 8143SOL    HW236066   1.107   3.981   3.721  0.5791  0.3619  0.0421
 8144SOL     OW36067   0.398   1.489   0.268 -0.2339  0.2238  0.2090
 8144SOL    HW136068   0.418   1.447   0.184 -1.8022  4.0029 -2.0202
 8144SOL    HW236069   0.315   1.530   0.246 -0.1495  1.0454  1.4394
 8145SOL     OW36070   1.875   4.553   7.624  0.1083  0.2051 -0.5196
 8145SOL    HW136071   1.947   4.511   7.671 -0.0527  0.6354  0.1123
 8145SOL    HW236072   1.802   4.492   7.631 -0.0397  0.3278 -0.9864
 8146SOL     OW36073   2.481   0.214   2.709  0.4621 -0.0238 -0.1583
 8146SOL    HW136074   2.463   0.176   2.623  0.6876  1.4265 -0.8500
 8146SOL    HW236075   2.576   0.213   2.700  0.5603  0.2075  0.8550
 8147SOL     OW36076   0.517   3.126  15.840 -1.1968  0.5757 -0.1508
 8147SOL    HW136077   0.463   3.053  15.811  1.8760 -1.2834 -1.1811
 8147SOL    HW236078   0.597   3.113  15.789 -1.4534  2.0172 -0.9144
 8148SOL     OW36079   2.936   2.417   0.749 -0.5756 -0.7947 -0.1484
 8148SOL    HW136080   2.928   2.512   0.752  1.7863 -0.6482  1.6369
 8148SOL    HW236081   2.971   2.409   0.661  2.3185 -0.3475  0.9602
 8149SOL     OW36082   0.795   3.842   8.776 -0.1944  0.1883 -0.0876
 8149SOL    HW136083   0.814   3.749   8.770 -1.2913 -0.1295  1.4738
 8149SOL    HW236084   0.780   3.857   8.682 -0.0141  1.0516  0.0196
 8150SOL     OW36085   3.543   2.778   3.844  0.7273 -0.6366  0.0307
 8150SOL    HW136086   3.520   2.865   3.878 -0.3012 -0.9437  0.1363
 8150SOL    HW236087   3.635   2.780   3.868  0.6795 -0.2138  0.1857
 8151SOL     OW36088   0.442   4.374   4.125 -0.7409 -0.2600 -0.1298
 8151SOL    HW136089   0.454   4.441   4.192 -1.5434 -0.9665  0.7017
 8151SOL    HW236090   0.454   4.431   4.049 -2.8441 -1.5504 -1.4518
 8152SOL     OW36091   1.974   3.834   8.745  0.0021  0.4869  0.3092
 8152SOL    HW136092   1.970   3.927   8.769  1.9711  0.4967  0.5923
 8152SOL    HW236093   2.068   3.817   8.739 -0.6197 -3.2635  1.4684
 8153SOL     OW36094   4.568   3.348   3.694  0.7183  0.2486  0.0727
 8153SOL    HW136095   4.584   3.395   3.612  3.3552  1.4408  1.2624
 8153SOL    HW236096   4.497   3.403   3.727 -0.1942 -1.4694  0.9107
 8154SOL     OW36097   4.495   4.241   2.665  0.2683 -0.6675 -0.4911
 8154SOL    HW136098   4.557   4.177   2.632  0.3872 -0.3388 -0.9021
 8154SOL    HW236099   4.545   4.323   2.663  1.0007 -1.0768  1.3161
 8155SOL     OW36100   0.502   1.727   8.384 -0.8875  0.4008 -0.2820
 8155SOL    HW136101   0.512   1.635   8.360 -2.0741  0.4769 -1.0801
 8155SOL    HW236102   0.493   1.723   8.479 -0.4501 -0.8576 -0.2972
 8156SOL     OW36103   1.567   3.927   5.003 -0.2502  0.0362  0.0277
 8156SOL    HW136104   1.557   3.937   5.098  0.3054 -0.8968  0.1720
 8156SOL    HW236105   1.661   3.943   4.999 -0.0988 -0.3062  2.1752
 8157SOL     OW36106   3.365   3.948   4.970 -0.3028  0.1340  0.4927
 8157SOL    HW136107   3.313   4.028   4.979  1.5422  1.4862 -0.8241
 8157SOL    HW236108   3.312   3.874   4.998 -1.3419  0.6828 -0.0291
 8158SOL     OW36109   2.525   1.314   1.947  0.2038  0.3722 -0.0347
 8158SOL    HW136110   2.547   1.315   1.854  1.2312  0.1617  0.2089
 8158SOL    HW236111   2.507   1.221   1.964 -0.2447  0.1290 -1.8355
 8159SOL     OW36112   0.085   4.309  10.221 -0.2356 -0.0120  0.0803
 8159SOL    HW136113   0.115   4.368  10.291  0.5406  2.5845 -2.4394
 8159SOL    HW236114   4.734   4.347  10.201 -0.2991 -0.8604 -1.2649
 8160SOL     OW36115   1.549   2.714  10.451  0.0738 -0.0943  0.7283
 8160SOL    HW136116   1.561   2.807  10.433 -0.7526  0.4362  2.8966
 8160SOL    HW236117   1.631   2.681  10.412 -0.4355 -0.5624  0.0606
 8161SOL     OW36118   0.635   1.073   6.579  0.7738 -0.5408 -0.5188
 8161SOL    HW136119   0.707   1.058   6.640  0.1191  2.5596  1.0051
 8161SOL    HW236120   0.673   1.019   6.509 -1.2235 -0.7141 -1.4502
 8162SOL     OW36121   1.543   3.786   5.279  0.0533 -0.0800  0.0270
 8162SOL    HW136122   1.448   3.778   5.269 -0.0189  0.2829  0.4022
 8162SOL    HW236123   1.556   3.754   5.368 -2.3770 -1.2453 -0.0375
 8163SOL     OW36124   4.535   2.977  10.060 -0.1689 -0.3333  0.1652
 8163SOL    HW136125   4.628   2.956  10.076 -1.0023 -2.4027  2.2729
 8163SOL    HW236126   4.517   2.940   9.974 -0.4036  1.5062 -0.5818
 8164SOL     OW36127   4.667   4.705   7.855 -0.2736  0.1016  0.4146
 8164SOL    HW136128   4.597   0.022   7.815 -0.6612  0.0171  0.9860
 8164SOL    HW236129   4.615   4.631   7.887  0.1768 -0.8640 -1.1096
 8165SOL     OW36130   2.552   3.464   2.911  0.8568 -0.1668  0.3141
 8165SOL    HW136131   2.494   3.428   2.843  0.4806  2.2265 -0.6290
 8165SOL    HW236132   2.633   3.496   2.871 -0.0723 -0.2818 -1.7057
 8166SOL     OW36133   2.225   2.451   2.516  0.2432 -0.7032  0.2572
 8166SOL    HW136134   2.236   2.537   2.556 -0.8780 -0.7389  0.6348
 8166SOL    HW236135   2.280   2.450   2.438 -0.9235  2.1946 -0.6139
 8167SOL     OW36136   2.411   0.155  11.768 -0.2911 -0.6072  0.2404
 8167SOL    HW136137   2.478   0.102  11.810 -0.2259  1.5086  2.8443
 8167SOL    HW236138   2.397   0.099  11.692  0.8838  0.0292 -0.4481
 8168SOL     OW36139   1.880   3.937  12.098  0.3450 -0.2142 -0.5710
 8168SOL    HW136140   1.789   3.940  12.068  0.0399 -1.1247  0.2374
 8168SOL    HW236141   1.907   4.027  12.116 -2.4108  0.0140  2.3779
 8169SOL     OW36142   0.586   4.337  10.720  0.5594 -0.1016  0.1955
 8169SOL    HW136143   0.575   4.243  10.705 -0.5278  0.2888 -1.4247
 8169SOL    HW236144   0.661   4.358  10.664  1.0403 -0.7851  0.5813
 8170SOL     OW36145   2.575   1.412  17.408 -0.1259  0.0990 -0.2113
 8170SOL    HW136146   2.566   1.318  17.390 -1.8047 -0.1670  2.0553
 8170SOL    HW236147   2.613   1.438  17.324 -1.4287  2.3573 -0.0993
 8171SOL     OW36148   0.979   0.976   0.365 -0.0987  0.0400 -0.2291
 8171SOL    HW136149   0.903   1.021   0.403  0.0059 -0.4055  0.5095
 8171SOL    HW236150   1.009   1.046   0.308  0.9744  0.6826  1.1179
 8172SOL     OW36151   0.740   4.708   1.290 -0.2623 -0.4179  0.2295
 8172SOL    HW136152   0.761   4.620   1.262 -0.2157 -0.4689  0.4232
 8172SOL    HW236153   0.707   0.006   1.206  0.4512 -1.8172 -0.5803
 8173SOL     OW36154   3.487   0.684   4.797 -0.1660 -0.1448  0.5747
 8173SOL    HW136155   3.489   0.713   4.888 -0.7694 -0.4759  0.6933
 8173SOL    HW236156   3.399   0.646   4.797 -0.8509  1.4488  0.6883
 8174SOL     OW36157   2.380   0.675   5.206 -0.2429  0.1917 -0.5646
 8174SOL    HW136158   2.358   0.587   5.237  1.4565  0.6903  2.0434
 8174SOL    HW236159   2.376   0.720   5.290 -0.1230 -2.7181  1.0050
 8175SOL     OW36160   3.676   0.382   7.860  0.3361  0.4122 -0.0899
 8175SOL    HW136161   3.640   0.296   7.839  2.0701  0.3123 -2.6685
 8175SOL    HW236162   3.757   0.380   7.808 -0.1393 -0.8167 -0.7790
 8176SOL     OW36163   2.523   1.488   6.490 -0.4619 -0.3083 -0.3486
 8176SOL    HW136164   2.526   1.394   6.508  1.1423 -0.3379 -0.7586
 8176SOL    HW236165   2.613   1.514   6.510 -0.1820 -0.7549 -1.0141
 8177SOL     OW36166   4.036   3.576   2.893 -0.4138  0.1546  0.1682
 8177SOL    HW136167   3.956   3.572   2.945 -0.9809 -0.4532 -0.7587
 8177SOL    HW236168   4.020   3.647   2.831  0.9117  0.9682  0.7610
 8178SOL     OW36169   0.867   3.101   4.382 -0.5201  0.2024  0.0931
 8178SOL    HW136170   0.792   3.054   4.419 -1.4464  1.5532 -0.0437
 8178SOL    HW236171   0.823   3.173   4.337 -0.0161  0.2031 -0.3991
 8179SOL     OW36172   2.658   3.661   7.644  0.0891 -0.3018 -0.1555
 8179SOL    HW136173   2.720   3.730   7.621 -0.8715 -0.4798 -3.2549
 8179SOL    HW236174   2.584   3.716   7.670 -2.1082 -3.0544 -0.5679
 8180SOL     OW36175   0.212   4.540  16.651 -0.3390 -0.7945 -0.4259
 8180SOL    HW136176   0.165   4.471  16.697  0.5883  0.4243  2.3307
 8180SOL    HW236177   0.196   4.616  16.707  0.8580 -2.0646  1.6553
 8181SOL     OW36178   3.223   2.875   7.956  0.5044 -0.0963 -0.0517
 8181SOL    HW136179   3.286   2.868   7.884  0.9435 -1.8892  0.5316
 8181SOL    HW236180   3.174   2.950   7.921 -0.7974 -1.7243 -1.7276
 8182SOL     OW36181   2.419   0.595   4.550  0.0507  0.5626 -0.3552
 8182SOL    HW136182   2.485   0.576   4.484  1.5212 -0.7201  1.4736
 8182SOL    HW236183   2.454   0.541   4.621 -0.7808  2.6191  1.6155
 8183SOL     OW36184   3.161   2.659   5.713  0.2336 -0.2189  0.0728
 8183SOL    HW136185   3.256   2.669   5.716  0.2134  0.2540 -1.1371
 8183SOL    HW236186   3.151   2.718   5.639  1.8630 -0.3679 -0.2697
 8184SOL     OW36187   3.642   4.487   1.918  0.3303  0.3237  0.4376
 8184SOL    HW136188   3.649   4.576   1.883  1.3507  0.2531  0.4784
 8184SOL    HW236189   3.606   4.451   1.837  1.6352  0.7439 -0.3215
 8185SOL     OW36190   2.979   4.406   5.114 -0.4108 -0.1530  0.1969
 8185SOL    HW136191   2.959   4.473   5.048 -1.0080 -1.1661 -0.6646
 8185SOL    HW236192   2.942   4.441   5.195  0.1321  0.6557  0.0883
 8186SOL     OW36193   2.431   1.061   2.429  0.6336  0.1148  0.2072
 8186SOL    HW136194   2.513   1.084   2.473 -0.1844  0.6579  1.4558
 8186SOL    HW236195   2.448   1.101   2.343  0.1410 -1.1268 -0.4685
 8187SOL     OW36196   2.396   1.468   0.924 -0.4111  0.1617 -0.0627
 8187SOL    HW136197   2.316   1.503   0.885 -1.5980  0.5005  2.6338
 8187SOL    HW236198   2.452   1.430   0.856 -2.7921 -0.9521 -1.4117
 8188SOL     OW36199   1.403   0.949   5.826 -0.1191  0.4447 -0.2311
 8188SOL    HW136200   1.482   1.002   5.819  0.9680 -1.0015  1.0458
 8188SOL    HW236201   1.338   1.018   5.834  1.2444  1.6947  0.0561
 8189SOL     OW36202   1.778   0.579   1.951  0.0826 -0.0551  0.3040
 8189SOL    HW136203   1.719   0.510   1.983  0.7576  0.0955  1.8619
 8189SOL    HW236204   1.720   0.641   1.906  1.8777  0.9316 -0.6501
 8190SOL     OW36205   1.826   1.329   6.173 -0.0672 -0.4461 -0.5510
 8190SOL    HW136206   1.730   1.334   6.171 -0.0940 -1.8597 -2.1770
 8190SOL    HW236207   1.838   1.361   6.263  0.1961 -1.6799 -0.1423
 8191SOL     OW36208   1.254   3.174   6.474  0.2735  0.0171 -0.0730
 8191SOL    HW136209   1.339   3.218   6.476  0.7599 -0.9692  0.7734
 8191SOL    HW236210   1.200   3.242   6.513 -1.9252 -0.5798 -2.1119
 8192SOL     OW36211   3.124   2.512   7.498 -0.1937 -0.4062 -0.5246
 8192SOL    HW136212   3.179   2.564   7.440 -1.6564  0.1627 -1.3948
 8192SOL    HW236213   3.132   2.429   7.450  0.0415  1.1804 -3.2404
 8193SOL     OW36214   2.313   3.903   5.531  0.0438 -0.1328  0.1997
 8193SOL    HW136215   2.398   3.944   5.547  0.0832  0.0158 -0.4100
 8193SOL    HW236216   2.325   3.811   5.509 -1.1245 -0.3826  0.5700
 8194SOL     OW36217   1.252   0.496   1.575 -0.3791  0.6026 -0.7459
 8194SOL    HW136218   1.204   0.575   1.550  0.3851  0.0468 -3.8544
 8194SOL    HW236219   1.304   0.484   1.496 -0.9097  0.3505 -1.0537
 8195SOL     OW36220   0.713   3.488   6.419 -0.3449  0.3353 -0.0189
 8195SOL    HW136221   0.626   3.451   6.402 -0.8401 -0.2430  3.8670
 8195SOL    HW236222   0.771   3.412   6.410  1.5155  1.6712  0.8522
 8196SOL     OW36223   0.674   3.669   2.614 -0.7502  0.0984  0.1162
 8196SOL    HW136224   0.631   3.691   2.697  2.9858  0.3663  2.0146
 8196SOL    HW236225   0.722   3.748   2.590 -1.1427  0.2449 -0.1773
 8197SOL     OW36226   0.333   2.557   4.526  0.0140  0.2748  0.0866
 8197SOL    HW136227   0.332   2.569   4.621  0.2759  2.7407 -0.2186
 8197SOL    HW236228   0.261   2.497   4.508  1.0394 -1.7050  2.5559
 8198SOL     OW36229   4.376   2.520   4.932 -0.1730 -0.0547  0.1116
 8198SOL    HW136230   4.300   2.578   4.928 -0.5914 -0.4977  1.6795
 8198SOL    HW236231   4.342   2.447   4.880 -0.1370  0.2969 -0.4066
 8199SOL     OW36232   4.679   0.342   6.023  0.4511  0.2556 -0.0815
 8199SOL    HW136233   4.696   0.248   6.032  1.0630  0.1628 -2.1202
 8199SOL    HW236234   4.586   0.326   6.011  0.2706 -0.1435  1.8303
 8200SOL     OW36235   4.221   3.950   3.228  0.0000  0.3654 -0.8193
 8200SOL    HW136236   4.168   4.030   3.237 -2.2229 -0.9642 -1.8994
 8200SOL    HW236237   4.306   3.987   3.204 -0.2682  0.0648 -2.2435
 8201SOL     OW36238   3.882   3.672   4.995  0.3003  0.8282  0.1195
 8201SOL    HW136239   3.834   3.615   4.935  1.4739 -0.0366 -0.0039
 8201SOL    HW236240   3.941   3.615   5.044 -0.3900  1.0254  1.1778
 8202SOL     OW36241   2.975   2.512   6.142 -0.1825 -0.2009  0.4104
 8202SOL    HW136242   3.011   2.556   6.219  3.7890 -0.0412 -1.5642
 8202SOL    HW236243   2.992   2.585   6.083 -1.7834 -0.6025 -0.5739
 8203SOL     OW36244   0.857   3.709   6.517 -0.2202 -0.5506 -0.3484
 8203SOL    HW136245   0.809   3.634   6.483 -1.2607  1.1379 -2.6174
 8203SOL    HW236246   0.785   3.744   6.569 -0.5733 -1.1794 -0.4146
 8204SOL     OW36247   2.658   1.619   8.604  0.0551  0.4581  0.2198
 8204SOL    HW136248   2.620   1.706   8.615 -0.7720  0.0048  0.9122
 8204SOL    HW236249   2.703   1.602   8.686  0.8490 -2.0988 -0.7324
 8205SOL     OW36250   3.828   1.037  12.626  0.3078  0.7293  0.0817
 8205SOL    HW136251   3.896   0.995  12.678  0.4576  1.5135  0.5159
 8205SOL    HW236252   3.800   0.963  12.573  2.3612  1.3591 -1.9075
 8206SOL     OW36253   3.129   4.036   9.374 -0.5012  0.1256  0.0299
 8206SOL    HW136254   3.171   4.102   9.319 -0.7113  1.6977  1.7712
 8206SOL    HW236255   3.035   4.052   9.373  0.0196  3.0663 -0.9927
 8207SOL     OW36256   1.047   2.597   7.521  0.2372 -0.5815  0.3805
 8207SOL    HW136257   1.032   2.691   7.524 -0.2938 -0.5721 -2.2022
 8207SOL    HW236258   1.045   2.576   7.614  1.8907  0.0094  0.5492
 8208SOL     OW36259   0.640   0.635   0.045 -0.8341 -0.3100 -0.4196
 8208SOL    HW136260   0.593   0.685  17.713  1.8636 -0.4876 -2.4672
 8208SOL    HW236261   0.672   0.710   0.094 -3.9474  1.4063 -1.0548
 8209SOL     OW36262   4.312   1.206  16.958 -0.2362  0.1987  0.0607
 8209SOL    HW136263   4.317   1.233  17.050  2.9045  0.1935 -0.1249
 8209SOL    HW236264   4.322   1.112  16.970 -1.0182  0.0177 -0.6625
 8210SOL     OW36265   1.201   0.317   4.608 -0.0226  0.3459  0.0133
 8210SOL    HW136266   1.229   0.405   4.583 -2.0637  1.1975  0.7526
 8210SOL    HW236267   1.193   0.272   4.523  0.5027 -0.6639  0.4957
 8211SOL     OW36268   0.262   0.131   7.423 -0.1150 -0.0842 -0.5143
 8211SOL    HW136269   0.271   0.160   7.514 -2.7144  1.3561 -0.7257
 8211SOL    HW236270   0.235   0.215   7.386 -0.0438 -0.7660 -2.0774
 8212SOL     OW36271   2.900   0.605  10.234 -0.3361  0.9264  0.3594
 8212SOL    HW136272   2.984   0.611  10.280  0.8254  2.4594 -1.9341
 8212SOL    HW236273   2.857   0.535  10.282 -1.5363  1.1702 -0.3578
 8213SOL     OW36274   4.673   0.855   5.751  0.0153 -0.1725 -0.1478
 8213SOL    HW136275   0.035   0.850   5.751  0.0237 -0.2212  3.0630
 8213SOL    HW236276   4.654   0.805   5.671  0.8660  1.0073 -1.0827
 8214SOL     OW36277   1.096   1.307   3.534 -0.4014  0.4029 -0.2715
 8214SOL    HW136278   1.166   1.366   3.560  0.6337 -1.3189  0.8951
 8214SOL    HW236279   1.087   1.326   3.441  0.4002 -0.0352 -0.4458
 8215SOL     OW36280   3.531   0.243   1.754  0.0532 -0.1234 -0.0453
 8215SOL    HW136281   3.563   0.333   1.751 -0.2490 -0.0377 -0.6571
 8215SOL    HW236282   3.478   0.244   1.834 -1.2065  1.1264 -0.8879
 8216SOL     OW36283   2.955   4.404   4.338 -0.1101 -0.2344 -0.2266
 8216SOL    HW136284   3.036   4.386   4.291 -1.3214 -0.8957 -2.0532
 8216SOL    HW236285   2.902   4.346   4.284  0.0708  1.3154 -2.0921
 8217SOL     OW36286   0.334   1.787   4.025  0.1759 -0.5636 -0.1044
 8217SOL    HW136287   0.361   1.835   4.103 -4.7154 -0.8795  1.7902
 8217SOL    HW236288   0.331   1.698   4.060 -1.6104  0.2691  1.9183
 8218SOL     OW36289   0.013   0.380  10.282  0.0797 -0.2321  0.4279
 8218SOL    HW136290   4.678   0.324  10.317 -1.5281  1.4520 -0.0544
 8218SOL    HW236291   0.049   0.324  10.213  1.4021 -0.0183  0.9445
 8219SOL     OW36292   0.937   2.439   7.317  0.2612 -0.1862  0.1106
 8219SOL    HW136293   1.025   2.410   7.292  0.8488  1.3080  0.4142
 8219SOL    HW236294   0.947   2.488   7.398 -0.2328  2.8811 -1.6823
 8220SOL     OW36295   3.450   0.166   1.511 -0.4636 -0.4241 -0.4358
 8220SOL    HW136296   3.364   0.205   1.527  0.7772  1.7546  0.9247
 8220SOL    HW236297   3.494   0.200   1.589  2.0505 -1.5096 -1.3797
 8221SOL     OW36298   3.524   1.245   5.524 -0.1054 -0.0509 -0.0729
 8221SOL    HW136299   3.486   1.315   5.576  0.9409 -1.1501  2.1740
 8221SOL    HW236300   3.524   1.292   5.440  0.0643 -1.4577 -0.8777
 8222SOL     OW36301   3.716   2.984   7.287 -0.5320 -0.2756  0.2852
 8222SOL    HW136302   3.788   3.048   7.289  2.1431 -3.2967  0.0783
 8222SOL    HW236303   3.763   2.913   7.243 -0.6112 -0.4028  0.4063
 8223SOL     OW36304   0.067   3.090   6.429 -0.8747  0.4963  0.3543
 8223SOL    HW136305   0.143   3.075   6.486 -0.9736 -1.1409  0.0616
 8223SOL    HW236306   0.012   3.017   6.459  1.4178 -1.6973 -0.7105
 8224SOL     OW36307   1.030   3.678   4.063 -0.2552 -0.2146 -0.1483
 8224SOL    HW136308   0.985   3.602   4.101  1.1878  0.2749  2.5222
 8224SOL    HW236309   1.003   3.664   3.973  0.0360  0.6930 -0.3792
 8225SOL     OW36310   4.197   0.634   3.735 -0.0693  0.1423  0.2760
 8225SOL    HW136311   4.222   0.654   3.825  0.9292 -3.4137  0.7933
 8225SOL    HW236312   4.104   0.612   3.739  0.0282 -0.4352 -0.5621
 8226SOL     OW36313   3.713   3.023  16.945 -0.2203  0.2878 -0.2924
 8226SOL    HW136314   3.660   3.017  17.024  2.1073 -1.7708  1.1084
 8226SOL    HW236315   3.673   2.948  16.900  0.4282 -0.8592  1.0499
 8227SOL     OW36316   3.623   4.218   6.473  0.6330  0.2577 -0.6195
 8227SOL    HW136317   3.561   4.257   6.411 -0.9418 -2.5052 -0.7449
 8227SOL    HW236318   3.688   4.193   6.408  0.9296 -1.3136  0.2966
 8228SOL     OW36319   0.134   1.760   3.443  0.1114 -0.5056 -0.0996
 8228SOL    HW136320   0.209   1.804   3.403 -1.1223  2.5696  0.9272
 8228SOL    HW236321   0.122   1.684   3.387 -0.1093 -1.4829  1.2805
 8229SOL     OW36322   4.097   3.306   2.770  0.0185 -0.0093  0.3199
 8229SOL    HW136323   4.068   3.389   2.809 -0.4376 -0.1924  0.3713
 8229SOL    HW236324   4.190   3.297   2.793  0.3344 -0.8255 -1.2593
 8230SOL     OW36325   0.324   0.931   0.943  0.1756  0.3793 -0.6492
 8230SOL    HW136326   0.381   0.982   1.001 -0.5742  0.4579  0.0033
 8230SOL    HW236327   0.376   0.851   0.948 -0.6277 -0.1759 -1.1708
 8231SOL     OW36328   2.414   4.608  14.720  0.5177 -0.1836  0.5032
 8231SOL    HW136329   2.330   4.649  14.738 -0.5508 -1.4153 -1.6353
 8231SOL    HW236330   2.391   4.518  14.741  1.2432 -0.0353  1.8916
 8232SOL     OW36331   3.255   0.319   5.936  0.2549 -0.0313  0.0234
 8232SOL    HW136332   3.259   0.241   5.881 -2.3129  0.1130 -0.3501
 8232SOL    HW236333   3.160   0.327   5.931  0.3693  0.8046 -0.8763
 8233SOL     OW36334   0.698   1.146   4.021  0.1843 -0.0325  0.5626
 8233SOL    HW136335   0.688   1.110   4.109 -1.0062 -1.6552 -0.2203
 8233SOL    HW236336   0.621   1.114   3.974 -0.2587  2.1280 -0.1694
 8234SOL     OW36337   4.062   2.371   9.533  0.1877  0.6896 -0.5771
 8234SOL    HW136338   3.998   2.429   9.574 -0.4098  0.5756 -1.3617
 8234SOL    HW236339   4.140   2.426   9.543 -0.1774  0.9003  1.0514
 8235SOL     OW36340   4.654   2.762   7.661 -0.5630 -0.0749 -0.6765
 8235SOL    HW136341   4.709   2.694   7.699 -0.9141 -0.6121 -1.1327
 8235SOL    HW236342   4.564   2.737   7.684  0.5209 -2.2868  1.1452
 8236SOL     OW36343   2.569   4.683   6.595 -0.3471 -0.4942 -0.1695
 8236SOL    HW136344   2.584   0.042   6.612  0.1376  0.2229 -4.4185
 8236SOL    HW236345   2.646   4.646   6.551 -1.5297 -1.4469 -1.4530
 8237SOL     OW36346   2.185   1.151   3.689 -0.2569 -0.8503 -0.2093
 8237SOL    HW136347   2.207   1.070   3.643  1.5426 -0.5385  0.0947
 8237SOL    HW236348   2.198   1.218   3.622  0.3451  0.2301  0.9688
 8238SOL     OW36349   3.270   0.972   2.264  0.1021  0.3807  0.0877
 8238SOL    HW136350   3.284   1.052   2.214  1.8853 -0.1567 -0.2790
 8238SOL    HW236351   3.297   1.011   2.347 -0.4398  0.5418  0.1868
 8239SOL     OW36352   0.505   0.024   6.767  0.4529  0.2801 -0.1244
 8239SOL    HW136353   0.483   4.704   6.691 -1.1417  0.3707  0.2748
 8239SOL    HW236354   0.431   0.085   6.762 -0.6376 -1.1911 -1.8077
 8240SOL     OW36355   1.676   1.846   0.073 -0.0504 -0.5324  0.4152
 8240SOL    HW136356   1.660   1.935   0.041  0.6712  0.1787  2.0038
 8240SOL    HW236357   1.762   1.827   0.036 -0.4483 -0.2614 -0.6518
 8241SOL     OW36358   3.311   1.383   0.022 -0.6126  0.0360  0.5134
 8241SOL    HW136359   3.310   1.454   0.087  0.6040  0.5844 -0.0602
 8241SOL    HW236360   3.222   1.349   0.033  0.0434 -1.9908 -0.4601
 8242SOL     OW36361   4.362   0.851   6.367  0.4498 -0.2511  0.0799
 8242SOL    HW136362   4.305   0.787   6.408  0.7722  0.3357  1.4416
 8242SOL    HW236363   4.406   0.790   6.308 -2.0770 -3.3663  1.4452
 8243SOL     OW36364   0.944   2.397   3.098  0.2336 -1.0960 -0.4651
 8243SOL    HW136365   1.005   2.415   3.027 -2.5022 -1.1976 -2.8489
 8243SOL    HW236366   0.887   2.338   3.050 -0.5921 -0.4202 -0.3229
 8244SOL     OW36367   0.765   4.694   7.299  0.0540  0.3668 -0.3387
 8244SOL    HW136368   0.681   0.002   7.287  0.6393  1.0998 -1.7768
 8244SOL    HW236369   0.740   4.602   7.289 -1.3160  0.7132 -0.1194
 8245SOL     OW36370   0.445   4.166   2.826 -0.8895  0.6270  0.6153
 8245SOL    HW136371   0.484   4.252   2.812  1.8822 -0.7406  0.0434
 8245SOL    HW236372   0.507   4.126   2.887 -0.5510 -0.1207 -0.2118
 8246SOL     OW36373   4.129   2.732   8.122  0.1697 -0.8412 -0.3476
 8246SOL    HW136374   4.103   2.820   8.095  0.5237 -0.7521 -0.3912
 8246SOL    HW236375   4.183   2.699   8.050 -0.5285 -0.5808 -0.9967
 8247SOL     OW36376   3.411   2.056  12.855 -0.5065  0.1775 -0.3570
 8247SOL    HW136377   3.430   1.991  12.787  2.4934 -0.3360  0.9639
 8247SOL    HW236378   3.496   2.100  12.860  0.1325 -1.2628  1.8761
 8248SOL     OW36379   0.188   3.361   8.330  0.0556  0.7255  0.4569
 8248SOL    HW136380   0.226   3.285   8.287 -3.2528 -0.7591  0.1845
 8248SOL    HW236381   0.194   3.437   8.271 -0.0869  1.5599  1.5191
 8249SOL     OW36382   2.720   4.068   7.894  0.1476 -0.0826 -0.2998
 8249SOL    HW136383   2.800   4.017   7.903 -1.3599 -2.1616  1.1857
 8249SOL    HW236384   2.711   4.098   7.984 -1.0955 -1.1366 -0.0692
 8250SOL     OW36385   2.331   4.522   7.623 -0.3692 -0.4089  0.2047
 8250SOL    HW136386   2.331   4.446   7.681  0.1715 -0.6109 -0.0536
 8250SOL    HW236387   2.395   4.577   7.670 -0.2293 -0.2442 -0.1780
 8251SOL     OW36388   2.088   1.089   9.114  0.3152  0.1093  0.3160
 8251SOL    HW136389   2.086   1.005   9.160 -2.9963 -0.4377 -0.7975
 8251SOL    HW236390   1.993   1.102   9.106  0.4682  0.0169 -1.6575
 8252SOL     OW36391   1.293   3.769   4.534  0.2916 -0.4095 -0.3946
 8252SOL    HW136392   1.251   3.742   4.615  1.1343  2.2834  0.9169
 8252SOL    HW236393   1.322   3.682   4.506 -0.8263 -1.2226  0.9695
 8253SOL     OW36394   0.901   1.626   6.962 -0.4643 -0.0601  0.0007
 8253SOL    HW136395   0.816   1.654   6.995 -0.1005 -0.2718  1.1016
 8253SOL    HW236396   0.922   1.698   6.902 -1.4406  1.0553  1.0088
 8254SOL     OW36397   3.837   2.900   2.846 -0.9247  0.1591  0.3191
 8254SOL    HW136398   3.803   2.824   2.798 -0.1747 -0.1606  0.2878
 8254SOL    HW236399   3.918   2.917   2.797 -0.9976  0.6082  0.3559
 8255SOL     OW36400   1.522   1.941   4.341 -0.1090  0.1460 -0.1314
 8255SOL    HW136401   1.529   1.907   4.430 -0.9806  1.0547  0.2835
 8255SOL    HW236402   1.591   2.007   4.337  1.1096 -1.1483 -0.4468
 8256SOL     OW36403   2.455   3.513   5.246  0.1829 -0.3365  0.1756
 8256SOL    HW136404   2.443   3.595   5.198 -3.6422 -0.3395  1.1193
 8256SOL    HW236405   2.481   3.556   5.328 -1.4626  2.1254 -0.5949
 8257SOL     OW36406   2.529   4.036   2.907  0.1393  0.0873 -0.6923
 8257SOL    HW136407   2.505   4.117   2.954  2.5097 -0.6142  1.7651
 8257SOL    HW236408   2.501   3.979   2.979  1.2593  0.2520 -0.1237
 8258SOL     OW36409   0.520   1.541   0.520 -0.2703 -0.2957  0.1558
 8258SOL    HW136410   0.588   1.588   0.472 -2.0831  0.6447 -1.4783
 8258SOL    HW236411   0.472   1.511   0.443  1.5299  0.7121 -1.3491
 8259SOL     OW36412   1.585   0.237   3.683  0.2467  0.3255 -0.3457
 8259SOL    HW136413   1.664   0.187   3.702  0.1566  0.7101  1.0470
 8259SOL    HW236414   1.591   0.257   3.589 -0.3105 -0.0080 -0.4539
 8260SOL     OW36415   3.061   1.054   2.771 -0.4476  0.1276  0.2788
 8260SOL    HW136416   3.098   0.975   2.811 -0.2309  0.1004  0.0256
 8260SOL    HW236417   2.973   1.016   2.767  0.3811 -1.5975 -1.5184
 8261SOL     OW36418   4.087   1.291   1.616  0.7164 -0.2741 -0.1056
 8261SOL    HW136419   4.116   1.257   1.701  0.8711 -0.0902 -0.0839
 8261SOL    HW236420   4.126   1.222   1.563 -2.7180  0.3706 -3.4544
 8262SOL     OW36421   1.354   4.389   9.141 -0.4226 -0.0261  0.2277
 8262SOL    HW136422   1.288   4.377   9.072 -1.6591  1.3991  1.1474
 8262SOL    HW236423   1.362   4.483   9.157  1.4530 -0.3592  1.1916
 8263SOL     OW36424   2.729   3.932  12.672 -0.4358 -0.1488  0.1756
 8263SOL    HW136425   2.698   3.971  12.590  1.5066  0.1815 -0.4054
 8263SOL    HW236426   2.825   3.930  12.676 -0.5038 -0.4597  1.8473
 8264SOL     OW36427   1.528   4.680   7.579  0.4415  0.7465  0.4979
 8264SOL    HW136428   1.537   0.041   7.572 -0.7077  0.7487 -1.1774
 8264SOL    HW236429   1.586   4.641   7.513  0.7722  0.2908  1.0615
 8265SOL     OW36430   3.545   3.649   8.553 -0.1455 -0.1320 -0.1134
 8265SOL    HW136431   3.590   3.708   8.613 -0.0467 -2.1944  1.8200
 8265SOL    HW236432   3.595   3.570   8.570  0.3076  0.4638  1.3118
 8266SOL     OW36433   3.868   3.207   8.629 -0.0850  0.3500  0.0118
 8266SOL    HW136434   3.855   3.232   8.720 -0.8950  0.8501 -0.2492
 8266SOL    HW236435   3.836   3.284   8.582 -1.5984  0.4491  1.2305
 8267SOL     OW36436   0.539   1.682   4.648 -0.4895 -0.0948  0.6207
 8267SOL    HW136437   0.530   1.704   4.741  0.9249  2.9223  0.0515
 8267SOL    HW236438   0.455   1.641   4.629 -0.0722 -1.0732  0.8911
 8268SOL     OW36439   3.271   3.688   1.659 -0.4167 -0.2179 -0.3613
 8268SOL    HW136440   3.261   3.781   1.640  0.5166 -0.2250 -0.8833
 8268SOL    HW236441   3.347   3.684   1.717 -1.0200  0.0618  0.4445
 8269SOL     OW36442   0.659   3.383   2.600 -0.1403 -0.4266  0.8893
 8269SOL    HW136443   0.684   3.474   2.585  0.7423 -1.0019 -1.1259
 8269SOL    HW236444   0.593   3.393   2.669 -0.8348  2.1919 -0.1592
 8270SOL     OW36445   0.401   2.152   5.206 -0.2484 -0.5483 -0.3013
 8270SOL    HW136446   0.367   2.195   5.285  1.3169 -1.9017  1.1142
 8270SOL    HW236447   0.378   2.062   5.230  2.7309 -0.5096  2.6709
 8271SOL     OW36448   2.122   1.140   9.714 -0.2903  0.1851 -0.0066
 8271SOL    HW136449   2.212   1.171   9.729 -0.3235  0.2325  0.0957
 8271SOL    HW236450   2.093   1.198   9.644 -0.3952  1.9096  1.4558
 8272SOL     OW36451   4.023   2.341   7.030  0.2577 -0.0917 -0.5033
 8272SOL    HW136452   4.088   2.403   7.063 -0.5853  1.3418 -1.5262
 8272SOL    HW236453   4.027   2.358   6.936  0.6055 -3.4652 -1.0854
 8273SOL     OW36454   1.723   1.558   6.774 -0.2110 -0.1660 -0.1079
 8273SOL    HW136455   1.644   1.543   6.723 -0.2321 -0.2612 -0.0465
 8273SOL    HW236456   1.766   1.617   6.711  2.6491 -0.2126  1.8100
 8274SOL     OW36457   1.218   4.170   2.610  0.1694  0.2419  0.1512
 8274SOL    HW136458   1.298   4.133   2.649  0.4495 -0.8155 -1.4497
 8274SOL    HW236459   1.243   4.252   2.567 -2.1069  0.0220 -1.5644
 8275SOL     OW36460   3.888   3.830   3.458 -0.0522  0.1912  0.0716
 8275SOL    HW136461   3.871   3.862   3.369 -0.8499 -0.1668  0.0991
 8275SOL    HW236462   3.895   3.916   3.500 -0.3699  1.0332 -1.6293
 8276SOL     OW36463   0.282   2.830   8.936  0.6839 -0.2644 -0.0353
 8276SOL    HW136464   0.195   2.804   8.906  0.3623 -0.6607  1.2316
 8276SOL    HW236465   0.296   2.781   9.017  1.1766  0.2495  0.1887
 8277SOL     OW36466   3.437   2.092   0.589 -0.2351  0.3748  0.2792
 8277SOL    HW136467   3.425   2.184   0.566 -0.5102 -0.0810 -1.4354
 8277SOL    HW236468   3.434   2.074   0.683  1.2016  0.6966  0.3859
 8278SOL     OW36469   0.646   0.242   3.441 -0.1010 -0.1766 -0.0326
 8278SOL    HW136470   0.553   0.261   3.428 -0.2371 -1.2135 -0.6264
 8278SOL    HW236471   0.672   0.246   3.349  0.1649 -4.0538 -0.1189
 8279SOL     OW36472   3.983   2.043  11.467  0.1584 -0.4981 -0.3706
 8279SOL    HW136473   3.971   2.041  11.562 -2.2057 -0.9554 -0.6663
 8279SOL    HW236474   4.066   1.999  11.451  0.6677 -0.3571  2.0026
 8280SOL     OW36475   2.841   0.408   2.850  0.2208 -0.1475  0.1289
 8280SOL    HW136476   2.930   0.389   2.879  0.2123 -1.7560 -0.8934
 8280SOL    HW236477   2.798   0.459   2.918  0.7542  2.1918 -1.2553
 8281SOL     OW36478   2.585   0.886   5.802  0.2952  0.6982  0.1154
 8281SOL    HW136479   2.551   0.933   5.726 -0.8301  0.3522  0.4135
 8281SOL    HW236480   2.551   0.932   5.879 -1.2503  1.6030 -1.1220
 8282SOL     OW36481   0.922   2.125   5.236 -0.0803 -0.3041 -0.2169
 8282SOL    HW136482   0.963   2.115   5.151  1.5836  0.1723  0.5336
 8282SOL    HW236483   0.912   2.220   5.233 -2.6622 -0.5398  1.0115
 8283SOL     OW36484   1.185   4.590   3.082  0.6522 -0.5077 -0.2864
 8283SOL    HW136485   1.197   4.564   3.174 -1.1706 -0.1135  0.0642
 8283SOL    HW236486   1.267   4.556   3.046  1.5221  1.0299  0.1978
 8284SOL     OW36487   1.371   0.804   3.514 -0.2917  0.4496  0.2213
 8284SOL    HW136488   1.288   0.758   3.522  0.3717 -1.1870 -2.2357
 8284SOL    HW236489   1.403   0.792   3.603  0.5588  0.1275 -0.1249
 8285SOL     OW36490   2.746   1.726   1.383 -0.5710 -0.9122 -0.2761
 8285SOL    HW136491   2.740   1.642   1.428 -0.5912 -0.2547  0.9338
 8285SOL    HW236492   2.653   1.739   1.361 -0.4785  1.5154  0.6987
 8286SOL     OW36493   2.045   2.278   2.639 -0.1500  0.0124 -0.6554
 8286SOL    HW136494   2.098   2.339   2.587  3.0988 -1.9972  0.2923
 8286SOL    HW236495   2.113   2.214   2.660 -0.4286  0.3231  1.1516
 8287SOL     OW36496   1.371   1.264   6.303  0.2765 -0.6067  0.1030
 8287SOL    HW136497   1.419   1.265   6.386 -1.0266  1.8791  0.8383
 8287SOL    HW236498   1.291   1.303   6.338 -0.1869 -3.3153  2.0657
 8288SOL     OW36499   3.551   2.883  16.708 -0.3874  0.0857 -0.7326
 8288SOL    HW136500   3.475   2.832  16.678 -1.4143  0.7989  0.6332
 8288SOL    HW236501   3.627   2.828  16.690 -2.4084 -2.7875 -0.5323
 8289SOL     OW36502   1.501   0.161   5.560  0.5417 -0.9549 -0.2755
 8289SOL    HW136503   1.421   0.135   5.607  0.2932 -0.7458 -0.5838
 8289SOL    HW236504   1.470   0.195   5.476  0.6010 -3.0735 -1.1307
 8290SOL     OW36505   1.887   2.001   7.729 -0.7398 -0.6383  0.0106
 8290SOL    HW136506   1.926   2.084   7.701  0.0616 -0.8525  0.5269
 8290SOL    HW236507   1.961   1.962   7.774 -0.1617  0.5166  0.0668
 8291SOL     OW36508   3.297   1.538   0.256  0.1540 -0.3671 -0.2019
 8291SOL    HW136509   3.373   1.596   0.255  0.4742 -0.7787  2.3116
 8291SOL    HW236510   3.298   1.524   0.350  0.9900  2.6535  0.2358
 8292SOL     OW36511   2.694   0.148  16.834  0.4630  0.1593 -0.1521
 8292SOL    HW136512   2.658   0.062  16.856 -2.4142  1.3855 -0.0504
 8292SOL    HW236513   2.760   0.163  16.901 -1.3793  1.3862  1.3841
 8293SOL     OW36514   1.272   1.794   2.269 -0.2602  0.5420 -0.0120
 8293SOL    HW136515   1.275   1.885   2.298 -0.0948 -0.0821  1.9082
 8293SOL    HW236516   1.351   1.798   2.216 -2.4738  2.0216 -3.2203
 8294SOL     OW36517   3.627   0.002   9.099  0.0419 -0.2274  0.1916
 8294SOL    HW136518   3.648   4.654   9.143  1.6271  0.7655  1.2662
 8294SOL    HW236519   3.603   0.067   9.165  0.9099  0.5536 -0.2731
 8295SOL     OW36520   4.262   3.349   6.041 -0.4743 -0.2324 -0.2837
 8295SOL    HW136521   4.167   3.348   6.054 -0.3143  0.1232  0.9433
 8295SOL    HW236522   4.291   3.377   6.128  1.5576 -1.1604 -0.6690
 8296SOL     OW36523   1.802   4.047  15.199 -0.2815  0.0554  0.4613
 8296SOL    HW136524   1.777   4.064  15.108 -0.3756  0.9263  0.6433
 8296SOL    HW236525   1.895   4.028  15.188  0.4135  1.8545  3.2349
 8297SOL     OW36526   1.779   1.954   3.515 -0.2410 -0.5165 -0.1473
 8297SOL    HW136527   1.735   1.995   3.440  0.2140 -2.0059 -1.2194
 8297SOL    HW236528   1.820   2.036   3.543 -0.1263 -0.7974  0.5214
 8298SOL     OW36529   1.606   2.651   5.650 -0.1384 -0.4260 -0.1618
 8298SOL    HW136530   1.587   2.653   5.744 -0.2455 -1.3866 -0.1652
 8298SOL    HW236531   1.568   2.736   5.627  2.6038  1.2190  1.3553
 8299SOL     OW36532   1.225   2.868   4.346  0.2768  0.1218 -0.0064
 8299SOL    HW136533   1.250   2.877   4.254  1.7340 -0.3337  0.3439
 8299SOL    HW236534   1.315   2.856   4.376 -0.2027 -0.3945  1.2198
 8300SOL     OW36535   3.320   3.892   7.690 -0.3943  0.2839  0.1083
 8300SOL    HW136536   3.378   3.964   7.712 -1.2172  1.0848 -0.3063
 8300SOL    HW236537   3.350   3.814   7.736 -2.3530  0.7700  2.1960
 8301SOL     OW36538   3.329   1.734   5.907 -0.0145 -0.3417 -0.0117
 8301SOL    HW136539   3.252   1.711   5.854 -0.9313 -1.2552  1.6999
 8301SOL    HW236540   3.400   1.725   5.844 -1.5877 -2.2408 -1.5005
 8302SOL     OW36541   4.470   1.888   3.569  0.0116 -0.1172 -0.4826
 8302SOL    HW136542   4.407   1.958   3.586 -0.3690 -1.1149  2.2735
 8302SOL    HW236543   4.424   1.804   3.569 -0.6241  0.2371  0.1360
 8303SOL     OW36544   1.091   3.932  13.607 -0.2837  0.0428  0.5311
 8303SOL    HW136545   1.053   3.989  13.541 -0.4955 -1.3160 -0.5170
 8303SOL    HW236546   1.049   3.847  13.593  1.1628 -0.3706 -1.2682
 8304SOL     OW36547   4.233   0.855   1.770  0.3299 -0.0434 -0.0294
 8304SOL    HW136548   4.274   0.839   1.855 -1.9333 -0.5171  0.9746
 8304SOL    HW236549   4.288   0.798   1.716  1.2618 -0.7825  1.6917
 8305SOL     OW36550   0.032   3.652   7.554 -0.1214 -0.4613  0.3340
 8305SOL    HW136551   0.094   3.704   7.606 -0.5535  0.5528 -0.1720
 8305SOL    HW236552   4.690   3.680   7.605 -0.6674  0.6468 -1.0929
 8306SOL     OW36553   2.817   4.072   9.044 -0.3864  0.0503 -0.3821
 8306SOL    HW136554   2.906   4.081   9.009  0.0915 -0.3180  0.7416
 8306SOL    HW236555   2.780   4.141   8.989 -1.3202 -1.2928 -1.4166
 8307SOL     OW36556   3.961   0.085   8.982  0.1532 -0.3624  0.0229
 8307SOL    HW136557   3.957   0.001   9.028 -2.6992  0.6776  1.7548
 8307SOL    HW236558   3.867   0.105   8.982  0.1944 -0.1622  0.1039
 8308SOL     OW36559   2.655   4.434   5.822  0.0078 -0.5082 -0.2999
 8308SOL    HW136560   2.721   4.423   5.755  1.6354  1.2214  1.0314
 8308SOL    HW236561   2.716   4.425   5.895  2.1072 -3.9732 -2.4907
 8309SOL     OW36562   0.072   1.107   2.915 -0.0257 -0.3455 -0.3536
 8309SOL    HW136563   0.027   1.189   2.893 -0.4802 -0.4389  0.2145
 8309SOL    HW236564   0.001   1.051   2.882  0.3303 -0.1562 -1.4621
 8310SOL     OW36565   1.381   3.076   6.879  0.4806 -0.3357 -0.4766
 8310SOL    HW136566   1.411   3.020   6.950 -0.1284  0.2817  0.2775
 8310SOL    HW236567   1.457   3.134   6.870  0.0093  1.0668  4.5578
 8311SOL     OW36568   3.745   3.440   3.351 -0.2346  0.0313  0.1380
 8311SOL    HW136569   3.653   3.463   3.362  0.4171  2.9140 -0.4692
 8311SOL    HW236570   3.744   3.388   3.270  0.2690 -1.6069  1.1827
 8312SOL     OW36571   2.519   1.476  12.403 -0.1451  0.5605 -0.3294
 8312SOL    HW136572   2.484   1.515  12.323 -1.1393  1.0105  0.3246
 8312SOL    HW236573   2.482   1.529  12.473 -0.0933  0.8158 -0.4938
 8313SOL     OW36574   3.575   3.188  11.007  0.5680 -0.0219 -0.0188
 8313SOL    HW136575   3.550   3.142  10.927  2.0685  0.4854 -0.7830
 8313SOL    HW236576   3.493   3.190  11.056  0.1289  2.2169 -0.8398
 8314SOL     OW36577   2.258   0.570  16.469 -0.2272  0.3386 -0.8048
 8314SOL    HW136578   2.342   0.564  16.515 -0.5480  1.5870 -0.0570
 8314SOL    HW236579   2.292   0.593  16.382  2.1462 -0.6087 -0.1348
 8315SOL     OW36580   0.064   1.262   7.533 -0.4023 -0.0182 -0.5988
 8315SOL    HW136581   0.136   1.324   7.523 -1.1834  0.7260 -1.6560
 8315SOL    HW236582   0.018   1.297   7.610 -0.8315 -1.5053 -0.1782
 8316SOL     OW36583   0.245   3.029   6.671 -0.0409 -0.1868 -0.5187
 8316SOL    HW136584   0.154   3.005   6.690 -0.6830  0.2291 -3.0337
 8316SOL    HW236585   0.289   2.984   6.743  1.2672  1.5062 -0.2720
 8317SOL     OW36586   1.321   3.753  13.466  0.2141  0.1560  0.6740
 8317SOL    HW136587   1.244   3.711  13.503  0.7306 -2.3950 -1.1616
 8317SOL    HW236588   1.380   3.678  13.460 -0.2878 -0.2389  0.7867
 8318SOL     OW36589   3.785   2.033   9.549  0.1107 -0.0846  0.1570
 8318SOL    HW136590   3.772   1.957   9.492  0.7447 -1.4015  1.7742
 8318SOL    HW236591   3.854   2.006   9.610  0.1448 -0.3863 -0.0135
 8319SOL     OW36592   3.293   1.463  12.943  0.3062  0.4919  0.2579
 8319SOL    HW136593   3.277   1.420  13.027  0.5908 -0.0435  0.0359
 8319SOL    HW236594   3.368   1.417  12.906 -0.4652  0.7978 -1.7047
 8320SOL     OW36595   1.029   4.598   3.850 -0.1663  0.0158  0.0384
 8320SOL    HW136596   0.977   4.580   3.929 -0.4752 -1.9168 -0.6104
 8320SOL    HW236597   1.042   4.693   3.858  2.3888 -0.4868  1.6987
 8321SOL     OW36598   0.665   0.378   2.142 -0.5868  0.1630 -0.1075
 8321SOL    HW136599   0.640   0.382   2.234  2.9675 -1.9941  0.9470
 8321SOL    HW236600   0.588   0.418   2.101 -0.9399  0.0415  0.4428
 8322SOL     OW36601   1.077   4.473  14.990 -0.2472 -0.5357 -0.1232
 8322SOL    HW136602   1.130   4.542  15.031 -1.0228  0.4781 -0.8363
 8322SOL    HW236603   1.067   4.510  14.902  1.6308 -2.4257 -1.1368
 8323SOL     OW36604   0.237   2.977   7.373 -0.1879  0.3786  0.1748
 8323SOL    HW136605   0.147   2.959   7.402  0.6531 -0.2430  2.3523
 8323SOL    HW236606   0.275   3.038   7.436 -2.2940  0.2257  1.6010
 8324SOL     OW36607   1.137   1.467   2.977 -0.3875 -0.2178  0.5035
 8324SOL    HW136608   1.120   1.521   3.054  2.6327  1.9233 -0.3611
 8324SOL    HW236609   1.224   1.431   2.998 -1.2230 -1.2809  2.1565
 8325SOL     OW36610   2.856   4.397   5.997 -0.1186  0.1824  0.0185
 8325SOL    HW136611   2.934   4.350   5.969  0.8917  1.5703  0.5039
 8325SOL    HW236612   2.856   4.365   6.088  1.9810  0.1575 -0.0052
 8326SOL     OW36613   4.343   2.657   7.952  0.0163 -0.1613 -0.5725
 8326SOL    HW136614   4.342   2.577   7.899  0.1995 -1.1112  0.8617
 8326SOL    HW236615   4.436   2.676   7.961 -0.5159  2.0484  0.0540
 8327SOL     OW36616   1.625   3.637   5.490  0.1867  0.2156  0.1034
 8327SOL    HW136617   1.575   3.592   5.558 -1.4283  3.0170  0.7780
 8327SOL    HW236618   1.712   3.601   5.509 -1.6623 -3.7015  1.0680
 8328SOL     OW36619   3.432   0.674  14.904 -0.0798  0.1106 -0.1651
 8328SOL    HW136620   3.447   0.768  14.890  1.1270 -0.1406 -0.5639
 8328SOL    HW236621   3.456   0.650  14.815 -1.0588  0.3596 -0.4957
 8329SOL     OW36622   2.828   1.488   2.530  0.2487  0.1139 -0.4388
 8329SOL    HW136623   2.823   1.506   2.436  0.0316 -0.7534 -0.5938
 8329SOL    HW236624   2.911   1.528   2.556 -0.5929  1.5401 -0.0033
 8330SOL     OW36625   0.147   3.486   0.062 -0.4514  0.2008 -0.1375
 8330SOL    HW136626   0.066   3.435   0.057 -0.0429 -0.3581 -0.9795
 8330SOL    HW236627   0.209   3.418   0.033  0.0180  0.5215  0.1174
 8331SOL     OW36628   3.677   1.125   3.125  0.4530 -0.4809  0.1240
 8331SOL    HW136629   3.641   1.203   3.167 -2.2569 -1.2293 -0.8516
 8331SOL    HW236630   3.626   1.064   3.177  1.0183  0.0470  1.3075
 8332SOL     OW36631   2.458   1.237   1.392  0.2640  0.3361 -0.6536
 8332SOL    HW136632   2.537   1.240   1.339  0.7359  0.5423  0.0594
 8332SOL    HW236633   2.409   1.169   1.345 -1.0032 -0.0177  1.1752
 8333SOL     OW36634   2.062   0.500   6.159 -0.3731  0.0309 -0.3762
 8333SOL    HW136635   2.036   0.576   6.211  1.5453 -1.5014  2.8592
 8333SOL    HW236636   2.082   0.544   6.076 -0.2250  1.9795  0.6807
 8334SOL     OW36637   4.729   1.337   0.757 -0.3866 -0.3615 -0.4376
 8334SOL    HW136638   0.056   1.277   0.713 -0.0027 -1.3015  1.3771
 8334SOL    HW236639   0.052   1.399   0.803  0.6004 -1.9203  0.4366
 8335SOL     OW36640   1.732   0.648  17.458  0.4875 -0.5992 -0.1157
 8335SOL    HW136641   1.717   0.723  17.400 -2.0564 -0.4128  0.7969
 8335SOL    HW236642   1.689   0.576  17.412 -0.4489  1.7864 -3.0346
 8336SOL     OW36643   3.450   3.050   4.322 -0.0881 -0.1793  0.2736
 8336SOL    HW136644   3.475   3.134   4.361  1.2724 -0.7574  0.6264
 8336SOL    HW236645   3.360   3.073   4.297  0.4280  1.7509  0.1885
 8337SOL     OW36646   2.640   3.736  12.788 -0.0492 -0.6113 -0.2096
 8337SOL    HW136647   2.673   3.819  12.753 -0.7377  0.4611  1.6905
 8337SOL    HW236648   2.586   3.720  12.711  0.6740  2.0017 -1.2723
 8338SOL     OW36649   2.540   4.083   8.167 -0.3700 -0.5137 -0.1716
 8338SOL    HW136650   2.466   4.099   8.225 -0.3940 -0.6924 -0.1532
 8338SOL    HW236651   2.600   4.044   8.230 -0.5491 -0.2307  0.1703
 8339SOL     OW36652   0.446   2.414   3.927  0.1602  0.2899  0.2808
 8339SOL    HW136653   0.467   2.324   3.952 -1.3932 -0.2412 -0.3107
 8339SOL    HW236654   0.512   2.463   3.976  0.2267  0.5565 -0.0783
 8340SOL     OW36655   2.769   3.531   1.880 -0.3455 -0.2026  0.8372
 8340SOL    HW136656   2.755   3.625   1.886  0.7474 -0.0640  1.2015
 8340SOL    HW236657   2.806   3.511   1.966 -0.0033 -1.0731  0.4852
 8341SOL     OW36658   2.048   3.750   8.495  0.2177  0.4087  0.4052
 8341SOL    HW136659   2.123   3.703   8.532 -0.9331 -1.7333  0.0085
 8341SOL    HW236660   1.990   3.749   8.571  0.9238 -1.9688  0.9282
 8342SOL     OW36661   3.071   1.473   5.829 -0.5801  0.2051 -0.0287
 8342SOL    HW136662   3.072   1.452   5.922 -1.3001  0.1168 -0.0452
 8342SOL    HW236663   3.043   1.563   5.845  0.0596  0.4621 -0.3275
 8343SOL     OW36664   3.097   0.839   5.248 -0.2118 -0.0781 -0.6211
 8343SOL    HW136665   3.181   0.853   5.292 -0.6231  1.1283 -0.2230
 8343SOL    HW236666   3.040   0.903   5.291  0.8547  1.3537 -1.3571
 8344SOL     OW36667   0.564   1.372   4.122 -0.4814  0.1706  0.4433
 8344SOL    HW136668   0.505   1.379   4.047  1.8194  2.2541 -1.1776
 8344SOL    HW236669   0.631   1.312   4.086 -1.4636 -1.9425  2.1609
 8345SOL     OW36670   1.305   4.571   7.718  0.0301 -0.0218 -0.0803
 8345SOL    HW136671   1.391   4.601   7.691 -0.6601  2.4473  0.4731
 8345SOL    HW236672   1.322   4.477   7.720  0.5516  0.0652 -0.4174
 8346SOL     OW36673   0.124   4.636   3.148  0.0349 -0.4204  0.4927
 8346SOL    HW136674   0.090   4.695   3.081  1.3828  2.1510  2.0694
 8346SOL    HW236675   0.210   4.612   3.112 -0.0547 -0.2622  0.1720
 8347SOL     OW36676   2.741   0.404   7.645 -0.4869 -0.3675  0.2614
 8347SOL    HW136677   2.694   0.376   7.566  0.5800  1.3887 -0.9992
 8347SOL    HW236678   2.820   0.440   7.603 -0.2706 -2.1938 -0.9449
 8348SOL     OW36679   4.156   0.875   2.198 -0.6355  0.2702 -0.4516
 8348SOL    HW136680   4.079   0.900   2.147 -1.3248 -0.3317  0.2880
 8348SOL    HW236681   4.120   0.841   2.279 -0.1475  1.1184  0.1261
 8349SOL     OW36682   0.163   3.050   3.224 -0.4433 -0.2285 -0.1227
 8349SOL    HW136683   0.179   3.034   3.317  0.7992 -0.2799 -0.3538
 8349SOL    HW236684   0.224   2.986   3.187  0.3072  0.3969  0.0339
 8350SOL     OW36685   1.408   4.219   4.396 -0.4596  0.1325  0.5721
 8350SOL    HW136686   1.447   4.298   4.359  2.3456 -1.8858 -0.7762
 8350SOL    HW236687   1.318   4.248   4.408 -0.9822 -1.1493 -0.2480
 8351SOL     OW36688   2.020   3.110  16.131 -0.5364 -0.5009  0.0317
 8351SOL    HW136689   1.958   3.143  16.066 -1.1525  0.4327  1.0918
 8351SOL    HW236690   2.049   3.192  16.170  1.6536 -1.1042 -0.3189
 8352SOL     OW36691   0.173   0.693   6.188  0.5135 -0.3257  0.0471
 8352SOL    HW136692   0.150   0.765   6.128  0.0967 -1.7871 -1.5407
 8352SOL    HW236693   0.226   0.647   6.123  1.0683 -0.7724  0.8150
 8353SOL     OW36694   1.929   0.556  11.105 -0.0654 -0.4233 -0.1511
 8353SOL    HW136695   1.934   0.556  11.200 -0.0069 -1.1367 -0.1534
 8353SOL    HW236696   2.018   0.588  11.091 -0.3595  0.0048 -1.0632
 8354SOL     OW36697   2.018   0.357  12.109 -0.0987  0.0919 -0.2610
 8354SOL    HW136698   2.029   0.326  12.199 -0.0088 -0.9991 -0.6580
 8354SOL    HW236699   2.106   0.351  12.071 -0.9030 -0.8992 -1.9178
 8355SOL     OW36700   4.166   4.149   9.256 -0.1418  0.0738 -0.0045
 8355SOL    HW136701   4.235   4.089   9.284  0.0560  1.4278  2.4504
 8355SOL    HW236702   4.194   4.230   9.300  3.7982 -0.2543 -1.8850
 8356SOL     OW36703   1.957   4.725   9.942  0.4774  0.1687  0.0112
 8356SOL    HW136704   1.911   0.019   9.863  0.7558 -2.1201 -0.9499
 8356SOL    HW236705   2.013   4.657   9.904 -0.4329  0.9595 -2.7957
 8357SOL     OW36706   3.582   2.884  14.529  0.1805 -0.2110  0.5854
 8357SOL    HW136707   3.538   2.803  14.504 -0.4287  0.6970 -1.3272
 8357SOL    HW236708   3.561   2.897  14.621  2.3621 -2.2343  1.3651
 8358SOL     OW36709   4.220   2.013   6.646 -0.0158 -0.4518 -0.3947
 8358SOL    HW136710   4.146   2.040   6.592  0.8430  0.3870 -1.1742
 8358SOL    HW236711   4.212   1.918   6.651 -2.2616 -0.2237  0.1147
 8359SOL     OW36712   4.598   2.122   2.714  0.1589  0.0610 -0.3414
 8359SOL    HW136713   4.666   2.088   2.655 -0.2102 -0.9658 -0.1610
 8359SOL    HW236714   4.651   2.165   2.781  2.5178 -1.1889 -1.3859
 8360SOL     OW36715   2.433   1.223   4.417 -0.4262 -0.0492 -0.0272
 8360SOL    HW136716   2.443   1.298   4.475 -0.5502 -0.8703  1.0571
 8360SOL    HW236717   2.520   1.185   4.405 -1.0743 -0.9464 -1.8806
 8361SOL     OW36718   1.275   0.427   9.519  0.4685  0.0646 -0.3055
 8361SOL    HW136719   1.359   0.430   9.565  0.8068 -1.8524 -0.7637
 8361SOL    HW236720   1.302   0.384   9.438  0.3182  0.6017 -0.6331
 8362SOL     OW36721   3.250   0.477   0.973  0.0759 -0.0145  0.0306
 8362SOL    HW136722   3.343   0.468   0.951 -0.0516 -2.5993  0.5142
 8362SOL    HW236723   3.215   0.491   0.885  3.2968  0.8917 -1.1094
 8363SOL     OW36724   1.633   0.878  17.395 -0.4619 -0.1480  0.4139
 8363SOL    HW136725   1.592   0.870  17.481 -3.1371  0.8697 -0.7791
 8363SOL    HW236726   1.555   0.863  17.342  0.9433  3.6320 -2.7279
 8364SOL     OW36727   0.253   1.142   9.130 -0.2596  0.0427  0.3573
 8364SOL    HW136728   0.283   1.141   9.039 -1.5011  0.1802 -0.0485
 8364SOL    HW236729   0.160   1.159   9.119 -0.0353  0.6299 -0.6208
 8365SOL     OW36730   3.687   4.307  15.560  0.1868 -0.2550  0.0226
 8365SOL    HW136731   3.753   4.373  15.536 -0.1095 -0.0205 -0.1383
 8365SOL    HW236732   3.652   4.346  15.640  0.6613 -0.5419  0.3700
 8366SOL     OW36733   1.611   4.131   4.015  0.8220 -0.0916 -0.0926
 8366SOL    HW136734   1.681   4.193   3.993 -0.1412  0.8363 -0.5295
 8366SOL    HW236735   1.578   4.106   3.929 -0.7690  2.0691 -0.1104
 8367SOL     OW36736   0.116   3.367   3.308 -0.5232 -0.1326 -0.0932
 8367SOL    HW136737   0.106   3.374   3.213 -1.2455 -0.0109 -0.0069
 8367SOL    HW236738   0.154   3.452   3.327  1.1509 -0.8907 -0.0529
 8368SOL     OW36739   1.803   1.822  14.463 -0.2960 -0.7574 -0.3107
 8368SOL    HW136740   1.802   1.917  14.465 -0.2530 -0.7673  0.5202
 8368SOL    HW236741   1.808   1.801  14.370  0.6895 -2.0112  0.0214
 8369SOL     OW36742   4.369   0.810   5.024 -0.4487  0.1784  0.6399
 8369SOL    HW136743   4.385   0.795   4.931 -2.3303  0.5334  0.2564
 8369SOL    HW236744   4.315   0.889   5.020  2.3850  1.9605 -2.0076
 8370SOL     OW36745   1.330   3.633   3.433  0.1686 -0.2052  0.1002
 8370SOL    HW136746   1.313   3.608   3.523 -0.0516 -0.2537  0.0467
 8370SOL    HW236747   1.331   3.555   3.377  1.5364 -0.4753  0.5090
 8371SOL     OW36748   3.772   1.825   3.216 -0.3846  0.0988 -0.3758
 8371SOL    HW136749   3.682   1.837   3.245  0.5828  1.5722  2.0408
 8371SOL    HW236750   3.761   1.812   3.122  2.6768 -1.0004 -0.5881
 8372SOL     OW36751   1.854   0.843  17.735 -0.1934  0.2852 -0.0855
 8372SOL    HW136752   1.901   0.760  17.734 -2.0388 -0.7793  0.8676
 8372SOL    HW236753   1.767   0.804   0.013 -0.4857  1.5971  1.8193
 8373SOL     OW36754   2.846   1.456   4.329 -0.1215  0.0806  0.7262
 8373SOL    HW136755   2.909   1.527   4.318  0.5914 -0.5756  0.5088
 8373SOL    HW236756   2.779   1.512   4.367 -0.6916 -0.5681  0.6714
 8374SOL     OW36757   1.489   1.744   3.746 -0.1702 -0.0789 -0.3027
 8374SOL    HW136758   1.520   1.692   3.672 -1.5455  0.0732 -0.9900
 8374SOL    HW236759   1.551   1.726   3.817 -1.4988 -0.1509  0.8455
 8375SOL     OW36760   4.405   0.980  13.230  0.1394  0.0399  0.3244
 8375SOL    HW136761   4.408   1.068  13.267  0.9216  0.3044 -0.3706
 8375SOL    HW236762   4.436   0.936  13.309 -0.4887  0.2098  0.6721
 8376SOL     OW36763   2.086   4.642   5.547  0.2751  0.0997 -0.2777
 8376SOL    HW136764   2.156   4.688   5.500 -2.7497  0.7461 -4.1385
 8376SOL    HW236765   2.131   4.557   5.543  0.5720  0.3113 -1.4184
 8377SOL     OW36766   1.895   2.705   3.014  0.2893 -0.1065 -0.3965
 8377SOL    HW136767   1.864   2.792   2.989  0.7381  0.3584  0.6496
 8377SOL    HW236768   1.836   2.644   2.969  0.1449 -0.7116  0.6051
 8378SOL     OW36769   1.027   2.083   4.992 -0.5032 -0.0440  0.4182
 8378SOL    HW136770   1.081   2.020   4.944  0.1215 -0.2021  1.3467
 8378SOL    HW236771   1.041   2.160   4.937  1.8652 -0.4866  0.4302
 8379SOL     OW36772   1.555   3.487   3.721  0.2153  0.2374 -0.4721
 8379SOL    HW136773   1.464   3.514   3.736  0.3883  0.4048  0.2889
 8379SOL    HW236774   1.566   3.419   3.787 -0.1582 -0.2200 -0.8791
 8380SOL     OW36775   1.382   2.024   1.101 -0.4897 -0.0407 -0.3576
 8380SOL    HW136776   1.347   2.079   1.171 -0.3680  1.6110 -1.6019
 8380SOL    HW236777   1.383   2.085   1.028 -0.6177 -2.1973 -2.1374
 8381SOL     OW36778   0.020   3.072   7.749 -0.3930 -0.0942  0.1450
 8381SOL    HW136779   4.694   3.010   7.791 -1.0378 -2.1689 -3.7989
 8381SOL    HW236780   4.700   3.096   7.674  1.1635  2.5694 -0.1096
 8382SOL     OW36781   0.057   3.289  12.648 -0.8950 -0.0622 -0.2461
 8382SOL    HW136782   0.064   3.339  12.729  0.0330  1.2184 -1.1100
 8382SOL    HW236783   0.017   3.209  12.683 -1.7067  0.5653  0.2607
 8383SOL     OW36784   3.012   2.682   2.342 -0.3240 -0.1494  0.1490
 8383SOL    HW136785   2.984   2.593   2.363  0.6905 -0.6908 -0.7912
 8383SOL    HW236786   3.106   2.668   2.356 -0.5401 -1.6011  0.0720
 8384SOL     OW36787   4.449   4.110   3.143 -0.3114 -0.2525  0.2307
 8384SOL    HW136788   4.438   4.190   3.090  0.3929 -2.1875 -2.8394
 8384SOL    HW236789   4.523   4.069   3.099  0.5207 -1.1433  2.4621
 8385SOL     OW36790   0.631   0.439   1.096  0.1654 -0.0914 -0.3317
 8385SOL    HW136791   0.660   0.447   1.005 -0.9023 -0.2465 -0.6816
 8385SOL    HW236792   0.714   0.418   1.140  1.2234  1.0116 -1.8228
 8386SOL     OW36793   2.829   0.813   5.830 -0.0778  0.0743 -0.0751
 8386SOL    HW136794   2.740   0.846   5.842 -1.6412 -3.8723 -0.7563
 8386SOL    HW236795   2.873   0.897   5.838 -1.3315  0.8883 -1.6321
 8387SOL     OW36796   2.622   1.319   2.739 -0.4978  0.6978 -0.3206
 8387SOL    HW136797   2.635   1.251   2.673  1.6171  3.0251 -2.2626
 8387SOL    HW236798   2.585   1.383   2.679 -3.6462 -0.2517  0.5822
 8388SOL     OW36799   3.332   2.373   8.987  0.2028 -0.3315  0.0536
 8388SOL    HW136800   3.313   2.345   9.077 -1.4949 -1.0795 -0.5286
 8388SOL    HW236801   3.328   2.294   8.933 -1.2726 -1.4099  1.7463
 8389SOL     OW36802   2.890   1.613   4.656  0.4327  0.1252 -0.6416
 8389SOL    HW136803   2.814   1.629   4.713  1.6274 -1.1114  1.3040
 8389SOL    HW236804   2.844   1.595   4.574 -2.2878 -2.4761  1.4694
 8390SOL     OW36805   0.600   1.818   5.471 -0.5385 -0.1593 -0.2518
 8390SOL    HW136806   0.605   1.885   5.403  0.4623  1.5510  1.5137
 8390SOL    HW236807   0.511   1.785   5.467 -1.1303  1.1991  1.6551
 8391SOL     OW36808   1.462   2.335   3.400  0.2618 -0.5753  0.1199
 8391SOL    HW136809   1.471   2.241   3.418 -0.2563 -1.0698 -2.2603
 8391SOL    HW236810   1.545   2.355   3.356 -0.6133 -1.8154 -2.0794
 8392SOL     OW36811   0.330   1.971   2.690 -0.0775  0.2669  0.4132
 8392SOL    HW136812   0.346   1.931   2.604 -0.1427 -0.1582  0.6039
 8392SOL    HW236813   0.398   2.039   2.688 -0.3995  0.5668 -0.6926
 8393SOL     OW36814   2.155   3.147   6.856  0.3909  0.1606 -0.6045
 8393SOL    HW136815   2.106   3.200   6.793 -1.6803 -1.1974 -0.1324
 8393SOL    HW236816   2.098   3.157   6.932  0.0677 -1.4053 -0.6344
 8394SOL     OW36817   1.117   1.816  17.565 -0.2394 -0.5291  0.7557
 8394SOL    HW136818   1.059   1.749  17.602 -1.3935 -1.0055 -1.9579
 8394SOL    HW236819   1.149   1.861  17.643 -0.7195 -0.3859  0.8733
 8395SOL     OW36820   2.983   3.332  11.071  0.1495  0.0260 -0.1817
 8395SOL    HW136821   2.969   3.371  11.158  0.9818 -1.1599  0.4933
 8395SOL    HW236822   3.039   3.389  11.019 -0.1056  0.3259 -0.1239
 8396SOL     OW36823   3.494   3.323   8.549 -0.0061 -0.4736  0.1766
 8396SOL    HW136824   3.510   3.365   8.465 -0.2787 -1.9924 -0.6410
 8396SOL    HW236825   3.577   3.340   8.594 -0.4096 -0.8153  1.0622
 8397SOL     OW36826   1.160   1.456   6.593  0.3735  0.5335  0.2999
 8397SOL    HW136827   1.145   1.446   6.499  1.3295  0.1488  0.1912
 8397SOL    HW236828   1.131   1.372   6.630  0.6834  0.0850 -0.4886
 8398SOL     OW36829   1.366   3.437  14.276  0.1212  0.2995  0.5797
 8398SOL    HW136830   1.408   3.362  14.318 -0.6471 -1.4493 -1.7672
 8398SOL    HW236831   1.287   3.408  14.231 -0.0632  0.7845  0.5933
 8399SOL     OW36832   1.286   3.138   7.220 -0.0329  0.2004  0.0099
 8399SOL    HW136833   1.220   3.208   7.221 -0.8573 -0.6478  5.0926
 8399SOL    HW236834   1.356   3.203   7.224  0.1501  0.0820 -1.2046
 8400SOL     OW36835   3.533   1.895   3.328 -0.1659 -0.0311 -0.2807
 8400SOL    HW136836   3.480   1.832   3.377 -2.3277  0.7833 -1.5513
 8400SOL    HW236837   3.502   1.981   3.359 -0.2988 -0.8356  1.8202
 8401SOL     OW36838   3.688   4.443   7.587 -0.2126 -0.6183 -0.2129
 8401SOL    HW136839   3.727   4.368   7.632 -0.3944  0.3652  1.5711
 8401SOL    HW236840   3.747   4.453   7.512  0.8391  0.1228  0.7077
 8402SOL     OW36841   1.539   3.951   0.101  0.4316 -0.6572  0.7460
 8402SOL    HW136842   1.621   3.918   0.065  0.0855 -0.6279 -0.0712
 8402SOL    HW236843   1.561   3.998   0.181  1.1914 -1.1807  0.8445
 8403SOL     OW36844   1.879   1.708   5.252  0.2971 -0.1606 -0.3515
 8403SOL    HW136845   1.805   1.657   5.283  1.1925 -1.1454  0.1371
 8403SOL    HW236846   1.908   1.737   5.338  0.4958  2.0380 -1.1568
 8404SOL     OW36847   2.418   2.049  17.374  0.4533 -0.3918 -0.0238
 8404SOL    HW136848   2.474   2.014  17.442 -2.0254  0.4917  2.4893
 8404SOL    HW236849   2.475   2.102  17.318 -2.8646  1.6553 -1.5044
 8405SOL     OW36850   0.855   0.828   1.561  0.1941  0.2113  0.3495
 8405SOL    HW136851   0.804   0.898   1.520  0.9518  1.7625  2.0700
 8405SOL    HW236852   0.807   0.753   1.527  1.4177 -0.8493  0.9924
 8406SOL     OW36853   0.299   4.365   3.057  0.3344  0.2344 -0.2673
 8406SOL    HW136854   0.314   4.365   2.963  0.4964 -0.5207 -0.2483
 8406SOL    HW236855   0.347   4.285   3.080 -0.7373 -0.2593  0.2575
 8407SOL     OW36856   3.297   1.935   9.800  0.0601 -0.4367  0.6438
 8407SOL    HW136857   3.371   1.952   9.741 -0.9455  0.9470 -0.2319
 8407SOL    HW236858   3.228   1.932   9.733 -0.7050  1.8648  1.3069
 8408SOL     OW36859   1.926   2.092  14.466  0.0046  0.4427 -0.1086
 8408SOL    HW136860   1.896   2.171  14.511 -2.8226 -0.9296  0.3908
 8408SOL    HW236861   1.892   2.105  14.377  0.6396 -0.5845 -0.4945
 8409SOL     OW36862   3.752   0.467   3.680 -0.0208  0.0252  0.3055
 8409SOL    HW136863   3.800   0.531   3.733 -0.5491  1.5832 -1.0896
 8409SOL    HW236864   3.751   0.517   3.598 -2.9036  1.2230  1.0652
 8410SOL     OW36865   1.745   2.948   0.726 -0.4891 -0.0783 -0.8475
 8410SOL    HW136866   1.826   2.907   0.694  0.2332  1.2807 -0.7463
 8410SOL    HW236867   1.682   2.936   0.654 -0.1722 -0.9661 -0.9791
 8411SOL     OW36868   2.596   1.366  15.486 -0.5232 -0.4441  0.4160
 8411SOL    HW136869   2.537   1.402  15.420 -1.3200 -1.7928  0.3953
 8411SOL    HW236870   2.572   1.428  15.555 -0.4244 -0.6348  0.6231
 8412SOL     OW36871   4.250   1.027   1.021 -0.3856 -0.3055 -0.3140
 8412SOL    HW136872   4.280   1.099   1.076  3.1629 -1.5512 -0.6598
 8412SOL    HW236873   4.322   1.021   0.959  1.4630  2.3043  1.6261
 8413SOL     OW36874   2.376   3.004   7.675  0.4688  0.1297 -0.1364
 8413SOL    HW136875   2.351   3.063   7.746  0.0531  1.1921 -1.1551
 8413SOL    HW236876   2.472   3.004   7.675  0.4671 -0.2633 -0.6042
 8414SOL     OW36877   1.791   0.820   9.185 -0.2953  0.4510 -0.1621
 8414SOL    HW136878   1.851   0.824   9.110 -0.4964 -1.2206 -0.4168
 8414SOL    HW236879   1.790   0.731   9.219 -0.3025  0.2332 -0.7212
 8415SOL     OW36880   4.400   3.894   7.562  0.4837 -0.9467  0.5140
 8415SOL    HW136881   4.314   3.933   7.547  0.2233 -1.3976  0.8458
 8415SOL    HW236882   4.372   3.803   7.559  0.7181 -1.0476  1.4311
 8416SOL     OW36883   3.961   1.146   9.423  0.8058 -0.1287  0.1939
 8416SOL    HW136884   4.047   1.157   9.463 -1.1611 -0.0486  4.3806
 8416SOL    HW236885   3.896   1.169   9.490  0.9416  1.3993 -0.2021
 8417SOL     OW36886   2.373   0.201  13.153 -0.2901 -0.2052 -0.2642
 8417SOL    HW136887   2.375   0.293  13.124  2.7498 -0.6941 -1.5804
 8417SOL    HW236888   2.281   0.175  13.147 -1.2487  3.1820 -0.3587
 8418SOL     OW36889   1.019   1.895  14.499  0.0648  0.3145  0.2514
 8418SOL    HW136890   1.105   1.934  14.480  0.8187 -1.1857  0.6456
 8418SOL    HW236891   1.043   1.814  14.542 -3.2724 -1.0155 -0.4340
 8419SOL     OW36892   1.397   3.879   3.326 -0.4775  0.5028 -0.0409
 8419SOL    HW136893   1.478   3.881   3.276  0.0758 -4.6277  0.6494
 8419SOL    HW236894   1.394   3.791   3.364 -0.8619  0.7813  0.5706
 8420SOL     OW36895   2.323   1.675   9.130  0.2628  0.0373  0.0638
 8420SOL    HW136896   2.255   1.687   9.064 -0.1534  1.3227  0.7185
 8420SOL    HW236897   2.401   1.709   9.085  0.1212 -1.5153 -1.3287
 8421SOL     OW36898   3.708   1.469   5.902  0.1943  0.0375 -0.3319
 8421SOL    HW136899   3.727   1.539   5.838 -0.8909  0.6008 -0.0558
 8421SOL    HW236900   3.798   1.448   5.923 -0.5571 -2.1160  0.6558
 8422SOL     OW36901   4.407   3.824   7.982 -0.0836 -0.6068 -0.0295
 8422SOL    HW136902   4.433   3.747   8.033  1.5045  0.2921  0.5073
 8422SOL    HW236903   4.416   3.893   8.047  0.2584 -0.2145 -0.4945
 8423SOL     OW36904   0.685   1.713  12.936  0.2000 -0.1633  0.4636
 8423SOL    HW136905   0.720   1.715  12.847  2.6645 -1.3025  1.4039
 8423SOL    HW236906   0.765   1.736  12.984  0.6775  0.3272 -0.5610
 8424SOL     OW36907   0.755   2.252   6.559  0.1659 -0.4571  0.3756
 8424SOL    HW136908   0.706   2.313   6.504  1.0034 -0.2052 -0.0986
 8424SOL    HW236909   0.766   2.294   6.644  0.2602 -0.2107  0.2407
 8425SOL     OW36910   1.919   0.302   8.134 -0.9261  0.0989  0.1209
 8425SOL    HW136911   1.998   0.296   8.079 -1.8602 -3.6868 -0.8247
 8425SOL    HW236912   1.891   0.215   8.163  1.3295 -0.6833 -0.0481
 8426SOL     OW36913   0.286   1.701   5.535  0.0032  0.1071  0.1815
 8426SOL    HW136914   0.268   1.764   5.605 -0.7561  0.9263 -0.7495
 8426SOL    HW236915   0.333   1.631   5.581 -0.1308 -0.1153 -0.0192
 8427SOL     OW36916   0.016   4.408   7.059 -0.3514 -0.4584  0.1510
 8427SOL    HW136917   4.668   4.367   7.028  0.2638  0.0641 -2.1759
 8427SOL    HW236918   4.733   4.396   7.152 -0.8030  2.1497  0.4160
 8428SOL     OW36919   2.967   0.095   2.439 -0.1566 -0.1185  0.2620
 8428SOL    HW136920   2.988   0.050   2.521 -0.3229  1.4957  1.1903
 8428SOL    HW236921   2.976   0.187   2.464 -0.4232  0.0049 -0.0930
 8429SOL     OW36922   1.625   0.780   8.947 -0.3225  0.8260 -0.0946
 8429SOL    HW136923   1.595   0.748   8.862  0.2202 -0.0766  0.0488
 8429SOL    HW236924   1.701   0.722   8.959 -0.6172  0.2783 -0.8683
 8430SOL     OW36925   0.724   4.496   0.469 -0.0992  0.0402  0.2065
 8430SOL    HW136926   0.721   4.460   0.380  0.1860 -0.0559  0.2373
 8430SOL    HW236927   0.690   4.421   0.519 -1.6611  0.9942  0.5645
 8431SOL     OW36928   0.646   1.553   7.669 -0.1196 -0.0446  0.1706
 8431SOL    HW136929   0.735   1.527   7.691 -0.9964 -3.1615 -0.0613
 8431SOL    HW236930   0.660   1.648   7.673 -1.3862  0.1055  1.0146
 8432SOL     OW36931   2.623   2.031   5.791  0.9600 -0.2014  0.0810
 8432SOL    HW136932   2.564   1.994   5.725 -0.1064 -0.9406  1.4489
 8432SOL    HW236933   2.585   2.117   5.809  2.1782  0.4355 -0.3556
 8433SOL     OW36934   0.815   2.384   5.862 -0.6080 -0.2365 -0.2769
 8433SOL    HW136935   0.902   2.343   5.861 -1.5141 -2.0966 -2.0538
 8433SOL    HW236936   0.811   2.414   5.772 -0.3140 -0.9023 -0.5134
 8434SOL     OW36937   0.286   3.323   1.344 -0.0877 -0.1848  0.4846
 8434SOL    HW136938   0.303   3.280   1.261  1.7774  2.1363 -0.3596
 8434SOL    HW236939   0.234   3.261   1.395 -1.3913  0.5359  0.0425
 8435SOL     OW36940   0.307   3.689   5.257 -0.6550  0.5479  0.3824
 8435SOL    HW136941   0.281   3.778   5.235 -1.0942  0.2103 -0.4571
 8435SOL    HW236942   0.365   3.716   5.328  3.8934 -1.6488 -2.4359
 8436SOL     OW36943   0.670   1.186  16.033 -0.0412 -0.1675  0.1033
 8436SOL    HW136944   0.679   1.090  16.028  1.5567  0.0399 -0.9039
 8436SOL    HW236945   0.613   1.208  15.959  0.4913  0.5568 -0.0858
 8437SOL     OW36946   1.521   1.279   7.088  0.1560 -0.0494  0.6630
 8437SOL    HW136947   1.549   1.298   7.177  0.8499 -0.0988  0.4617
 8437SOL    HW236948   1.471   1.358   7.068  0.2553  1.0968  4.9960
 8438SOL     OW36949   2.452   1.162   9.502 -0.5557 -0.0170  0.3116
 8438SOL    HW136950   2.402   1.135   9.426  1.2803 -2.6050 -0.0005
 8438SOL    HW236951   2.392   1.148   9.576 -2.1811  2.0127 -0.6431
 8439SOL     OW36952   0.471   3.301   7.008  0.2272  0.1102  0.0888
 8439SOL    HW136953   0.386   3.289   7.050  0.2952 -2.4124 -0.4954
 8439SOL    HW236954   0.492   3.391   7.031 -1.6912  0.7774 -0.8611
 8440SOL     OW36955   4.313   2.274   2.641  0.4591  0.4246 -0.6829
 8440SOL    HW136956   4.373   2.243   2.708 -0.2279  1.3710  0.3749
 8440SOL    HW236957   4.366   2.300   2.566 -0.4703  0.6922 -1.2548
 8441SOL     OW36958   1.820   0.095  12.582 -0.2568 -0.1970  0.8393
 8441SOL    HW136959   1.885   0.135  12.640  0.5509  0.4556 -0.5076
 8441SOL    HW236960   1.887   0.052  12.528 -0.4037 -1.4380  1.6679
 8442SOL     OW36961   2.393   4.569   9.654 -0.2157 -0.5941 -0.3026
 8442SOL    HW136962   2.419   4.661   9.655 -0.9998 -0.3620 -1.2999
 8442SOL    HW236963   2.341   4.563   9.574 -0.4836 -1.3950 -0.0689
 8443SOL     OW36964   1.992   0.727   4.529  0.1441  0.0755 -0.3093
 8443SOL    HW136965   2.037   0.668   4.589  0.0274  0.1177 -0.1796
 8443SOL    HW236966   2.050   0.728   4.453  0.9556 -1.7134  0.3055
 8444SOL     OW36967   2.019   1.165   8.578 -0.2684 -0.0379  0.1718
 8444SOL    HW136968   1.933   1.160   8.536  0.1651 -0.5658 -0.6511
 8444SOL    HW236969   2.031   1.083   8.625 -0.2648 -0.6658 -0.9245
 8445SOL     OW36970   3.431   3.062   9.190  0.1480  0.3998  0.0372
 8445SOL    HW136971   3.344   3.038   9.159  0.8865  0.3955 -2.0795
 8445SOL    HW236972   3.420   3.157   9.187  1.0903  0.5343  0.7865
 8446SOL     OW36973   1.732   0.446  11.715 -0.6666  0.3009 -0.4603
 8446SOL    HW136974   1.671   0.383  11.753 -2.1630  0.5949 -2.4209
 8446SOL    HW236975   1.727   0.440  11.620 -2.7072  0.4427 -0.3437
 8447SOL     OW36976   2.046   2.063  14.769  0.1174 -0.0059  0.2277
 8447SOL    HW136977   1.962   2.093  14.804 -0.3719  0.1008 -1.0514
 8447SOL    HW236978   2.018   2.033  14.683  1.7444 -0.5177 -0.1071
 8448SOL     OW36979   2.240   4.238   5.450 -0.0585 -0.2173  0.2283
 8448SOL    HW136980   2.286   4.316   5.422  2.0819 -0.9148  1.8114
 8448SOL    HW236981   2.292   4.163   5.422 -2.2899 -2.5662  2.3301
 8449SOL     OW36982   3.965   1.433   5.937 -0.1814 -0.1191 -0.1076
 8449SOL    HW136983   4.025   1.363   5.962  1.4528  1.0569 -0.6877
 8449SOL    HW236984   4.005   1.514   5.969 -0.3606 -0.2851  0.5269
 8450SOL     OW36985   1.139   0.127   5.104  0.4512  0.2263 -0.4163
 8450SOL    HW136986   1.178   0.205   5.144  2.0486 -0.6008 -0.3455
 8450SOL    HW236987   1.208   0.118   5.038  0.6973 -3.5361  0.3370
 8451SOL     OW36988   0.152   2.385   4.309  0.2547 -0.0608  0.6063
 8451SOL    HW136989   0.063   2.404   4.338  1.1746  0.9528  2.7471
 8451SOL    HW236990   0.167   2.450   4.240 -2.2709 -1.9057 -1.6761
 8452SOL     OW36991   2.415   2.157   7.371 -0.3926 -0.1082 -0.1459
 8452SOL    HW136992   2.452   2.234   7.328  0.3784  0.2501  1.1577
 8452SOL    HW236993   2.493   2.114   7.406 -0.5070  1.3909  1.9338
 8453SOL     OW36994   1.995   1.300   6.638  0.2190  0.2918 -0.0356
 8453SOL    HW136995   1.973   1.236   6.571  0.1200 -0.7489  0.9831
 8453SOL    HW236996   2.078   1.267   6.674 -0.0757  0.3213  0.6741
 8454SOL     OW36997   4.498   0.315   2.713 -0.6674 -0.3173  0.1287
 8454SOL    HW136998   4.518   0.242   2.654  1.0575 -0.1055  0.4442
 8454SOL    HW236999   4.443   0.270   2.777  0.7900 -2.7097 -0.2845
 8455SOL     OW37000   2.722   2.915   2.284  0.1142  0.1300 -0.1453
 8455SOL    HW137001   2.785   2.897   2.215  2.7038  1.5997  1.8596
 8455SOL    HW237002   2.644   2.880   2.241 -0.2441  3.3040 -2.0168
 8456SOL     OW37003   1.527   3.781   6.916 -0.1249  0.0891 -0.1230
 8456SOL    HW137004   1.550   3.798   7.008  2.1678  1.2917 -0.9145
 8456SOL    HW237005   1.504   3.689   6.925 -0.4574 -0.0538 -2.4751
 8457SOL     OW37006   2.321   4.166  12.828  0.2060 -0.2368  0.1245
 8457SOL    HW137007   2.248   4.160  12.766  0.5078 -0.6116 -0.1971
 8457SOL    HW237008   2.300   4.246  12.876  0.4534  0.2506 -0.5626
 8458SOL     OW37009   2.338   3.359   5.856  0.1112  0.1009  0.5064
 8458SOL    HW137010   2.403   3.380   5.789 -0.1089 -2.3552 -0.4743
 8458SOL    HW237011   2.386   3.290   5.902  1.3463 -1.4500 -3.0857
 8459SOL     OW37012   3.522   2.579   7.685 -0.1138 -0.3861  0.3485
 8459SOL    HW137013   3.596   2.534   7.727  1.3163  0.1503 -1.6025
 8459SOL    HW237014   3.470   2.503   7.659 -0.2905  0.5912 -2.1567
 8460SOL     OW37015   3.579   0.243   6.096 -0.8967 -0.0758  0.1707
 8460SOL    HW137016   3.620   0.231   6.011 -0.3531 -0.3811  0.4738
 8460SOL    HW237017   3.490   0.249   6.062 -0.3300  1.2800 -1.0834
 8461SOL     OW37018   0.177   1.346   3.357  0.2697 -0.4667  0.3846
 8461SOL    HW137019   0.232   1.309   3.426 -1.0130 -1.2491  0.9966
 8461SOL    HW237020   0.095   1.348   3.407 -0.1093  1.7106 -0.3166
 8462SOL     OW37021   2.385   3.640   2.440 -0.1057  0.4792  0.0529
 8462SOL    HW137022   2.362   3.716   2.387 -1.2293 -0.1519 -0.3727
 8462SOL    HW237023   2.437   3.588   2.380 -2.6766 -2.0186  0.0031
 8463SOL     OW37024   4.621   0.738   2.068  0.6423  0.0585 -0.0978
 8463SOL    HW137025   4.591   0.650   2.049  0.2320  0.1469  0.1434
 8463SOL    HW237026   4.561   0.777   2.132  2.0025  1.1318  0.5252
 8464SOL     OW37027   2.261   4.280   7.782  0.2592  0.0701 -0.5958
 8464SOL    HW137028   2.347   4.238   7.786  0.4810  0.7505  1.9335
 8464SOL    HW237029   2.212   4.215   7.833 -0.7464  0.6140 -0.8494
 8465SOL     OW37030   2.815   2.115   0.403  0.5643 -0.3808  0.1906
 8465SOL    HW137031   2.820   2.139   0.495 -1.3362  0.6224  0.0247
 8465SOL    HW237032   2.788   2.025   0.418  0.1404 -0.1875  0.5724
 8466SOL     OW37033   4.435   3.224   3.909  0.8282  0.2135 -0.0890
 8466SOL    HW137034   4.417   3.308   3.866 -0.4970  2.3768  4.6864
 8466SOL    HW237035   4.517   3.201   3.865 -1.0439 -1.8112 -2.5493
 8467SOL     OW37036   4.589   3.791   9.363  0.7355  0.7186 -0.7411
 8467SOL    HW137037   4.518   3.789   9.428  0.6841 -0.0369 -0.8181
 8467SOL    HW237038   4.591   3.884   9.340  0.4059  0.8317 -0.3178
 8468SOL     OW37039   3.866   1.753   0.879 -0.3642 -0.3675  0.2868
 8468SOL    HW137040   3.840   1.814   0.810 -0.6524 -0.9349 -0.1085
 8468SOL    HW237041   3.792   1.693   0.893 -1.4615  1.2247  1.3238
 8469SOL     OW37042   3.434   3.131  16.310  0.1531  0.0127  0.5030
 8469SOL    HW137043   3.417   3.062  16.245 -1.5532 -0.1128  1.0818
 8469SOL    HW237044   3.493   3.184  16.255 -0.5436 -1.6698 -1.8728
 8470SOL     OW37045   4.126   2.662   7.551 -0.0861  0.2191  0.2485
 8470SOL    HW137046   4.055   2.599   7.547 -0.1425  0.2726  0.4474
 8470SOL    HW237047   4.095   2.732   7.609 -1.0605 -0.9970  1.1688
 8471SOL     OW37048   0.500   2.563   2.564 -0.0168 -0.0177  0.2003
 8471SOL    HW137049   0.450   2.497   2.514 -0.5278  0.1493  0.4907
 8471SOL    HW237050   0.452   2.644   2.547 -0.8341 -0.2023  1.7006
 8472SOL     OW37051   0.841   2.039   0.267 -0.1610  0.0870 -0.4399
 8472SOL    HW137052   0.777   2.104   0.296 -0.1418 -0.3516  0.5859
 8472SOL    HW237053   0.876   2.012   0.352 -2.9347  0.9978  1.0096
 8473SOL     OW37054   2.021   2.448   5.953  0.1028 -0.3346 -0.0151
 8473SOL    HW137055   2.054   2.532   5.985 -2.2855  0.9731 -0.9137
 8473SOL    HW237056   1.927   2.447   5.973  0.7326 -0.5159  2.9767
 8474SOL     OW37057   3.028   2.884   3.865  0.2302 -0.3346  0.3081
 8474SOL    HW137058   2.947   2.898   3.815  0.8633 -1.4409 -1.0172
 8474SOL    HW237059   3.094   2.904   3.798 -0.4626 -1.1333 -0.6216
 8475SOL     OW37060   1.981   0.479   0.604  0.3780 -0.0359  0.3318
 8475SOL    HW137061   1.997   0.569   0.633 -1.2527 -0.2059  1.7392
 8475SOL    HW237062   1.886   0.490   0.600  0.4295  0.8619  1.5024
 8476SOL     OW37063   1.184   3.518   7.435  0.1502 -0.6454 -0.3102
 8476SOL    HW137064   1.249   3.534   7.503  0.8146  0.4109 -1.1878
 8476SOL    HW237065   1.152   3.606   7.416 -2.5211 -1.6604 -0.3849
 8477SOL     OW37066   2.290   4.026   6.134 -0.4866 -0.3162 -0.8173
 8477SOL    HW137067   2.201   4.039   6.101 -1.4537 -0.0058  1.9337
 8477SOL    HW237068   2.273   4.029   6.228 -0.9176  1.5586 -0.9592
 8478SOL     OW37069   0.399   0.319  12.978  0.0654 -0.3799  0.4494
 8478SOL    HW137070   0.425   0.357  13.062  1.1241 -0.2711  0.0587
 8478SOL    HW237071   0.476   0.279  12.939 -2.3273 -3.3003 -1.3399
 8479SOL     OW37072   0.242   2.198  10.009 -0.0359  0.4492 -0.4327
 8479SOL    HW137073   0.220   2.124  10.065 -2.5020  0.2812 -1.6479
 8479SOL    HW237074   0.197   2.271  10.052 -0.1316 -0.0398  0.2918
 8480SOL     OW37075   2.824   1.930   5.334  0.0695  0.5342  0.4661
 8480SOL    HW137076   2.791   1.852   5.380 -1.5373  0.5120 -0.7217
 8480SOL    HW237077   2.825   1.992   5.407 -0.3892 -0.1600  1.0669
 8481SOL     OW37078   3.975   2.821   3.525  0.5578 -0.1321 -0.3828
 8481SOL    HW137079   3.978   2.751   3.591  1.0238  0.8084  0.5978
 8481SOL    HW237080   4.024   2.782   3.453 -0.2339  1.5128 -1.8140
 8482SOL     OW37081   2.000   1.772   9.352  0.4152  0.1723  0.3199
 8482SOL    HW137082   1.998   1.742   9.261  2.7547  1.1308 -0.0552
 8482SOL    HW237083   1.974   1.693   9.400 -0.5512  0.6515  0.5879
 8483SOL     OW37084   4.727   1.478   4.458  0.3590  0.1286  0.5770
 8483SOL    HW137085   0.039   1.418   4.398  0.8670 -0.6231  1.7130
 8483SOL    HW237086   0.047   1.556   4.450 -0.2862  0.7858  2.6887
 8484SOL     OW37087   2.940   1.830   2.163 -0.3181 -0.5763  0.1605
 8484SOL    HW137088   2.965   1.916   2.130  1.4136 -2.4829 -3.5127
 8484SOL    HW237089   2.913   1.786   2.083  1.9442 -1.7851  0.0707
 8485SOL     OW37090   4.210   2.279  13.710  0.2006  0.0734  0.0499
 8485SOL    HW137091   4.140   2.331  13.671  2.5153  3.6479  0.7181
 8485SOL    HW237092   4.294   2.302  13.670  0.9618 -0.9511  1.0222
 8486SOL     OW37093   4.686   2.651   2.239  0.4277  0.5899 -0.0592
 8486SOL    HW137094   4.701   2.613   2.325 -0.0560  1.7039  0.5322
 8486SOL    HW237095   4.660   2.741   2.263 -1.4559  0.5310 -1.8578
 8487SOL     OW37096   2.230   4.102   6.737  0.8834 -0.0114  0.0767
 8487SOL    HW137097   2.150   4.155   6.739 -0.3155 -1.7460 -2.1301
 8487SOL    HW237098   2.199   4.013   6.723 -1.5924  0.8145  0.2423
 8488SOL     OW37099   2.913   1.486   5.493 -0.6979 -0.0301  0.2374
 8488SOL    HW137100   2.965   1.439   5.559  0.4497 -1.5188 -1.7070
 8488SOL    HW237101   2.892   1.566   5.541 -0.9086  0.4155 -0.5985
 8489SOL     OW37102   2.984   3.774   8.166 -0.6281 -0.4463  0.4263
 8489SOL    HW137103   3.048   3.806   8.229  2.1887 -0.7662 -2.2719
 8489SOL    HW237104   2.910   3.765   8.226  0.9670 -1.1862  2.2811
 8490SOL     OW37105   0.660   0.218   9.320  0.4293  0.0133 -0.0488
 8490SOL    HW137106   0.712   0.164   9.260  0.6007  0.0977  0.0263
 8490SOL    HW237107   0.640   0.155   9.389  0.6451  2.2356  2.0329
 8491SOL     OW37108   1.768   3.006   9.581 -0.0170  0.0057 -0.0298
 8491SOL    HW137109   1.849   3.046   9.612 -1.1610  0.6264  2.1721
 8491SOL    HW237110   1.814   2.924   9.562 -1.3426 -0.6903 -0.2460
 8492SOL     OW37111   0.471   2.421  11.910  0.2885 -0.0706 -0.4963
 8492SOL    HW137112   0.390   2.459  11.877 -0.1981 -1.8035 -1.2734
 8492SOL    HW237113   0.525   2.443  11.834  0.6904 -0.4255 -0.3122
 8493SOL     OW37114   4.671   3.327   0.061  0.7630  0.0562 -0.0425
 8493SOL    HW137115   4.619   3.267   0.116  1.7952 -0.1715  0.6977
 8493SOL    HW237116   4.618   3.334  17.717 -0.6375  2.2431  1.0938
 8494SOL     OW37117   1.556   4.118   5.438 -0.9929 -0.2376  0.4169
 8494SOL    HW137118   1.503   4.122   5.359 -0.5062  0.5937  0.1280
 8494SOL    HW237119   1.496   4.092   5.508 -0.1260 -1.0941  0.8447
 8495SOL     OW37120   0.247   1.778   2.240 -0.7116 -0.1163  0.3204
 8495SOL    HW137121   0.213   1.732   2.317 -0.9126 -0.3765  0.0762
 8495SOL    HW237122   0.272   1.712   2.176 -0.0652 -0.7827  1.2694
 8496SOL     OW37123   3.911   3.786   4.149  0.0503 -0.5250 -0.3443
 8496SOL    HW137124   3.927   3.870   4.106 -3.2627 -0.3156 -1.2152
 8496SOL    HW237125   3.888   3.720   4.082 -3.0941  0.3010 -0.0775
 8497SOL     OW37126   2.385   2.091  11.293 -0.5873  0.5634 -0.6030
 8497SOL    HW137127   2.299   2.088  11.251 -1.2274  0.9766  0.6741
 8497SOL    HW237128   2.436   2.076  11.213 -0.4781 -1.4156 -0.1766
 8498SOL     OW37129   2.198   2.792   3.381  0.3690 -0.5014 -0.4707
 8498SOL    HW137130   2.135   2.736   3.336  0.7176 -1.2655 -0.0162
 8498SOL    HW237131   2.145   2.867   3.409  0.1299 -1.3418  1.2895
 8499SOL     OW37132   4.720   1.019   3.943  0.4033 -0.0914  0.6144
 8499SOL    HW137133   4.683   0.974   4.018  0.6081  0.2142  0.8996
 8499SOL    HW237134   0.058   1.071   3.979  0.6136  1.2023 -1.6724
 8500SOL     OW37135   0.137   2.354  12.597  0.1035  0.1888 -0.2176
 8500SOL    HW137136   0.171   2.335  12.685  0.5834  3.3016  0.2827
 8500SOL    HW237137   0.154   2.448  12.600 -0.0209  0.2385 -1.3662
 8501SOL     OW37138   2.839   3.412   6.608  0.1064  0.1525 -0.9803
 8501SOL    HW137139   2.817   3.505   6.619 -1.7186 -0.4998  1.1082
 8501SOL    HW237140   2.890   3.402   6.688 -1.2732  2.5060  0.1947
 8502SOL     OW37141   1.835   2.667   9.254  0.4334 -0.2531 -0.0133
 8502SOL    HW137142   1.846   2.634   9.165  1.7737 -0.7628  0.3520
 8502SOL    HW237143   1.739   2.670   9.254  0.4106 -1.1584  0.6781
 8503SOL     OW37144   4.470   2.332   2.937 -0.5495  0.2924  0.0459
 8503SOL    HW137145   4.446   2.241   2.954 -0.6680  0.7882  2.5155
 8503SOL    HW237146   4.559   2.336   2.970 -1.2849 -2.2395  2.3333
 8504SOL     OW37147   3.809   1.800   9.028  0.8001  0.1077 -0.4142
 8504SOL    HW137148   3.763   1.748   8.962  2.0525 -1.8162  0.2160
 8504SOL    HW237149   3.733   1.838   9.071  1.0035  0.5623 -0.4557
 8505SOL     OW37150   3.968   0.710   4.295  0.3670  0.5867  0.5125
 8505SOL    HW137151   3.910   0.785   4.302 -1.6119 -1.0105  1.1408
 8505SOL    HW237152   4.025   0.741   4.225 -0.4758 -0.1244 -0.4939
 8506SOL     OW37153   0.317   2.889   9.860 -0.3740  0.3299 -0.1723
 8506SOL    HW137154   0.284   2.814   9.811 -1.2751  0.1964  0.6425
 8506SOL    HW237155   0.348   2.852   9.942 -4.2434 -2.5711 -0.0428
 8507SOL     OW37156   1.270   3.084  17.498  0.4234 -0.5405 -0.5826
 8507SOL    HW137157   1.349   3.034  17.475  1.0279  0.0693  0.1694
 8507SOL    HW237158   1.203   3.017  17.489  0.7252 -0.6977 -1.7015
 8508SOL     OW37159   2.492   0.345   9.054  0.5459  0.4377  0.7060
 8508SOL    HW137160   2.527   0.305   8.974  0.4658 -3.6031  2.6526
 8508SOL    HW237161   2.565   0.399   9.084 -1.1056  1.8681  2.1198
 8509SOL     OW37162   4.002   4.071   3.866 -0.4399 -0.3301  0.6716
 8509SOL    HW137163   3.972   4.070   3.958 -2.1797  1.2681  0.1263
 8509SOL    HW237164   4.030   4.162   3.862 -1.7529  0.1325  2.0086
 8510SOL     OW37165   1.776   3.078  13.164 -0.5525  0.1610  0.7964
 8510SOL    HW137166   1.683   3.091  13.150 -0.4108  1.2891  0.8377
 8510SOL    HW237167   1.813   3.166  13.156  0.0014 -0.3645 -2.2422
 8511SOL     OW37168   2.480   2.024   7.647 -0.4403  0.0448 -0.3262
 8511SOL    HW137169   2.489   1.959   7.578  0.5485 -0.4768  0.2911
 8511SOL    HW237170   2.570   2.021   7.679 -0.0901  0.4420 -1.2848
 8512SOL     OW37171   3.242   3.539   9.325  0.9003  0.0087 -0.4080
 8512SOL    HW137172   3.209   3.495   9.403 -1.7456  1.9036 -0.4514
 8512SOL    HW237173   3.209   3.625   9.351 -1.9710 -0.3267 -2.9095
 8513SOL     OW37174   1.698   4.170   8.860 -0.2818 -0.1554  0.4459
 8513SOL    HW137175   1.608   4.140   8.853 -0.5081  1.4700 -3.6234
 8513SOL    HW237176   1.693   4.265   8.873  1.4463  0.1126 -0.8567
 8514SOL     OW37177   2.189   0.446  14.625  0.3759  0.0962 -0.6408
 8514SOL    HW137178   2.263   0.433  14.683  0.0576 -1.3436 -0.5631
 8514SOL    HW237179   2.163   0.355  14.615 -0.3394  0.3020 -0.6752
 8515SOL     OW37180   0.331   3.685   8.576 -0.0016 -0.2330 -0.1891
 8515SOL    HW137181   0.411   3.666   8.528  0.7236 -0.0189  0.9370
 8515SOL    HW237182   0.321   3.602   8.622 -1.5171 -0.0514 -0.1974
 8516SOL     OW37183   3.640   2.509   1.890 -0.1297 -0.0063 -0.3614
 8516SOL    HW137184   3.699   2.434   1.886 -1.7671 -1.3068 -0.2193
 8516SOL    HW237185   3.702   2.581   1.886 -0.4691  0.3188  0.3316
 8517SOL     OW37186   0.552   2.681   1.916 -0.6083  0.1359  0.0643
 8517SOL    HW137187   0.579   2.666   1.826 -0.3795  0.8223  0.0212
 8517SOL    HW237188   0.482   2.615   1.921 -0.9897  0.4660 -0.9056
 8518SOL     OW37189   2.725   2.294   6.327 -0.0761  0.0019 -0.3341
 8518SOL    HW137190   2.683   2.290   6.241  1.1730 -0.5434 -0.9191
 8518SOL    HW237191   2.818   2.290   6.307 -0.2611  2.9747 -1.8915
 8519SOL     OW37192   4.705   2.387   9.961 -0.2580 -0.5640  0.3593
 8519SOL    HW137193   0.032   2.385  10.034  0.2408 -1.0290 -0.0755
 8519SOL    HW237194   4.639   2.331  10.001 -0.4229 -0.4650  0.2320
 8520SOL     OW37195   4.412   3.874   5.783  0.6321  0.0659  0.0146
 8520SOL    HW137196   4.398   3.943   5.848 -0.5498  1.1462 -1.3738
 8520SOL    HW237197   4.505   3.874   5.763  0.1196  0.9104 -2.3554
 8521SOL     OW37198   2.870   0.836   7.293  0.2338  0.0801  0.3600
 8521SOL    HW137199   2.775   0.832   7.294  0.2012  0.6088 -1.9669
 8521SOL    HW237200   2.893   0.796   7.209 -3.5920 -3.4413  0.9860
 8522SOL     OW37201   3.044   2.776   1.810  0.2550 -0.1116 -0.1666
 8522SOL    HW137202   3.135   2.793   1.836  1.1957 -1.5301 -2.4575
 8522SOL    HW237203   3.053   2.686   1.777  0.0500  0.1677 -0.9786
 8523SOL     OW37204   1.466   3.167   0.590  0.1372  0.1302 -0.1944
 8523SOL    HW137205   1.376   3.189   0.568  0.3274  2.2265  1.1266
 8523SOL    HW237206   1.452   3.086   0.640  2.0144 -0.1402 -0.1054
 8524SOL     OW37207   2.413   1.155   3.136 -0.4798  0.4495 -0.3313
 8524SOL    HW137208   2.375   1.070   3.156 -0.5196  0.3828 -0.6859
 8524SOL    HW237209   2.356   1.216   3.183 -0.4519  0.3957 -0.2291
 8525SOL     OW37210   3.925   0.783   8.998 -0.8066  0.5713  0.3540
 8525SOL    HW137211   3.969   0.814   8.919 -2.5036  1.2335 -0.3360
 8525SOL    HW237212   3.892   0.862   9.041  2.7957  1.4259  1.5143
 8526SOL     OW37213   3.580   2.133   2.901 -0.4789 -0.3834 -0.3255
 8526SOL    HW137214   3.649   2.195   2.923  0.5051 -0.9553 -1.8084
 8526SOL    HW237215   3.627   2.053   2.878 -0.4045 -1.1165  2.3772
 8527SOL     OW37216   2.190   0.855   2.482  0.3939 -0.5119 -0.0561
 8527SOL    HW137217   2.182   0.946   2.454  2.8102  0.1875  1.5234
 8527SOL    HW237218   2.283   0.845   2.461  0.6830 -1.0447  1.4942
 8528SOL     OW37219   0.614   3.422  10.748  0.0162 -0.5098 -0.5638
 8528SOL    HW137220   0.564   3.436  10.828 -0.0059 -2.2416 -0.2829
 8528SOL    HW237221   0.703   3.407  10.781 -0.3763  3.4944  2.3334
 8529SOL     OW37222   1.397   1.401   0.126  0.2473 -0.7024 -0.7744
 8529SOL    HW137223   1.456   1.474   0.111 -0.3914  0.2718  1.5641
 8529SOL    HW237224   1.340   1.420   0.051  0.0239 -0.1896 -0.4718
 8530SOL     OW37225   3.647   4.552  13.549 -0.1557  0.2598  0.3490
 8530SOL    HW137226   3.732   4.527  13.585 -0.4099  1.0661  1.5109
 8530SOL    HW237227   3.669   4.607  13.474  0.7274 -0.0334  0.3957
 8531SOL     OW37228   1.398   4.223  14.199  0.2863  0.6642  0.4531
 8531SOL    HW137229   1.329   4.251  14.138  1.7662  0.8200 -1.1422
 8531SOL    HW237230   1.441   4.159  14.143  0.6401  1.1792  0.1266
 8532SOL     OW37231   3.861   0.674   6.249  0.2693  0.4118  0.2516
 8532SOL    HW137232   3.766   0.680   6.239  0.3877 -0.2135 -1.2744
 8532SOL    HW237233   3.848   0.604   6.314 -2.4713 -0.5306 -1.2773
 8533SOL     OW37234   0.770   0.335   8.582  0.1445 -0.0800 -0.1059
 8533SOL    HW137235   0.731   0.367   8.664 -0.2670 -1.3309  0.1899
 8533SOL    HW237236   0.861   0.348   8.608  0.1343  0.5334 -0.3785
 8534SOL     OW37237   4.211   1.829   4.762 -0.3230  0.0274  0.2728
 8534SOL    HW137238   4.255   1.755   4.722  1.4324  0.7148  0.9306
 8534SOL    HW237239   4.132   1.787   4.796 -0.8415 -0.6852 -1.8507
 8535SOL     OW37240   4.674   1.239   5.963 -0.7864  0.4675  0.0282
 8535SOL    HW137241   4.691   1.333   5.971 -0.4428  0.4799 -0.9134
 8535SOL    HW237242   4.708   1.206   6.047  2.5339  0.8404 -1.1434
 8536SOL     OW37243   0.941   3.592   8.758 -0.4646 -0.1659  0.0187
 8536SOL    HW137244   1.028   3.555   8.741  0.2800  1.6146 -0.0587
 8536SOL    HW237245   0.889   3.530   8.706 -2.9064 -0.9050  3.3857
 8537SOL     OW37246   0.896   3.566  14.093 -0.6789  0.2380  0.2742
 8537SOL    HW137247   0.830   3.513  14.050  0.4410 -0.4001 -0.6636
 8537SOL    HW237248   0.842   3.609  14.160 -0.3981 -0.7281  1.1211
 8538SOL     OW37249   0.104   0.305   3.391 -0.0221 -0.3313  0.3542
 8538SOL    HW137250   0.050   0.283   3.315  2.3080 -1.4546 -0.9897
 8538SOL    HW237251   0.039   0.353   3.442  0.3002  0.6854 -0.1945
 8539SOL     OW37252   3.767   0.671   4.692 -0.2819 -0.0471 -0.1822
 8539SOL    HW137253   3.815   0.705   4.767 -2.0160  1.8045  0.0825
 8539SOL    HW237254   3.686   0.641   4.733 -0.1257  0.5070  0.5207
 8540SOL     OW37255   2.584   4.719  15.261 -0.0951 -0.1970  0.5392
 8540SOL    HW137256   2.623   4.638  15.295 -2.5262 -1.1139  1.0844
 8540SOL    HW237257   2.601   0.053  15.326 -3.4094 -0.5829  1.7967
 8541SOL     OW37258   3.277   3.640   3.092  0.1204  0.0132  0.4390
 8541SOL    HW137259   3.275   3.677   3.181  0.6908  1.5431 -0.1770
 8541SOL    HW237260   3.210   3.574   3.105 -0.8029  0.6530 -1.0280
 8542SOL     OW37261   0.142   4.499   7.826  0.1140 -0.4824 -0.9635
 8542SOL    HW137262   0.088   4.575   7.849  1.5681  0.2354  0.0081
 8542SOL    HW237263   0.213   4.547   7.785  2.6764 -2.8665  0.6948
 8543SOL     OW37264   2.574   1.023   2.913 -0.5112  0.2202  0.0453
 8543SOL    HW137265   2.517   0.953   2.882  0.6635 -2.4167  3.8324
 8543SOL    HW237266   2.520   1.069   2.977 -1.4830 -2.3803  1.1047
 8544SOL     OW37267   3.954   2.831   5.782 -0.1226  0.2819  0.5259
 8544SOL    HW137268   3.942   2.743   5.746 -0.2890  0.8296 -0.7685
 8544SOL    HW237269   3.950   2.884   5.702 -0.8328 -0.5889 -0.0261
 8545SOL     OW37270   1.523   4.431   4.173 -0.0748  0.2660  0.0519
 8545SOL    HW137271   1.509   4.360   4.111  0.1634  0.0367  0.2642
 8545SOL    HW237272   1.462   4.498   4.142  2.1065  2.7705  1.1546
 8546SOL     OW37273   2.778   0.909  10.876 -0.2190  0.2646 -0.4824
 8546SOL    HW137274   2.862   0.874  10.845  0.0030  0.2078  0.2009
 8546SOL    HW237275   2.760   0.847  10.946 -0.2125 -0.6872 -1.3147
 8547SOL     OW37276   2.546   2.837  13.095  0.2662 -0.2092  1.0169
 8547SOL    HW137277   2.623   2.787  13.121  0.9172  0.2582 -0.0116
 8547SOL    HW237278   2.538   2.809  13.004  2.8792 -2.5173  1.5198
 8548SOL     OW37279   2.587   1.679   5.110  0.1157  0.2292 -0.0103
 8548SOL    HW137280   2.533   1.754   5.138 -1.1148  0.0705 -1.9690
 8548SOL    HW237281   2.675   1.715   5.100 -0.5348  1.8027 -0.1625
 8549SOL     OW37282   1.983   0.220   5.520 -0.1227  0.0713 -0.1272
 8549SOL    HW137283   2.000   0.260   5.605 -3.1240  2.6019 -0.7424
 8549SOL    HW237284   1.980   0.127   5.544  1.1456  0.0408 -0.0942
 8550SOL     OW37285   3.017   1.937   4.385 -0.0080  0.3735 -0.8494
 8550SOL    HW137286   2.995   1.992   4.460  3.6464  0.3561  0.2634
 8550SOL    HW237287   2.956   1.976   4.323 -2.2089 -0.4647  0.7722
 8551SOL     OW37288   3.359   0.114   4.377  0.7183  0.1468  0.3125
 8551SOL    HW137289   3.334   0.025   4.398 -0.4639  0.8529  1.9162
 8551SOL    HW237290   3.422   0.096   4.307 -1.1523 -1.5495 -0.9306
 8552SOL     OW37291   2.149   4.396  16.133  0.0615  0.2863  0.1476
 8552SOL    HW137292   2.123   4.355  16.216  0.7857  0.7351  0.5960
 8552SOL    HW237293   2.113   4.483  16.149  0.0828 -0.0043  1.8105
 8553SOL     OW37294   0.914   1.968   0.525  0.4860  0.1847 -0.2955
 8553SOL    HW137295   0.994   1.921   0.548 -0.0451 -1.6284 -2.0771
 8553SOL    HW237296   0.887   2.013   0.605  2.0837  1.9820 -0.7536
 8554SOL     OW37297   3.487   4.159   7.708  0.3476  0.7797  0.1463
 8554SOL    HW137298   3.539   4.238   7.693  1.0987  0.0033 -1.3870
 8554SOL    HW237299   3.506   4.138   7.800  1.3889 -1.7934 -0.6366
 8555SOL     OW37300   4.225   2.299   6.463 -0.2064  0.4149 -0.4319
 8555SOL    HW137301   4.180   2.217   6.441 -0.4150  0.0076  1.5058
 8555SOL    HW237302   4.301   2.282   6.407 -1.3035 -2.2425 -1.1311
 8556SOL     OW37303   1.525   2.827  14.061  0.4111  0.4461  0.2404
 8556SOL    HW137304   1.537   2.845  14.155 -1.7158 -0.3502  0.6657
 8556SOL    HW237305   1.558   2.910  14.027  3.1620 -1.1742 -1.0426
 8557SOL     OW37306   2.814   2.063   2.026  0.2132 -0.0121  0.2391
 8557SOL    HW137307   2.829   2.040   1.935  1.2127  0.3566  0.3065
 8557SOL    HW237308   2.723   2.086   2.007  0.6975  0.2950 -1.7322
 8558SOL     OW37309   1.085   3.386  15.888 -0.3485 -0.3070  0.1409
 8558SOL    HW137310   1.018   3.355  15.949 -0.0656  1.0464  1.1434
 8558SOL    HW237311   1.032   3.432  15.824 -0.7910 -1.6254 -0.4374
 8559SOL     OW37312   0.527   2.808   2.249 -0.1053 -0.0675  0.3809
 8559SOL    HW137313   0.522   2.903   2.242 -0.9262 -0.0674  1.0636
 8559SOL    HW237314   0.485   2.781   2.167  2.7366 -0.0845 -1.0683
 8560SOL     OW37315   1.645   0.599   2.806 -0.2771 -0.0145  0.2255
 8560SOL    HW137316   1.571   0.624   2.862 -0.2716  0.6618 -0.0658
 8560SOL    HW237317   1.593   0.578   2.729  0.3547  1.1889 -0.5317
 8561SOL     OW37318   0.972   4.634   6.878  0.3626 -0.1512  0.1004
 8561SOL    HW137319   0.885   4.594   6.887  1.0409 -1.1433  2.1255
 8561SOL    HW237320   0.969   4.700   6.947 -1.0138  0.4123 -0.4890
 8562SOL     OW37321   3.486   0.812   1.856  0.6867 -0.2039  0.1738
 8562SOL    HW137322   3.472   0.852   1.770  0.2820 -0.1797  0.2542
 8562SOL    HW237323   3.579   0.830   1.870  0.6810 -1.3377  1.6806
 8563SOL     OW37324   4.030   1.949   9.074  0.1330  0.4735  1.0824
 8563SOL    HW137325   3.950   1.902   9.051 -0.4921  2.4989 -0.8182
 8563SOL    HW237326   4.016   2.027   9.021 -0.4506 -0.4097 -0.0670
 8564SOL     OW37327   2.813   2.055   5.566 -0.3575 -0.7521 -0.0528
 8564SOL    HW137328   2.867   2.134   5.570 -2.5244  0.8524 -2.7421
 8564SOL    HW237329   2.745   2.080   5.628  3.8183  0.6649  3.9663
 8565SOL     OW37330   4.562   3.131   7.497 -0.2608 -0.3195  0.1746
 8565SOL    HW137331   4.480   3.084   7.511 -1.2514  1.4918  0.4992
 8565SOL    HW237332   4.609   3.056   7.462 -1.6595 -1.2447  0.2612
 8566SOL     OW37333   2.482   2.811  12.843 -0.5419 -0.4793  0.6474
 8566SOL    HW137334   2.519   2.863  12.771  0.6571 -0.2584  1.4269
 8566SOL    HW237335   2.563   2.760  12.857  0.3675  0.7847 -0.0370
 8567SOL     OW37336   0.353   3.685  13.760 -0.0187  0.2740 -0.6713
 8567SOL    HW137337   0.301   3.701  13.681 -0.4907  1.1129 -0.1917
 8567SOL    HW237338   0.306   3.611  13.799 -1.2123 -0.6955 -3.8952
 8568SOL     OW37339   3.757   2.241   3.330  0.0025  0.2340 -0.2927
 8568SOL    HW137340   3.842   2.219   3.292  0.2236  1.4851 -0.5395
 8568SOL    HW237341   3.699   2.245   3.253 -0.1462  0.7907 -0.1555
 8569SOL     OW37342   1.524   0.851   5.566 -0.2111 -0.0788  0.1557
 8569SOL    HW137343   1.564   0.871   5.651  0.7366 -0.6877 -0.1497
 8569SOL    HW237344   1.450   0.912   5.565 -0.2286 -0.1243 -0.5909
 8570SOL     OW37345   1.678   0.201   9.380 -0.1937 -0.0550 -0.1982
 8570SOL    HW137346   1.638   0.115   9.371  0.9280 -0.5347 -0.6648
 8570SOL    HW237347   1.769   0.181   9.356  0.4579 -0.2754  2.4815
 8571SOL     OW37348   2.002   1.949   7.374 -0.4732  0.4787 -0.0379
 8571SOL    HW137349   1.992   1.859   7.340 -0.1771 -0.8636  3.4676
 8571SOL    HW237350   1.989   1.932   7.467 -0.1830 -2.7052 -0.5501
 8572SOL     OW37351   1.254   1.027   4.759  0.1334  0.0153  0.3863
 8572SOL    HW137352   1.323   0.979   4.714 -0.6687 -0.2833 -0.5080
 8572SOL    HW237353   1.245   1.096   4.694  0.9590  0.1282  0.3995
 8573SOL     OW37354   1.084   1.856  16.871  0.3694 -0.2247 -0.4189
 8573SOL    HW137355   1.038   1.930  16.830  1.6260  0.7512 -0.0792
 8573SOL    HW237356   1.129   1.828  16.791  0.4404 -1.7417  0.1613
 8574SOL     OW37357   1.578   2.342  14.661  0.0363 -0.3570  0.2433
 8574SOL    HW137358   1.512   2.378  14.601 -0.9873 -0.7860  1.1003
 8574SOL    HW237359   1.643   2.410  14.643 -0.7125  0.3307  0.1332
 8575SOL     OW37360   0.187   4.520   9.192  0.1604  0.3197  0.2233
 8575SOL    HW137361   0.247   4.522   9.118 -0.9630  2.3333 -0.6460
 8575SOL    HW237362   0.239   4.472   9.256 -1.2654 -2.0783 -0.4235
 8576SOL     OW37363   0.939   3.887   8.275 -0.2563  0.0696 -0.7557
 8576SOL    HW137364   0.932   3.884   8.370  0.1948  1.1394 -0.6795
 8576SOL    HW237365   0.972   3.799   8.259 -0.3955  0.2044 -1.7623
 8577SOL     OW37366   4.406   1.789   9.384 -0.5066  0.4826 -0.3227
 8577SOL    HW137367   4.391   1.713   9.327  1.9542  0.6302 -1.1393
 8577SOL    HW237368   4.358   1.752   9.458 -1.9168 -1.4130 -2.1649
 8578SOL     OW37369   0.986   3.967   4.593 -0.0103 -0.0099 -0.3692
 8578SOL    HW137370   1.073   3.974   4.634 -1.0721  0.1288  1.8958
 8578SOL    HW237371   0.991   3.896   4.530  0.7450  0.3900 -0.7545
 8579SOL     OW37372   4.075   1.753  11.597  0.4949  0.0287  0.2774
 8579SOL    HW137373   3.980   1.743  11.606  0.1595  0.0128 -3.5139
 8579SOL    HW237374   4.106   1.718  11.680 -2.6917  1.7399  2.2157
 8580SOL     OW37375   1.093   1.383   0.734 -0.2188 -0.0922  0.5415
 8580SOL    HW137376   1.005   1.374   0.768  0.4685 -1.5428  1.9430
 8580SOL    HW237377   1.137   1.443   0.794 -0.5358  0.9712 -0.2948
 8581SOL     OW37378   1.739   4.546   8.041  0.5701 -0.2046  0.3497
 8581SOL    HW137379   1.713   4.463   8.081  1.0737  0.0766  1.2648
 8581SOL    HW237380   1.698   4.547   7.955 -0.9461  0.4621  1.0792
 8582SOL     OW37381   3.906   0.339  13.361 -0.2399 -0.6227  0.1665
 8582SOL    HW137382   3.875   0.424  13.332  0.1067 -0.6990 -0.4378
 8582SOL    HW237383   3.884   0.288  13.283 -2.9888 -1.7575  1.6746
 8583SOL     OW37384   3.849   0.143  14.102  0.4739 -0.2953  0.2645
 8583SOL    HW137385   3.886   0.204  14.038  1.1734 -1.6031 -0.5801
 8583SOL    HW237386   3.841   0.066  14.046 -0.1133 -2.3466  3.2188
 8584SOL     OW37387   4.434   4.407   5.685  0.5924  0.5924 -0.5117
 8584SOL    HW137388   4.493   4.386   5.757  0.6198  1.2382 -0.3521
 8584SOL    HW237389   4.490   4.448   5.619 -0.5264 -1.2825 -2.6390
 8585SOL     OW37390   2.660   1.262   8.382 -0.5945 -0.5793  0.0625
 8585SOL    HW137391   2.594   1.284   8.447  0.5759  1.3142  0.6180
 8585SOL    HW237392   2.626   1.178   8.350 -0.4609 -0.5738 -0.0909
 8586SOL     OW37393   0.070   1.274  10.856  0.7168  0.7887 -0.5696
 8586SOL    HW137394   0.158   1.298  10.883  0.3579 -0.7546  2.0174
 8586SOL    HW237395   0.063   1.315  10.770  1.1452  2.5774  0.2669
 8587SOL     OW37396   0.699   2.312   7.273 -0.3796  0.8118 -0.5729
 8587SOL    HW137397   0.649   2.314   7.354  0.9550  0.4210  0.2591
 8587SOL    HW237398   0.779   2.358   7.298  0.0586 -1.5961  2.3541
 8588SOL     OW37399   4.088   0.659   9.205  0.7481  0.0136  0.3336
 8588SOL    HW137400   4.052   0.689   9.121  1.7901 -2.1767 -0.9075
 8588SOL    HW237401   4.031   0.708   9.264 -0.8752  0.0884 -1.2915
 8589SOL     OW37402   4.320   0.294   9.097 -0.2897 -0.4488  0.2468
 8589SOL    HW137403   4.259   0.253   9.158  0.1344 -1.1527  0.2035
 8589SOL    HW237404   4.264   0.278   9.021  0.3854  0.3046 -0.4153
 8590SOL     OW37405   2.162   0.213   7.683  0.3657  0.6366 -0.4632
 8590SOL    HW137406   2.187   0.212   7.591  0.2831 -0.4278 -0.4705
 8590SOL    HW237407   2.078   0.170   7.666  0.7088 -0.1905 -0.0262
 8591SOL     OW37408   2.005   2.465  14.796 -0.6171  0.0387  0.5994
 8591SOL    HW137409   2.038   2.416  14.872 -0.4353  0.3615  0.7301
 8591SOL    HW237410   1.985   2.393  14.736  1.9780  1.0303 -1.4213
 8592SOL     OW37411   1.618   2.080   7.408 -0.3197 -0.7770 -0.1253
 8592SOL    HW137412   1.561   2.041   7.342  0.8285  0.8002 -2.0726
 8592SOL    HW237413   1.592   2.035   7.488  2.0715  0.4672  1.3572
 8593SOL     OW37414   3.627   0.749   4.465 -0.4116 -0.5082  0.7929
 8593SOL    HW137415   3.558   0.690   4.496 -0.4018 -0.1959  1.3952
 8593SOL    HW237416   3.687   0.733   4.537  1.8497 -1.4477 -1.3100
 8594SOL     OW37417   2.077   4.482   7.804  0.4352  0.3118  0.0811
 8594SOL    HW137418   2.075   4.522   7.891 -2.4775  0.2365  0.0603
 8594SOL    HW237419   2.167   4.451   7.810  0.2161 -0.3156  0.0321
 8595SOL     OW37420   3.490   3.642   3.792 -0.3323 -0.1611  0.5009
 8595SOL    HW137421   3.513   3.663   3.882 -0.9424  0.2723  0.5503
 8595SOL    HW237422   3.565   3.662   3.735 -1.7932  4.1312  0.0726
 8596SOL     OW37423   1.610   2.318  16.027 -0.3846  0.0177  0.3093
 8596SOL    HW137424   1.678   2.319  16.094  0.0777  1.1418 -0.1804
 8596SOL    HW237425   1.543   2.378  16.061 -1.0655 -0.4126 -0.2572
 8597SOL     OW37426   1.473   2.327   9.999 -0.1214  0.5177 -0.1051
 8597SOL    HW137427   1.565   2.302  10.007 -0.2761  0.6690  1.9606
 8597SOL    HW237428   1.449   2.287   9.915 -0.1054  1.6605 -0.6619
 8598SOL     OW37429   1.698   0.336   2.097  0.1758 -0.1306  0.1332
 8598SOL    HW137430   1.620   0.353   2.044  1.3447 -0.7031 -1.7920
 8598SOL    HW237431   1.733   0.259   2.052 -1.7447 -0.2685 -1.1261
 8599SOL     OW37432   2.048   4.677  16.561  0.6825  0.7071 -0.4704
 8599SOL    HW137433   2.101   0.013  16.599  2.8445 -0.9331 -0.4982
 8599SOL    HW237434   2.028   4.725  16.481  0.5329  2.4370  0.6026
 8600SOL     OW37435   4.709   3.711  12.575 -0.3866 -0.1902 -0.3219
 8600SOL    HW137436   0.025   3.792  12.586 -1.0827  0.3255 -0.9127
 8600SOL    HW237437   4.726   3.677  12.663 -3.6919  1.0272  0.7990
 8601SOL     OW37438   0.805   1.542   8.722 -0.1323  0.0054 -0.2189
 8601SOL    HW137439   0.741   1.489   8.768  0.4390 -0.9342 -0.5073
 8601SOL    HW237440   0.853   1.578   8.797  0.4213 -1.6645  0.2186
 8602SOL     OW37441   0.554   0.733   6.023  0.4324 -0.0235  0.2564
 8602SOL    HW137442   0.472   0.706   5.982  1.2800 -0.2659 -1.3086
 8602SOL    HW237443   0.530   0.824   6.039  0.2300  0.3312 -2.0843
 8603SOL     OW37444   2.889   1.156  16.261 -0.0033 -0.0873 -0.7878
 8603SOL    HW137445   2.843   1.122  16.185  0.4882 -2.3461 -0.0555
 8603SOL    HW237446   2.959   1.095  16.283 -0.3329 -0.1085  0.1956
 8604SOL     OW37447   0.897   0.798   7.375  0.6382  0.1290  0.1636
 8604SOL    HW137448   0.956   0.735   7.416  2.0639  2.1393  1.2535
 8604SOL    HW237449   0.946   0.837   7.302  2.1150 -0.9453  0.5765
 8605SOL     OW37450   1.655   4.374   7.702  0.0578 -0.0876  0.0230
 8605SOL    HW137451   1.660   4.364   7.607  0.0328  1.3636 -0.1277
 8605SOL    HW237452   1.570   4.331   7.695  0.7388 -1.6490  1.3507
 8606SOL     OW37453   3.531   4.622   8.056 -0.0038 -0.2399  0.1702
 8606SOL    HW137454   3.454   4.584   8.014 -0.6465  1.1878  0.0569
 8606SOL    HW237455   3.505   4.637   8.147  1.9747 -1.4395  0.9423
 8607SOL     OW37456   3.410   0.635   4.042  0.1124 -0.5143  0.3001
 8607SOL    HW137457   3.395   0.542   4.057  0.4454 -0.6647 -0.2949
 8607SOL    HW237458   3.327   0.682   4.043 -0.9231 -2.3839  1.2421
 8608SOL     OW37459   2.388   2.560  12.081  0.0391  0.2318  0.5266
 8608SOL    HW137460   2.314   2.536  12.025  0.0478 -1.2024  1.1140
 8608SOL    HW237461   2.460   2.511  12.042 -0.5637  0.3724 -0.7688
 8609SOL     OW37462   0.080   4.340   5.281  0.0756  0.2197  0.3335
 8609SOL    HW137463   0.116   4.284   5.212  1.1123  0.4050  0.7339
 8609SOL    HW237464   4.726   4.344   5.242  0.7439 -0.9346 -1.2975
 8610SOL     OW37465   0.311   4.606   4.531 -0.3810  0.3829 -0.2181
 8610SOL    HW137466   0.344   4.522   4.564 -2.1733 -0.5247 -0.7480
 8610SOL    HW237467   0.336   4.600   4.439  0.9054  0.2347  0.1359
 8611SOL     OW37468   3.570   4.460   3.375 -0.4218 -0.0568 -0.0013
 8611SOL    HW137469   3.661   4.451   3.401  0.2007  1.9048 -1.5367
 8611SOL    HW237470   3.525   4.443   3.458 -0.2087  2.3521  0.5883
 8612SOL     OW37471   4.190   4.236   2.905 -0.3152  0.5353 -0.3320
 8612SOL    HW137472   4.284   4.238   2.886 -0.0942  0.9449  0.8010
 8612SOL    HW237473   4.188   4.230   3.000 -2.4551  2.0595 -0.2918
 8613SOL     OW37474   0.544   1.999  17.332 -0.2015 -0.0826  0.1308
 8613SOL    HW137475   0.494   1.979  17.253  1.0594 -0.6067 -0.5377
 8613SOL    HW237476   0.600   2.072  17.306  0.5319 -0.3786  0.8636
 8614SOL     OW37477   1.267   3.396   4.883 -0.0862 -0.0285  0.2733
 8614SOL    HW137478   1.232   3.354   4.804 -1.1030 -0.3392  0.8876
 8614SOL    HW237479   1.361   3.380   4.880 -0.5075 -2.9364  2.2339
 8615SOL     OW37480   3.165   4.728   6.126 -0.3667  0.4048 -0.5966
 8615SOL    HW137481   3.138   4.653   6.178  0.4440 -1.1460 -2.4025
 8615SOL    HW237482   3.116   4.715   6.044  0.9247 -0.5213 -1.2224
 8616SOL     OW37483   2.869   2.860  13.110 -0.1855 -0.6885 -0.5531
 8616SOL    HW137484   2.833   2.773  13.092  1.1027 -1.0250 -1.5609
 8616SOL    HW237485   2.811   2.908  13.052 -2.1500  0.5013  2.3738
 8617SOL     OW37486   1.918   1.156   5.398 -0.3705 -0.7338 -0.2572
 8617SOL    HW137487   1.827   1.152   5.425  0.0543 -2.0654  0.9387
 8617SOL    HW237488   1.915   1.240   5.351  0.8676 -0.8227 -0.4996
 8618SOL     OW37489   0.102   1.529   1.731 -0.1062 -0.0264  0.1819
 8618SOL    HW137490   0.152   1.455   1.764 -1.4004 -0.6743  0.6458
 8618SOL    HW237491   0.047   1.544   1.807  2.0818 -2.2620  2.1618
 8619SOL     OW37492   4.670   3.318  15.626 -0.3596  0.1750  0.4891
 8619SOL    HW137493   4.706   3.234  15.654  1.4625  0.1730 -1.8961
 8619SOL    HW237494   0.012   3.375  15.612  0.4083 -0.4106  2.2261
 8620SOL     OW37495   2.176   4.731  14.788  0.6200  0.6578  0.1909
 8620SOL    HW137496   2.197   0.069  14.848 -2.9558 -0.2387  2.4563
 8620SOL    HW237497   2.148   4.663  14.848  0.4221 -0.3057 -0.9877
 8621SOL     OW37498   0.129   1.974  10.130 -0.3072  0.4042  0.2506
 8621SOL    HW137499   0.155   1.906  10.068 -0.9369 -2.5365  3.2065
 8621SOL    HW237500   0.084   1.926  10.199 -0.2484 -0.8944 -0.6146
 8622SOL     OW37501   4.655   0.090  16.609 -0.1772 -0.1251  0.2487
 8622SOL    HW137502   4.678   0.052  16.694 -1.6895 -1.6977 -0.0381
 8622SOL    HW237503   4.566   0.115  16.634 -0.4090  1.6987 -2.4091
 8623SOL     OW37504   3.459   3.252   6.048 -0.3271  0.1869 -0.3584
 8623SOL    HW137505   3.508   3.333   6.063 -0.6511 -0.0586  2.1297
 8623SOL    HW237506   3.400   3.259   6.124 -1.7329 -0.2455 -1.4050
 8624SOL     OW37507   3.195   0.406   9.673 -0.0820  0.2807  0.2720
 8624SOL    HW137508   3.197   0.329   9.616  2.1116  0.7877 -0.3482
 8624SOL    HW237509   3.107   0.433   9.648 -0.1500 -0.1354  0.0631
 8625SOL     OW37510   2.481   4.250   3.073 -0.5531  0.1233 -0.3362
 8625SOL    HW137511   2.561   4.294   3.045 -1.1613  1.1061 -0.5212
 8625SOL    HW237512   2.474   4.270   3.166  0.6296 -0.7147 -0.0650
 8626SOL     OW37513   2.694   2.388   5.090  0.2778 -0.0856  0.1162
 8626SOL    HW137514   2.726   2.305   5.055  0.1405 -0.1857  0.2285
 8626SOL    HW237515   2.664   2.364   5.178  1.6723  1.2556  0.9664
 8627SOL     OW37516   3.598   4.066   7.954  0.0013 -0.5921 -0.3956
 8627SOL    HW137517   3.606   3.983   8.000  1.0727 -0.9320 -1.1946
 8627SOL    HW237518   3.602   4.126   8.028  0.2257 -0.0814 -0.8171
 8628SOL     OW37519   1.665   1.677   3.000  0.3898  0.3957 -0.6674
 8628SOL    HW137520   1.593   1.703   3.057  0.9932 -0.9595  0.6950
 8628SOL    HW237521   1.729   1.644   3.063 -0.4244 -0.5628 -0.3356
 8629SOL     OW37522   0.579   2.562   6.334 -0.4595  0.0781 -0.1977
 8629SOL    HW137523   0.643   2.621   6.294 -0.2079  2.1376  3.2020
 8629SOL    HW237524   0.546   2.618   6.404  1.3628  2.1039 -0.9379
 8630SOL     OW37525   1.466   2.955   2.567 -0.0310 -0.0168  0.4329
 8630SOL    HW137526   1.421   3.037   2.590 -0.9419 -1.3803  3.5235
 8630SOL    HW237527   1.399   2.897   2.530 -0.1182  0.2172  0.2182
 8631SOL     OW37528   3.154   1.634   4.569  0.0006  0.0983 -0.2100
 8631SOL    HW137529   3.062   1.643   4.591  0.1739  1.8268 -0.2003
 8631SOL    HW237530   3.182   1.595   4.651 -0.4350  0.9291  0.3278
 8632SOL     OW37531   2.549   4.502   2.892  0.1134 -0.0345 -0.4408
 8632SOL    HW137532   2.579   4.492   2.801  0.8760 -0.3135 -0.1662
 8632SOL    HW237533   2.617   4.458   2.944 -0.8753 -0.2286  0.6723
 8633SOL     OW37534   0.534   2.339  10.847  0.6733  0.0735  0.1306
 8633SOL    HW137535   0.597   2.397  10.804 -0.2195 -1.9301 -3.9471
 8633SOL    HW237536   0.579   2.264  10.886  0.5418 -0.1832 -0.2060
 8634SOL     OW37537   0.077   1.677   4.138  0.4183  0.1283 -0.2319
 8634SOL    HW137538   0.140   1.746   4.117  0.5458  0.6286  1.8366
 8634SOL    HW237539   0.088   1.667   4.232  1.0506  0.9328 -0.2200
 8635SOL     OW37540   2.880   3.850   3.724 -0.0872 -0.0646  0.0838
 8635SOL    HW137541   2.894   3.807   3.808  0.2940 -1.7008 -0.8258
 8635SOL    HW237542   2.881   3.778   3.661  2.8853  0.4450 -0.4504
 8636SOL     OW37543   1.509   0.946   6.410 -0.0357  0.6915  0.3814
 8636SOL    HW137544   1.576   0.955   6.343  0.8318  0.1146  1.1672
 8636SOL    HW237545   1.432   0.919   6.360  0.3422 -0.0248  0.1755
 8637SOL     OW37546   3.397   1.564   4.405  0.0710 -0.3193 -0.0675
 8637SOL    HW137547   3.444   1.480   4.415  1.0745  0.3100  0.5349
 8637SOL    HW237548   3.376   1.585   4.496  1.1924  1.1939 -0.1719
 8638SOL     OW37549   2.925   2.844   2.134  0.2883 -0.3053 -0.6965
 8638SOL    HW137550   2.959   2.808   2.052  1.3644  1.1949 -0.9033
 8638SOL    HW237551   2.959   2.775   2.191 -0.6892 -0.6801 -0.5593
 8639SOL     OW37552   2.592   2.668   7.927 -0.0688 -0.3315  0.0525
 8639SOL    HW137553   2.680   2.631   7.929  1.2189  2.6856  0.1541
 8639SOL    HW237554   2.600   2.746   7.983 -0.8557  0.0284 -0.3382
 8640SOL     OW37555   2.871   2.815   6.657 -0.4745 -0.3424 -0.4891
 8640SOL    HW137556   2.903   2.883   6.716 -0.7023  0.3936 -1.2152
 8640SOL    HW237557   2.811   2.858   6.596 -0.3161  0.2779 -0.1973
 8641SOL     OW37558   1.887   4.422   5.140 -0.0157  0.5254  0.1679
 8641SOL    HW137559   1.799   4.388   5.122  0.0047  0.5163  0.0841
 8641SOL    HW237560   1.905   4.356   5.207 -0.1687 -1.0513 -1.3565
 8642SOL     OW37561   1.838   0.159   3.743 -0.3069  0.6014  0.2648
 8642SOL    HW137562   1.826   0.138   3.835  2.4829  0.1553  0.5014
 8642SOL    HW237563   1.877   0.247   3.748 -1.1478  1.0148 -0.3175
 8643SOL     OW37564   4.063   3.966   2.926 -0.2817 -0.0151 -0.1999
 8643SOL    HW137565   4.013   4.037   2.886  1.7251  1.7455  0.4340
 8643SOL    HW237566   4.153   3.999   2.922 -0.4932  0.7835  1.5003
 8644SOL     OW37567   2.314   3.786   4.271  0.3278  0.2588  0.2362
 8644SOL    HW137568   2.311   3.817   4.362  1.3961  0.2230  0.2843
 8644SOL    HW237569   2.246   3.837   4.227  0.8588  1.3352  0.6594
 8645SOL     OW37570   1.497   0.783   1.960  0.3812 -0.4814 -0.5871
 8645SOL    HW137571   1.563   0.801   1.893 -0.3890 -0.1276 -1.2551
 8645SOL    HW237572   1.433   0.746   1.900  0.4456  0.5721 -1.3129
 8646SOL     OW37573   3.527   1.568   1.909 -0.1053  0.0570 -0.0457
 8646SOL    HW137574   3.613   1.587   1.947  0.6803 -0.1884 -1.6946
 8646SOL    HW237575   3.543   1.483   1.869  2.1673  1.3725 -1.8897
 8647SOL     OW37576   1.772   2.458   7.572  0.4836  0.0641 -0.5427
 8647SOL    HW137577   1.709   2.395   7.536  0.6111  0.1351 -0.8953
 8647SOL    HW237578   1.836   2.449   7.502  1.5518 -1.9824  0.7036
 8648SOL     OW37579   2.157   0.017   2.608 -0.3290 -0.0122 -0.2240
 8648SOL    HW137580   2.158   0.101   2.563 -0.9858  0.4647  0.6485
 8648SOL    HW237581   2.215   4.694   2.557  0.7312  2.8126 -2.1239
 8649SOL     OW37582   2.546   1.330   5.740 -0.1261 -0.5571 -0.1791
 8649SOL    HW137583   2.613   1.397   5.750 -0.2398 -0.4954  0.1704
 8649SOL    HW237584   2.491   1.328   5.818  0.5394  0.3788  0.3159
 8650SOL     OW37585   3.015   0.262   6.480  0.4337 -0.0671 -0.5719
 8650SOL    HW137586   2.929   0.219   6.476 -0.2226  1.4798 -3.7082
 8650SOL    HW237587   3.062   0.186   6.512  1.6362  0.1121 -1.9347
 8651SOL     OW37588   1.455   3.319   9.062  0.0670 -0.0762 -0.1830
 8651SOL    HW137589   1.431   3.257   9.131  1.3554 -0.8868 -0.4527
 8651SOL    HW237590   1.526   3.268   9.024  0.5280  0.9901 -0.7606
 8652SOL     OW37591   3.750   1.186   4.850  0.5728  0.3097 -0.6924
 8652SOL    HW137592   3.699   1.122   4.900  0.1039  0.9099 -0.3950
 8652SOL    HW237593   3.831   1.142   4.876 -0.0377 -2.4770 -3.4946
 8653SOL     OW37594   1.883   0.410   4.654 -0.0205 -0.7859  0.3264
 8653SOL    HW137595   1.915   0.395   4.565  1.0111  2.4180  0.1459
 8653SOL    HW237596   1.791   0.426   4.632 -0.0143  0.8467  1.4702
 8654SOL     OW37597   2.072   1.000   0.523  0.2145  0.1681 -0.2806
 8654SOL    HW137598   2.117   1.078   0.557  0.7144  0.4093 -1.4872
 8654SOL    HW237599   1.993   1.037   0.482  0.0195 -0.9082 -0.8533
 8655SOL     OW37600   2.477   2.634  10.884  0.0552  0.2133  0.0473
 8655SOL    HW137601   2.445   2.573  10.950  0.7198 -0.7513 -0.5238
 8655SOL    HW237602   2.397   2.629  10.831 -0.0487 -3.7413  0.5600
 8656SOL     OW37603   1.029   3.840  11.135 -0.1367 -0.6723 -0.1687
 8656SOL    HW137604   1.040   3.764  11.192 -0.3158  0.1518  0.9575
 8656SOL    HW237605   0.940   3.870  11.153  0.9130  0.9487  2.2453
 8657SOL     OW37606   1.596   0.517   3.528 -0.4263  0.7489  0.3358
 8657SOL    HW137607   1.574   0.578   3.457  0.4256  1.4613  0.6816
 8657SOL    HW237608   1.510   0.483   3.550 -0.3325  1.2172  1.4428
 8658SOL     OW37609   3.217   3.523  15.827  0.1493  0.0450  0.3624
 8658SOL    HW137610   3.186   3.610  15.801  2.1928  0.3074 -1.2392
 8658SOL    HW237611   3.149   3.460  15.804 -1.0313  1.7196 -0.7259
 8659SOL     OW37612   2.013   0.773   5.260  0.1665 -0.1584 -0.7047
 8659SOL    HW137613   2.026   0.711   5.189  1.4853  0.9150 -1.3935
 8659SOL    HW237614   2.099   0.763   5.300 -0.0116 -0.4558 -0.3980
 8660SOL     OW37615   0.242   0.009  10.036  0.0282  0.1632 -0.2219
 8660SOL    HW137616   0.321   0.063  10.036  0.7393 -0.8894 -1.9090
 8660SOL    HW237617   0.174   0.076  10.029  0.5437  0.5793 -1.1970
 8661SOL     OW37618   3.865   4.175   2.784  0.1121 -0.1805  0.2330
 8661SOL    HW137619   3.809   4.121   2.728  0.6779 -0.1214 -0.3803
 8661SOL    HW237620   3.892   4.247   2.728 -2.3689 -1.8433 -3.1329
 8662SOL     OW37621   0.675   4.424   7.301  0.2309  0.1194  0.1881
 8662SOL    HW137622   0.716   4.358   7.357 -0.0263 -0.2919 -0.1104
 8662SOL    HW237623   0.580   4.416   7.311  0.4789 -1.4106  1.2987
 8663SOL     OW37624   0.558   3.143   2.728  0.2929  0.0726  0.2679
 8663SOL    HW137625   0.542   3.232   2.761 -0.6969 -0.1502  0.3792
 8663SOL    HW237626   0.607   3.166   2.649 -0.0400  1.0744  0.3476
 8664SOL     OW37627   4.453   3.273   8.786 -0.3885  0.6936  0.8307
 8664SOL    HW137628   4.536   3.316   8.808 -0.2143  0.5865  0.3751
 8664SOL    HW237629   4.486   3.183   8.775  1.6912  1.7771 -1.6322
 8665SOL     OW37630   3.641   1.202   8.529  0.5497  1.0383 -0.2517
 8665SOL    HW137631   3.627   1.230   8.438  0.4470  1.4144 -0.1199
 8665SOL    HW237632   3.622   1.109   8.517  3.5939  0.4163 -0.1139
 8666SOL     OW37633   1.166   4.573   5.882 -0.0612 -0.5189  0.9872
 8666SOL    HW137634   1.175   4.636   5.954  0.7809 -0.7221  1.0578
 8666SOL    HW237635   1.071   4.559   5.882 -0.2534  0.8770 -2.1000
 8667SOL     OW37636   2.154   2.842  17.015  0.1370 -0.7710  0.4629
 8667SOL    HW137637   2.073   2.856  16.968  0.6177 -1.8390 -0.6902
 8667SOL    HW237638   2.174   2.928  17.053  1.9994 -0.6755 -0.6893
 8668SOL     OW37639   1.087   3.358   3.817 -0.2470 -0.0945 -0.0889
 8668SOL    HW137640   1.026   3.284   3.814  0.1504 -0.4973  2.3818
 8668SOL    HW237641   1.132   3.344   3.900  0.4654 -2.4696 -0.8813
 8669SOL     OW37642   3.065   3.446   8.359  0.8320 -0.2639  0.4127
 8669SOL    HW137643   3.054   3.541   8.370 -1.0813 -0.2020 -2.0251
 8669SOL    HW237644   2.976   3.412   8.352  0.6375  0.8026 -2.6566
 8670SOL     OW37645   0.679   4.061  10.696 -0.4760  0.8158  0.3737
 8670SOL    HW137646   0.768   4.096  10.685  0.2459 -1.3654 -0.8714
 8670SOL    HW237647   0.707   3.970  10.692 -0.3069  0.8869 -0.1247
 8671SOL     OW37648   3.380   2.546  16.085 -0.8942 -0.2193 -0.0882
 8671SOL    HW137649   3.340   2.563  16.170 -0.2005 -1.6964  0.5415
 8671SOL    HW237650   3.351   2.461  16.051 -0.1655 -0.3835 -0.2914
 8672SOL     OW37651   2.104   4.508  13.485 -0.1612  0.7751  0.1903
 8672SOL    HW137652   2.027   4.492  13.540 -0.0239 -0.9333 -0.1213
 8672SOL    HW237653   2.168   4.449  13.525 -0.2109 -0.0156 -0.9044
 8673SOL     OW37654   3.662   4.171   6.737 -0.2962  0.3437  0.4486
 8673SOL    HW137655   3.632   4.192   6.648 -0.0327 -0.0952  0.2565
 8673SOL    HW237656   3.600   4.224   6.787  2.2325  1.8713  2.0057
 8674SOL     OW37657   3.548   0.913   4.678 -0.1455  0.0681 -0.1793
 8674SOL    HW137658   3.538   0.897   4.584 -1.2307  2.1673 -0.4304
 8674SOL    HW237659   3.528   0.829   4.719 -0.7884  0.9558  1.3299
 8675SOL     OW37660   1.320   0.139   3.498 -0.1833 -0.1146  0.0548
 8675SOL    HW137661   1.389   0.185   3.546 -0.1437 -0.3756  0.2478
 8675SOL    HW237662   1.263   0.214   3.484  1.1423  0.9532  0.2943
 8676SOL     OW37663   2.184   0.182   9.914 -0.2196 -0.1452  0.2293
 8676SOL    HW137664   2.160   0.089   9.907 -1.3563  0.1258  0.6730
 8676SOL    HW237665   2.110   0.225   9.871 -0.1090 -0.8283 -0.6676
 8677SOL     OW37666   0.632   4.346   5.008  0.0718  0.4698 -0.2160
 8677SOL    HW137667   0.673   4.388   4.932  0.4537  0.4125 -0.0400
 8677SOL    HW237668   0.614   4.420   5.065 -0.8475  0.4625 -0.4922
 8678SOL     OW37669   2.753   3.854   4.397  0.2251 -0.7119 -0.3225
 8678SOL    HW137670   2.826   3.906   4.432  0.5073 -1.2035 -0.1801
 8678SOL    HW237671   2.685   3.912   4.428  1.5955  1.6083 -1.6372
 8679SOL     OW37672   1.015   4.186   3.891  0.4088  0.3582 -0.1320
 8679SOL    HW137673   1.022   4.095   3.919  1.4417  0.1089 -1.2020
 8679SOL    HW237674   0.926   4.220   3.900  0.2709  0.0105 -0.1886
 8680SOL     OW37675   1.183   1.424   5.102  0.3138  0.1681  0.2747
 8680SOL    HW137676   1.271   1.458   5.116  1.3337 -1.7095 -1.5809
 8680SOL    HW237677   1.129   1.492   5.142  0.5129  1.6177 -1.9314
 8681SOL     OW37678   2.202   1.778   8.432  0.3203  0.6722 -0.5159
 8681SOL    HW137679   2.194   1.701   8.488 -0.9612  1.3768  0.2528
 8681SOL    HW237680   2.262   1.836   8.480 -1.6033  1.4339  0.9693
 8682SOL     OW37681   0.233   0.942   8.615 -0.9127  0.3059  0.4162
 8682SOL    HW137682   0.313   0.991   8.632  1.5708 -3.3104 -0.7102
 8682SOL    HW237683   0.220   0.894   8.697  1.7113 -1.3288 -0.1215
 8683SOL     OW37684   2.033   0.744   4.914  0.5815  0.5955  0.3644
 8683SOL    HW137685   1.999   0.666   4.958 -0.5251  0.2510 -1.0878
 8683SOL    HW237686   2.058   0.709   4.828 -1.3572 -0.5511  0.2731
 8684SOL     OW37687   0.656   1.890  15.453 -0.2139 -0.3084  0.1821
 8684SOL    HW137688   0.694   1.802  15.462 -1.2681 -0.5940  1.9056
 8684SOL    HW237689   0.712   1.925  15.522 -0.0869  2.8700 -1.5318
 8685SOL     OW37690   2.512   1.745   6.408 -0.0856 -0.4481  0.5485
 8685SOL    HW137691   2.423   1.759   6.376  0.9733  1.7534 -1.3923
 8685SOL    HW237692   2.490   1.670   6.464  0.8013 -0.8051  0.4203
 8686SOL     OW37693   3.990   1.462  14.912 -0.0628  0.1206 -0.2149
 8686SOL    HW137694   3.949   1.393  14.964  0.9797 -0.9394 -0.8201
 8686SOL    HW237695   4.007   1.536  14.971  1.9748 -1.7399  1.5234
 8687SOL     OW37696   4.132   0.114   5.271  0.4770  0.1060 -0.9641
 8687SOL    HW137697   4.122   0.210   5.268 -0.7509 -0.0343 -0.9950
 8687SOL    HW237698   4.058   0.091   5.216 -0.7239  0.9630  0.2720
 8688SOL     OW37699   3.549   0.185   9.831  0.0286 -0.6913  0.3519
 8688SOL    HW137700   3.504   0.115   9.879 -1.0986 -0.8690 -0.9831
 8688SOL    HW237701   3.560   0.260   9.890  0.6552  1.9324 -3.1325
 8689SOL     OW37702   0.261   2.854   8.156 -0.4624 -0.6164  0.2632
 8689SOL    HW137703   0.175   2.812   8.148 -0.2342 -1.0749  0.2207
 8689SOL    HW237704   0.320   2.784   8.183  0.0932  0.2064  1.1279
 8690SOL     OW37705   3.636   1.418  10.428  0.2502 -0.3099 -0.3129
 8690SOL    HW137706   3.616   1.333  10.388 -1.5141  0.7647 -1.7138
 8690SOL    HW237707   3.587   1.422  10.510 -0.6042 -0.8518 -0.8004
 8691SOL     OW37708   0.634   2.613   4.070 -0.1766  0.0001  0.3299
 8691SOL    HW137709   0.716   2.628   4.023 -2.5037  0.7776 -3.4288
 8691SOL    HW237710   0.638   2.660   4.154  2.0166 -1.2268  0.9345
 8692SOL     OW37711   3.967   1.822   6.008  0.0749  1.1599 -0.1745
 8692SOL    HW137712   4.005   1.801   6.093 -2.1556 -2.4949 -0.1088
 8692SOL    HW237713   4.009   1.905   5.986  2.2413  0.3527  0.9671
 8693SOL     OW37714   3.461   1.145   8.754 -0.0961  0.0272  0.3743
 8693SOL    HW137715   3.507   1.170   8.674 -1.7789 -0.5758 -0.7743
 8693SOL    HW237716   3.394   1.213   8.768  1.4772  1.5754  0.4449
 8694SOL     OW37717   3.317   1.902  12.002  0.0694 -0.5162 -0.0914
 8694SOL    HW137718   3.257   1.941  12.066  0.1784  0.9046 -0.8707
 8694SOL    HW237719   3.362   1.844  12.064  0.1787 -0.5516 -0.2032
 8695SOL     OW37720   1.479   3.899   0.739  0.8539 -0.0354 -0.1918
 8695SOL    HW137721   1.397   3.851   0.751  2.1828 -2.0690  0.5821
 8695SOL    HW237722   1.504   3.918   0.829 -0.8309 -0.6607  0.4055
 8696SOL     OW37723   2.213   0.742   8.980  0.3317  0.6921 -0.0103
 8696SOL    HW137724   2.241   0.651   8.971 -1.6966 -0.0315  1.0116
 8696SOL    HW237725   2.252   0.767   9.064  0.7024 -0.3207  0.1187
 8697SOL     OW37726   1.883   3.076   9.891 -0.0473 -0.4181  0.0305
 8697SOL    HW137727   1.933   3.094   9.970  0.6871 -0.7830 -0.3505
 8697SOL    HW237728   1.924   3.123   9.819 -0.7583 -0.6538 -0.5369
 8698SOL     OW37729   4.351   1.217   6.955  0.1867 -0.1334 -0.1874
 8698SOL    HW137730   4.404   1.279   7.006  0.0994  0.8808 -1.3383
 8698SOL    HW237731   4.267   1.258   6.977  0.0157  1.1122 -3.1229
 8699SOL     OW37732   3.236   0.934   3.605  0.7359  0.3796 -0.7422
 8699SOL    HW137733   3.306   0.887   3.649 -0.8152 -1.7302 -0.5180
 8699SOL    HW237734   3.163   0.931   3.667  0.9085 -0.0438 -0.5587
 8700SOL     OW37735   4.276   0.701   2.032 -0.2228  0.2063  0.6018
 8700SOL    HW137736   4.219   0.640   2.079 -1.0392  0.4686 -0.0485
 8700SOL    HW237737   4.259   0.779   2.083 -2.4880 -0.3346  0.6828
 8701SOL     OW37738   2.738   0.247   2.657 -0.2363 -0.5468  0.4141
 8701SOL    HW137739   2.755   0.153   2.656 -2.6849 -0.9740 -0.1152
 8701SOL    HW237740   2.790   0.286   2.727 -0.0739 -0.5802  0.3125
 8702SOL     OW37741   4.587   1.845   8.666 -0.2672  0.8206  0.1927
 8702SOL    HW137742   4.581   1.924   8.721  1.6169 -1.1672  3.2488
 8702SOL    HW237743   4.595   1.779   8.735 -2.4441  0.6615  0.2905
 8703SOL     OW37744   1.575   0.853  12.670 -0.2111  0.1447 -0.5273
 8703SOL    HW137745   1.570   0.895  12.584  0.2149  1.5393  0.1221
 8703SOL    HW237746   1.669   0.841  12.677 -0.3255 -0.6105 -0.3573
 8704SOL     OW37747   1.090   0.669   8.545 -0.0664  0.8845 -0.1691
 8704SOL    HW137748   1.159   0.732   8.563 -0.4512  0.4897  2.6973
 8704SOL    HW237749   1.029   0.687   8.617 -1.0908 -0.2175 -0.7515
 8705SOL     OW37750   3.669   1.077   2.127 -0.3233  0.4104 -0.1936
 8705SOL    HW137751   3.654   0.997   2.078 -1.4399  1.5751 -1.7428
 8705SOL    HW237752   3.609   1.079   2.201  0.4614 -2.1393  0.5285
 8706SOL     OW37753   2.832   0.590   3.777  0.2331 -0.3429  0.4479
 8706SOL    HW137754   2.752   0.559   3.734  0.5858 -1.9361  0.9168
 8706SOL    HW237755   2.799   0.649   3.845 -1.2864 -1.7122  0.9251
 8707SOL     OW37756   1.279   1.881   3.182 -0.2213  0.6543 -0.4158
 8707SOL    HW137757   1.254   1.938   3.255  0.8461  0.9831 -0.3123
 8707SOL    HW237758   1.288   1.942   3.109  0.1830 -1.2431 -1.9231
 8708SOL     OW37759   0.280   1.254  11.428  0.2233 -0.5402 -0.2424
 8708SOL    HW137760   0.224   1.332  11.434 -0.5887 -1.0491 -1.2605
 8708SOL    HW237761   0.297   1.242  11.522 -0.5559 -0.3526 -0.0814
 8709SOL     OW37762   2.105   1.757   7.577  0.3758 -0.7015 -0.5562
 8709SOL    HW137763   2.194   1.742   7.545  0.4257  0.6583 -1.0580
 8709SOL    HW237764   2.112   1.845   7.615 -0.5682 -0.9578  0.2261
 8710SOL     OW37765   2.174   1.027  10.116  0.1681 -0.4977  0.0252
 8710SOL    HW137766   2.133   0.991  10.195  0.4697 -0.9966 -0.0450
 8710SOL    HW237767   2.102   1.050  10.057  1.3697 -0.1591 -1.3161
 8711SOL     OW37768   3.947   2.741   6.370 -0.4180  0.1300  0.1593
 8711SOL    HW137769   3.976   2.830   6.350 -3.5851  1.0013 -0.5376
 8711SOL    HW237770   3.923   2.755   6.462  1.1591  1.6998  0.3245
 8712SOL     OW37771   0.456   0.504  14.603 -0.2412  0.1833  1.0614
 8712SOL    HW137772   0.543   0.516  14.640  0.2655  0.8366 -0.3388
 8712SOL    HW237773   0.444   0.420  14.648 -2.6387 -0.2609 -0.4081
 8713SOL     OW37774   3.867   4.493   2.703  0.3036 -0.3204  0.2768
 8713SOL    HW137775   3.810   4.461   2.634  0.2587 -0.2889  0.2990
 8713SOL    HW237776   3.852   4.588   2.700  1.2280 -0.1581  0.7954
 8714SOL     OW37777   0.138   1.481   5.871 -0.1101  0.2730 -0.3327
 8714SOL    HW137778   0.191   1.559   5.889  0.6777 -0.0865 -1.0887
 8714SOL    HW237779   0.190   1.418   5.920  0.3386  0.7350 -0.2080
 8715SOL     OW37780   4.596   3.647   1.946  0.3731 -0.5024 -0.2125
 8715SOL    HW137781   4.647   3.595   2.008  0.7724 -0.8512 -0.8310
 8715SOL    HW237782   4.618   3.731   1.986 -0.2907  0.4109 -1.7481
 8716SOL     OW37783   4.068   1.292  14.026 -0.3423 -0.7806  0.3298
 8716SOL    HW137784   4.076   1.385  14.048 -2.4718 -0.1055 -1.6518
 8716SOL    HW237785   3.978   1.276  14.055 -0.9283  0.9808 -0.4785
 8717SOL     OW37786   0.671   0.387  11.552  0.6653  0.2501  0.2723
 8717SOL    HW137787   0.741   0.350  11.606 -0.8860  0.5131  2.4464
 8717SOL    HW237788   0.634   0.456  11.606 -0.3417 -0.3636  0.3513
 8718SOL     OW37789   3.459   3.469  13.069 -0.3671 -0.0918 -0.3211
 8718SOL    HW137790   3.518   3.421  13.012  0.8109  1.2235 -0.2033
 8718SOL    HW237791   3.510   3.550  13.074  2.2445 -1.7504 -0.0106
 8719SOL     OW37792   2.750   1.282  14.895  0.1326  0.2011  0.6024
 8719SOL    HW137793   2.793   1.337  14.828  2.3864 -0.7600  1.2699
 8719SOL    HW237794   2.703   1.347  14.948 -1.0099  0.3945 -0.6082
 8720SOL     OW37795   1.636   3.942  12.395 -0.0754 -0.1724 -0.0286
 8720SOL    HW137796   1.569   3.888  12.438 -1.1314 -0.3010 -1.8498
 8720SOL    HW237797   1.592   4.027  12.390 -0.5979 -0.4375  0.0765
 8721SOL     OW37798   2.787   3.117  15.187  0.2152 -0.6549  0.0648
 8721SOL    HW137799   2.745   3.151  15.107  2.7578  2.2044 -0.0536
 8721SOL    HW237800   2.756   3.176  15.256 -0.0726  0.4737 -1.0197
 8722SOL     OW37801   2.811   4.357   0.922 -0.6533  0.0272  0.4997
 8722SOL    HW137802   2.897   4.359   0.966 -1.3311  0.6201  1.8185
 8722SOL    HW237803   2.793   4.450   0.932  1.0213  0.4228 -0.0825
 8723SOL     OW37804   0.893   4.317  11.916 -0.0031  0.4409 -0.2325
 8723SOL    HW137805   0.963   4.381  11.923  0.3364  0.0564 -0.1024
 8723SOL    HW237806   0.901   4.274  12.001 -1.0954  0.4677 -0.1120
 8724SOL     OW37807   0.027   1.911   5.461  0.0376  0.4628  0.2084
 8724SOL    HW137808   4.702   1.837   5.477 -0.1528  0.1858 -1.7164
 8724SOL    HW237809   0.098   1.902   5.525 -0.0722  0.6586  0.3571
 8725SOL     OW37810   3.669   0.229   9.310  0.2043 -0.0050  0.4376
 8725SOL    HW137811   3.622   0.231   9.393  0.4482 -0.3626  0.5856
 8725SOL    HW237812   3.706   0.144   9.335  0.2393 -0.4857 -1.2112
 8726SOL     OW37813   2.676   0.046   7.992  0.4903 -0.0550  0.0611
 8726SOL    HW137814   2.730   0.122   7.969  1.0378 -0.5954 -0.4476
 8726SOL    HW237815   2.669   0.049   8.087  1.9283 -1.1711  0.2059
 8727SOL     OW37816   2.518   0.926   9.836  0.1086 -0.0536  0.6359
 8727SOL    HW137817   2.581   0.887   9.898  0.0298 -1.7356 -0.3414
 8727SOL    HW237818   2.452   0.964   9.893 -0.8875  0.7644 -1.0795
 8728SOL     OW37819   4.584   0.259   3.810  0.0245  0.3158  0.0452
 8728SOL    HW137820   4.544   0.340   3.842 -1.0099  0.4041 -1.4666
 8728SOL    HW237821   4.637   0.298   3.740 -1.4624  1.0371 -0.6758
 8729SOL     OW37822   0.210   0.917   8.156  0.1110 -0.2834 -0.1458
 8729SOL    HW137823   0.245   0.856   8.221 -1.5821 -0.2671  0.7996
 8729SOL    HW237824   0.283   0.943   8.100  0.4069 -1.7482 -0.4412
 8730SOL     OW37825   0.607   3.909   0.338  0.1639 -0.3003 -0.5538
 8730SOL    HW137826   0.681   3.939   0.286  0.2023  0.4367 -0.0784
 8730SOL    HW237827   0.569   3.848   0.275 -0.8282  0.1006 -0.3409
 8731SOL     OW37828   4.254   0.975  12.813 -0.3698 -1.1058 -0.0637
 8731SOL    HW137829   4.316   1.047  12.801 -0.1831 -1.2088  0.2862
 8731SOL    HW237830   4.309   0.927  12.875  1.9083  0.6640 -0.6835
 8732SOL     OW37831   3.411   0.798   5.540 -0.4948  0.2684  0.3406
 8732SOL    HW137832   3.416   0.862   5.612  2.6592 -0.2844  0.5984
 8732SOL    HW237833   3.501   0.789   5.511 -0.9579  0.6556 -1.2614
 8733SOL     OW37834   1.603   0.882  11.049 -0.4928 -0.3334 -0.0357
 8733SOL    HW137835   1.655   0.912  10.974 -0.5353 -0.6596 -0.1919
 8733SOL    HW237836   1.638   0.794  11.055  0.6911 -0.0013 -1.8861
 8734SOL     OW37837   4.262   1.569  10.154 -0.2343 -0.3767  0.4724
 8734SOL    HW137838   4.341   1.518  10.139  1.8160  2.7114  0.7897
 8734SOL    HW237839   4.203   1.516  10.100  0.9700  0.6560 -1.8685
 8735SOL     OW37840   1.785   0.317   5.314 -0.1393 -0.2069 -0.0245
 8735SOL    HW137841   1.767   0.243   5.255 -1.0392  1.4463 -1.8278
 8735SOL    HW237842   1.806   0.267   5.393  1.8824  1.7650  0.6770
 8736SOL     OW37843   1.029   0.928   7.139 -0.5690 -0.3034 -0.4255
 8736SOL    HW137844   1.048   0.834   7.141 -1.6448 -0.5457 -2.7756
 8736SOL    HW237845   1.101   0.962   7.193  0.8509 -2.3958 -0.9848
 8737SOL     OW37846   2.987   3.408   3.543  0.4084 -0.3687 -0.1712
 8737SOL    HW137847   3.074   3.441   3.520  0.9506 -0.7595  1.2838
 8737SOL    HW237848   2.934   3.483   3.516  2.3995  2.8430  4.7425
 8738SOL     OW37849   1.174   3.491  16.274 -0.8154  0.2862 -0.5484
 8738SOL    HW137850   1.183   3.532  16.188  1.7126 -1.7946 -1.2874
 8738SOL    HW237851   1.266   3.488  16.299 -1.3113  2.1305  1.4962
 8739SOL     OW37852   3.546   1.321  13.657 -0.0884 -0.4165 -0.2667
 8739SOL    HW137853   3.530   1.415  13.666  0.4600 -0.1416 -2.1341
 8739SOL    HW237854   3.561   1.317  13.563  0.8832 -0.7176 -0.1043
 8740SOL     OW37855   2.306   0.268   4.503  0.1808  0.4004 -0.1979
 8740SOL    HW137856   2.331   0.328   4.574  0.3398 -1.1206  1.0329
 8740SOL    HW237857   2.278   0.329   4.435 -0.9489  1.7717  1.5051
 8741SOL     OW37858   0.675   2.987   6.392 -0.3073  0.2279 -0.3520
 8741SOL    HW137859   0.615   2.914   6.383  0.1001 -0.1324 -0.1447
 8741SOL    HW237860   0.724   2.993   6.310 -1.6238  1.6099 -1.0331
 8742SOL     OW37861   0.053   0.180  10.100  0.1259 -0.0798  0.1269
 8742SOL    HW137862   4.706   0.193  10.049  0.1317  2.2557  0.7329
 8742SOL    HW237863   0.024   0.109  10.158 -0.2557  1.0021  1.2397
 8743SOL     OW37864   4.130   1.955  11.137 -0.3157 -0.5128 -0.0561
 8743SOL    HW137865   4.052   1.900  11.149 -1.0829  0.6884  0.4148
 8743SOL    HW237866   4.186   1.899  11.084  3.7948  2.1713  1.4455
 8744SOL     OW37867   1.092   2.739   3.139  0.5358 -0.0807  0.1815
 8744SOL    HW137868   1.013   2.692   3.111 -0.5123 -0.0449  3.1426
 8744SOL    HW237869   1.060   2.828   3.121  2.2561  0.0908 -2.1154
 8745SOL     OW37870   1.379   3.177   2.340 -0.1955 -0.5069  0.3925
 8745SOL    HW137871   1.363   3.091   2.304 -0.1429 -0.1302 -0.5211
 8745SOL    HW237872   1.321   3.231   2.287  1.6416 -0.0081 -1.1136
 8746SOL     OW37873   4.170   3.960   6.792 -0.2466 -0.3794 -0.6671
 8746SOL    HW137874   4.137   3.994   6.709 -0.3124  0.5399 -0.2679
 8746SOL    HW237875   4.249   4.014   6.793 -0.6351  0.1826  0.6811
 8747SOL     OW37876   1.229   0.827  16.511  0.4525 -0.1685  0.2504
 8747SOL    HW137877   1.175   0.898  16.546  2.3867  0.4227  2.0079
 8747SOL    HW237878   1.187   0.750  16.550 -0.0752 -0.8697 -1.6604
 8748SOL     OW37879   2.195   1.076  14.357  0.1187 -0.4786 -0.3258
 8748SOL    HW137880   2.239   1.035  14.282  3.5673  2.6965 -0.0625
 8748SOL    HW237881   2.267   1.095  14.417  1.1402  0.5939 -1.8825
 8749SOL     OW37882   3.320   1.203   5.220 -0.1067 -0.5104 -0.3890
 8749SOL    HW137883   3.272   1.148   5.281 -0.3024 -0.7377 -0.7527
 8749SOL    HW237884   3.251   1.251   5.175 -0.8000 -1.9266 -0.8385
 8750SOL     OW37885   2.623   1.096   5.602 -0.7577  0.5799  0.1007
 8750SOL    HW137886   2.698   1.130   5.553  0.0005 -2.6560 -1.0071
 8750SOL    HW237887   2.602   1.164   5.666  0.7754  0.5749  0.6161
 8751SOL     OW37888   3.620   0.633  11.263  0.7213 -0.3232 -0.2304
 8751SOL    HW137889   3.662   0.708  11.305  0.8228 -1.0176  0.9095
 8751SOL    HW237890   3.624   0.572  11.337  1.2239  0.0158  0.0183
 8752SOL     OW37891   4.429   4.619   8.443 -0.5458  0.1888 -0.2239
 8752SOL    HW137892   4.484   4.542   8.458 -0.9652  0.3390  2.2424
 8752SOL    HW237893   4.496   4.687   8.434 -3.3379  3.1489  1.3173
 8753SOL     OW37894   1.063   0.141   3.876 -0.5740  0.0358  0.1588
 8753SOL    HW137895   1.081   0.163   3.968 -0.7495 -0.3430  0.2828
 8753SOL    HW237896   1.129   0.195   3.833  0.7223 -3.4624 -2.2620
 8754SOL     OW37897   3.322   1.834   7.453  0.3271 -0.3972  0.7383
 8754SOL    HW137898   3.271   1.915   7.459 -1.6636 -1.7028  1.2841
 8754SOL    HW237899   3.322   1.819   7.359 -0.3770  1.3577  0.4585
 8755SOL     OW37900   2.127   1.374   8.311  0.0638 -0.1176 -0.2290
 8755SOL    HW137901   2.157   1.284   8.322  1.0554  0.3869  1.1768
 8755SOL    HW237902   2.206   1.422   8.336 -1.8441  2.7755  0.2588
 8756SOL     OW37903   3.820   2.017   6.797 -0.2435  0.6908  0.1901
 8756SOL    HW137904   3.793   2.103   6.829  1.7246  0.8768  1.3052
 8756SOL    HW237905   3.903   2.013   6.845 -0.7192 -0.0084  0.9568
 8757SOL     OW37906   4.277   4.466   1.449  0.1279  0.2074  0.1250
 8757SOL    HW137907   4.238   4.383   1.425  3.5443 -0.8438 -1.7373
 8757SOL    HW237908   4.199   4.519   1.467 -0.7443 -0.3654 -1.9591
 8758SOL     OW37909   1.928   1.706   5.831 -0.2736 -0.0680 -0.3939
 8758SOL    HW137910   1.998   1.660   5.785 -0.2916 -1.3625  0.8688
 8758SOL    HW237911   1.915   1.652   5.909 -1.5925 -1.6841 -1.7198
 8759SOL     OW37912   4.300   0.303  10.974 -0.9184  0.4318 -0.4541
 8759SOL    HW137913   4.270   0.382  10.927  1.0357  2.0754  1.0521
 8759SOL    HW237914   4.392   0.298  10.950 -0.2727 -0.9915  2.3747
 8760SOL     OW37915   3.476   1.299   0.419  0.0838 -0.6712 -0.4330
 8760SOL    HW137916   3.411   1.365   0.444  2.0072  1.2921 -0.5906
 8760SOL    HW237917   3.463   1.226   0.478 -1.2585  0.9278  1.2513
 8761SOL     OW37918   1.164   3.697  14.112  0.1312 -0.2245  0.1510
 8761SOL    HW137919   1.145   3.604  14.098 -1.1303  0.4912 -2.8406
 8761SOL    HW237920   1.081   3.744  14.102 -0.5663 -1.0148  2.0405
 8762SOL     OW37921   3.953   3.218   6.073 -0.3757  0.1400  0.7741
 8762SOL    HW137922   3.892   3.246   6.005 -0.7713  1.1728  1.5417
 8762SOL    HW237923   3.984   3.133   6.042 -0.5081  0.6250 -0.6906
 8763SOL     OW37924   0.582   0.589   7.885  1.0794 -0.1352 -0.3978
 8763SOL    HW137925   0.506   0.540   7.915  0.6501  0.7609 -0.0284
 8763SOL    HW237926   0.621   0.615   7.968 -0.9106 -0.0777  0.5261
 8764SOL     OW37927   0.536   2.341   5.885  0.2930 -0.2824  0.0286
 8764SOL    HW137928   0.559   2.251   5.907  1.2077 -0.4711 -1.7247
 8764SOL    HW237929   0.626   2.372   5.874  0.5148 -0.7957  0.4152
 8765SOL     OW37930   3.710   2.113   3.950  0.1739  0.2276 -0.1625
 8765SOL    HW137931   3.723   2.127   4.044 -1.3212 -0.0369  0.0883
 8765SOL    HW237932   3.783   2.165   3.918 -0.1357  1.1296  0.5763
 8766SOL     OW37933   0.160   2.208  10.956 -0.4981 -0.5584  0.1405
 8766SOL    HW137934   0.220   2.152  10.907 -0.3409 -0.5098  0.2796
 8766SOL    HW237935   0.154   2.286  10.901 -0.5029 -0.0239  0.8987
 8767SOL     OW37936   2.617   4.705   6.234  0.0326 -0.3863  0.0045
 8767SOL    HW137937   2.607   0.065   6.223 -0.8176 -0.2691  1.7332
 8767SOL    HW237938   2.704   4.691   6.273  1.4997  0.5289 -2.9631
 8768SOL     OW37939   0.265   3.516   6.571  0.2079  0.0371  0.2353
 8768SOL    HW137940   0.245   3.448   6.507 -0.3848  0.7380 -0.3322
 8768SOL    HW237941   0.312   3.463   6.636 -1.3059  0.1055  1.4091
 8769SOL     OW37942   1.807   3.827   0.035  0.3028  0.1631  0.0386
 8769SOL    HW137943   1.805   3.803  17.677  2.0510  0.2413 -0.0235
 8769SOL    HW237944   1.894   3.801   0.065  0.7020  1.0095 -0.4064
 8770SOL     OW37945   4.398   0.253  17.344 -0.6388  0.2159 -0.2986
 8770SOL    HW137946   4.468   0.290  17.289  0.3503 -1.0494  0.1093
 8770SOL    HW237947   4.379   0.338  17.384 -0.1664  0.9003 -1.5193
 8771SOL     OW37948   2.775   1.501   1.505  0.2337 -0.1628  0.9277
 8771SOL    HW137949   2.858   1.475   1.544  1.4119  2.0245 -0.1429
 8771SOL    HW237950   2.724   1.511   1.585 -2.3658 -1.8873 -0.5255
 8772SOL     OW37951   2.405   1.459   8.345  0.2931 -0.2691 -0.0325
 8772SOL    HW137952   2.500   1.462   8.353  0.3082 -0.6593 -0.0698
 8772SOL    HW237953   2.380   1.441   8.436  2.0520 -0.4907  0.4146
 8773SOL     OW37954   2.043   4.700  12.505 -0.0826 -0.3937  0.6311
 8773SOL    HW137955   2.133   4.689  12.472 -1.0615  0.1588 -2.2093
 8773SOL    HW237956   2.034   4.618  12.553  1.2561 -0.4907  0.7197
 8774SOL     OW37957   1.643   1.572   5.269 -0.1183 -0.7694 -0.2551
 8774SOL    HW137958   1.578   1.502   5.268  0.8352 -1.6505 -1.3323
 8774SOL    HW237959   1.628   1.596   5.178 -0.4578  1.1607  0.2953
 8775SOL     OW37960   0.163   2.885  12.676 -0.3844  0.4378  0.1344
 8775SOL    HW137961   0.089   2.906  12.619 -0.2047  2.0534  0.4856
 8775SOL    HW237962   0.175   2.793  12.655  0.4363  0.8490 -1.1883
 8776SOL     OW37963   1.493   2.707   3.015 -0.7417 -0.2478  0.4024
 8776SOL    HW137964   1.484   2.625   2.966  2.0350 -1.8794  2.5739
 8776SOL    HW237965   1.446   2.684   3.095 -2.6902  1.5104 -0.2222
 8777SOL     OW37966   1.505   0.409  15.336  0.2394 -0.1795  0.0245
 8777SOL    HW137967   1.567   0.336  15.343 -1.9525 -2.1755 -1.5365
 8777SOL    HW237968   1.486   0.407  15.429 -1.8175 -2.2437 -0.4490
 8778SOL     OW37969   3.823   0.061   3.417  0.2178  0.0221 -0.1204
 8778SOL    HW137970   3.845   0.065   3.324 -0.8899 -0.5093 -0.4056
 8778SOL    HW237971   3.911   0.055   3.454  0.9512 -3.2317 -2.3957
 8779SOL     OW37972   0.257   0.256   1.536 -0.3543  0.0033  0.4758
 8779SOL    HW137973   0.316   0.331   1.543 -0.0117 -0.2572  0.3971
 8779SOL    HW237974   0.310   0.208   1.472  0.1233  1.1445  0.0274
 8780SOL     OW37975   0.688   0.751  11.689 -0.2759  0.2431 -0.2445
 8780SOL    HW137976   0.615   0.689  11.679  0.5161 -0.8833  0.9287
 8780SOL    HW237977   0.744   0.703  11.749  0.9196  1.2520 -0.5628
 8781SOL     OW37978   3.706   3.429   0.320  0.1771 -0.1372  0.0210
 8781SOL    HW137979   3.765   3.472   0.259 -0.8515 -0.1393 -0.9772
 8781SOL    HW237980   3.656   3.387   0.250 -1.6415  2.8417 -0.4356
 8782SOL     OW37981   2.606   4.592   7.076  0.6583 -0.1548 -0.2098
 8782SOL    HW137982   2.673   4.528   7.050  3.2827  2.7347 -0.5365
 8782SOL    HW237983   2.618   4.580   7.170  0.9314  1.0311 -0.1008
 8783SOL     OW37984   2.008   3.463   4.814  0.4515  1.0118  0.1651
 8783SOL    HW137985   1.977   3.551   4.792  0.3420  0.8975 -0.1374
 8783SOL    HW237986   2.039   3.431   4.729 -0.4781 -0.3940  0.3339
 8784SOL     OW37987   3.718   3.915   7.466 -0.2504 -0.2446 -0.2608
 8784SOL    HW137988   3.788   3.965   7.425 -0.5813  0.3064 -0.1588
 8784SOL    HW237989   3.736   3.940   7.557  0.5347 -0.4401 -0.3666
 8785SOL     OW37990   0.277   0.872   5.408 -0.0748  0.1094  0.5750
 8785SOL    HW137991   0.351   0.852   5.351  0.9190  2.1938  1.1476
 8785SOL    HW237992   0.206   0.859   5.345  1.2955 -0.8375 -0.7730
 8786SOL     OW37993   2.849   4.271   5.591  0.0973  0.3013 -0.5468
 8786SOL    HW137994   2.900   4.257   5.511  1.3607 -1.0192  0.4857
 8786SOL    HW237995   2.890   4.350   5.628 -0.3741  0.5102 -0.4768
 8787SOL     OW37996   2.021   2.221   7.657  0.1409 -0.9437 -0.1120
 8787SOL    HW137997   2.054   2.286   7.595 -0.2118  0.8867  1.6171
 8787SOL    HW237998   2.082   2.155   7.626 -0.8796 -2.6199  1.4172
 8788SOL     OW37999   0.405   2.896   1.996  0.0612  0.1345  0.1062
 8788SOL    HW138000   0.313   2.872   1.987 -0.0824  0.6595  0.1534
 8788SOL    HW238001   0.448   2.823   1.953 -1.8815  0.0809 -1.7340
 8789SOL     OW38002   1.216   1.326  14.528 -0.2789  0.6144  0.2167
 8789SOL    HW138003   1.219   1.371  14.444  0.5433  0.7458  0.3155
 8789SOL    HW238004   1.125   1.297  14.529 -0.2232  0.5059  2.3367
 8790SOL     OW38005   3.037   1.492  15.363  0.3655 -0.6483 -0.1886
 8790SOL    HW138006   2.984   1.439  15.303  1.0746 -1.3372 -0.2048
 8790SOL    HW238007   3.122   1.496  15.320  0.2210  0.8240 -0.3289
 8791SOL     OW38008   4.705   2.842  10.820 -0.1831 -0.4171  0.6220
 8791SOL    HW138009   0.001   2.752  10.828  1.4098  0.1717  1.1899
 8791SOL    HW238010   4.619   2.831  10.778 -0.5007  1.1051  0.8493
 8792SOL     OW38011   0.792   0.535   5.818  0.3090  0.0054 -0.1199
 8792SOL    HW138012   0.838   0.456   5.790 -0.8334 -1.5870  2.5217
 8792SOL    HW238013   0.766   0.575   5.735 -3.1003  0.6359  1.2780
 8793SOL     OW38014   4.247   0.935   2.513 -0.0857  0.4989  0.5295
 8793SOL    HW138015   4.231   0.846   2.545  1.2998  0.3143  0.6895
 8793SOL    HW238016   4.167   0.975   2.546 -1.7836  0.1309 -3.0569
 8794SOL     OW38017   3.604   2.846  14.805  0.2645  0.3467 -1.0188
 8794SOL    HW138018   3.665   2.772  14.805 -0.6728 -0.4369 -0.3449
 8794SOL    HW238019   3.526   2.791  14.812 -0.3676  1.0462 -2.5639
 8795SOL     OW38020   4.650   0.856  17.099 -0.1273  0.1885  0.1143
 8795SOL    HW138021   4.631   0.772  17.058 -1.2782  1.3537 -1.8096
 8795SOL    HW238022   4.653   0.905  17.016 -1.1120 -1.3790 -0.8404
 8796SOL     OW38023   3.110   2.932   2.913  0.0758  0.4392  0.0514
 8796SOL    HW138024   3.107   2.913   2.819 -0.3353 -2.1577  0.5978
 8796SOL    HW238025   3.103   3.028   2.914 -2.0744  0.2446  1.6943
 8797SOL     OW38026   3.764   1.330   6.390 -0.1178 -0.1994 -0.2583
 8797SOL    HW138027   3.750   1.336   6.485 -1.0573 -1.8808 -0.2886
 8797SOL    HW238028   3.828   1.261   6.402  2.2331  2.3496  1.8084
 8798SOL     OW38029   1.110   3.006   7.065 -0.3774 -0.5471  0.2733
 8798SOL    HW138030   1.188   3.022   7.119 -1.2163  1.6441  0.8642
 8798SOL    HW238031   1.050   2.965   7.126  0.0004  0.8938  1.6097
 8799SOL     OW38032   3.303   3.436   5.845  0.2300 -0.2217 -0.4173
 8799SOL    HW138033   3.318   3.342   5.832 -0.8868 -0.1269 -2.3715
 8799SOL    HW238034   3.217   3.453   5.885 -0.0492  0.0842 -1.1414
 8800SOL     OW38035   1.233   2.615   4.758  0.5476 -0.3762 -0.5557
 8800SOL    HW138036   1.227   2.703   4.793 -2.1087 -0.8018  0.0452
 8800SOL    HW238037   1.251   2.629   4.665  0.7942 -1.4807 -0.6766
 8801SOL     OW38038   3.523   0.372  10.009  0.2192 -0.5834  0.2914
 8801SOL    HW138039   3.510   0.389  10.102 -2.5074 -0.1777 -0.1519
 8801SOL    HW238040   3.436   0.385   9.972 -0.0940 -2.0875  0.5032
 8802SOL     OW38041   0.065   4.243  11.929  0.1714  0.4528  0.4651
 8802SOL    HW138042   0.137   4.212  11.875 -0.0287 -1.5374  1.3508
 8802SOL    HW238043   0.032   4.322  11.886 -0.1398 -0.0483 -0.2193
 8803SOL     OW38044   2.119   4.109  10.249 -0.3512 -0.0761 -0.4570
 8803SOL    HW138045   2.183   4.141  10.313 -1.5055  0.6715  0.3371
 8803SOL    HW238046   2.064   4.188  10.246 -1.8265 -1.0314  1.3440
 8804SOL     OW38047   0.674   3.958   4.106 -0.0472  0.8065 -0.2229
 8804SOL    HW138048   0.705   3.867   4.104  0.3598  0.9498 -0.5262
 8804SOL    HW238049   0.705   3.991   4.190 -0.9303 -0.7607  0.7244
 8805SOL     OW38050   0.949   1.338   2.435 -0.1584 -0.6164 -0.3566
 8805SOL    HW138051   1.032   1.334   2.481 -0.1866 -0.8176 -0.3239
 8805SOL    HW238052   0.954   1.258   2.382  1.7082 -0.1133 -0.9360
 8806SOL     OW38053   0.929   3.344   7.701 -0.1795  0.3073 -0.1124
 8806SOL    HW138054   0.867   3.415   7.717 -0.7505 -0.0550 -0.6826
 8806SOL    HW238055   0.873   3.282   7.653  0.1395 -0.2978  0.2925
 8807SOL     OW38056   4.044   2.159   7.577  0.4380  0.0315 -0.3160
 8807SOL    HW138057   4.107   2.129   7.512  1.8502  0.6415  0.7748
 8807SOL    HW238058   4.092   2.218   7.635 -0.6670  0.3161  0.3071
 8808SOL     OW38059   1.990   2.136   4.849  0.1231  0.3742  0.0999
 8808SOL    HW138060   1.925   2.101   4.909  0.7041 -0.2986  0.3289
 8808SOL    HW238061   2.039   2.197   4.905  0.7144 -0.4213  0.4467
 8809SOL     OW38062   3.712   0.592  14.310  0.0794 -0.0149 -0.4866
 8809SOL    HW138063   3.687   0.671  14.263 -0.4698 -0.8206 -1.5573
 8809SOL    HW238064   3.714   0.529  14.238 -0.3520  0.4775 -0.9327
 8810SOL     OW38065   0.696   3.687   3.418  0.3430  0.4109  0.2613
 8810SOL    HW138066   0.753   3.649   3.485 -1.9997 -0.9680  1.4789
 8810SOL    HW238067   0.758   3.756   3.396  2.2433 -1.4162 -0.1322
 8811SOL     OW38068   1.583   4.680  15.607 -0.3651  0.4664  0.7342
 8811SOL    HW138069   1.508   4.686  15.547  1.5764  0.1992 -1.7122
 8811SOL    HW238070   1.664   4.666  15.558 -1.3399  0.3912 -0.8356
 8812SOL     OW38071   1.105   4.369   3.712 -0.4233  0.1925 -0.2388
 8812SOL    HW138072   1.082   4.312   3.785  0.0097  1.7620  1.1190
 8812SOL    HW238073   1.055   4.449   3.727  0.0290 -0.2118  3.4060
 8813SOL     OW38074   2.135   2.826   4.943  0.4467 -0.4840  0.0334
 8813SOL    HW138075   2.061   2.861   4.992  0.5929 -1.1673  0.7531
 8813SOL    HW238076   2.103   2.835   4.853 -1.7931 -1.8694  0.7030
 8814SOL     OW38077   0.038   3.108   2.017 -0.2823  0.0189  0.3848
 8814SOL    HW138078   0.042   3.184   1.959  1.9369  1.3727  2.3061
 8814SOL    HW238079   0.102   3.136   2.082 -0.1898 -0.8171  0.6534
 8815SOL     OW38080   2.486   2.520   7.060 -0.2674 -0.1365 -0.0568
 8815SOL    HW138081   2.397   2.529   7.028 -0.5306  0.7171  0.8921
 8815SOL    HW238082   2.525   2.451   7.007  2.3503 -1.0697  3.0532
 8816SOL     OW38083   0.053   3.966  11.063 -0.0379  0.0207 -0.1405
 8816SOL    HW138084   0.025   3.879  11.034  0.4605 -0.8020  1.8596
 8816SOL    HW238085   0.130   3.929  11.106 -0.4295 -2.2745 -1.4418
 8817SOL     OW38086   3.696   0.916  16.195 -0.1075  0.4866  0.1519
 8817SOL    HW138087   3.786   0.891  16.216 -0.4663 -0.9184  0.0487
 8817SOL    HW238088   3.693   1.010  16.211 -0.9718  0.2518  1.3464
 8818SOL     OW38089   4.071   3.013  11.904 -0.2189  0.1036 -0.3332
 8818SOL    HW138090   4.055   3.092  11.955  1.0800  1.1564 -1.6001
 8818SOL    HW238091   4.066   2.939  11.965  1.3077 -1.0900 -1.6789
 8819SOL     OW38092   0.222   3.907  12.460 -0.4899 -0.3757 -0.3046
 8819SOL    HW138093   0.231   3.877  12.370 -2.0495 -1.7354 -0.0170
 8819SOL    HW238094   0.312   3.933  12.479 -0.6858 -0.4547  0.7471
 8820SOL     OW38095   0.084   3.787   8.634  0.2595 -0.0110  0.2502
 8820SOL    HW138096   0.102   3.868   8.585 -1.6894  1.3598  1.7815
 8820SOL    HW238097   0.165   3.740   8.617 -0.1176 -0.5366 -0.0682
 8821SOL     OW38098   0.479   1.495   6.939  0.0249 -0.0589  0.2123
 8821SOL    HW138099   0.466   1.402   6.922  1.1785 -0.3122  0.7677
 8821SOL    HW238100   0.393   1.532   6.917 -0.8537  0.1144  3.8402
 8822SOL     OW38101   3.613   4.267   2.084  0.5837 -0.2803  0.1087
 8822SOL    HW138102   3.634   4.327   2.013 -0.8296 -0.4784 -0.4799
 8822SOL    HW238103   3.557   4.211   2.031  0.3112  0.4320 -0.3480
 8823SOL     OW38104   2.741   4.339   9.471  0.6134  0.2002 -0.3105
 8823SOL    HW138105   2.690   4.287   9.534  0.1806 -0.3962 -1.1464
 8823SOL    HW238106   2.767   4.266   9.415  2.5970  1.0904 -0.5116
 8824SOL     OW38107   4.029   1.508   7.956 -0.7968 -0.0910  0.2855
 8824SOL    HW138108   4.108   1.563   7.948 -1.9269  1.8185  2.1207
 8824SOL    HW238109   3.969   1.569   7.914 -1.9081 -0.5691  1.1932
 8825SOL     OW38110   3.062   3.573   1.793  0.3347  0.3555  0.1562
 8825SOL    HW138111   3.135   3.600   1.737  1.0265  0.5069  1.1290
 8825SOL    HW238112   2.995   3.624   1.749 -0.5301  0.4559  1.5781
 8826SOL     OW38113   0.328   0.151   8.462 -0.1575 -0.3329 -0.0016
 8826SOL    HW138114   0.345   0.206   8.385 -0.5923  0.5023  0.5118
 8826SOL    HW238115   0.416   0.124   8.489 -0.8857 -0.7710  1.8692
 8827SOL     OW38116   3.306   0.627   9.400  0.0688  0.0541  0.5942
 8827SOL    HW138117   3.253   0.704   9.420  0.9670  0.5746  0.9632
 8827SOL    HW238118   3.240   0.561   9.379  0.2172 -0.1245  0.6965
 8828SOL     OW38119   0.914   2.029   9.871  0.0737  0.3020 -0.0845
 8828SOL    HW138120   0.860   2.066   9.802 -0.5357 -0.2358  0.1026
 8828SOL    HW238121   0.910   2.092   9.942  1.5081  1.1543 -0.7729
 8829SOL     OW38122   0.777   4.466   4.039 -0.0470 -0.3511 -0.0693
 8829SOL    HW138123   0.748   4.375   4.031  0.7712 -0.7120  1.0798
 8829SOL    HW238124   0.714   4.509   3.981  0.4985 -1.0529 -1.1612
 8830SOL     OW38125   0.714   1.977   7.215  0.6742  0.0650 -0.0618
 8830SOL    HW138126   0.776   1.999   7.284 -0.7617 -1.2096  1.6355
 8830SOL    HW238127   0.749   2.001   7.129  1.7259 -1.2609  0.0002
 8831SOL     OW38128   1.888   1.477   3.871 -1.0221  0.1388 -0.0730
 8831SOL    HW138129   1.982   1.487   3.855 -0.7178  0.3410  1.8854
 8831SOL    HW238130   1.882   1.382   3.871 -2.1639  0.2096 -1.5374
 8832SOL     OW38131   2.914   3.896  14.861 -0.3621 -0.6881 -0.3223
 8832SOL    HW138132   2.925   3.875  14.954  2.7226 -1.0260 -0.7798
 8832SOL    HW238133   2.831   3.944  14.857 -1.0226 -1.7706  0.1848
 8833SOL     OW38134   3.852   1.571   4.667  0.3675 -0.2371 -0.3316
 8833SOL    HW138135   3.780   1.518   4.702  1.6768  0.2248  3.0684
 8833SOL    HW238136   3.828   1.575   4.575  0.0789  0.1261 -0.2371
 8834SOL     OW38137   1.016   2.691   9.942  0.6207 -0.5088  0.7247
 8834SOL    HW138138   1.089   2.638   9.910  1.2005  2.0721 -2.1534
 8834SOL    HW238139   0.982   2.617   9.994 -1.9246  0.3943  0.3668
 8835SOL     OW38140   4.497   2.730  10.684  0.3356  0.0043 -0.4135
 8835SOL    HW138141   4.529   2.650  10.642  1.5472 -0.1815  0.8550
 8835SOL    HW238142   4.422   2.750  10.629  0.8491  1.4435 -0.5938
 8836SOL     OW38143   0.137   3.971   8.430  0.1696  0.7387  0.1738
 8836SOL    HW138144   0.194   4.037   8.392 -1.1737  1.4918 -0.5367
 8836SOL    HW238145   0.079   3.961   8.355  0.5534  0.0048 -0.0177
 8837SOL     OW38146   2.651   3.616   8.735 -0.1638  0.0206  0.1182
 8837SOL    HW138147   2.665   3.575   8.650 -2.0649 -1.2624  0.4432
 8837SOL    HW238148   2.636   3.710   8.728  0.6042  0.1971  0.8068
 8838SOL     OW38149   3.543   1.952   5.939 -0.1107  0.0736 -0.0193
 8838SOL    HW138150   3.449   1.933   5.928 -0.1480 -0.6045  1.3575
 8838SOL    HW238151   3.574   1.881   5.995 -0.2648 -2.1106 -2.7406
 8839SOL     OW38152   1.337   0.465   2.394 -0.3733 -0.3870 -0.1059
 8839SOL    HW138153   1.423   0.437   2.361 -0.4672  0.1060 -0.7749
 8839SOL    HW238154   1.282   0.471   2.316  0.2074 -1.7161 -0.6250
 8840SOL     OW38155   1.021   1.746   6.097  0.0017 -0.0897 -0.1745
 8840SOL    HW138156   1.077   1.787   6.031 -1.3496 -0.7973 -1.7368
 8840SOL    HW238157   0.955   1.704   6.043 -1.8417 -1.1018  2.8230
 8841SOL     OW38158   4.656   3.474   5.765 -0.4306 -0.3772  0.3390
 8841SOL    HW138159   4.670   3.490   5.671  0.4291  1.7064  0.8198
 8841SOL    HW238160   0.002   3.484   5.815  0.1966 -0.8401 -0.5601
 8842SOL     OW38161   1.745   4.449   8.364  0.4033  0.1675  0.5534
 8842SOL    HW138162   1.675   4.413   8.311  2.8777 -1.6392 -1.4974
 8842SOL    HW238163   1.715   4.537   8.387  0.2515  0.6037 -1.3376
 8843SOL     OW38164   4.646   4.438   3.611  0.4000  0.2158 -0.1241
 8843SOL    HW138165   4.649   4.494   3.534 -0.5397  1.4325  0.7198
 8843SOL    HW238166   4.588   4.494   3.663  3.4179  1.7621  1.5920
 8844SOL     OW38167   2.853   0.475   8.777  0.2584 -0.3990 -0.4496
 8844SOL    HW138168   2.905   0.477   8.858 -0.2122 -1.4794 -0.1181
 8844SOL    HW238169   2.921   0.508   8.718 -0.3227 -0.4034 -1.1182
 8845SOL     OW38170   1.624   0.435   6.194  0.3800  0.5567 -0.7003
 8845SOL    HW138171   1.589   0.370   6.256 -2.0256  1.2015 -1.4054
 8845SOL    HW238172   1.580   0.509   6.236 -0.9910 -1.0547  0.7252
 8846SOL     OW38173   2.230   0.563  10.215  0.7321 -0.2497 -0.3984
 8846SOL    HW138174   2.309   0.517  10.187  0.0814 -0.7112 -1.4835
 8846SOL    HW238175   2.266   0.652  10.208 -0.8405  0.6824  3.6672
 8847SOL     OW38176   2.561   2.049   7.061 -0.1952  0.1332  0.5943
 8847SOL    HW138177   2.477   2.012   7.033  0.2061 -1.1039  1.0367
 8847SOL    HW238178   2.623   1.996   7.013 -0.8048  0.1246 -0.1778
 8848SOL     OW38179   2.337   3.863   6.955  0.0154  0.2817  0.3573
 8848SOL    HW138180   2.280   3.868   6.878 -0.7555  0.6307  0.9424
 8848SOL    HW238181   2.266   3.869   7.019  0.4499 -1.3592  0.9927
 8849SOL     OW38182   4.584   1.273   2.710  0.0713 -0.8445  0.1154
 8849SOL    HW138183   4.535   1.218   2.649  1.5547 -0.5579 -1.3364
 8849SOL    HW238184   4.518   1.281   2.778  2.4079 -2.9490  2.6014
 8850SOL     OW38185   0.454   1.311   8.025 -0.0747 -0.0712 -0.9782
 8850SOL    HW138186   0.446   1.337   7.933 -0.3048  3.0945 -0.0638
 8850SOL    HW238187   0.473   1.217   8.019  3.9873  0.8195 -2.0188
 8851SOL     OW38188   3.416   4.223   0.366 -0.1807 -0.7586 -0.2099
 8851SOL    HW138189   3.479   4.294   0.372  1.3657 -2.0489 -1.1558
 8851SOL    HW238190   3.422   4.186   0.278  1.2516 -0.4801 -0.2228
 8852SOL     OW38191   2.275   0.194  13.598 -0.0296  0.1638 -0.3035
 8852SOL    HW138192   2.254   0.276  13.554 -1.0626  2.0639  3.6755
 8852SOL    HW238193   2.348   0.169  13.542 -0.0978  1.0014 -0.7701
 8853SOL     OW38194   0.171   4.614   7.330  0.9498 -0.0419 -0.5054
 8853SOL    HW138195   0.158   4.637   7.238 -2.9137 -1.8698 -0.4201
 8853SOL    HW238196   0.190   4.702   7.363  1.8085 -0.8606  1.1684
 8854SOL     OW38197   0.023   4.658  15.282 -0.6964 -0.1032 -0.1992
 8854SOL    HW138198   0.041   4.571  15.319  2.6796  0.2677 -0.9411
 8854SOL    HW238199   4.711   4.696  15.357 -1.1491 -1.5277  0.2322
 8855SOL     OW38200   2.522   0.337   9.459 -0.4835  0.8211  0.3455
 8855SOL    HW138201   2.589   0.319   9.393 -0.3781  1.4159  0.2964
 8855SOL    HW238202   2.454   0.382   9.409 -0.2848  1.4182  0.6160
 8856SOL     OW38203   1.844   2.125   7.262  0.4444 -0.6655 -0.4306
 8856SOL    HW138204   1.763   2.115   7.312  2.1005 -0.0595  2.3829
 8856SOL    HW238205   1.891   2.050   7.297 -0.5713 -1.4136 -0.6843
 8857SOL     OW38206   2.668   3.284   6.861 -0.3734  0.0075 -0.0730
 8857SOL    HW138207   2.601   3.251   6.802  0.1591 -1.7343  0.2886
 8857SOL    HW238208   2.744   3.236   6.827 -0.7391  0.7638 -1.9039
 8858SOL     OW38209   4.067   1.654   4.412 -0.2910 -0.6620 -0.5176
 8858SOL    HW138210   3.998   1.599   4.376  1.6756 -1.6194 -2.8365
 8858SOL    HW238211   4.117   1.643   4.331  4.1791  0.6803  2.0384
 8859SOL     OW38212   0.257   1.445   9.853 -0.1272  0.2188 -0.2477
 8859SOL    HW138213   0.239   1.369   9.908  1.7890 -0.6850 -0.8856
 8859SOL    HW238214   0.323   1.493   9.903 -1.5007  1.7480  0.1137
 8860SOL     OW38215   2.953   1.416   1.690 -0.0784 -0.4581 -0.0952
 8860SOL    HW138216   2.959   1.437   1.783  3.7509 -1.1202 -0.1775
 8860SOL    HW238217   2.962   1.321   1.689 -0.5837 -0.5165  0.6831
 8861SOL     OW38218   2.624   3.231  11.241 -0.1005  0.3080 -0.6369
 8861SOL    HW138219   2.551   3.231  11.179 -1.0811  1.0374  0.5113
 8861SOL    HW238220   2.687   3.172  11.198 -1.1963 -1.0770 -0.3276
 8862SOL     OW38221   1.846   2.911  14.305  0.3163  0.4185 -0.0798
 8862SOL    HW138222   1.754   2.896  14.327  0.7640 -0.3089  1.3228
 8862SOL    HW238223   1.844   2.908  14.210 -4.9246 -0.2056  0.0598
 8863SOL     OW38224   4.566   2.518   2.699  0.3967 -0.7470 -0.7357
 8863SOL    HW138225   4.613   2.573   2.761 -1.5954  0.1973 -0.0562
 8863SOL    HW238226   4.523   2.449   2.751  2.6752 -0.6303  1.2976
 8864SOL     OW38227   1.769   3.892   4.073 -0.1500 -0.5899  0.5155
 8864SOL    HW138228   1.736   3.876   4.161 -0.2043 -1.2092  0.3830
 8864SOL    HW238229   1.710   3.966   4.056  0.1717 -0.2817  0.7417
 8865SOL     OW38230   4.189   1.832   3.447  0.2839 -0.2929  0.1694
 8865SOL    HW138231   4.247   1.773   3.495 -0.5789 -1.7906 -0.6158
 8865SOL    HW238232   4.159   1.881   3.524  0.8007 -1.4631  1.1242
 8866SOL     OW38233   4.363   3.172   0.708 -0.2205 -0.0670  0.0871
 8866SOL    HW138234   4.447   3.210   0.737 -1.2214  2.0598  0.2005
 8866SOL    HW238235   4.331   3.210   0.626  0.0994  0.5612  0.2525
 8867SOL     OW38236   2.970   2.710   0.076 -0.1781 -0.1591 -0.2130
 8867SOL    HW138237   3.040   2.768   0.046 -0.1693  0.7722  1.6048
 8867SOL    HW238238   2.998   2.627   0.037 -0.0126 -0.2886  0.1777
 8868SOL     OW38239   3.514   1.073  13.730  0.1465  0.6460 -0.3824
 8868SOL    HW138240   3.589   1.027  13.769 -0.9497  0.1406  1.1240
 8868SOL    HW238241   3.541   1.164  13.725 -0.0658  0.8055  1.3427
 8869SOL     OW38242   2.851   0.560   2.605  0.2548 -0.3584 -0.5189
 8869SOL    HW138243   2.882   0.643   2.641 -1.7549  0.8703 -1.5998
 8869SOL    HW238244   2.847   0.513   2.688  2.4547 -0.3728 -0.4225
 8870SOL     OW38245   0.839   0.450   4.361 -0.0447 -0.4190  0.0761
 8870SOL    HW138246   0.811   0.436   4.270 -1.0008 -2.3421  0.6705
 8870SOL    HW238247   0.903   0.521   4.351  0.3510 -0.5956  1.4247
 8871SOL     OW38248   1.726   3.782   0.750  0.5336 -0.1039  0.4710
 8871SOL    HW138249   1.637   3.806   0.723 -0.2932 -3.9845 -0.2066
 8871SOL    HW238250   1.745   3.853   0.813 -0.0678 -0.0176  0.5613
 8872SOL     OW38251   1.320   0.197   4.874  0.4852 -0.0413 -0.2558
 8872SOL    HW138252   1.305   0.281   4.918  0.0566 -0.3756  0.2285
 8872SOL    HW238253   1.310   0.227   4.783 -0.5169 -0.5637 -0.3200
 8873SOL     OW38254   0.209   3.308  14.156 -0.0767 -0.1391  0.3396
 8873SOL    HW138255   0.125   3.327  14.114  0.1806 -1.2409 -0.6671
 8873SOL    HW238256   0.187   3.325  14.248 -0.0355  0.9082  0.1645
 8874SOL     OW38257   3.362   0.877   5.277 -0.3287  0.0765 -0.3709
 8874SOL    HW138258   3.360   0.848   5.368 -0.9186  0.1790 -0.3493
 8874SOL    HW238259   3.440   0.932   5.284 -1.4846  1.7621 -0.4351
 8875SOL     OW38260   1.837   1.851   2.252  0.0001 -0.1829 -0.2757
 8875SOL    HW138261   1.770   1.895   2.200 -0.3910 -1.5903 -0.9791
 8875SOL    HW238262   1.829   1.899   2.334  2.9178 -0.9436  0.4502
 8876SOL     OW38263   1.720   0.386  15.921  0.3280 -0.2120 -0.4071
 8876SOL    HW138264   1.758   0.428  15.999 -0.2728  0.3465 -0.4156
 8876SOL    HW238265   1.753   0.432  15.844 -0.7385  1.1261 -0.0635
 8877SOL     OW38266   4.028   3.741  11.306  0.1392  0.6446  0.2695
 8877SOL    HW138267   4.039   3.778  11.218 -0.0100  0.5503  0.2105
 8877SOL    HW238268   4.102   3.682  11.294 -0.6811  0.3109 -3.3190
 8878SOL     OW38269   4.349   2.318   1.882  0.4706 -0.1609 -0.0720
 8878SOL    HW138270   4.418   2.363   1.932  1.8921 -2.2910 -0.0969
 8878SOL    HW238271   4.389   2.232   1.897  0.8857  0.4088  2.1096
 8879SOL     OW38272   3.417   4.432   7.548 -0.1871  0.5428  0.2183
 8879SOL    HW138273   3.410   4.357   7.488  1.9107  1.7082 -1.4751
 8879SOL    HW238274   3.511   4.426   7.530 -0.8104  0.9500 -3.1822
 8880SOL     OW38275   3.758   2.356   4.990  0.3177 -0.3095  0.7452
 8880SOL    HW138276   3.711   2.298   4.930  2.6129 -0.4487 -0.8925
 8880SOL    HW238277   3.709   2.335   5.070 -0.7983  1.7079  0.6035
 8881SOL     OW38278   0.702   3.003   3.920  0.3951 -0.5405  0.0563
 8881SOL    HW138279   0.714   2.922   3.871 -2.2838  0.0722 -1.5672
 8881SOL    HW238280   0.621   2.998   3.971  0.8769  1.5235  1.0342
 8882SOL     OW38281   0.178   3.969   5.557  0.4457 -0.0193 -0.0237
 8882SOL    HW138282   0.244   4.008   5.500  0.7519  2.1615  1.7986
 8882SOL    HW238283   0.104   3.982   5.498 -0.2718  0.4394  0.9696
 8883SOL     OW38284   0.499   4.425   1.856  0.0002  0.0758 -0.0846
 8883SOL    HW138285   0.535   4.472   1.932 -1.6510  0.4009  0.5022
 8883SOL    HW238286   0.581   4.392   1.821  0.3360 -0.4036  1.1518
 8884SOL     OW38287   2.082   0.329   6.998 -0.2100  0.0652  0.1285
 8884SOL    HW138288   2.091   0.377   6.916 -1.6931 -2.7267 -1.6919
 8884SOL    HW238289   2.029   0.386   7.054 -2.2175 -1.7150  0.0637
 8885SOL     OW38290   1.138   1.418  13.125 -0.2735 -0.0626  0.0352
 8885SOL    HW138291   1.168   1.328  13.134 -0.4675  0.0864  2.2276
 8885SOL    HW238292   1.226   1.453  13.110  0.1769 -0.0755  2.7277
 8886SOL     OW38293   2.300   0.053   7.473 -0.2930  0.3754  0.2932
 8886SOL    HW138294   2.293   4.698   7.507  0.9644  0.3464  0.4493
 8886SOL    HW238295   2.394   0.068   7.462 -0.7332  0.2101 -3.8559
 8887SOL     OW38296   3.635   0.252   6.908  0.1549  0.3936 -0.1378
 8887SOL    HW138297   3.671   0.339   6.889 -1.7383  1.8494  2.8827
 8887SOL    HW238298   3.622   0.259   7.002  1.7405 -2.5049  0.2889
 8888SOL     OW38299   2.302   2.032   3.104 -0.3640  0.2428 -0.0106
 8888SOL    HW138300   2.231   2.073   3.054 -0.6243 -0.4628 -0.2211
 8888SOL    HW238301   2.308   2.093   3.178  0.6004  0.1616 -0.0200
 8889SOL     OW38302   3.937   1.281   8.080  0.1460 -0.0818 -0.6173
 8889SOL    HW138303   4.015   1.226   8.088 -0.8975 -1.4601  0.2186
 8889SOL    HW238304   3.976   1.346   8.021  1.3925  1.7018  2.1557
 8890SOL     OW38305   3.678   3.541   5.518  0.5715 -0.3912  0.2424
 8890SOL    HW138306   3.673   3.636   5.504  2.0977 -0.0255  2.2118
 8890SOL    HW238307   3.614   3.517   5.451 -1.1596  0.4286  1.5874
 8891SOL     OW38308   2.192   2.754  11.685 -0.0350  0.9194  0.3475
 8891SOL    HW138309   2.275   2.737  11.641  0.6062 -1.7870  2.6462
 8891SOL    HW238310   2.204   2.846  11.707  1.1245  0.4317  1.6956
 8892SOL     OW38311   0.760   4.448   1.236  0.5173 -0.4374 -0.6352
 8892SOL    HW138312   0.808   4.416   1.160 -1.0345  1.6990 -2.4929
 8892SOL    HW238313   0.733   4.361   1.265 -0.1472 -0.4154 -1.1720
 8893SOL     OW38314   1.782   2.964   2.495 -0.0707 -0.0122  0.1964
 8893SOL    HW138315   1.732   3.020   2.554  0.4624  0.2264  0.4315
 8893SOL    HW238316   1.843   3.027   2.457 -1.8376  1.8322  0.4349
 8894SOL     OW38317   1.377   2.684   4.528 -0.0008 -0.1706 -0.3054
 8894SOL    HW138318   1.385   2.590   4.514 -0.0431 -0.7555  3.5223
 8894SOL    HW238319   1.419   2.736   4.460  0.6354  0.8589  0.8740
 8895SOL     OW38320   2.658   3.436  13.567  0.2188  0.1176  0.2262
 8895SOL    HW138321   2.730   3.494  13.591 -1.0551  1.1849  1.4349
 8895SOL    HW238322   2.602   3.497  13.519 -0.5442 -0.0091  0.9429
 8896SOL     OW38323   2.366   0.521  12.283 -0.2045 -0.3939 -0.2134
 8896SOL    HW138324   2.455   0.520  12.318  0.3455 -0.3668 -1.5874
 8896SOL    HW238325   2.325   0.578  12.348 -1.3038 -1.0082 -0.3622
 8897SOL     OW38326   1.553   2.307   4.686  0.0034  0.4486 -0.1415
 8897SOL    HW138327   1.553   2.347   4.773 -0.6239 -2.1863  1.0842
 8897SOL    HW238328   1.466   2.333   4.656  0.6139 -0.6645 -2.8345
 8898SOL     OW38329   2.279   4.361   5.181 -0.5274  0.2002  0.2554
 8898SOL    HW138330   2.359   4.313   5.203 -0.1865 -0.6012 -2.6938
 8898SOL    HW238331   2.305   4.452   5.195 -1.3775  0.1832  1.8375
 8899SOL     OW38332   3.752   2.337   9.639 -0.7080  0.3093  0.6824
 8899SOL    HW138333   3.657   2.337   9.647 -0.8017 -0.7537 -0.3288
 8899SOL    HW238334   3.771   2.244   9.624  1.6191  1.0481 -1.0248
 8900SOL     OW38335   3.245   0.766   3.375 -0.2077  0.2315  0.6048
 8900SOL    HW138336   3.232   0.813   3.457  0.5693 -0.1035  0.9216
 8900SOL    HW238337   3.159   0.782   3.337  0.4245  0.8851 -0.5448
 8901SOL     OW38338   1.557   3.985   1.700 -0.2677 -0.1426  0.2551
 8901SOL    HW138339   1.639   3.938   1.684 -0.2646  0.4147 -1.4412
 8901SOL    HW238340   1.493   3.919   1.724 -1.3915  1.3088  1.1845
 8902SOL     OW38341   1.864   0.981  14.300  0.2644  0.7198  0.1293
 8902SOL    HW138342   1.801   0.936  14.244 -1.4307  2.2428  0.7756
 8902SOL    HW238343   1.816   0.993  14.383 -1.4064 -2.7922 -0.3319
 8903SOL     OW38344   0.450   3.464   1.558 -0.0563  0.1425 -0.7923
 8903SOL    HW138345   0.413   3.376   1.560 -1.1635  0.5906 -1.5250
 8903SOL    HW238346   0.486   3.464   1.469  2.0576 -2.4779  0.0818
 8904SOL     OW38347   3.772   1.122   2.877 -0.1310 -0.1902 -0.3341
 8904SOL    HW138348   3.746   1.133   2.968  1.1805 -1.1168  0.1380
 8904SOL    HW238349   3.837   1.190   2.862  0.7820 -0.3364  3.0693
 8905SOL     OW38350   1.476   0.180   9.132  0.4645 -0.7605 -0.3963
 8905SOL    HW138351   1.516   0.260   9.097 -1.7678  1.0631  1.2020
 8905SOL    HW238352   1.455   0.198   9.224 -0.8667  0.8835 -1.0178
 8906SOL     OW38353   2.341   1.186  15.969  0.1788 -0.1508 -0.1952
 8906SOL    HW138354   2.420   1.156  15.925 -0.0660 -0.2145 -0.5953
 8906SOL    HW238355   2.314   1.103  16.007  3.9209 -0.9787  0.6413
 8907SOL     OW38356   1.913   1.205   4.792 -0.3621 -0.0295 -0.3049
 8907SOL    HW138357   1.943   1.127   4.745 -1.2042  0.3817 -1.5244
 8907SOL    HW238358   1.846   1.241   4.735 -0.8113  1.2608  1.0225
 8908SOL     OW38359   3.791   4.421   4.755  0.1515 -0.2068 -0.8332
 8908SOL    HW138360   3.841   4.456   4.829 -1.3221  2.3322 -1.0405
 8908SOL    HW238361   3.860   4.383   4.700  0.1613  0.9093 -1.5889
 8909SOL     OW38362   1.964   2.635   3.573  0.8375 -0.2730  0.4046
 8909SOL    HW138363   1.921   2.715   3.543 -0.4165 -1.1434 -0.1309
 8909SOL    HW238364   1.937   2.568   3.510  1.5698  1.8458 -2.1298
 8910SOL     OW38365   0.269   3.470  10.790  0.2617 -0.0505  0.1591
 8910SOL    HW138366   0.297   3.388  10.750 -1.2989 -0.6745  0.3449
 8910SOL    HW238367   0.327   3.475  10.866 -2.2250 -0.7294  2.0976
 8911SOL     OW38368   4.679   3.996   3.010 -0.2285 -0.0528  0.3789
 8911SOL    HW138369   4.717   4.010   3.097  0.0366  0.7751  0.1326
 8911SOL    HW238370   0.004   3.935   2.965 -1.3709 -0.4020 -0.6460
 8912SOL     OW38371   1.240   0.367   5.209 -0.9115 -0.0955 -0.4790
 8912SOL    HW138372   1.236   0.443   5.151  0.6453  0.6267  0.3334
 8912SOL    HW238373   1.209   0.400   5.293 -2.2085 -0.5564 -0.7764
 8913SOL     OW38374   1.537   1.371   1.987 -0.0421 -0.0761  0.1334
 8913SOL    HW138375   1.481   1.373   1.910 -1.0453 -0.7353  0.8394
 8913SOL    HW238376   1.499   1.299   2.037  0.1357 -1.4757 -1.7817
 8914SOL     OW38377   0.992   2.235   0.127 -0.0664  0.4330 -0.0929
 8914SOL    HW138378   0.941   2.169   0.172 -0.7478  0.6265 -0.5828
 8914SOL    HW238379   1.079   2.217   0.162 -0.2839  0.4808  0.4694
 8915SOL     OW38380   3.378   0.023   9.236  0.4732  0.3454 -0.2483
 8915SOL    HW138381   3.359   4.719   9.321  0.0032 -1.8071 -1.3149
 8915SOL    HW238382   3.416   4.680   9.193  2.2367  1.8329 -1.3411
 8916SOL     OW38383   3.705   1.780   6.712  0.2838  0.5935 -0.3750
 8916SOL    HW138384   3.728   1.858   6.762 -0.1831 -0.1085  0.9240
 8916SOL    HW238385   3.792   1.742   6.704  0.8540  1.6223  0.9716
 8917SOL     OW38386   3.090   0.922   3.821 -0.6711 -0.1211  0.4874
 8917SOL    HW138387   3.026   0.918   3.893  0.4955  0.5870  1.5552
 8917SOL    HW238388   3.145   0.990   3.859  1.1591 -1.2490 -0.1759
 8918SOL     OW38389   0.544   3.083   5.723 -0.7349 -0.3694 -0.3617
 8918SOL    HW138390   0.512   3.076   5.813  1.4739 -1.8782  0.3090
 8918SOL    HW238391   0.563   3.176   5.724 -0.9047 -0.2978 -2.5097
 8919SOL     OW38392   4.591   1.232   8.400 -0.1743  0.4196  0.1933
 8919SOL    HW138393   4.543   1.197   8.475 -0.7539 -0.3846 -0.5441
 8919SOL    HW238394   4.642   1.302   8.439 -0.8605  2.0546 -1.8389
 8920SOL     OW38395   0.488   3.763   8.819  0.7923  0.4907 -1.1020
 8920SOL    HW138396   0.413   3.729   8.772 -1.3766  2.9048  0.6042
 8920SOL    HW238397   0.559   3.702   8.800  1.7341  1.2232  0.0563
 8921SOL     OW38398   1.380   0.353   8.406 -0.6739  0.1058 -0.1774
 8921SOL    HW138399   1.356   0.438   8.370  0.4709 -0.1331 -1.4788
 8921SOL    HW238400   1.320   0.292   8.363  0.2025 -0.0069 -1.2523
 8922SOL     OW38401   0.229   3.814   4.801 -0.1947 -0.0628 -0.0565
 8922SOL    HW138402   0.222   3.780   4.712 -2.0339 -1.8507  0.7652
 8922SOL    HW238403   0.322   3.811   4.822 -0.0094  2.6401 -0.5448
 8923SOL     OW38404   3.520   0.170   7.799 -0.2505 -0.3667 -0.2182
 8923SOL    HW138405   3.514   0.087   7.751 -3.2448 -0.6594  0.6373
 8923SOL    HW238406   3.429   0.193   7.821  0.0069 -3.5753  4.2148
 8924SOL     OW38407   3.788   0.031   7.889 -0.2179 -0.1341  0.5179
 8924SOL    HW138408   3.759   0.058   7.802  1.4141 -0.9363 -0.2810
 8924SOL    HW238409   3.703   4.729   7.916 -0.0255 -0.4788  0.6663
 8925SOL     OW38410   2.394   3.425   2.711 -0.2481  0.3229 -0.0673
 8925SOL    HW138411   2.330   3.395   2.646 -0.3141 -0.0515  0.1701
 8925SOL    HW238412   2.394   3.519   2.694 -1.3057  0.8530  2.9269
 8926SOL     OW38413   2.905   4.645   6.651 -0.3766 -0.3663  0.2271
 8926SOL    HW138414   2.854   4.592   6.590  0.0495  0.0797 -0.5112
 8926SOL    HW238415   2.846   4.673   6.722  1.8626 -3.6078  3.3883
 8927SOL     OW38416   4.339   4.218  12.196 -0.9086  0.1370  0.0192
 8927SOL    HW138417   4.275   4.231  12.126 -2.4379 -1.1005  1.1907
 8927SOL    HW238418   4.368   4.130  12.170 -0.1979  1.3559 -3.3182
 8928SOL     OW38419   1.672   0.886   1.242 -0.2072  0.1489 -0.2323
 8928SOL    HW138420   1.737   0.938   1.289  0.2614 -1.5358  0.9884
 8928SOL    HW238421   1.732   0.820   1.208 -1.5372 -0.8461 -0.6771
 8929SOL     OW38422   0.883   0.252   0.564  0.3266 -0.0021  0.1851
 8929SOL    HW138423   0.947   0.260   0.493  1.7232  2.1953  1.6877
 8929SOL    HW238424   0.823   0.320   0.532 -0.9241 -1.0572  0.2918
 8930SOL     OW38425   0.620   4.515   7.772  0.0967  0.0591  0.4010
 8930SOL    HW138426   0.665   4.599   7.766  0.2200 -0.0433 -0.0940
 8930SOL    HW238427   0.691   4.454   7.755  0.6949  0.7904  0.2618
 8931SOL     OW38428   0.524   2.844   3.551  0.0585  0.2767 -0.1190
 8931SOL    HW138429   0.448   2.836   3.608 -0.4114  0.8727 -0.6551
 8931SOL    HW238430   0.594   2.868   3.612 -0.2649  1.4965 -0.2160
 8932SOL     OW38431   2.184   0.617   4.702 -0.1100  0.0288 -0.0390
 8932SOL    HW138432   2.258   0.605   4.641 -0.6504 -0.6512 -0.5555
 8932SOL    HW238433   2.210   0.562   4.776  1.0413  0.2052 -0.3051
 8933SOL     OW38434   2.658   4.592  16.635 -0.6739  0.7837  0.6433
 8933SOL    HW138435   2.567   4.584  16.608 -0.1866  1.8138 -1.2875
 8933SOL    HW238436   2.669   4.520  16.697 -1.1555 -0.4181 -0.6695
 8934SOL     OW38437   2.172   4.616   3.430 -0.1565 -0.0206  1.0491
 8934SOL    HW138438   2.078   4.615   3.448 -0.2554 -1.8005  0.3992
 8934SOL    HW238439   2.180   4.658   3.344  1.4135 -2.6501 -0.0882
 8935SOL     OW38440   4.731   1.049   2.253 -0.1499 -0.7437 -0.1462
 8935SOL    HW138441   0.036   1.055   2.340 -0.8899 -1.7845  0.2661
 8935SOL    HW238442   0.051   0.984   2.207 -1.5525 -3.2125  1.7039
 8936SOL     OW38443   0.721   4.006   7.322  0.3138 -0.2316 -0.3559
 8936SOL    HW138444   0.654   3.966   7.266  2.3413 -4.5814  0.3756
 8936SOL    HW238445   0.661   4.074   7.353 -1.5281 -2.1096  0.2834
 8937SOL     OW38446   0.385   3.073   8.855 -0.2958 -0.0215  0.3226
 8937SOL    HW138447   0.363   2.993   8.903 -1.3986 -0.7261 -1.3710
 8937SOL    HW238448   0.480   3.065   8.865 -0.3588  0.4377  1.3272
 8938SOL     OW38449   1.004   0.314  12.327  0.1177 -0.4471 -0.2883
 8938SOL    HW138450   0.968   0.318  12.416 -1.8073  0.8864 -1.1148
 8938SOL    HW238451   1.025   0.221  12.327  2.5424  0.1036  1.2042
 8939SOL     OW38452   2.192   3.203  13.694 -0.3993  0.1129 -0.0299
 8939SOL    HW138453   2.216   3.296  13.695  2.5664 -0.6688  0.4585
 8939SOL    HW238454   2.213   3.172  13.606  0.5891  1.1503 -0.1564
 8940SOL     OW38455   2.939   1.882  17.194  0.7467  0.3454 -0.2307
 8940SOL    HW138456   2.939   1.890  17.099 -1.9636  2.5087 -0.0143
 8940SOL    HW238457   2.874   1.945  17.225 -2.9337 -2.3919 -2.3968
 8941SOL     OW38458   2.340   0.156   6.875  0.2135  0.3022  0.0378
 8941SOL    HW138459   2.296   0.107   6.944  1.1100 -1.7178 -0.8254
 8941SOL    HW238460   2.431   0.134   6.894  0.2315  1.9326  1.7222
 8942SOL     OW38461   4.039   1.379   5.257  0.0947  0.6634  0.2394
 8942SOL    HW138462   4.065   1.342   5.342  2.2892  0.8747 -0.3285
 8942SOL    HW238463   4.104   1.447   5.240 -0.3636  0.6464 -1.6127
 8943SOL     OW38464   2.496   4.113  10.975  0.9783  0.1753  0.2639
 8943SOL    HW138465   2.405   4.085  10.988  1.0155  0.4896  1.1971
 8943SOL    HW238466   2.504   4.185  11.038 -0.6761  0.7736 -0.1991
 8944SOL     OW38467   0.162   4.439   3.713  0.7269 -0.7879 -0.0628
 8944SOL    HW138468   0.211   4.409   3.637 -0.0195  1.8803 -1.5757
 8944SOL    HW238469   0.072   4.425   3.683  1.3126  0.5548 -2.4221
 8945SOL     OW38470   3.163   0.906   1.071 -0.3503  0.4075  0.1665
 8945SOL    HW138471   3.087   0.882   1.019 -0.6950  1.8587 -0.0062
 8945SOL    HW238472   3.138   0.965   1.142 -0.7288 -0.6879  0.9392
 8946SOL     OW38473   4.113   1.628  12.878 -0.0838 -0.0736  0.5873
 8946SOL    HW138474   4.124   1.580  12.796 -1.0806 -0.9210  0.9646
 8946SOL    HW238475   4.206   1.653  12.880  0.3245 -1.8238  3.3897
 8947SOL     OW38476   3.148   1.796  12.329  0.3406 -0.0856 -0.1740
 8947SOL    HW138477   3.107   1.732  12.387  2.0152 -1.5999 -0.6256
 8947SOL    HW238478   3.228   1.816  12.377  0.0607 -0.6361  0.5208
 8948SOL     OW38479   4.107   1.804   2.193  0.0812 -0.1993  0.1451
 8948SOL    HW138480   4.036   1.755   2.235  0.7461 -1.1081  0.2095
 8948SOL    HW238481   4.099   1.773   2.103 -0.9582 -2.1699  0.9128
 8949SOL     OW38482   2.287   4.085  13.527  0.6445 -0.1255 -0.0755
 8949SOL    HW138483   2.192   4.089  13.518  0.5966  0.0208  0.4708
 8949SOL    HW238484   2.325   4.080  13.440  2.5308  1.1045  0.6942
 8950SOL     OW38485   3.936   3.678   5.489  0.7476  0.0180 -0.4719
 8950SOL    HW138486   3.886   3.603   5.520 -0.3115  0.4159 -1.2247
 8950SOL    HW238487   3.857   3.724   5.462 -0.6570 -0.5463  2.6851
 8951SOL     OW38488   3.427   1.476   5.659 -0.4937  0.1958 -0.6329
 8951SOL    HW138489   3.384   1.461   5.743 -1.5715 -0.1765 -1.2449
 8951SOL    HW238490   3.477   1.552   5.688  0.6546  0.2689 -2.8021
 8952SOL     OW38491   1.872   4.319   2.191 -0.3388 -0.6261 -0.0286
 8952SOL    HW138492   1.944   4.376   2.165  0.2429 -1.0234  0.7028
 8952SOL    HW238493   1.911   4.239   2.155  0.6597 -0.1092 -0.1038
 8953SOL     OW38494   4.602   1.184   1.767 -0.6495 -0.2332 -0.0332
 8953SOL    HW138495   4.556   1.174   1.850 -2.6383  2.3793 -0.8164
 8953SOL    HW238496   4.688   1.165   1.805 -0.4626  1.1062  0.2450
 8954SOL     OW38497   2.001   4.387   8.309 -0.7175 -0.1237  0.0048
 8954SOL    HW138498   1.911   4.414   8.328  0.1275  0.9596  2.4153
 8954SOL    HW238499   2.051   4.458   8.349 -1.3318  1.6105 -2.3280
 8955SOL     OW38500   2.726   3.945   1.195 -0.3971  0.0778  0.1860
 8955SOL    HW138501   2.702   4.008   1.126  0.3782  0.4547  0.2688
 8955SOL    HW238502   2.684   3.867   1.159 -0.6770 -0.7690  2.3434
 8956SOL     OW38503   4.393   3.607  11.454  1.1438 -0.1472  0.0458
 8956SOL    HW138504   4.414   3.566  11.537 -0.9165  1.7047  1.5026
 8956SOL    HW238505   4.375   3.696  11.486  1.9595  0.2243 -0.5379
 8957SOL     OW38506   0.875   2.070   5.758  0.0580  0.1283  0.4255
 8957SOL    HW138507   0.815   2.138   5.727  3.0805  2.7646  0.3247
 8957SOL    HW238508   0.958   2.093   5.716  1.4446 -1.8339  2.0932
 8958SOL     OW38509   4.357   2.060   9.173 -0.2996 -0.6148 -0.4266
 8958SOL    HW138510   4.337   1.991   9.109 -0.6509 -0.8778 -0.0368
 8958SOL    HW238511   4.354   1.996   9.244 -0.7121 -2.0151 -1.6971
 8959SOL     OW38512   3.541   2.817   7.464 -0.0231 -0.3900 -0.3604
 8959SOL    HW138513   3.598   2.794   7.538 -2.2305  1.0117  1.7683
 8959SOL    HW238514   3.610   2.859   7.414 -1.5397  3.0644  0.4221
 8960SOL     OW38515   3.254   1.302   8.065  0.2048  0.2110 -0.1596
 8960SOL    HW138516   3.166   1.304   8.029 -0.2968 -2.4695  0.9535
 8960SOL    HW238517   3.307   1.337   7.993 -0.9518 -1.3762 -1.7614
 8961SOL     OW38518   0.333   0.631   3.647  0.0204  0.0671  0.6037
 8961SOL    HW138519   0.299   0.677   3.570  1.7733 -3.0280 -1.9714
 8961SOL    HW238520   0.423   0.661   3.652  0.4341 -1.1104  0.1927
 8962SOL     OW38521   4.172   1.141   8.063 -0.1244 -0.0609 -0.3324
 8962SOL    HW138522   4.250   1.195   8.075 -2.3000  3.1692 -0.8008
 8962SOL    HW238523   4.189   1.088   7.985  0.5697  0.0704 -0.2718
 8963SOL     OW38524   3.695   4.409  14.371  0.5129 -0.1326 -0.1590
 8963SOL    HW138525   3.674   4.457  14.451 -0.3305  0.4949 -0.7682
 8963SOL    HW238526   3.788   4.387  14.382  0.7061  0.3552 -0.8214
 8964SOL     OW38527   1.942   3.096   1.232 -0.0972 -0.0310 -0.6375
 8964SOL    HW138528   2.027   3.057   1.247 -0.1635  0.1585  0.2137
 8964SOL    HW238529   1.895   3.037   1.173 -0.4565  0.4128 -0.8036
 8965SOL     OW38530   3.284   1.155   4.251 -0.6012  0.2462  0.0824
 8965SOL    HW138531   3.345   1.099   4.299 -1.9109 -1.1442  0.1326
 8965SOL    HW238532   3.321   1.243   4.262  0.3728 -0.2149  0.5664
 8966SOL     OW38533   0.734   3.147   7.655 -0.7638 -0.1225  0.0641
 8966SOL    HW138534   0.730   3.110   7.567  0.2286 -1.1139  0.4340
 8966SOL    HW238535   0.662   3.102   7.698 -0.0770  2.0342  3.4081
 8967SOL     OW38536   3.837   2.148   4.752 -0.0200  0.2772  0.0253
 8967SOL    HW138537   3.923   2.123   4.720 -0.7098 -1.6378 -0.3298
 8967SOL    HW238538   3.794   2.185   4.675 -0.4664  0.5632  0.4105
 8968SOL     OW38539   4.292   0.856   3.584 -0.5059  0.1125 -0.0719
 8968SOL    HW138540   4.377   0.817   3.604 -0.8817 -0.6112  0.1009
 8968SOL    HW238541   4.238   0.784   3.616  1.0339 -1.4843 -1.0818
 8969SOL     OW38542   2.171   4.595   9.839 -0.5019  0.0568 -0.3260
 8969SOL    HW138543   2.240   4.590   9.774  0.2798 -0.3905  0.5310
 8969SOL    HW238544   2.173   4.500   9.850  0.5118 -0.2624 -3.3640
 8970SOL     OW38545   2.420   2.915   3.502  0.1844 -0.4366  0.1741
 8970SOL    HW138546   2.422   2.986   3.438  0.5305 -1.8200 -1.3196
 8970SOL    HW238547   2.342   2.876   3.464 -0.6539  1.3186  0.0647
 8971SOL     OW38548   1.525   2.944   1.430 -0.1253 -0.9490  0.4577
 8971SOL    HW138549   1.472   3.019   1.402  1.1015  0.0108  0.7169
 8971SOL    HW238550   1.560   2.970   1.515 -0.3807  1.5991 -0.2429
 8972SOL     OW38551   2.672   2.011   9.211 -0.6236  0.2670  0.7600
 8972SOL    HW138552   2.591   2.026   9.260 -1.2330  2.0460 -0.7489
 8972SOL    HW238553   2.731   2.083   9.231 -0.4064  0.5870 -1.0136
 8973SOL     OW38554   3.901   3.079   9.166  0.1040  0.4996  0.3690
 8973SOL    HW138555   3.860   3.008   9.116 -1.7420  1.7305  0.1752
 8973SOL    HW238556   3.822   3.123   9.197 -0.2200 -0.2071  0.5395
 8974SOL     OW38557   0.684   4.491   8.524 -0.1502  0.2285  0.1983
 8974SOL    HW138558   0.654   4.475   8.613 -1.6555 -1.8273 -0.6886
 8974SOL    HW238559   0.627   4.557   8.484  0.0285  0.3060  0.0685
 8975SOL     OW38560   1.551   1.912   1.567 -0.6033 -0.0703  0.6071
 8975SOL    HW138561   1.473   1.859   1.552  0.4550 -1.1966 -0.9954
 8975SOL    HW238562   1.611   1.838   1.575  1.1515  1.2141 -0.3832
 8976SOL     OW38563   1.450   2.166   4.982 -0.1782 -0.3106 -0.1471
 8976SOL    HW138564   1.517   2.203   5.040 -1.5282  0.2880  1.0288
 8976SOL    HW238565   1.391   2.240   4.965 -1.0567 -0.6661  1.3144
 8977SOL     OW38566   4.285   1.072   5.319 -0.6728  0.6696  0.5214
 8977SOL    HW138567   4.311   1.037   5.233 -0.8296  0.6393  0.4863
 8977SOL    HW238568   4.208   1.017   5.333  1.0886 -2.1192 -0.7963
 8978SOL     OW38569   4.484   3.143   3.482 -0.1284  0.1187  0.2086
 8978SOL    HW138570   4.392   3.146   3.509  0.0622  3.0826  0.4925
 8978SOL    HW238571   4.524   3.196   3.550 -0.8469  0.1397  0.6148
 8979SOL     OW38572   0.210   4.186  12.277 -0.1858  0.2429 -0.0247
 8979SOL    HW138573   0.119   4.198  12.249 -0.2050 -2.0588 -0.9332
 8979SOL    HW238574   0.240   4.105  12.235  0.6523 -0.0366  1.1105
 8980SOL     OW38575   3.549   1.198  10.906  0.5485  0.1598 -0.2014
 8980SOL    HW138576   3.483   1.129  10.919  1.3125 -0.7976 -1.3382
 8980SOL    HW238577   3.616   1.168  10.967  0.7147  2.3934  0.6746
 8981SOL     OW38578   1.048   0.200  17.641  0.6023  0.0585 -0.1179
 8981SOL    HW138579   0.956   0.220  17.624  0.6459  1.1504  0.9298
 8981SOL    HW238580   1.059   0.120  17.589  1.1104  0.8265 -1.1983
 8982SOL     OW38581   0.078   0.201   7.817  0.2178 -0.4939 -0.6027
 8982SOL    HW138582   0.007   0.262   7.795 -0.1100 -0.3797  0.8063
 8982SOL    HW238583   0.036   0.114   7.813 -0.4873 -0.1710 -0.2389
 8983SOL     OW38584   0.233   2.656   5.701  0.6430  0.1656 -0.4039
 8983SOL    HW138585   0.220   2.571   5.661 -1.3060 -0.9223  2.5348
 8983SOL    HW238586   0.329   2.657   5.708  0.6022  1.3614  0.1571
 8984SOL     OW38587   3.297   2.951   3.415 -0.3460 -0.1342  0.3691
 8984SOL    HW138588   3.215   3.000   3.424  0.0609  0.7060 -0.4583
 8984SOL    HW238589   3.333   2.977   3.330 -1.4238  1.0670  0.2697
 8985SOL     OW38590   0.393   2.879   4.680  0.0163 -0.1902 -0.1772
 8985SOL    HW138591   0.401   2.805   4.740 -1.0358 -0.0344  0.1488
 8985SOL    HW238592   0.478   2.861   4.640 -0.0912 -1.6119  0.2365
 8986SOL     OW38593   4.671   1.617   1.973 -0.2035 -0.0395 -0.2596
 8986SOL    HW138594   4.577   1.627   1.957 -0.5347 -0.8504  1.1251
 8986SOL    HW238595   4.692   1.700   2.016  2.9235 -1.1775  0.4185
 8987SOL     OW38596   0.298   1.760  11.813  0.2484 -0.3983  0.0289
 8987SOL    HW138597   0.369   1.787  11.871  1.0724 -3.9612  0.6785
 8987SOL    HW238598   0.227   1.751  11.878  0.7641  2.5742  0.9790
 8988SOL     OW38599   3.399   4.539  11.682  0.0901 -0.2020 -0.0095
 8988SOL    HW138600   3.464   4.540  11.612 -2.4241 -1.6336 -2.3638
 8988SOL    HW238601   3.445   4.569  11.761  1.1462 -0.2120 -0.6249
 8989SOL     OW38602   2.653   1.935   4.364 -0.2266  0.5060  0.4795
 8989SOL    HW138603   2.612   1.992   4.429 -2.4793 -0.2085 -0.3079
 8989SOL    HW238604   2.734   1.983   4.349 -0.7123  1.0141 -0.4891
 8990SOL     OW38605   3.146   1.970   7.995 -0.0393 -0.0578 -0.5246
 8990SOL    HW138606   3.095   1.992   8.073  0.3252 -1.0795 -0.0034
 8990SOL    HW238607   3.234   1.984   8.031  0.5482  1.4345 -2.5242
 8991SOL     OW38608   4.520   1.379   5.314  0.0750  0.0591  0.2981
 8991SOL    HW138609   4.434   1.382   5.272 -0.1245 -0.5887  0.6765
 8991SOL    HW238610   4.494   1.339   5.396 -0.8545  1.2728  0.5963
 8992SOL     OW38611   4.721   4.709   3.765  0.2283  0.0482  0.0954
 8992SOL    HW138612   4.689   0.052   3.813 -0.1762  0.7085 -1.2293
 8992SOL    HW238613   0.080   4.695   3.785  0.3786 -0.0255 -0.6525
 8993SOL     OW38614   2.967   2.802   4.131  0.1760 -0.2926 -0.0077
 8993SOL    HW138615   3.044   2.758   4.166 -0.6963 -2.4256 -0.7672
 8993SOL    HW238616   2.990   2.833   4.044  0.1276 -0.1726  0.0224
 8994SOL     OW38617   3.803   0.640   2.713  0.9255  0.1844  0.3147
 8994SOL    HW138618   3.718   0.640   2.670  0.6044  0.6168  0.9426
 8994SOL    HW238619   3.830   0.731   2.699  1.3280  0.2473  1.5022
 8995SOL     OW38620   0.257   1.307   1.793  0.7276 -0.4937 -0.2255
 8995SOL    HW138621   0.301   1.224   1.810 -0.1535 -0.9840 -0.3127
 8995SOL    HW238622   0.199   1.311   1.869  2.4501  2.2295  0.9266
 8996SOL     OW38623   0.367   2.142   5.665 -0.1313  0.2817 -0.6390
 8996SOL    HW138624   0.349   2.195   5.587  1.7469  2.6213  0.5303
 8996SOL    HW238625   0.462   2.148   5.665 -0.0181 -1.1872  2.8907
 8997SOL     OW38626   0.350   1.875   5.289  0.5657 -0.2276 -0.2905
 8997SOL    HW138627   0.297   1.831   5.356 -0.1512  1.8252  0.4743
 8997SOL    HW238628   0.364   1.811   5.219 -0.7187 -0.8295  0.0092
 8998SOL     OW38629   1.128   2.236   3.870 -0.1067  0.0517 -0.2679
 8998SOL    HW138630   1.193   2.270   3.931 -1.1156  0.4792  0.5524
 8998SOL    HW238631   1.093   2.171   3.932 -1.2043 -1.7191 -2.7044
 8999SOL     OW38632   4.191   4.089   5.986 -0.0774  0.4128  0.4370
 8999SOL    HW138633   4.276   4.106   6.026 -0.9552  1.1981  1.9843
 8999SOL    HW238634   4.177   4.010   6.039 -0.7830  0.2065 -0.0556
 9000SOL     OW38635   4.445   1.676  11.553  0.2570  0.0468 -0.2019
 9000SOL    HW138636   4.397   1.746  11.511  2.6601  0.0275 -3.0069
 9000SOL    HW238637   4.530   1.698  11.515 -0.4370  0.6640 -1.3934
 9001SOL     OW38638   3.656   3.808   5.500  0.3839 -0.4926  0.3293
 9001SOL    HW138639   3.637   3.850   5.585  0.4274  0.7890 -0.2857
 9001SOL    HW238640   3.566   3.784   5.478 -0.0420 -0.0770  1.5906
 9002SOL     OW38641   2.753   4.090   8.371 -0.1926  0.1028  0.5506
 9002SOL    HW138642   2.817   4.143   8.324  0.2464  1.9769  3.3221
 9002SOL    HW238643   2.725   4.156   8.434  0.2492  0.6538  0.1728
 9003SOL     OW38644   3.960   3.625   8.647  0.3207  0.0496  0.1119
 9003SOL    HW138645   3.995   3.656   8.731  1.3745 -0.2766 -0.2098
 9003SOL    HW238646   4.026   3.560   8.622  2.0213  1.2026  1.5883
 9004SOL     OW38647   1.370   1.420   2.247  0.9145 -0.2092 -0.2442
 9004SOL    HW138648   1.381   1.338   2.199 -0.4174  0.0573 -1.0027
 9004SOL    HW238649   1.454   1.460   2.229 -0.0365  1.0534 -1.8320
 9005SOL     OW38650   4.541   3.272   4.339  0.4142 -0.1854 -0.1281
 9005SOL    HW138651   4.534   3.310   4.427  1.4631  0.4833 -0.3323
 9005SOL    HW238652   4.583   3.345   4.293 -1.6298  1.2065  0.2316
 9006SOL     OW38653   2.621   1.587   2.083 -0.2683  0.2792 -0.1117
 9006SOL    HW138654   2.611   1.498   2.050 -0.1175 -1.2008  3.8119
 9006SOL    HW238655   2.614   1.644   2.006 -0.4348  0.7747  0.2653
 9007SOL     OW38656   3.973   4.424  10.095 -0.5149  0.3062  0.4043
 9007SOL    HW138657   3.938   4.377  10.170  1.8834  1.1874  2.0853
 9007SOL    HW238658   4.039   4.476  10.141  0.7224 -0.7271 -0.1748
 9008SOL     OW38659   1.137   2.183   4.586 -0.1051 -0.1168 -0.6321
 9008SOL    HW138660   1.202   2.148   4.525 -0.2094  0.8508 -1.3121
 9008SOL    HW238661   1.056   2.185   4.535  0.9614  1.4139 -2.2859
 9009SOL     OW38662   3.032   4.580   8.648  0.1459  0.6910  0.1165
 9009SOL    HW138663   2.957   4.593   8.590  0.9814  0.4725 -1.0156
 9009SOL    HW238664   3.066   4.668   8.664  0.8280  0.9871 -2.8742
 9010SOL     OW38665   3.760   2.791   1.559  0.1687  0.2830 -0.1153
 9010SOL    HW138666   3.687   2.781   1.498 -0.1702  3.0968 -0.1860
 9010SOL    HW238667   3.781   2.881   1.534  0.9007  0.2212  0.2837
 9011SOL     OW38668   1.103   4.513  11.894  0.0763  0.4433 -0.4332
 9011SOL    HW138669   1.101   4.502  11.799  1.3602  0.7400 -0.4893
 9011SOL    HW238670   1.085   4.603  11.921  2.9851  1.0422 -0.4958
 9012SOL     OW38671   3.868   1.349   3.465  0.0971  0.3512 -0.1089
 9012SOL    HW138672   3.960   1.330   3.482 -0.0487  2.3902  2.9066
 9012SOL    HW238673   3.887   1.427   3.414 -0.3525  0.6255  0.1443
 9013SOL     OW38674   1.938   3.617  11.944  0.0777  0.3731 -0.3909
 9013SOL    HW138675   1.873   3.573  11.999  0.5294  0.5508  0.2914
 9013SOL    HW238676   1.876   3.674  11.898  0.3516  0.9675 -0.0230
 9014SOL     OW38677   0.047   2.715   6.577 -0.3061  0.0750  0.4156
 9014SOL    HW138678   0.017   2.798   6.614  0.1615 -0.1833  1.3939
 9014SOL    HW238679   0.088   2.731   6.492 -0.3750 -0.8920  0.1984
 9015SOL     OW38680   2.714   2.729  12.647  0.4576 -0.1303  0.3132
 9015SOL    HW138681   2.646   2.677  12.604  0.3961  0.4522 -0.2876
 9015SOL    HW238682   2.723   2.689  12.734 -0.6906 -0.5133  0.2478
 9016SOL     OW38683   3.998   3.546  12.872 -0.0926 -0.0196 -0.0360
 9016SOL    HW138684   4.069   3.610  12.882  0.6581 -0.7217 -0.8163
 9016SOL    HW238685   3.953   3.592  12.801  0.8769  1.0021  0.0079
 9017SOL     OW38686   0.190   4.725  11.076 -0.2119 -0.3774  1.1512
 9017SOL    HW138687   0.121   0.058  11.080 -0.0713 -0.1224 -0.7716
 9017SOL    HW238688   0.141   4.649  11.045  1.4078 -0.9915  0.1077
 9018SOL     OW38689   3.362   3.172  17.199 -0.5828  0.4652 -0.1198
 9018SOL    HW138690   3.438   3.115  17.210 -1.3552 -0.7608 -1.2511
 9018SOL    HW238691   3.332   3.163  17.290 -0.1521 -0.0153 -0.0251
 9019SOL     OW38692   4.121   3.189  15.946  0.3625 -0.3552  0.1433
 9019SOL    HW138693   4.160   3.219  15.864 -0.5098 -0.8772 -0.4524
 9019SOL    HW238694   4.108   3.272  15.993 -0.6029 -0.5926  0.3048
 9020SOL     OW38695   2.255   1.755   6.328  0.4092 -0.4865  0.2218
 9020SOL    HW138696   2.247   1.714   6.242  0.6247 -1.3875  0.6275
 9020SOL    HW238697   2.230   1.843   6.302  0.7398 -0.5854 -0.4216
 9021SOL     OW38698   1.741   3.739   8.510  0.1524  0.4366 -0.0893
 9021SOL    HW138699   1.724   3.777   8.424 -3.2142 -0.0008  0.3894
 9021SOL    HW238700   1.715   3.810   8.569 -0.6302  1.4797 -1.6921
 9022SOL     OW38701   0.741   3.057   2.272 -0.1207 -0.6570  0.0220
 9022SOL    HW138702   0.673   3.075   2.207  0.9000 -0.1351 -0.9134
 9022SOL    HW238703   0.822   3.096   2.237 -0.1409 -0.8439 -0.2289
 9023SOL     OW38704   1.387   3.788   7.691 -0.0134 -0.0086 -0.1347
 9023SOL    HW138705   1.402   3.721   7.624  0.7265 -0.3176  0.3321
 9023SOL    HW238706   1.351   3.738   7.765 -3.3766  1.1618 -0.9626
 9024SOL     OW38707   1.976   4.147   4.883 -0.2501 -0.2642 -0.0623
 9024SOL    HW138708   2.054   4.201   4.872 -1.1324  1.4162  1.9241
 9024SOL    HW238709   1.999   4.104   4.964 -0.2744  1.0492  0.6437
 9025SOL     OW38710   3.107   1.056   1.417  0.2634 -0.2296  0.3763
 9025SOL    HW138711   3.054   0.983   1.450 -0.6665 -0.6754 -2.0864
 9025SOL    HW238712   3.191   1.012   1.425  1.0065  1.3809  1.4083
 9026SOL     OW38713   0.746   3.434   3.582  0.5164 -0.2426  0.1628
 9026SOL    HW138714   0.824   3.487   3.598  0.2234 -0.1603  1.2962
 9026SOL    HW238715   0.713   3.424   3.671 -1.4022  0.8314 -0.4180
 9027SOL     OW38716   3.356   4.304  10.531  0.1289  0.3235 -0.2835
 9027SOL    HW138717   3.389   4.257  10.608 -1.1522 -2.8615 -1.6835
 9027SOL    HW238718   3.427   4.368  10.531 -0.7463  1.2780 -1.5886
 9028SOL     OW38719   1.741   3.588  14.121 -0.1256  0.5698  0.2138
 9028SOL    HW138720   1.766   3.610  14.031 -0.5791  2.7508  0.6094
 9028SOL    HW238721   1.654   3.628  14.125 -0.1802  0.4439  0.2683
 9029SOL     OW38722   0.606   3.242  12.166  0.3219 -0.2553  0.1760
 9029SOL    HW138723   0.545   3.177  12.201 -1.9257  0.6778 -1.9828
 9029SOL    HW238724   0.668   3.248  12.239 -1.1703  2.1930  1.2510
 9030SOL     OW38725   2.334   0.778   9.225  0.3696 -0.2485  0.1744
 9030SOL    HW138726   2.393   0.846   9.258 -1.4723  1.5719 -0.2903
 9030SOL    HW238727   2.250   0.818   9.247 -0.2617 -1.4817  0.0095
 9031SOL     OW38728   0.087   0.128   9.781 -0.0660 -0.2020  0.0294
 9031SOL    HW138729   0.069   0.201   9.722  0.9924  0.0942  0.0682
 9031SOL    HW238730   4.734   0.092   9.794  0.0130 -0.0758  0.9216
 9032SOL     OW38731   0.199   2.498   6.281  0.4070  0.2014  0.2555
 9032SOL    HW138732   0.223   2.537   6.365  1.9123  0.0323 -0.0898
 9032SOL    HW238733   0.266   2.528   6.220 -0.3174  0.8813 -0.1973
 9033SOL     OW38734   0.473   4.136   2.068 -0.3757 -0.6217  0.2297
 9033SOL    HW138735   0.475   4.098   1.980  1.9729  0.4967 -0.1959
 9033SOL    HW238736   0.477   4.228   2.043  4.1361 -1.7262 -2.9738
 9034SOL     OW38737   4.570   4.280   5.216 -0.1747 -0.0943 -0.3612
 9034SOL    HW138738   4.537   4.230   5.141  0.6457 -1.1313 -0.0390
 9034SOL    HW238739   4.490   4.319   5.252  0.2343  1.0506 -0.7030
 9035SOL     OW38740   1.001   2.477   6.386 -0.8593  0.0085 -0.1809
 9035SOL    HW138741   1.086   2.494   6.428 -0.6358 -0.3419 -0.4968
 9035SOL    HW238742   0.996   2.382   6.382 -2.2155 -0.0387  2.4917
 9036SOL     OW38743   2.429   2.324  15.369 -0.3164 -0.1628 -0.0247
 9036SOL    HW138744   2.410   2.400  15.315 -0.2362  0.5262  0.9221
 9036SOL    HW238745   2.358   2.262  15.352  0.7434 -0.8747 -1.8652
 9037SOL     OW38746   4.720   3.629  12.839 -0.1384  0.8960 -0.7795
 9037SOL    HW138747   0.037   3.610  12.918  1.5350  1.6898 -1.6772
 9037SOL    HW238748   4.688   3.540  12.829 -0.5474  0.8922  0.6148
 9038SOL     OW38749   1.788   1.110   5.051  0.2378 -0.4440  0.2285
 9038SOL    HW138750   1.765   1.180   4.990 -1.2372 -0.2421  0.9911
 9038SOL    HW238751   1.879   1.096   5.025 -0.2008 -1.2927 -0.8342
 9039SOL     OW38752   0.411   0.402   8.208  0.0330 -0.2982  0.3981
 9039SOL    HW138753   0.439   0.460   8.279  1.5753  0.0738 -0.5126
 9039SOL    HW238754   0.324   0.434   8.185 -0.9953 -1.9048  2.0242
 9040SOL     OW38755   0.091   2.623  12.579  0.0126  0.1559 -0.1899
 9040SOL    HW138756   0.003   2.661  12.578 -0.1733 -0.2093  2.2846
 9040SOL    HW238757   0.118   2.642  12.489  1.1645  2.7876  0.7021
 9041SOL     OW38758   3.532   2.941  10.270  0.1765 -0.2949  0.2565
 9041SOL    HW138759   3.486   2.882  10.330  2.3091 -0.7711  1.4294
 9041SOL    HW238760   3.591   2.873  10.237 -1.8483 -1.0175 -1.8604
 9042SOL     OW38761   4.694   0.129  11.086 -0.1489  0.1682  0.2593
 9042SOL    HW138762   4.689   0.224  11.084 -2.8032 -0.0420 -3.0742
 9042SOL    HW238763   4.607   0.109  11.051  0.8825  0.9931 -2.7265
 9043SOL     OW38764   2.161   1.459   3.802  0.2154  0.0026 -0.6898
 9043SOL    HW138765   2.253   1.468   3.777  1.3653  0.4265  3.6453
 9043SOL    HW238766   2.166   1.408   3.883  0.0964  0.8859 -0.1266
 9044SOL     OW38767   3.115   0.007   6.532 -0.0254 -0.4157  0.5269
 9044SOL    HW138768   3.143   4.669   6.476  2.2101  0.0236  1.0652
 9044SOL    HW238769   3.041   4.707   6.583  0.6203 -0.6803  1.2976
 9045SOL     OW38770   3.285   0.232   6.176 -1.0337 -0.3486 -0.1070
 9045SOL    HW138771   3.257   0.142   6.162  0.0077 -0.4905 -1.2561
 9045SOL    HW238772   3.275   0.267   6.087  0.1621  0.4891  0.0851
 9046SOL     OW38773   0.006   4.031   4.631  0.5224 -0.4844 -0.7122
 9046SOL    HW138774   4.728   3.993   4.718  3.1434  1.8737  0.6865
 9046SOL    HW238775   0.082   4.089   4.644  0.0906 -0.4041  1.5244
 9047SOL     OW38776   3.647   0.555  15.652  0.3142  0.0918 -0.3525
 9047SOL    HW138777   3.686   0.558  15.740  1.0148  0.9948 -0.6916
 9047SOL    HW238778   3.679   0.631  15.603  0.4296  0.4083  0.2055
 9048SOL     OW38779   1.927   3.188   6.288  0.7866 -0.0711  0.2590
 9048SOL    HW138780   1.922   3.281   6.312  2.0727  0.2914 -0.8901
 9048SOL    HW238781   2.011   3.192   6.243  0.7649 -4.7546 -0.2099
 9049SOL     OW38782   3.127   4.144  10.691 -0.1112  0.1768  0.0292
 9049SOL    HW138783   3.129   4.064  10.744  0.7727  0.5956  0.6443
 9049SOL    HW238784   3.222   4.152  10.679 -0.5218  2.5664 -1.6707
 9050SOL     OW38785   2.855   2.467   7.592 -0.2844  0.1750 -0.2577
 9050SOL    HW138786   2.945   2.496   7.573  0.5438 -1.8711  0.5693
 9050SOL    HW238787   2.810   2.536   7.543  0.5447  0.4074 -0.7078
 9051SOL     OW38788   0.682   2.380  16.903 -0.6605 -0.5071  0.3456
 9051SOL    HW138789   0.674   2.475  16.904 -1.2058 -0.5361 -1.2112
 9051SOL    HW238790   0.653   2.352  16.816 -2.2712  0.3389  0.6168
 9052SOL     OW38791   3.905   1.522   3.827 -0.3171  0.1386  0.1854
 9052SOL    HW138792   3.938   1.436   3.854 -1.0106 -0.9857 -2.5749
 9052SOL    HW238793   3.896   1.564   3.913 -0.5386  1.4539 -0.4772
 9053SOL     OW38794   4.087   0.560   7.629  0.1685 -0.6262  0.0677
 9053SOL    HW138795   4.105   0.588   7.539  1.3096 -0.5551  0.3206
 9053SOL    HW238796   4.018   0.620   7.658  2.0841  0.5179  2.2315
 9054SOL     OW38797   1.956   0.641  13.232 -0.2183  0.1321 -0.3904
 9054SOL    HW138798   2.000   0.685  13.305 -0.0198 -1.7380  0.5997
 9054SOL    HW238799   1.865   0.643  13.261 -0.0131  2.3336  0.1378
 9055SOL     OW38800   1.399   3.122   8.116  0.7132  0.1767  0.0644
 9055SOL    HW138801   1.444   3.079   8.043 -1.0518 -0.9102 -0.3805
 9055SOL    HW238802   1.320   3.159   8.077 -1.2323 -1.2189  2.6864
 9056SOL     OW38803   0.449   0.546   2.004  0.0181 -1.1740  0.2492
 9056SOL    HW138804   0.522   0.583   1.955 -0.2682 -2.5650 -1.2185
 9056SOL    HW238805   0.431   0.473   1.945 -2.0678 -0.7032  0.2779
 9057SOL     OW38806   4.103   2.045   1.101 -0.0061 -0.1079  0.2639
 9057SOL    HW138807   4.096   2.117   1.164 -0.3526  0.9527 -0.9937
 9057SOL    HW238808   4.033   1.983   1.122 -1.3149  1.5560  0.8307
 9058SOL     OW38809   3.024   2.357  13.266  0.3028 -0.4533 -0.2672
 9058SOL    HW138810   3.075   2.393  13.193  0.4877  0.5566  0.3786
 9058SOL    HW238811   2.989   2.432  13.313  0.3907  0.7945 -2.1830
 9059SOL     OW38812   1.698   0.899   6.601 -0.1710 -0.4631  0.2894
 9059SOL    HW138813   1.630   0.907   6.535  0.3349  1.0085 -0.0371
 9059SOL    HW238814   1.756   0.828   6.571 -0.6151  0.3094 -2.3947
 9060SOL     OW38815   1.142   1.194   2.020 -0.0008 -0.4537  0.0239
 9060SOL    HW138816   1.118   1.190   2.113  2.1798  0.7322  0.6170
 9060SOL    HW238817   1.204   1.123   2.008  2.5975  1.6721  1.0288
 9061SOL     OW38818   1.821   4.719  15.450 -0.4169 -0.4998 -0.0835
 9061SOL    HW138819   1.875   4.691  15.376 -0.1502  1.1344 -0.5209
 9061SOL    HW238820   1.877   0.034  15.510 -2.0543 -0.3346  1.3237
 9062SOL     OW38821   1.097   1.284   7.003 -0.3959  0.2383  0.2608
 9062SOL    HW138822   1.139   1.267   7.088  0.3199  0.0618 -0.1294
 9062SOL    HW238823   1.153   1.349   6.961  0.2181 -0.1733  0.4527
 9063SOL     OW38824   4.225   4.612   9.963 -0.1064  0.3397  0.0933
 9063SOL    HW138825   4.255   4.549  10.029 -1.1823  0.5943  0.8153
 9063SOL    HW238826   4.205   4.546   9.898 -0.1174 -0.2034  0.6459
 9064SOL     OW38827   4.677   4.579   6.280  0.2147 -0.6733 -0.4721
 9064SOL    HW138828   4.725   4.553   6.201 -2.3889  0.1420 -2.3519
 9064SOL    HW238829   0.003   4.551   6.349  0.6037  0.2597 -0.4324
 9065SOL     OW38830   3.382   1.549   3.959  0.4863 -0.1883  0.3963
 9065SOL    HW138831   3.328   1.545   4.037  1.5008  0.0744  1.1043
 9065SOL    HW238832   3.342   1.479   3.907  1.3385  0.8630 -1.6760
 9066SOL     OW38833   3.985   2.430   4.090  0.3349  0.2665 -0.3168
 9066SOL    HW138834   4.024   2.509   4.128  2.7940 -1.4176  0.6778
 9066SOL    HW238835   3.898   2.468   4.080  0.4871  0.1115 -2.2589
 9067SOL     OW38836   2.394   2.272   4.921 -0.1231 -0.3794 -0.5947
 9067SOL    HW138837   2.402   2.361   4.955  3.0597 -0.0071 -2.2969
 9067SOL    HW238838   2.305   2.275   4.887 -0.4775  3.7914  0.7383
 9068SOL     OW38839   3.545   0.291   7.524 -0.2186  0.8266 -0.5140
 9068SOL    HW138840   3.539   0.308   7.618  1.9801  2.3409 -0.6611
 9068SOL    HW238841   3.536   0.195   7.521 -1.4341  0.9713 -1.5183
 9069SOL     OW38842   0.315   1.389   7.501  0.0118 -0.0046 -0.5696
 9069SOL    HW138843   0.337   1.360   7.590 -0.8533  0.9380 -0.0454
 9069SOL    HW238844   0.383   1.331   7.466  0.2591 -0.7902  1.2145
 9070SOL     OW38845   3.798   1.312  16.017 -0.0053  0.2765  0.1288
 9070SOL    HW138846   3.765   1.266  15.940 -2.7384 -1.3842  2.3116
 9070SOL    HW238847   3.735   1.382  16.032 -0.0975  0.1108  0.5054
 9071SOL     OW38848   0.821   2.045  17.524  0.0611  0.0159 -0.4177
 9071SOL    HW138849   0.823   2.023  17.430 -0.4245  0.5527 -0.5529
 9071SOL    HW238850   0.863   2.131  17.527  0.6544 -0.2722 -0.4261
 9072SOL     OW38851   3.336   0.861  12.469  0.4096 -0.0264  0.4400
 9072SOL    HW138852   3.270   0.925  12.442  1.1623  0.4610 -0.2592
 9072SOL    HW238853   3.336   0.865  12.564 -0.1050  1.7013  0.3721
 9073SOL     OW38854   0.855   3.593  11.543 -0.1730  0.4370  0.6352
 9073SOL    HW138855   0.843   3.635  11.628 -0.8868  0.6745  0.4175
 9073SOL    HW238856   0.792   3.522  11.537 -2.6078  2.4376  2.5677
 9074SOL     OW38857   1.583   1.946  17.038  0.6198  0.3465 -0.7684
 9074SOL    HW138858   1.501   1.898  17.025  2.6284 -2.6337 -2.4948
 9074SOL    HW238859   1.641   1.875  17.010  1.0723  0.5549 -0.3624
 9075SOL     OW38860   3.220   3.276   2.950  0.6434 -0.1013  0.2238
 9075SOL    HW138861   3.126   3.296   2.948  1.4258  3.6016  0.6357
 9075SOL    HW238862   3.266   3.358   2.933  0.6569  0.0543  0.9974
 9076SOL     OW38863   4.717   3.559   5.506  0.8906 -0.1755  0.3331
 9076SOL    HW138864   4.668   3.608   5.440  1.0614  0.2212  0.5061
 9076SOL    HW238865   0.062   3.527   5.461 -1.3229 -0.9227 -3.0501
 9077SOL     OW38866   1.800   3.740  16.019  0.4668  0.0816  0.1515
 9077SOL    HW138867   1.806   3.740  16.115  0.9053 -0.7817  0.1324
 9077SOL    HW238868   1.839   3.826  16.007  3.2463 -1.0651  0.7279
 9078SOL     OW38869   1.311   1.542  17.493 -0.9456  0.4227 -0.7419
 9078SOL    HW138870   1.309   1.450  17.470  0.5829  0.4318 -0.9089
 9078SOL    HW238871   1.255   1.554  17.570 -0.3047  0.8809 -0.3409
 9079SOL     OW38872   3.553   2.844   2.504 -0.7634 -0.3810  0.3740
 9079SOL    HW138873   3.620   2.777   2.489 -0.4006 -0.5548  2.7488
 9079SOL    HW238874   3.544   2.880   2.416  1.3614 -0.1245  0.2523
 9080SOL     OW38875   1.882   4.159   1.878 -0.4867 -0.3764 -0.4718
 9080SOL    HW138876   1.802   4.205   1.903 -0.3861 -0.0710 -0.6940
 9080SOL    HW238877   1.928   4.142   1.960  0.5227  1.9942 -0.5325
 9081SOL     OW38878   1.440   2.052   8.815  0.2041 -0.3250 -0.3650
 9081SOL    HW138879   1.508   2.073   8.751  0.5214 -0.3602 -0.0421
 9081SOL    HW238880   1.484   1.986   8.869 -0.1210 -0.5981 -0.4397
 9082SOL     OW38881   1.437   4.572  16.480 -0.3382  0.1618  0.3182
 9082SOL    HW138882   1.513   4.543  16.530 -0.7008  0.2483  0.9161
 9082SOL    HW238883   1.461   4.546  16.391  1.3758  0.0681  0.8171
 9083SOL     OW38884   1.613   0.008   6.757  0.9214  0.0260  0.1268
 9083SOL    HW138885   1.539   0.018   6.816  1.4342  0.6697  0.6643
 9083SOL    HW238886   1.590   4.656   6.723 -0.0826  0.2648  0.2135
 9084SOL     OW38887   4.320   4.058  10.766  0.1941  0.0162 -1.0828
 9084SOL    HW138888   4.415   4.066  10.766  0.4214 -2.9318  0.6121
 9084SOL    HW238889   4.302   4.021  10.853 -0.5600 -0.6742 -1.5431
 9085SOL     OW38890   2.111   2.992   3.570  0.5035 -0.0485 -0.2652
 9085SOL    HW138891   2.134   3.081   3.597  0.8499 -0.8756  2.1976
 9085SOL    HW238892   2.057   2.964   3.644  2.5668  0.2798  1.3522
 9086SOL     OW38893   0.542   3.535   3.157  0.4268  0.2436 -0.1768
 9086SOL    HW138894   0.507   3.456   3.197 -2.3570  1.0055 -1.1335
 9086SOL    HW238895   0.617   3.555   3.214  0.4541  0.2894 -0.2288
 9087SOL     OW38896   4.670   0.780  13.897 -0.3796 -0.0183  0.3961
 9087SOL    HW138897   4.617   0.711  13.938  1.3339 -1.4906  0.1355
 9087SOL    HW238898   0.015   0.730  13.876  2.5857  4.0801  1.9561
 9088SOL     OW38899   1.761   3.153  12.493  0.0347  0.1941  0.3583
 9088SOL    HW138900   1.827   3.132  12.427  1.3407 -0.0003  1.7172
 9088SOL    HW238901   1.785   3.242  12.520 -0.1813  0.3512  0.0245
 9089SOL     OW38902   2.308   3.948   9.591 -0.2650  0.1647 -0.2351
 9089SOL    HW138903   2.360   3.875   9.624 -0.9256  0.1324  0.7492
 9089SOL    HW238904   2.362   4.027   9.597 -0.4707  0.4997 -2.7549
 9090SOL     OW38905   3.965   1.605   2.362  0.5533  0.0746  0.4506
 9090SOL    HW138906   3.973   1.662   2.437 -0.7424  1.3028 -0.3392
 9090SOL    HW238907   3.877   1.570   2.377  0.4005  1.1600  2.0181
 9091SOL     OW38908   2.734   2.997   3.190 -0.0919 -0.0324 -0.1573
 9091SOL    HW138909   2.795   2.945   3.242 -0.7261 -1.1465 -0.5191
 9091SOL    HW238910   2.695   2.927   3.137  1.4807 -0.5097 -0.6645
 9092SOL     OW38911   2.332   3.936   1.970 -0.1320  0.5400  0.5333
 9092SOL    HW138912   2.346   4.026   2.000  0.8391  1.5279 -2.8514
 9092SOL    HW238913   2.285   3.895   2.042 -3.0229  0.8099 -1.2053
 9093SOL     OW38914   2.424   2.558   2.310  0.2074  0.0239 -0.3035
 9093SOL    HW138915   2.410   2.628   2.245 -0.5907  0.0182 -0.1441
 9093SOL    HW238916   2.516   2.568   2.335  0.2442  1.0186 -0.7937
 9094SOL     OW38917   0.829   3.339   5.294 -0.1478 -0.6237 -0.4824
 9094SOL    HW138918   0.752   3.354   5.348  1.0336 -1.1068  1.3362
 9094SOL    HW238919   0.890   3.394   5.344 -1.1788  0.1941 -0.1227
 9095SOL     OW38920   3.011   2.256   2.629  0.0766  0.4873 -0.3007
 9095SOL    HW138921   3.082   2.223   2.684  0.1628  1.1307 -0.0293
 9095SOL    HW238922   2.951   2.278   2.701  1.8758 -1.0108  1.6528
 9096SOL     OW38923   1.818   2.104   3.273 -0.2579 -0.2564 -0.4428
 9096SOL    HW138924   1.812   2.199   3.268  2.2967 -0.0700  0.0077
 9096SOL    HW238925   1.777   2.092   3.187  1.8785 -0.1699 -1.4807
 9097SOL     OW38926   3.404   1.759   3.524  0.0511  0.0774  0.4131
 9097SOL    HW138927   3.311   1.774   3.542  0.1914  0.0319  1.1727
 9097SOL    HW238928   3.433   1.840   3.566 -1.9928  1.5152 -0.9257
 9098SOL     OW38929   2.557   1.842   1.947  0.0190  0.4149 -0.4530
 9098SOL    HW138930   2.462   1.849   1.933 -0.1831 -1.9815 -0.1619
 9098SOL    HW238931   2.575   1.929   1.984 -1.4535  0.0943  1.0402
 9099SOL     OW38932   4.262   2.486   3.638 -0.4814  0.3772  0.3932
 9099SOL    HW138933   4.286   2.550   3.570 -1.8208 -0.2393 -0.6666
 9099SOL    HW238934   4.331   2.426   3.611 -1.0586  0.8234 -2.1590
 9100SOL     OW38935   3.985   0.363   4.285  0.2867 -0.2020 -0.5039
 9100SOL    HW138936   3.940   0.410   4.355  1.2893 -1.3616  0.9045
 9100SOL    HW238937   3.987   0.269   4.305 -0.8525  0.5049  2.8629
 9101SOL     OW38938   0.233   3.388   5.899  0.0098 -0.0224  0.2104
 9101SOL    HW138939   0.227   3.352   5.811  1.3754  2.3653 -0.8471
 9101SOL    HW238940   0.327   3.378   5.911 -0.0759 -0.7588  0.2461
 9102SOL     OW38941   3.223   3.753   5.058 -0.5507 -0.1841  0.7088
 9102SOL    HW138942   3.169   3.796   5.124 -2.1567  0.9901 -1.3679
 9102SOL    HW238943   3.258   3.685   5.115  0.5306  0.7041  1.1313
 9103SOL     OW38944   2.223   2.213   4.612  0.2551 -0.0137 -0.3263
 9103SOL    HW138945   2.276   2.285   4.646 -0.0081 -0.5441  1.2411
 9103SOL    HW238946   2.246   2.207   4.520  0.5386  1.2994 -0.3392
 9104SOL     OW38947   1.213   3.530   5.478 -0.4899 -0.4145  0.6885
 9104SOL    HW138948   1.276   3.501   5.544 -1.2874 -0.4179  1.4530
 9104SOL    HW238949   1.139   3.552   5.534 -0.3768 -1.4948  1.2715
 9105SOL     OW38950   1.336   4.103   3.151 -0.2662 -0.4716 -1.5136
 9105SOL    HW138951   1.325   4.152   3.070  0.6456  2.6007  0.2110
 9105SOL    HW238952   1.431   4.105   3.164 -0.3411  1.5327 -1.2755
 9106SOL     OW38953   1.516   1.063  12.458  0.1267 -0.2130  0.3774
 9106SOL    HW138954   1.525   1.158  12.462  0.0440 -0.1598 -0.5968
 9106SOL    HW238955   1.431   1.045  12.417  0.6581  3.2790 -2.2964
 9107SOL     OW38956   4.708   1.989   3.667 -0.3534  0.1955  0.7580
 9107SOL    HW138957   4.618   1.968   3.644  0.4230 -2.6447  0.3859
 9107SOL    HW238958   4.727   1.918   3.729 -0.3557 -0.0537  0.4717
 9108SOL     OW38959   3.937   2.585   7.843  0.0394  0.2862  0.2861
 9108SOL    HW138960   3.966   2.587   7.935 -1.9144 -0.1597  0.9100
 9108SOL    HW238961   3.901   2.497   7.834  0.7592 -0.1075  1.1530
 9109SOL     OW38962   0.603   3.057   7.406 -0.1528  0.4966 -0.3151
 9109SOL    HW138963   0.531   3.105   7.364 -0.3537  0.0328 -0.5022
 9109SOL    HW238964   0.562   2.985   7.454  0.0358  0.5827 -0.0281
 9110SOL     OW38965   2.373   3.471   8.393 -0.1823 -0.5840 -0.2585
 9110SOL    HW138966   2.409   3.552   8.429 -1.1180  0.5199 -1.8134
 9110SOL    HW238967   2.324   3.505   8.318  0.9198 -0.5823 -0.9865
 9111SOL     OW38968   0.093   2.655  12.259 -0.0878  0.3918 -0.2842
 9111SOL    HW138969   0.012   2.630  12.215 -0.9727  0.3784  1.3744
 9111SOL    HW238970   0.060   2.733  12.305  1.2022  1.7873 -1.7398
 9112SOL     OW38971   3.209   3.240  13.602 -0.0005 -0.4019  0.6594
 9112SOL    HW138972   3.254   3.323  13.610 -3.0335  1.1096  2.1515
 9112SOL    HW238973   3.220   3.208  13.513 -0.2638  1.7804 -0.1531
 9113SOL     OW38974   1.390   2.330  16.844 -0.6119  0.4501  0.1400
 9113SOL    HW138975   1.373   2.345  16.937 -3.0951 -1.3074 -0.0455
 9113SOL    HW238976   1.308   2.360  16.806 -0.3155 -0.8261 -1.4669
 9114SOL     OW38977   1.334   1.336   4.568  0.2755  0.5110  0.2767
 9114SOL    HW138978   1.259   1.358   4.513  1.0394  1.0727 -0.5360
 9114SOL    HW238979   1.304   1.371   4.651 -1.5362 -2.1273  0.7441
 9115SOL     OW38980   1.740   2.078   2.921 -0.8742  0.3496 -1.1047
 9115SOL    HW138981   1.742   2.157   2.867 -1.9928  0.8355 -0.4269
 9115SOL    HW238982   1.834   2.062   2.914 -0.9261 -0.3436 -0.1033
 9116SOL     OW38983   3.685   0.465   3.379  0.0707  0.2543 -0.3541
 9116SOL    HW138984   3.621   0.533   3.400 -1.1013 -1.1530  0.5999
 9116SOL    HW238985   3.632   0.386   3.390  0.8867  0.0980  2.4863
 9117SOL     OW38986   0.662   2.508   9.454 -0.4646 -0.1568  0.7750
 9117SOL    HW138987   0.673   2.581   9.514 -1.0240 -0.4900  1.2760
 9117SOL    HW238988   0.676   2.426   9.502  1.3851  0.0490  0.5754
 9118SOL     OW38989   1.235   1.499   0.965 -0.5549 -0.7670  0.0605
 9118SOL    HW138990   1.240   1.587   1.003 -0.5573 -1.6881  2.1550
 9118SOL    HW238991   1.313   1.469   1.012 -0.0856 -0.8073 -0.7386
 9119SOL     OW38992   3.177   4.299   4.153  0.1974 -0.0419 -0.0968
 9119SOL    HW138993   3.114   4.353   4.106 -1.1941 -1.2821  0.3583
 9119SOL    HW238994   3.247   4.327   4.093  0.3226 -3.1816 -1.4338
 9120SOL     OW38995   2.299   0.678   7.356 -0.5150 -0.2450  0.6524
 9120SOL    HW138996   2.322   0.592   7.322  1.2010 -0.4514  2.3712
 9120SOL    HW238997   2.309   0.717   7.269  1.5031 -0.3652  0.8386
 9121SOL     OW38998   1.169   1.511  17.242 -0.8270 -0.4970 -0.1362
 9121SOL    HW138999   1.226   1.444  17.280 -0.2159 -1.0580 -1.9950
 9121SOL    HW239000   1.230   1.584  17.254  0.1191 -1.4470  0.7826
 9122SOL     OW39001   0.478   3.400   2.802  0.2552  0.2774 -0.0403
 9122SOL    HW139002   0.504   3.478   2.851  0.1114 -0.0234  0.5209
 9122SOL    HW239003   0.408   3.363   2.856  0.6206 -0.2156  0.0984
 9123SOL     OW39004   2.205   2.162   8.393 -0.0158  0.2014 -0.2972
 9123SOL    HW139005   2.227   2.116   8.312  1.4530  2.4199 -1.1787
 9123SOL    HW239006   2.214   2.252   8.361  4.4882 -0.0311  0.3249
 9124SOL     OW39007   2.541   1.288   9.114  0.2347  0.3748  0.2336
 9124SOL    HW139008   2.492   1.366   9.086 -1.8270  0.0254  2.8499
 9124SOL    HW239009   2.466   1.234   9.140 -0.0589 -0.8060 -3.1056
 9125SOL     OW39010   1.899   1.092   2.631  0.0132 -0.5542 -0.0546
 9125SOL    HW139011   1.860   1.029   2.570 -0.6970 -0.0918 -0.0752
 9125SOL    HW239012   1.951   1.035   2.689 -0.1014 -1.4561 -0.8526
 9126SOL     OW39013   2.746   0.095   2.972  0.0560  0.0669 -0.6888
 9126SOL    HW139014   2.822   0.146   3.001  0.4124 -1.7525  1.4832
 9126SOL    HW239015   2.781   0.037   2.904 -0.2598  1.1134 -1.7495
 9127SOL     OW39016   0.957   3.603   3.536 -0.5180 -0.0070  0.2334
 9127SOL    HW139017   1.015   3.527   3.528  0.9013  1.3229 -1.9306
 9127SOL    HW239018   0.981   3.649   3.456 -0.2115  0.0090  0.3359
 9128SOL     OW39019   1.169   1.000   8.306 -0.1629 -0.4517  0.4226
 9128SOL    HW139020   1.078   0.996   8.277  0.6739  1.1500 -2.4385
 9128SOL    HW239021   1.211   1.063   8.247 -1.5256  1.2390  1.2372
 9129SOL     OW39022   2.290   4.662  12.389 -0.1044  0.5980 -0.5320
 9129SOL    HW139023   2.286   4.598  12.317  0.0358  0.1418 -0.1296
 9129SOL    HW239024   2.382   4.651  12.412  0.1176 -0.7995 -2.0047
 9130SOL     OW39025   1.669   2.142   7.883  0.2439 -0.2411  0.0893
 9130SOL    HW139026   1.705   2.170   7.968 -1.7381  2.3612  0.0611
 9130SOL    HW239027   1.745   2.120   7.828  1.7103 -2.5474  3.0072
 9131SOL     OW39028   3.336   3.863   8.170 -0.5590  0.5016 -0.1525
 9131SOL    HW139029   3.380   3.792   8.218 -0.4135  1.1558  0.6886
 9131SOL    HW239030   3.344   3.846   8.077  2.1102  1.5754 -0.1405
 9132SOL     OW39031   2.955   3.708   9.514  0.2259  0.4768 -0.1375
 9132SOL    HW139032   3.048   3.730   9.526  0.1639  0.3250  0.6270
 9132SOL    HW239033   2.921   3.683   9.600 -0.3688  2.9985  0.3701
 9133SOL     OW39034   4.728   2.342   3.671 -0.2713  0.2458 -0.1376
 9133SOL    HW139035   0.023   2.431   3.690  1.4884 -0.0086 -1.5492
 9133SOL    HW239036   0.037   2.301   3.747 -0.8471  0.5639  0.3570
 9134SOL     OW39037   0.130   0.976  10.420  0.4726  0.2554 -0.1804
 9134SOL    HW139038   0.161   1.034  10.489 -2.4632 -0.6031  1.8563
 9134SOL    HW239039   0.149   0.893  10.465 -0.3554  0.2102  0.0941
 9135SOL     OW39040   2.085   1.740   0.311 -0.0887  0.0099 -0.2476
 9135SOL    HW139041   2.032   1.683   0.256 -0.7855  1.5549 -1.1755
 9135SOL    HW239042   2.132   1.789   0.243 -0.0047 -0.6885 -0.6862
 9136SOL     OW39043   0.770   0.853   6.425 -0.1363  0.1797  0.0295
 9136SOL    HW139044   0.768   0.818   6.336  0.3105 -3.2076  1.3192
 9136SOL    HW239045   0.687   0.828   6.467 -0.6306  1.1142 -0.3953
 9137SOL     OW39046   2.930   1.236   8.348 -0.0078  0.0315 -0.9528
 9137SOL    HW139047   2.969   1.318   8.318 -0.8637  0.4217 -1.0115
 9137SOL    HW239048   2.839   1.264   8.357 -0.5872 -2.4360  0.9377
 9138SOL     OW39049   2.095   4.175   7.974 -0.7829  0.4285 -0.5312
 9138SOL    HW139050   2.048   4.255   7.996  0.2058  0.3586  1.8577
 9138SOL    HW239051   2.020   4.124   7.946  0.7494 -1.8311 -0.5605
 9139SOL     OW39052   3.196   2.376   1.245 -0.2801 -0.2188 -0.1009
 9139SOL    HW139053   3.164   2.321   1.317 -2.2360  1.6712  0.4562
 9139SOL    HW239054   3.125   2.390   1.182 -0.7775 -1.3014  0.2025
 9140SOL     OW39055   3.730   1.856  13.881  0.1879  0.4081 -0.0612
 9140SOL    HW139056   3.741   1.932  13.824 -0.4065 -0.9382 -1.9769
 9140SOL    HW239057   3.814   1.811  13.879  0.7356  1.3599  1.3108
 9141SOL     OW39058   3.484   0.927  14.779  0.0033  0.0905 -0.0902
 9141SOL    HW139059   3.501   1.005  14.832  1.4069 -0.6933  0.6264
 9141SOL    HW239060   3.511   0.952  14.691  0.8138 -3.4067 -0.8549
 9142SOL     OW39061   0.989   1.022  10.477 -0.0164 -0.1663  0.8948
 9142SOL    HW139062   1.058   1.083  10.453 -0.9508  0.3645 -0.4060
 9142SOL    HW239063   1.016   0.962  10.407  1.6363 -0.2433  1.5930
 9143SOL     OW39064   3.551   4.507   9.211  0.4899  0.4477 -0.4718
 9143SOL    HW139065   3.581   4.427   9.254 -1.9894  0.3051  1.0101
 9143SOL    HW239066   3.503   4.481   9.132  0.7020  1.2148 -0.8525
 9144SOL     OW39067   0.180   0.463   5.595  0.0276  0.0342 -0.1056
 9144SOL    HW139068   0.115   0.467   5.665  0.7750  1.1872  0.5107
 9144SOL    HW239069   0.252   0.411   5.630 -0.5839 -1.4331 -1.0022
 9145SOL     OW39070   0.806   0.591  11.899 -0.0167  0.4769  0.7806
 9145SOL    HW139071   0.896   0.565  11.919  0.1987  0.3259 -0.3858
 9145SOL    HW239072   0.771   0.514  11.945  0.1043 -0.0976 -0.0985
 9146SOL     OW39073   1.705   3.595   7.445 -0.2032 -0.5967 -0.5693
 9146SOL    HW139074   1.632   3.602   7.384 -0.3302  2.0257 -0.1149
 9146SOL    HW239075   1.687   3.506   7.477 -1.0512 -1.5596 -3.7288
 9147SOL     OW39076   3.860   3.675  17.439  0.1898  0.0294 -0.5156
 9147SOL    HW139077   3.889   3.671  17.347 -0.0269  0.5729 -0.6037
 9147SOL    HW239078   3.902   3.758  17.462  0.8400 -0.6166  0.6350
 9148SOL     OW39079   3.314   4.588   4.424  0.3047 -0.1875  0.1224
 9148SOL    HW139080   3.360   4.514   4.385  3.5161  2.5254 -1.1843
 9148SOL    HW239081   3.314   4.556   4.515  0.2078  0.1680  0.2484
 9149SOL     OW39082   3.609   3.884   0.386 -0.0542  0.2213 -0.4623
 9149SOL    HW139083   3.525   3.840   0.370  0.1483 -0.3308 -0.0506
 9149SOL    HW239084   3.621   3.860   0.478 -1.6592  2.4418  0.3068
 9150SOL     OW39085   2.357   0.225  15.477  0.1933  0.4306  0.8713
 9150SOL    HW139086   2.448   0.210  15.503  0.1567 -1.5900 -0.1830
 9150SOL    HW239087   2.313   0.150  15.517 -1.2235 -0.0477 -1.6087
 9151SOL     OW39088   4.499   2.779   8.692 -0.2682  0.2617  1.2029
 9151SOL    HW139089   4.447   2.859   8.691 -0.2118  0.2777 -2.2721
 9151SOL    HW239090   4.425   2.717   8.689 -0.8671  0.9960  0.6627
 9152SOL     OW39091   0.746   1.499   5.277  0.3220  0.4564 -0.0037
 9152SOL    HW139092   0.779   1.576   5.323  1.7752  0.7507 -1.5502
 9152SOL    HW239093   0.714   1.450   5.353 -1.7375 -3.4774 -3.3475
 9153SOL     OW39094   1.180   4.348   5.613  0.2467 -0.1714 -0.1591
 9153SOL    HW139095   1.231   4.402   5.553 -1.6254  2.8127  0.9121
 9153SOL    HW239096   1.151   4.281   5.551 -2.0493  1.2132 -0.6004
 9154SOL     OW39097   0.847   3.790  12.028  0.3116 -0.4303  0.1523
 9154SOL    HW139098   0.930   3.832  12.006 -0.3540 -0.5910 -2.6771
 9154SOL    HW239099   0.809   3.780  11.941 -1.2567  0.5108  0.7259
 9155SOL     OW39100   1.566   2.290   5.355  0.3498  0.6858 -0.0428
 9155SOL    HW139101   1.511   2.362   5.386  2.3127  2.0856  0.2109
 9155SOL    HW239102   1.591   2.321   5.268 -0.3400 -0.9560 -0.8217
 9156SOL     OW39103   2.497   0.099   0.973  0.1465 -0.3663  0.2563
 9156SOL    HW139104   2.543   0.081   1.055 -1.9842 -1.4856  1.2091
 9156SOL    HW239105   2.503   0.194   0.981 -0.6794 -0.1778 -1.4584
 9157SOL     OW39106   0.952   1.257   3.936  0.6273  0.0671  0.0971
 9157SOL    HW139107   0.931   1.253   3.842  2.7125  0.2074 -0.3656
 9157SOL    HW239108   0.888   1.192   3.966 -1.2372  0.6099 -2.7039
 9158SOL     OW39109   0.674   0.045   1.022 -0.3229  0.0021 -0.0874
 9158SOL    HW139110   0.639   0.132   1.004  0.6156  0.3902 -0.0543
 9158SOL    HW239111   0.690   0.002   0.938 -0.2177  0.4342 -0.2885
 9159SOL     OW39112   2.285   3.863   3.814  0.0454  0.7385 -0.0335
 9159SOL    HW139113   2.373   3.847   3.849 -0.3621 -0.3226  0.5292
 9159SOL    HW239114   2.224   3.868   3.888  0.5926 -1.2433  0.5657
 9160SOL     OW39115   4.057   1.559  15.539  0.6967  0.5155 -0.3772
 9160SOL    HW139116   4.140   1.532  15.499  0.8389  0.1418  0.1771
 9160SOL    HW239117   4.002   1.589  15.467  1.0323  2.2349  0.0720
 9161SOL     OW39118   1.787   1.703   0.850  0.1954  0.5320  0.2158
 9161SOL    HW139119   1.804   1.702   0.944 -0.6361  1.0585  0.3763
 9161SOL    HW239120   1.719   1.770   0.842 -0.1810  0.0448 -0.6924
 9162SOL     OW39121   0.009   1.040   5.412 -0.3731 -0.1403  0.0991
 9162SOL    HW139122   4.689   0.961   5.412 -0.3762 -0.1401  1.4827
 9162SOL    HW239123   4.696   1.106   5.463 -0.8909 -0.3907 -0.0592
 9163SOL     OW39124   2.974   0.000   9.604  0.1060 -0.2517 -0.5006
 9163SOL    HW139125   2.935   4.675   9.668  0.4084  0.0361 -0.0496
 9163SOL    HW239126   2.976   4.676   9.529  1.3630 -2.5788  1.3223
 9164SOL     OW39127   2.853   3.667   3.943  0.6172 -0.5152 -1.0278
 9164SOL    HW139128   2.882   3.580   3.972  1.6863  0.1661 -0.0825
 9164SOL    HW239129   2.812   3.705   4.020  1.2973 -1.1416 -0.3599
 9165SOL     OW39130   4.377   0.731   1.555 -0.1195 -0.2444  0.0698
 9165SOL    HW139131   4.439   0.666   1.587  0.9562  0.3110 -0.8792
 9165SOL    HW239132   4.427   0.792   1.500 -0.0261 -1.3912 -1.1348
 9166SOL     OW39133   0.253   0.757   6.927 -0.5000  0.1347 -0.5040
 9166SOL    HW139134   0.158   0.759   6.931 -0.4223  1.0621  0.7518
 9166SOL    HW239135   0.279   0.768   7.018  0.3652 -1.6651 -0.5408
 9167SOL     OW39136   0.050   4.708   9.351 -0.1945  0.8269 -0.4432
 9167SOL    HW139137   0.068   0.053   9.302  0.9147  1.3783  0.8632
 9167SOL    HW239138   0.107   4.643   9.310 -0.5148  1.1898 -1.4572
 9168SOL     OW39139   1.272   0.676   5.140  0.1563 -0.3485  0.2997
 9168SOL    HW139140   1.222   0.757   5.126 -0.9858 -1.0089  0.5894
 9168SOL    HW239141   1.357   0.707   5.171 -0.9099  3.6579 -0.7140
 9169SOL     OW39142   2.031   0.632   6.900 -0.1174 -0.3789 -0.3074
 9169SOL    HW139143   1.962   0.594   6.845 -0.8635  1.7104 -0.7986
 9169SOL    HW239144   1.994   0.613   6.986  1.4596  1.5993  0.7879
 9170SOL     OW39145   1.971   0.336   9.938 -0.1745  0.7087 -0.2726
 9170SOL    HW139146   2.039   0.403   9.928 -0.0173  0.6541  0.4537
 9170SOL    HW239147   1.893   0.391   9.929 -1.2912 -1.3711 -3.2882
 9171SOL     OW39148   1.088   1.640  12.170 -0.5634  0.3583 -0.1339
 9171SOL    HW139149   0.998   1.606  12.167 -0.0600 -0.9533 -0.5654
 9171SOL    HW239150   1.108   1.669  12.081 -1.4378  2.4699  0.3562
 9172SOL     OW39151   1.770   0.563   8.823  0.1497 -0.1001  0.0873
 9172SOL    HW139152   1.737   0.536   8.737 -1.0115 -3.5176  1.6028
 9172SOL    HW239153   1.824   0.488   8.847 -1.4572 -1.3434 -0.1947
 9173SOL     OW39154   4.026   1.946  14.202 -0.2533 -0.1704  0.4037
 9173SOL    HW139155   4.091   1.941  14.272  0.2466  1.9123  0.0951
 9173SOL    HW239156   3.971   2.017  14.234 -1.4299 -1.5557  1.4443
 9174SOL     OW39157   1.244   0.853   4.210  0.3554  0.0315 -0.4030
 9174SOL    HW139158   1.218   0.886   4.296 -1.0943 -1.3087 -0.3339
 9174SOL    HW239159   1.330   0.816   4.228 -0.3945 -0.5178  2.0380
 9175SOL     OW39160   2.321   2.893   2.224 -0.0744  0.0655  0.4533
 9175SOL    HW139161   2.261   2.873   2.152  0.5729  0.3430 -0.1635
 9175SOL    HW239162   2.408   2.904   2.185 -0.6285  2.1781 -0.1945
 9176SOL     OW39163   0.759   1.255   2.219  0.2512 -0.4144 -0.4606
 9176SOL    HW139164   0.806   1.195   2.162  0.0550 -0.9087 -0.0963
 9176SOL    HW239165   0.797   1.339   2.191 -2.8822  1.4852  1.0189
 9177SOL     OW39166   0.193   0.683   2.571  0.0042 -0.0382  0.5824
 9177SOL    HW139167   0.227   0.769   2.548  0.0999  0.3299  2.0656
 9177SOL    HW239168   0.117   0.681   2.513 -0.4350  2.9266  1.0468
 9178SOL     OW39169   1.432   2.689   0.832 -0.1256  0.0847 -0.9602
 9178SOL    HW139170   1.345   2.685   0.872  0.2568  2.8091  0.1397
 9178SOL    HW239171   1.484   2.638   0.895 -1.7268  0.5849  0.7752
 9179SOL     OW39172   1.058   3.025   3.112 -0.3229 -0.1244  0.2558
 9179SOL    HW139173   1.142   3.049   3.149 -0.1675  2.9650 -2.1066
 9179SOL    HW239174   1.066   3.066   3.025 -2.8387 -1.0756 -0.4327
 9180SOL     OW39175   3.895   3.812   8.444 -0.0454  0.1814 -0.2179
 9180SOL    HW139176   3.903   3.749   8.516  0.8476  0.7327  0.1606
 9180SOL    HW239177   3.985   3.844   8.444 -0.0541  0.2031 -0.3352
 9181SOL     OW39178   3.009   3.328   6.404 -0.3240  0.6162 -0.5408
 9181SOL    HW139179   2.965   3.379   6.471 -2.7567  0.7429 -2.2509
 9181SOL    HW239180   3.060   3.264   6.454  0.2599  1.9322  0.5425
 9182SOL     OW39181   1.504   1.650   2.492 -0.5390  0.2872  0.1042
 9182SOL    HW139182   1.436   1.716   2.479  0.6170  0.8663 -3.1133
 9182SOL    HW239183   1.553   1.680   2.568 -0.1938  2.9703 -1.1731
 9183SOL     OW39184   3.294   2.739  16.698 -0.0461  0.1531  0.7293
 9183SOL    HW139185   3.287   2.764  16.791 -1.5283 -0.6668  0.8369
 9183SOL    HW239186   3.229   2.797  16.659  1.0174  0.6625 -0.2670
 9184SOL     OW39187   2.809   1.049   0.568  0.1340 -0.5787  0.3813
 9184SOL    HW139188   2.792   0.994   0.492  0.9854  1.2710 -1.1607
 9184SOL    HW239189   2.732   1.102   0.546  0.6943 -0.0030 -0.1836
 9185SOL     OW39190   3.208   1.322   6.586  0.0955 -0.0882 -0.2031
 9185SOL    HW139191   3.136   1.320   6.648  1.5619 -1.5891  1.4533
 9185SOL    HW239192   3.280   1.336   6.648  0.1058  2.0555 -0.7070
 9186SOL     OW39193   4.726   4.052   7.937  0.0396 -0.0686 -0.1444
 9186SOL    HW139194   0.002   4.011   8.023  1.1777  1.6483  0.5619
 9186SOL    HW239195   0.013   4.142   7.964 -2.2188 -0.0685  1.5703
 9187SOL     OW39196   1.132   1.645   3.168 -0.4693  0.5348 -0.0891
 9187SOL    HW139197   1.186   1.723   3.176  1.3421 -0.6084 -1.2754
 9187SOL    HW239198   1.056   1.686   3.210 -1.8331  0.1758 -2.2035
 9188SOL     OW39199   2.549   4.674  15.757 -0.2944 -0.5816  0.5423
 9188SOL    HW139200   2.617   0.006  15.740 -0.4060 -0.2409  1.4133
 9188SOL    HW239201   2.520   4.704  15.843  1.1649  0.7791  0.5667
 9189SOL     OW39202   2.614   3.396  13.189 -0.3284  0.5072  0.1961
 9189SOL    HW139203   2.689   3.437  13.145 -1.2052 -1.6204 -3.3163
 9189SOL    HW239204   2.662   3.313  13.193 -1.5839  0.0139  5.2150
 9190SOL     OW39205   1.538   2.075   2.662  0.8611 -0.0138 -0.0867
 9190SOL    HW139206   1.538   2.009   2.731  3.4837  0.9414  0.8027
 9190SOL    HW239207   1.628   2.097   2.640  0.1392  1.0410 -1.9609
 9191SOL     OW39208   2.635   2.754   3.810  0.0286 -0.2419  0.4367
 9191SOL    HW139209   2.700   2.695   3.846  0.6212 -0.4364 -0.9630
 9191SOL    HW239210   2.662   2.838   3.849 -1.0429 -1.2374  3.2944
 9192SOL     OW39211   1.813   0.114  15.031  0.1838  0.2955 -0.5116
 9192SOL    HW139212   1.894   0.063  15.034  0.6155  1.1121  1.7945
 9192SOL    HW239213   1.762   0.072  14.962  0.5567  0.2127 -0.7366
 9193SOL     OW39214   2.669   3.731   4.164 -0.8469  0.1242  0.5745
 9193SOL    HW139215   2.583   3.735   4.205 -0.4555  0.9388  1.3141
 9193SOL    HW239216   2.724   3.769   4.232  1.1189 -1.2102 -0.2684
 9194SOL     OW39217   4.720   1.717   6.002  0.1995 -0.2947 -0.1314
 9194SOL    HW139218   0.074   1.681   6.006 -0.0694 -1.0561 -1.1287
 9194SOL    HW239219   4.676   1.677   6.077 -1.7586 -1.8215 -2.0697
 9195SOL     OW39220   3.350   1.928   3.038 -0.0588 -0.1562  0.3166
 9195SOL    HW139221   3.363   1.908   2.945  0.3944 -0.3678  0.4239
 9195SOL    HW239222   3.435   1.961   3.068  0.1654 -0.3367 -0.1170
 9196SOL     OW39223   2.255   4.228   2.918  0.0970 -0.8664 -0.2136
 9196SOL    HW139224   2.223   4.317   2.928  4.0158  0.5701 -0.4926
 9196SOL    HW239225   2.343   4.241   2.953 -0.7106 -0.4461  1.6489
 9197SOL     OW39226   4.667   4.192  12.252  0.1078 -0.1103 -0.2758
 9197SOL    HW139227   4.647   4.103  12.280 -1.1819  0.3442  0.2672
 9197SOL    HW239228   4.623   4.253  12.312 -1.2018 -0.5193 -0.8276
 9198SOL     OW39229   0.356   4.710   5.667  0.0591 -0.1341  0.1758
 9198SOL    HW139230   0.388   4.628   5.630 -0.0344  0.3710 -1.0306
 9198SOL    HW239231   0.372   0.034   5.592 -0.9195  0.9820  0.8238
 9199SOL     OW39232   0.335   0.647   7.431 -0.1559  0.0615 -0.2690
 9199SOL    HW139233   0.399   0.639   7.360  0.3725  0.2534  0.1802
 9199SOL    HW239234   0.366   0.590   7.501 -3.0876 -0.8701  0.2527
 9200SOL     OW39235   0.924   0.511   1.787 -0.3193 -0.0735 -0.0669
 9200SOL    HW139236   1.009   0.468   1.779  1.2677  3.2762 -1.1473
 9200SOL    HW239237   0.871   0.432   1.774 -0.9315  0.0495  1.8192
 9201SOL     OW39238   3.655   3.875   8.694 -0.0719  0.2010  0.0822
 9201SOL    HW139239   3.607   3.905   8.772  0.6871  1.3634  0.1089
 9201SOL    HW239240   3.743   3.907   8.718 -0.5138  1.7859 -0.4307
 9202SOL     OW39241   3.214   2.977  16.146 -0.2217 -0.1427  0.2058
 9202SOL    HW139242   3.219   2.939  16.234 -1.0052 -0.0950  0.2696
 9202SOL    HW239243   3.172   3.060  16.168  2.3365  0.9129  1.1272
 9203SOL     OW39244   4.229   4.288   2.357  0.0088 -0.5139 -0.5963
 9203SOL    HW139245   4.207   4.214   2.301  1.4871 -0.2682 -1.5032
 9203SOL    HW239246   4.149   4.281   2.408 -1.0330  4.0049 -1.6124
 9204SOL     OW39247   2.108   1.082   8.270  0.3729 -0.0091  0.1920
 9204SOL    HW139248   2.092   0.992   8.242 -2.1810  0.0187  1.6225
 9204SOL    HW239249   2.094   1.130   8.188  2.0620  1.9990  1.0814
 9205SOL     OW39250   2.435   3.502   6.482  0.6976  0.2072  0.4753
 9205SOL    HW139251   2.448   3.470   6.572 -1.4555 -1.0750  0.3214
 9205SOL    HW239252   2.476   3.587   6.499 -0.6910  0.5811  1.9162
 9206SOL     OW39253   3.863   3.397   8.383 -0.0563  0.5056 -0.3812
 9206SOL    HW139254   3.948   3.381   8.422 -0.0134  0.7762 -0.3617
 9206SOL    HW239255   3.851   3.322   8.325  1.5018 -1.3644  1.7351
 9207SOL     OW39256   0.968   3.711  12.796 -0.6662 -0.4559 -0.3651
 9207SOL    HW139257   0.925   3.642  12.847 -1.5331  0.2245 -0.1893
 9207SOL    HW239258   1.053   3.668  12.783 -1.5149 -2.3657  0.3425
 9208SOL     OW39259   3.461   2.497   7.202 -0.1318 -0.2814 -0.0411
 9208SOL    HW139260   3.530   2.437   7.173 -0.6253 -0.2011 -1.3680
 9208SOL    HW239261   3.394   2.474   7.138 -1.2189  0.8560  0.6933
 9209SOL     OW39262   3.239   4.043   0.444  0.5796 -0.3023  0.5204
 9209SOL    HW139263   3.256   4.026   0.537 -0.9770  0.5040  0.9674
 9209SOL    HW239264   3.308   4.108   0.428 -2.7783  2.9187 -1.0095
 9210SOL     OW39265   1.790   4.123   6.844  0.0479 -1.3183 -0.4592
 9210SOL    HW139266   1.835   4.058   6.898  0.6925 -1.2951 -0.9737
 9210SOL    HW239267   1.865   4.169   6.807 -1.1276 -1.1211 -2.6516
 9211SOL     OW39268   1.597   2.867   2.265 -0.5343 -0.4195 -0.4179
 9211SOL    HW139269   1.612   2.774   2.286 -0.7941 -0.5474 -0.7945
 9211SOL    HW239270   1.656   2.903   2.331 -1.5484 -1.6298  1.1600
 9212SOL     OW39271   3.991   3.292   1.110 -0.0914  0.0427 -0.3159
 9212SOL    HW139272   4.070   3.249   1.077 -0.3660 -0.5553 -0.2061
 9212SOL    HW239273   3.941   3.296   1.029 -1.2835 -1.4418  0.3267
 9213SOL     OW39274   3.303   4.484   3.261 -0.6024  0.5180 -0.0981
 9213SOL    HW139275   3.280   4.560   3.315  1.0698 -0.4263  1.9377
 9213SOL    HW239276   3.390   4.468   3.297 -0.1158 -0.0812 -1.5534
 9214SOL     OW39277   1.904   1.624   7.739  0.0806 -0.1309 -0.7024
 9214SOL    HW139278   1.950   1.685   7.682 -0.0468 -0.8802 -1.6023
 9214SOL    HW239279   1.817   1.620   7.699 -0.1867 -0.7961 -0.0573
 9215SOL     OW39280   3.481   3.407   4.732  0.2126 -0.0840 -1.1798
 9215SOL    HW139281   3.473   3.359   4.650  0.2611 -2.4741  0.2240
 9215SOL    HW239282   3.470   3.329   4.786  1.4799  0.4679 -0.1143
 9216SOL     OW39283   2.304   1.202   9.237 -1.0052 -0.0502  0.7863
 9216SOL    HW139284   2.218   1.173   9.207 -0.3597 -0.8162 -0.3137
 9216SOL    HW239285   2.285   1.291   9.265 -0.0856 -0.1852  1.8448
 9217SOL     OW39286   2.694   4.174  16.272  0.5512  0.2447  0.2199
 9217SOL    HW139287   2.669   4.219  16.354 -1.3229  0.2809 -0.3552
 9217SOL    HW239288   2.635   4.100  16.290  1.4613 -1.1647 -2.6679
 9218SOL     OW39289   2.541   4.000   7.071 -0.3517 -0.7869 -0.6090
 9218SOL    HW139290   2.471   3.941   7.045  0.9194 -2.3580 -0.4247
 9218SOL    HW239291   2.513   4.088   7.045  0.0204  0.1293  2.0412
 9219SOL     OW39292   2.452   0.131  13.412 -0.3453 -0.1601 -0.2221
 9219SOL    HW139293   2.495   0.056  13.371  0.4878  0.8486 -1.2225
 9219SOL    HW239294   2.429   0.176  13.331  0.6905  0.1132 -0.3670
 9220SOL     OW39295   3.855   0.173   7.375  0.4432 -0.3256 -0.1587
 9220SOL    HW139296   3.899   0.233   7.315 -0.4375  0.5249  0.0361
 9220SOL    HW239297   3.844   0.090   7.328 -0.9902  0.4956 -1.2999
 9221SOL     OW39298   1.521   2.237   6.290 -0.2295  0.1043  0.1767
 9221SOL    HW139299   1.544   2.319   6.334  1.4463 -0.5728  0.5528
 9221SOL    HW239300   1.599   2.226   6.234  1.0802 -2.8113  2.6077
 9222SOL     OW39301   4.442   0.448  16.755  0.2402  0.0552 -0.2472
 9222SOL    HW139302   4.521   0.418  16.709  0.7267  0.2863  0.4440
 9222SOL    HW239303   4.370   0.429  16.695 -0.2008 -0.1758  0.3538
 9223SOL     OW39304   3.598   0.694   7.309  0.0909 -0.0320  0.4507
 9223SOL    HW139305   3.661   0.634   7.269  1.9858  1.2809  1.4869
 9223SOL    HW239306   3.578   0.758   7.240  0.3221  0.8438  1.1907
 9224SOL     OW39307   0.210   2.097   0.068  0.5581 -0.2328 -0.3358
 9224SOL    HW139308   0.247   2.185   0.063 -2.3675  0.9985 -0.0177
 9224SOL    HW239309   0.283   2.038   0.088 -0.3551 -1.7025 -1.2878
 9225SOL     OW39310   3.255   3.057  16.524 -0.1150  1.0700  0.5500
 9225SOL    HW139311   3.223   2.979  16.478 -1.4531  0.2586  2.8852
 9225SOL    HW239312   3.334   3.082  16.476 -0.1509  1.4996  0.7142
 9226SOL     OW39313   4.481   4.231   1.220  0.0625 -0.2412  0.0253
 9226SOL    HW139314   4.431   4.222   1.302  1.1930  3.4715  1.1227
 9226SOL    HW239315   4.540   4.304   1.240  1.7475 -1.2024 -1.4428
 9227SOL     OW39316   4.660   3.295   8.130 -0.0645 -0.6311 -0.0419
 9227SOL    HW139317   4.640   3.206   8.101 -1.0834 -0.2375 -0.5590
 9227SOL    HW239318   0.020   3.298   8.111  0.1451  0.3323  1.1493
 9228SOL     OW39319   3.080   0.905   4.471  0.0460 -0.3984 -0.0207
 9228SOL    HW139320   3.009   0.849   4.441  0.0509  0.3872 -1.4922
 9228SOL    HW239321   3.140   0.833   4.492 -0.4325 -0.9294 -0.4946
 9229SOL     OW39322   1.964   3.820  10.733  0.5943 -0.8455  0.0646
 9229SOL    HW139323   2.035   3.767  10.695 -0.1268 -1.6572 -0.1525
 9229SOL    HW239324   1.895   3.821  10.667 -1.2198 -2.3714  1.9603
 9230SOL     OW39325   2.081   1.802  16.702  0.4028  0.2606 -0.2866
 9230SOL    HW139326   2.084   1.731  16.766  0.4897  0.9979  0.5365
 9230SOL    HW239327   1.993   1.783  16.668 -0.4263 -0.2299  2.0874
 9231SOL     OW39328   0.869   0.749   4.048  0.0152  0.1959  0.0474
 9231SOL    HW139329   0.809   0.758   3.974  1.7759 -1.8538 -1.6220
 9231SOL    HW239330   0.951   0.757   3.999 -0.3417  0.1092 -0.5627
 9232SOL     OW39331   0.281   3.789  11.096  0.3143 -0.1016 -0.3555
 9232SOL    HW139332   0.324   3.770  11.179 -1.0886 -0.5897  0.2579
 9232SOL    HW239333   0.236   3.708  11.074 -1.4279  1.2767 -1.9357
 9233SOL     OW39334   2.225   3.407  17.148  0.0640  0.0614  0.1750
 9233SOL    HW139335   2.289   3.353  17.194  2.5762  2.0630 -0.9615
 9233SOL    HW239336   2.258   3.494  17.169 -1.4650  0.4295  1.0044
 9234SOL     OW39337   1.322   3.323   5.268 -0.0932  0.9162 -0.1137
 9234SOL    HW139338   1.256   3.383   5.304 -1.3769 -0.7497  0.3332
 9234SOL    HW239339   1.391   3.377   5.230  1.1357 -0.4574  0.1709
 9235SOL     OW39340   1.847   0.659   6.260  0.2392 -0.8578 -0.6444
 9235SOL    HW139341   1.762   0.621   6.237 -0.6714 -0.1313  1.5073
 9235SOL    HW239342   1.829   0.746   6.226  1.8391 -0.0664  0.5513
 9236SOL     OW39343   3.162   0.303   5.383  0.6148  0.5366  0.4412
 9236SOL    HW139344   3.122   0.380   5.344  0.6128  0.9429  1.2498
 9236SOL    HW239345   3.125   0.309   5.471  2.0927  2.3733  0.9301
 9237SOL     OW39346   1.165   0.546  14.457 -0.1135  0.1369 -0.5617
 9237SOL    HW139347   1.186   0.573  14.547 -0.2893  1.8677 -1.0392
 9237SOL    HW239348   1.225   0.471  14.453 -0.8046 -0.5359  1.4734
 9238SOL     OW39349   2.671   2.702   3.312  0.8500 -0.1274 -1.1384
 9238SOL    HW139350   2.758   2.724   3.278  0.4248 -0.9908 -2.8169
 9238SOL    HW239351   2.679   2.644   3.387 -3.6698  0.6734  0.0051
 9239SOL     OW39352   4.254   1.815  10.930  1.0404 -0.3798 -0.3265
 9239SOL    HW139353   4.322   1.819  10.862 -0.7405 -0.8594 -2.1204
 9239SOL    HW239354   4.240   1.723  10.951  0.7223 -0.7760 -2.2554
 9240SOL     OW39355   4.663   3.164  15.348 -0.8490  0.3486  0.0244
 9240SOL    HW139356   4.667   3.164  15.252 -1.3020 -1.0131  0.0091
 9240SOL    HW239357   4.661   3.255  15.377 -2.6359 -0.5653  2.7781
 9241SOL     OW39358   4.351   4.594   8.162 -0.3755  0.5644 -0.0063
 9241SOL    HW139359   4.309   4.508   8.164  0.7056  0.0609  1.0037
 9241SOL    HW239360   4.357   4.614   8.255 -1.2313  2.4295 -0.3459
 9242SOL     OW39361   0.999   3.161  15.222 -0.1093 -0.2043  0.0012
 9242SOL    HW139362   1.088   3.189  15.202 -0.2561  0.7992  0.7803
 9242SOL    HW239363   0.944   3.205  15.157 -0.7321  1.8831  1.9365
 9243SOL     OW39364   4.007   3.357  13.097  0.1462 -0.6954 -0.3460
 9243SOL    HW139365   4.009   3.414  13.019 -1.5253 -1.6366 -1.0768
 9243SOL    HW239366   3.914   3.337  13.106 -0.0502  0.0213 -0.7783
 9244SOL     OW39367   1.197   2.979   8.324 -0.4085 -0.5011  0.1182
 9244SOL    HW139368   1.258   3.001   8.253 -0.0986 -0.1148  0.5065
 9244SOL    HW239369   1.119   3.019   8.287 -1.7100 -2.2478  0.9892
 9245SOL     OW39370   4.597   2.152  12.766  0.1166  0.5951 -0.4506
 9245SOL    HW139371   4.548   2.150  12.684  0.7780  0.9399 -0.8531
 9245SOL    HW239372   4.649   2.073  12.756 -0.8345 -0.4021  2.5223
 9246SOL     OW39373   4.704   3.925  12.345 -0.1988 -0.7104  0.3642
 9246SOL    HW139374   0.051   3.919  12.396 -0.4510  0.8572  0.9293
 9246SOL    HW239375   4.649   3.861  12.389 -1.0328 -0.6456 -0.5757
 9247SOL     OW39376   1.913   2.296  13.869 -0.8200  0.2828 -0.5546
 9247SOL    HW139377   1.863   2.370  13.903 -1.8327 -0.9837  0.7107
 9247SOL    HW239378   1.999   2.314  13.909 -0.2648 -1.3709 -1.0025
 9248SOL     OW39379   2.069   3.503  11.719  0.9690  0.2494 -0.8107
 9248SOL    HW139380   2.004   3.433  11.722 -1.1202  2.2418 -0.1644
 9248SOL    HW239381   2.049   3.559  11.794 -0.8572 -0.8136 -0.4889
 9249SOL     OW39382   1.682   1.011  14.490 -0.0181 -0.1300 -0.1486
 9249SOL    HW139383   1.685   1.013  14.586 -0.5268 -1.4072 -0.1117
 9249SOL    HW239384   1.590   1.024  14.468 -0.0512  0.2340  0.1987
 9250SOL     OW39385   2.058   2.419  12.096  0.6596 -0.6501 -0.0735
 9250SOL    HW139386   2.092   2.413  12.007 -1.5215  1.0631 -1.0138
 9250SOL    HW239387   2.042   2.327  12.116  1.0134 -0.6087  0.3873
 9251SOL     OW39388   1.834   1.606   3.212  0.2532  0.2409  0.1398
 9251SOL    HW139389   1.867   1.642   3.294  0.1753 -0.3550  0.4344
 9251SOL    HW239390   1.874   1.519   3.212 -2.9048 -1.2091 -0.1507
 9252SOL     OW39391   1.286   4.180   8.579  0.1945  0.4403 -0.8002
 9252SOL    HW139392   1.353   4.119   8.607 -2.5142 -2.2194 -0.2022
 9252SOL    HW239393   1.205   4.142   8.612 -0.3231  1.9414 -0.3194
 9253SOL     OW39394   0.339   3.995   3.086  0.1400 -0.3676 -0.1438
 9253SOL    HW139395   0.266   3.959   3.136  0.2376  1.6713  1.4477
 9253SOL    HW239396   0.317   3.977   2.995 -3.9241  2.7031  0.2535
 9254SOL     OW39397   0.186   0.699  13.986 -0.4343  0.6681 -0.0378
 9254SOL    HW139398   0.219   0.618  13.947 -4.0197  0.0314 -1.7279
 9254SOL    HW239399   0.172   0.669  14.076 -0.4885 -0.6526 -0.4781
 9255SOL     OW39400   4.296   1.888   5.535  0.0913  0.1926  0.3487
 9255SOL    HW139401   4.206   1.917   5.544 -0.1596 -0.9892  1.7573
 9255SOL    HW239402   4.310   1.800   5.572  1.0938  0.5309  0.7909
 9256SOL     OW39403   1.613   4.325   9.232 -0.7334  0.1570 -0.3516
 9256SOL    HW139404   1.540   4.350   9.289  0.0324  0.7807  0.3582
 9256SOL    HW239405   1.567   4.341   9.149  0.5590  0.7480 -0.9526
 9257SOL     OW39406   3.030   2.768   8.688 -0.3393 -0.5173  0.1224
 9257SOL    HW139407   3.079   2.751   8.769 -0.0498 -0.3722 -0.0197
 9257SOL    HW239408   3.098   2.797   8.627 -0.5272  1.0139  0.6432
 9258SOL     OW39409   3.891   3.970   4.742 -0.0567  0.4603  0.0411
 9258SOL    HW139410   3.834   3.937   4.673  2.7272 -2.5034 -0.8793
 9258SOL    HW239411   3.837   3.980   4.820 -1.8880  0.8713 -1.2836
 9259SOL     OW39412   2.082   0.798   9.859 -0.3038  0.0603  0.0764
 9259SOL    HW139413   2.047   0.709   9.859  0.7327 -0.3318  1.1223
 9259SOL    HW239414   1.996   0.842   9.864  0.1330  0.8008  1.0374
 9260SOL     OW39415   0.723   3.687  12.602 -0.5435  0.6514  0.0918
 9260SOL    HW139416   0.651   3.627  12.623  2.2616 -3.8069 -2.9940
 9260SOL    HW239417   0.792   3.670  12.665  1.1205 -1.1025 -2.1918
 9261SOL     OW39418   0.052   0.508   4.827 -0.4555 -0.4989 -0.3142
 9261SOL    HW139419   0.139   0.485   4.793  0.4694  2.9987 -0.3662
 9261SOL    HW239420   0.001   0.435   4.794  0.0776 -1.3195  0.6913
 9262SOL     OW39421   3.311   1.655   2.410  0.0550 -0.2755  0.3281
 9262SOL    HW139422   3.400   1.668   2.378 -0.3341  0.3917 -0.4854
 9262SOL    HW239423   3.321   1.577   2.465 -1.3093 -0.4019  0.3951
 9263SOL     OW39424   0.524   1.141   2.347 -0.1330  0.2640 -0.3371
 9263SOL    HW139425   0.544   1.114   2.436 -1.4551 -0.0306 -0.1414
 9263SOL    HW239426   0.610   1.169   2.314 -0.5272  1.7100 -0.1527
 9264SOL     OW39427   3.904   1.665   4.058 -0.1491 -0.6167  0.0633
 9264SOL    HW139428   3.914   1.756   4.087 -1.4338  0.0313 -1.5386
 9264SOL    HW239429   3.812   1.670   4.033  0.0633 -1.5508 -0.8997
 9265SOL     OW39430   0.681   3.173   8.632 -0.6522  0.4357  0.5992
 9265SOL    HW139431   0.586   3.173   8.615 -0.4468  2.2222 -0.5566
 9265SOL    HW239432   0.688   3.138   8.721 -1.2779  2.3452  1.4009
 9266SOL     OW39433   2.382   2.932  12.475  0.7178 -0.3068  0.4373
 9266SOL    HW139434   2.382   2.839  12.452 -2.7770  0.3945 -2.2564
 9266SOL    HW239435   2.340   2.970  12.398 -0.6878 -1.5799  0.5749
 9267SOL     OW39436   2.677   4.269   3.530  0.2770  0.4608  0.2650
 9267SOL    HW139437   2.652   4.231   3.614  0.6941  0.2257  0.2782
 9267SOL    HW239438   2.641   4.358   3.538 -0.7506  0.1052 -0.4438
 9268SOL     OW39439   0.986   3.153   6.825  0.2016 -0.0789  0.0531
 9268SOL    HW139440   1.017   3.115   6.906  0.9514  0.7456  0.1580
 9268SOL    HW239441   1.029   3.238   6.833 -0.5937  0.3506 -0.2109
 9269SOL     OW39442   0.904   4.578   1.867 -0.4256 -0.1744 -0.0140
 9269SOL    HW139443   0.920   4.601   1.959 -0.8014  0.3963 -0.0905
 9269SOL    HW239444   0.942   4.491   1.859 -0.4614 -0.2365  0.4818
 9270SOL     OW39445   2.994   2.419   2.406  0.0308  0.0752 -0.0451
 9270SOL    HW139446   2.973   2.340   2.356  0.3995 -1.2083  1.8309
 9270SOL    HW239447   2.990   2.378   2.492  0.9623  0.4904  0.1947
 9271SOL     OW39448   2.256   1.999   0.288  0.6416 -0.3383  0.3861
 9271SOL    HW139449   2.305   1.948   0.352 -0.4934  0.4195  1.8420
 9271SOL    HW239450   2.321   2.030   0.224 -0.1290  0.7673  0.1355
 9272SOL     OW39451   2.039   3.168   0.323  0.3398 -0.1318  0.1464
 9272SOL    HW139452   1.986   3.104   0.370 -0.0279 -1.6054 -2.2512
 9272SOL    HW239453   2.073   3.211   0.401  1.6685  1.0424 -1.0968
 9273SOL     OW39454   2.486   1.063   1.998  0.6162  0.2617 -0.0847
 9273SOL    HW139455   2.397   1.027   2.002  0.6090  0.2019 -0.9174
 9273SOL    HW239456   2.534   0.991   2.040  0.9207  0.3605 -0.2621
 9274SOL     OW39457   3.298   4.106   1.036 -0.3063 -0.5498  0.0336
 9274SOL    HW139458   3.216   4.066   1.007 -0.6878  1.5093 -1.7279
 9274SOL    HW239459   3.312   4.166   0.962  1.4518 -1.9881 -0.8171
 9275SOL     OW39460   1.530   3.579   4.925  0.1422 -0.2736 -0.3678
 9275SOL    HW139461   1.573   3.640   4.865  0.4823  0.5853  0.7457
 9275SOL    HW239462   1.535   3.499   4.872  0.8101 -1.0652  0.8809
 9276SOL     OW39463   1.351   1.580  14.607 -0.5069 -0.0947 -0.1189
 9276SOL    HW139464   1.268   1.625  14.621 -0.4654 -0.5797  1.7007
 9276SOL    HW239465   1.313   1.492  14.611 -1.3262  0.1824 -1.6830
 9277SOL     OW39466   4.360   0.525   3.084  0.3513  0.7425  0.0234
 9277SOL    HW139467   4.364   0.551   3.176 -0.4539 -0.1187  0.3016
 9277SOL    HW239468   4.449   0.495   3.065  0.2629  0.4250  0.1076
 9278SOL     OW39469   4.669   2.240  12.384 -0.4940  0.0481  0.3493
 9278SOL    HW139470   4.602   2.194  12.435 -0.5383 -2.6443 -2.1943
 9278SOL    HW239471   4.707   2.304  12.444 -2.9178  0.9513  0.9352
 9279SOL     OW39472   3.707   4.682   9.825  0.0286 -0.3589 -0.1927
 9279SOL    HW139473   3.661   0.030   9.807  1.6192  0.9552  1.6860
 9279SOL    HW239474   3.669   4.617   9.766  1.1107 -2.0628  0.9905
 9280SOL     OW39475   4.316   2.278  11.188 -0.0969 -0.0822 -0.0696
 9280SOL    HW139476   4.223   2.267  11.206 -0.5222 -2.0070 -3.3194
 9280SOL    HW239477   4.327   2.348  11.252 -0.1267 -0.9708  0.9099
 9281SOL     OW39478   1.369   2.072   6.140 -0.1064  0.0592  0.0840
 9281SOL    HW139479   1.327   2.098   6.058  3.1119  1.1430 -1.2167
 9281SOL    HW239480   1.401   2.156   6.174 -2.3996  0.3616  1.4684
 9282SOL     OW39481   1.781   1.963  14.805 -0.3641  0.3988 -0.2890
 9282SOL    HW139482   1.777   1.870  14.828 -0.5026  0.3924 -0.3411
 9282SOL    HW239483   1.748   1.963  14.715 -0.7305 -2.1134 -0.1684
 9283SOL     OW39484   4.401   4.263  14.490 -0.9294 -0.3383  0.1532
 9283SOL    HW139485   4.329   4.285  14.549 -1.3846 -1.1146 -0.1233
 9283SOL    HW239486   4.452   4.344  14.484  0.3182 -1.1010  0.3789
 9284SOL     OW39487   1.611   4.338   8.140 -0.2515  0.1646  0.2268
 9284SOL    HW139488   1.585   4.269   8.201 -0.6182 -1.0720 -1.3461
 9284SOL    HW239489   1.601   4.280   8.065 -0.3810 -1.3541  1.4264
 9285SOL     OW39490   4.273   3.669  10.220  0.1326  0.9525 -1.1026
 9285SOL    HW139491   4.325   3.697  10.145 -0.6608  1.9127 -1.2845
 9285SOL    HW239492   4.331   3.659  10.296 -1.1407 -2.2902 -0.5633
 9286SOL     OW39493   0.581   0.367   8.758 -0.0147 -0.3154 -0.6159
 9286SOL    HW139494   0.496   0.354   8.800 -0.8869  1.2479 -1.9110
 9286SOL    HW239495   0.626   0.394   8.838 -0.7110  0.5487 -0.5233
 9287SOL     OW39496   2.214   0.342   8.444  0.5093  0.4342  0.1830
 9287SOL    HW139497   2.285   0.313   8.386 -0.7377 -2.5747  0.1297
 9287SOL    HW239498   2.262   0.391   8.511  0.8878  0.5125 -0.1461
 9288SOL     OW39499   2.268   4.103  11.423 -0.5061  0.3318 -0.5371
 9288SOL    HW139500   2.314   4.065  11.348  0.9919  1.0966 -0.0094
 9288SOL    HW239501   2.216   4.024  11.434 -0.8628  0.2811 -2.5104
 9289SOL     OW39502   3.753   0.038   4.972  0.1178 -0.2949  0.6144
 9289SOL    HW139503   3.755   0.062   4.880  1.0808  0.7265  0.9091
 9289SOL    HW239504   3.823   4.707   4.972 -0.0088 -0.4327  0.3780
 9290SOL     OW39505   4.118   2.677   8.539  0.1683 -0.2744 -0.2156
 9290SOL    HW139506   4.047   2.616   8.516 -0.7224  0.0183  1.7110
 9290SOL    HW239507   4.111   2.676   8.635  2.4341  0.3622 -0.0448
 9291SOL     OW39508   3.498   2.260   2.643 -0.8058  0.7747 -0.2806
 9291SOL    HW139509   3.516   2.219   2.728 -0.6506  1.3832 -0.0242
 9291SOL    HW239510   3.586   2.294   2.627 -1.7624  2.5122 -1.8144
 9292SOL     OW39511   1.294   3.989   7.312 -0.2259 -0.1709  0.0766
 9292SOL    HW139512   1.316   3.901   7.283  2.1216  1.1753 -2.2645
 9292SOL    HW239513   1.204   4.004   7.286 -0.1944  2.0246  1.1973
 9293SOL     OW39514   4.395   3.474   9.560  0.4020 -0.6994  0.3409
 9293SOL    HW139515   4.444   3.553   9.583 -1.4123  0.0634  1.5277
 9293SOL    HW239516   4.463   3.407   9.553  0.0984 -0.8596 -1.1331
 9294SOL     OW39517   1.752   3.582  15.504  0.5227  1.0865 -0.2924
 9294SOL    HW139518   1.700   3.659  15.485 -1.9855 -0.8039 -1.0723
 9294SOL    HW239519   1.731   3.521  15.433 -2.1031  1.9998 -0.2943
 9295SOL     OW39520   3.115   3.086  11.506  0.0241  0.1905 -1.0130
 9295SOL    HW139521   3.153   3.128  11.583  0.3211  1.5738 -1.9043
 9295SOL    HW239522   3.172   3.105  11.432  0.3005 -0.1296 -0.8798
 9296SOL     OW39523   3.708   3.931   7.100  0.2001 -0.4366  0.0854
 9296SOL    HW139524   3.705   4.000   7.166  1.3227 -0.8660  0.5893
 9296SOL    HW239525   3.707   3.855   7.158 -0.8315  0.8844  1.7824
 9297SOL     OW39526   3.389   1.039   6.411 -0.1761 -0.3669  0.3583
 9297SOL    HW139527   3.479   1.034   6.443  0.6128 -1.0435 -1.9433
 9297SOL    HW239528   3.390   0.978   6.337  2.0976 -0.0878  0.1788
 9298SOL     OW39529   3.710   2.990   4.563  0.2769  0.7072 -0.3733
 9298SOL    HW139530   3.687   2.898   4.553  0.4894  0.4994  1.1172
 9298SOL    HW239531   3.684   3.017   4.475 -2.3409 -2.0845 -0.4748
 9299SOL     OW39532   3.475   2.612   8.998 -0.8656 -0.6854 -0.3399
 9299SOL    HW139533   3.546   2.595   9.060 -1.1775 -2.1997 -0.3819
 9299SOL    HW239534   3.430   2.528   8.986  0.5190 -1.4476 -0.2218
 9300SOL     OW39535   1.804   0.185   6.784  0.6236  0.5954 -0.4490
 9300SOL    HW139536   1.864   0.167   6.712 -1.5640  0.7659 -2.3249
 9300SOL    HW239537   1.733   0.128   6.754  0.7588 -0.6974  1.6674
 9301SOL     OW39538   4.590   0.307   3.242  0.0597  0.0082  0.0212
 9301SOL    HW139539   4.558   0.386   3.285  1.4716 -0.1643  1.4066
 9301SOL    HW239540   4.532   0.240   3.279 -0.2307 -1.0190 -2.3050
 9302SOL     OW39541   1.938   3.706  17.022 -0.3432  0.1777 -0.4384
 9302SOL    HW139542   1.894   3.622  17.014  1.2461 -0.5574 -1.6374
 9302SOL    HW239543   2.025   3.677  16.994 -0.6426  0.3274 -1.5132
 9303SOL     OW39544   1.526   2.723   6.964 -0.3120 -0.1103  0.0358
 9303SOL    HW139545   1.504   2.738   7.056  0.6252 -1.2741  0.4515
 9303SOL    HW239546   1.608   2.673   6.972 -0.6381 -0.2661  2.3294
 9304SOL     OW39547   2.582   3.800   5.935 -0.4276 -0.4732 -0.1652
 9304SOL    HW139548   2.515   3.733   5.922  0.2527 -1.4722  1.4674
 9304SOL    HW239549   2.538   3.884   5.919 -0.9839 -0.5552  0.9207
 9305SOL     OW39550   1.798   0.497  17.673 -0.1988  0.0940 -0.1796
 9305SOL    HW139551   1.720   0.441  17.677 -1.3638  1.7381  0.1935
 9305SOL    HW239552   1.764   0.558  17.608  1.3530  1.4211  0.2598
 9306SOL     OW39553   2.621   3.221   7.130 -0.4020 -0.5160  0.0501
 9306SOL    HW139554   2.659   3.186   7.049  0.2319 -1.8143  0.9228
 9306SOL    HW239555   2.548   3.273   7.095 -0.7306 -0.3245  1.0151
 9307SOL     OW39556   3.675   2.464   9.414  0.3743  0.2004 -0.1854
 9307SOL    HW139557   3.681   2.552   9.450  1.2558  0.1873 -0.2823
 9307SOL    HW239558   3.712   2.416   9.488 -1.6672 -0.2675  0.5300
 9308SOL     OW39559   4.686   3.904   2.071  0.2622 -0.4447 -0.6955
 9308SOL    HW139560   4.635   3.985   2.062  1.5490  0.5074  0.6406
 9308SOL    HW239561   0.040   3.932   2.046  0.9301 -1.7152  0.2126
 9309SOL     OW39562   1.197   0.447   4.263 -0.1043  0.0976 -0.1078
 9309SOL    HW139563   1.162   0.473   4.178  1.1213 -0.8848 -0.9106
 9309SOL    HW239564   1.157   0.507   4.326 -1.5538 -0.9255 -0.0465
 9310SOL     OW39565   3.828   0.995   6.778  0.0082  0.3403 -0.8191
 9310SOL    HW139566   3.748   0.943   6.771 -0.3238  0.5210  1.6587
 9310SOL    HW239567   3.834   0.996   6.873  2.0665  0.1135 -0.9285
 9311SOL     OW39568   3.007   1.655   2.646 -0.6917 -0.0517 -0.0974
 9311SOL    HW139569   3.056   1.606   2.712 -1.8331 -1.8374 -0.5740
 9311SOL    HW239570   2.922   1.651   2.689 -1.0610  0.5824 -0.7662
 9312SOL     OW39571   3.817   0.973  14.594  0.2214 -0.0006 -0.4540
 9312SOL    HW139572   3.724   0.991  14.580 -0.0911 -1.5546 -0.3581
 9312SOL    HW239573   3.853   1.062  14.592 -2.8827  1.2693  0.0525
 9313SOL     OW39574   3.266   3.679   8.588 -0.6064  0.2709 -0.7213
 9313SOL    HW139575   3.354   3.650   8.565 -0.3209  0.5187  0.0883
 9313SOL    HW239576   3.225   3.593   8.599 -0.2492  0.0838 -0.8628
 9314SOL     OW39577   4.564   1.406  14.424  0.4401  0.7809  0.5116
 9314SOL    HW139578   4.574   1.484  14.369  0.0767  0.7644  0.4223
 9314SOL    HW239579   4.469   1.407  14.433  0.1338 -1.3016 -2.6033
 9315SOL     OW39580   3.621   1.681   4.228  0.2586  0.0623  0.0682
 9315SOL    HW139581   3.529   1.673   4.254  0.9951  1.2362  3.1233
 9315SOL    HW239582   3.623   1.677   4.133 -1.5875 -2.4626  0.1590
 9316SOL     OW39583   0.279   2.361   5.877 -0.6362  0.3624  0.9004
 9316SOL    HW139584   0.374   2.372   5.881 -0.3339 -0.9935 -1.9032
 9316SOL    HW239585   0.268   2.273   5.842  0.0388 -0.2703  2.2685
 9317SOL     OW39586   0.709   1.240   8.253  0.0320  0.0352  0.0217
 9317SOL    HW139587   0.724   1.251   8.347 -0.1153  0.0848  0.0404
 9317SOL    HW239588   0.672   1.322   8.221  1.1036  1.0581  1.4446
 9318SOL     OW39589   2.098   0.482   1.159 -0.0065 -0.2445  0.4758
 9318SOL    HW139590   2.025   0.486   1.098 -0.2835  0.4893  0.8446
 9318SOL    HW239591   2.068   0.503   1.248  1.1467  0.2695  0.7463
 9319SOL     OW39592   2.190   2.027   7.595  0.0659 -0.2775  0.3297
 9319SOL    HW139593   2.218   1.988   7.678 -1.0998 -2.4118 -0.2576
 9319SOL    HW239594   2.273   2.037   7.549 -0.4703 -0.5108 -0.7016
 9320SOL     OW39595   2.468   0.682   7.720  0.1812  0.2698  0.1594
 9320SOL    HW139596   2.547   0.641   7.757 -0.2534 -1.3541 -0.7016
 9320SOL    HW239597   2.439   0.621   7.653  2.0337 -0.5312  0.0807
 9321SOL     OW39598   1.067   3.514   6.626  0.0488 -0.7305  0.0004
 9321SOL    HW139599   1.045   3.606   6.616 -0.0379 -0.7240  0.2482
 9321SOL    HW239600   1.037   3.501   6.716 -0.1094 -2.8126 -0.3574
 9322SOL     OW39601   3.992   4.313  11.485 -0.3544  0.6225 -0.3243
 9322SOL    HW139602   4.006   4.234  11.538 -0.0594  0.3410 -0.8220
 9322SOL    HW239603   4.052   4.296  11.413  0.2876 -2.4661  0.9260
 9323SOL     OW39604   2.680   3.373   9.125  0.2163  0.4730  0.1962
 9323SOL    HW139605   2.612   3.363   9.192 -0.8261  2.0267 -0.6389
 9323SOL    HW239606   2.718   3.285   9.130 -1.7381 -0.3679  0.6732
 9324SOL     OW39607   4.560   2.026  10.994 -0.7261 -0.1624 -0.0736
 9324SOL    HW139608   4.594   1.938  10.979  0.0554  0.9954 -5.2825
 9324SOL    HW239609   4.518   2.023  11.080 -1.3463 -1.0324 -0.4098
 9325SOL     OW39610   2.388   3.173   7.436 -0.0376 -0.1948 -0.2725
 9325SOL    HW139611   2.366   3.108   7.503  0.2230 -1.3506 -1.3090
 9325SOL    HW239612   2.455   3.117   7.397  2.6515  1.0555  2.5353
 9326SOL     OW39613   2.964   3.295  13.676 -0.1350 -0.3928 -0.5300
 9326SOL    HW139614   3.053   3.266  13.656  1.3123  2.3112  1.9630
 9326SOL    HW239615   2.907   3.262  13.606 -3.3719  1.1985  1.3434
 9327SOL     OW39616   0.878   4.226   4.599 -0.3284  0.6740 -0.0945
 9327SOL    HW139617   0.828   4.210   4.679 -1.3800 -0.8204 -1.0591
 9327SOL    HW239618   0.899   4.134   4.583  0.8318  0.8076  0.6566
 9328SOL     OW39619   1.717   2.944  10.325 -1.0388 -0.3036  0.8801
 9328SOL    HW139620   1.725   2.983  10.413 -0.0896 -1.3234  1.2397
 9328SOL    HW239621   1.698   3.017  10.266  1.3752  0.7077  1.3588
 9329SOL     OW39622   2.358   1.330  17.687 -0.3078 -0.4396  0.4552
 9329SOL    HW139623   2.303   1.272  17.634 -3.2457  0.9030  2.0014
 9329SOL    HW239624   2.309   1.345   0.033 -1.0238  0.9904 -0.2576
 9330SOL     OW39625   1.795   1.656  14.802 -0.1159 -0.3067 -0.2820
 9330SOL    HW139626   1.786   1.573  14.849  3.0791 -1.0586 -0.9608
 9330SOL    HW239627   1.745   1.637  14.723 -0.9306  0.0766  0.1500
 9331SOL     OW39628   4.219   0.113   3.104  0.6064 -0.0383 -0.0330
 9331SOL    HW139629   4.126   0.099   3.086  0.6857  0.6887 -1.0159
 9331SOL    HW239630   4.212   0.202   3.140 -2.0930  0.3108 -1.4788
 9332SOL     OW39631   1.144   4.353   4.286  0.2014  0.3635  0.2939
 9332SOL    HW139632   1.138   4.443   4.256  2.0019 -0.0865 -1.3737
 9332SOL    HW239633   1.060   4.309   4.273  1.6948 -1.2919 -3.4753
 9333SOL     OW39634   3.204   2.711   6.652  0.2557 -0.2334 -0.0010
 9333SOL    HW139635   3.239   2.635   6.606  0.0891 -0.7659  0.7651
 9333SOL    HW239636   3.110   2.699   6.640  0.6525 -1.2976 -2.2055
 9334SOL     OW39637   0.565   2.074   6.674  0.5594 -0.3830  0.3514
 9334SOL    HW139638   0.641   2.116   6.635  1.2447 -0.9850  1.0538
 9334SOL    HW239639   0.512   2.063   6.595  2.1302  2.6455 -1.1281
 9335SOL     OW39640   2.400   0.262   1.778 -0.1441 -0.2187 -0.2023
 9335SOL    HW139641   2.372   0.173   1.757 -1.8284  0.8896 -2.5222
 9335SOL    HW239642   2.433   0.296   1.695  1.3942  0.1059  0.5413
 9336SOL     OW39643   0.804   2.348  11.874 -0.3737 -0.3994 -0.2340
 9336SOL    HW139644   0.808   2.259  11.907 -2.1203 -0.7128 -0.8761
 9336SOL    HW239645   0.821   2.333  11.781 -2.3034  1.4671 -0.8885
 9337SOL     OW39646   3.794   1.973   8.674 -0.2071 -0.6126 -0.2317
 9337SOL    HW139647   3.777   1.989   8.581  1.6142 -2.4474 -0.8785
 9337SOL    HW239648   3.835   1.887   8.683 -1.8936 -1.3258  0.6664
 9338SOL     OW39649   1.186   1.255   8.129  0.0494  0.3036 -0.1400
 9338SOL    HW139650   1.274   1.218   8.118  1.0728  2.0303  2.1139
 9338SOL    HW239651   1.159   1.293   8.046  1.2600  0.9274 -0.2433
 9339SOL     OW39652   1.782   2.183  14.952 -0.0743 -1.0896 -0.5816
 9339SOL    HW139653   1.784   2.096  14.911 -0.6307 -1.3396 -0.0778
 9339SOL    HW239654   1.692   2.211  14.935  0.6665  1.5820 -0.0519
 9340SOL     OW39655   2.405   3.917  13.684  0.4148  0.0130  0.1863
 9340SOL    HW139656   2.351   3.977  13.632 -0.8022  0.8208  2.3972
 9340SOL    HW239657   2.494   3.946  13.663  0.0461  0.4904 -0.7169
 9341SOL     OW39658   4.339   0.329  16.459  0.1026 -0.8128 -0.6379
 9341SOL    HW139659   4.249   0.319  16.431  0.5807 -1.7821 -1.8319
 9341SOL    HW239660   4.342   0.424  16.462  0.4264 -0.8166 -0.7443
 9342SOL     OW39661   2.620   0.127   9.987  0.0367  0.4927  0.0432
 9342SOL    HW139662   2.527   0.113  10.004 -0.4488  0.4776 -2.6631
 9342SOL    HW239663   2.646   0.163  10.072 -1.0730  1.0879  0.1316
 9343SOL     OW39664   2.056   4.166  13.847 -0.1722 -0.1907 -0.2207
 9343SOL    HW139665   2.006   4.199  13.922 -0.4065 -0.5362 -0.2276
 9343SOL    HW239666   2.123   4.117  13.895 -2.6118 -2.2808  1.0451
 9344SOL     OW39667   4.176   1.896   7.160  0.3614  0.3671 -0.1111
 9344SOL    HW139668   4.135   1.852   7.234  0.4782  0.1349 -0.1869
 9344SOL    HW239669   4.195   1.828   7.096 -2.4269 -0.5732  0.0525
 9345SOL     OW39670   2.146   0.335  13.880 -0.3553 -0.2768  0.0731
 9345SOL    HW139671   2.203   0.299  13.947  1.1928  0.1689 -0.9899
 9345SOL    HW239672   2.172   0.284  13.803  0.4314  0.7474 -0.3528
 9346SOL     OW39673   3.457   2.805   4.210  0.4151  0.2259  0.3364
 9346SOL    HW139674   3.446   2.886   4.259  0.0913  0.2883  0.1650
 9346SOL    HW239675   3.545   2.817   4.176 -0.0189  1.8493 -0.1931
 9347SOL     OW39676   4.277   2.719  16.172 -0.2663 -0.3883 -0.6779
 9347SOL    HW139677   4.191   2.757  16.192 -1.1363 -0.9658 -3.3651
 9347SOL    HW239678   4.300   2.688  16.260 -0.6332  0.4493 -0.2822
 9348SOL     OW39679   3.625   4.428  10.513  0.0360 -0.0516 -0.2532
 9348SOL    HW139680   3.619   4.333  10.501 -2.1360  0.0597 -0.1707
 9348SOL    HW239681   3.718   4.447  10.506  0.1192 -0.4233 -0.1438
 9349SOL     OW39682   2.383   1.812   7.474  0.3056  0.5168  0.1944
 9349SOL    HW139683   2.425   1.728   7.489 -0.2751  0.3887  1.1160
 9349SOL    HW239684   2.375   1.814   7.379 -1.6561  1.0722  0.3714
 9350SOL     OW39685   1.654   3.040  16.152  0.0531  0.4698 -0.0593
 9350SOL    HW139686   1.705   2.960  16.169  0.4073  0.9742  1.2727
 9350SOL    HW239687   1.639   3.039  16.058  0.1445  1.7232 -0.0821
 9351SOL     OW39688   4.087   1.664   0.267  1.2617 -0.4060 -0.2461
 9351SOL    HW139689   4.116   1.619   0.187 -0.7808 -1.1581 -0.5740
 9351SOL    HW239690   4.136   1.745   0.254  1.8802 -0.6999  0.2706
 9352SOL     OW39691   0.368   0.434   0.223  0.1589 -0.3967 -0.7544
 9352SOL    HW139692   0.423   0.432   0.301 -0.1096  0.2261 -0.5487
 9352SOL    HW239693   0.438   0.420   0.159 -0.2612  2.0380 -1.7381
 9353SOL     OW39694   3.105   2.116   6.838  0.6577 -0.8662 -0.1826
 9353SOL    HW139695   3.153   2.038   6.813 -0.0479 -2.4725  3.5522
 9353SOL    HW239696   3.127   2.130   6.930  3.6921 -0.8037 -0.9341
 9354SOL     OW39697   2.378   2.255   6.840  0.0685  0.3846  0.6418
 9354SOL    HW139698   2.364   2.171   6.885  1.3658 -0.9307 -1.3951
 9354SOL    HW239699   2.461   2.280   6.879  0.6236 -0.6267  0.1186
 9355SOL     OW39700   3.037   4.363   1.112  0.4632 -0.0844  0.9060
 9355SOL    HW139701   3.121   4.399   1.086  0.4784 -0.8359 -0.0721
 9355SOL    HW239702   3.015   4.408   1.194  0.0795 -1.0635  1.3515
 9356SOL     OW39703   1.976   1.357   0.775  0.2126  0.7851  0.1072
 9356SOL    HW139704   2.068   1.381   0.786  0.9755 -0.8612 -2.5151
 9356SOL    HW239705   1.960   1.425   0.709  2.2806  0.4644 -0.7219
 9357SOL     OW39706   2.642   2.963   6.927  0.1786  0.1524  0.3564
 9357SOL    HW139707   2.556   3.002   6.914  0.5454  0.0528 -2.4203
 9357SOL    HW239708   2.625   2.885   6.979  3.2395 -1.6484 -1.3476
 9358SOL     OW39709   0.095   1.597  11.179 -0.3051  0.1148 -0.0578
 9358SOL    HW139710   0.088   1.501  11.184 -1.8624  0.2875  1.2973
 9358SOL    HW239711   0.158   1.600  11.107 -2.1106 -1.1874 -1.7008
 9359SOL     OW39712   1.135   4.628   8.025  0.0173  0.8427 -0.2456
 9359SOL    HW139713   1.143   4.536   7.998 -1.5742  1.0473 -1.3863
 9359SOL    HW239714   1.101   4.671   7.946 -0.1227 -0.2885 -0.8033
 9360SOL     OW39715   3.951   1.745   1.955  0.2394 -0.6943 -0.0097
 9360SOL    HW139716   3.873   1.713   1.999 -0.6670  0.3976 -0.8207
 9360SOL    HW239717   3.938   1.708   1.867 -1.3886  0.8812 -0.4118
 9361SOL     OW39718   2.556   1.800  10.192 -0.0144  0.1311 -0.5277
 9361SOL    HW139719   2.477   1.852  10.199 -1.2432 -1.9989  1.3554
 9361SOL    HW239720   2.526   1.733  10.131  1.6672  1.3188 -2.6821
 9362SOL     OW39721   3.262   3.123   3.719 -0.2534  0.2881 -0.2428
 9362SOL    HW139722   3.209   3.187   3.766 -0.7935  1.0133 -1.8441
 9362SOL    HW239723   3.213   3.126   3.637  2.1682 -1.5690 -1.7649
 9363SOL     OW39724   2.610   3.426   4.733 -0.5978 -0.3473 -0.4533
 9363SOL    HW139725   2.642   3.338   4.751 -0.9654 -0.3763  0.0733
 9363SOL    HW239726   2.630   3.438   4.640 -1.4402  1.8659 -0.3629
 9364SOL     OW39727   0.263   4.389   2.067  0.4105  0.0037 -0.1108
 9364SOL    HW139728   0.300   4.344   2.143  0.2440 -0.4512 -0.3007
 9364SOL    HW239729   0.216   4.461   2.109  0.5670 -0.4921  0.9037
 9365SOL     OW39730   4.637   1.926   7.858 -0.0071 -0.1185 -0.5432
 9365SOL    HW139731   4.667   1.888   7.940 -0.0139  1.2159  0.0846
 9365SOL    HW239732   4.542   1.924   7.862 -0.1089  3.1934 -0.9707
 9366SOL     OW39733   0.204   1.559   9.491 -0.1409  0.1471 -0.5738
 9366SOL    HW139734   0.206   1.635   9.433  0.4844  0.0696 -0.6605
 9366SOL    HW239735   0.242   1.596   9.570 -1.1011 -0.4170  0.1453
 9367SOL     OW39736   1.048   4.408   4.852  0.3543 -0.3920 -0.4050
 9367SOL    HW139737   1.059   4.437   4.761 -1.3662 -0.2446 -0.5643
 9367SOL    HW239738   1.118   4.460   4.890  0.0374 -0.2499 -0.0251
 9368SOL     OW39739   0.230   1.051   7.028  0.8278 -0.5563  0.5747
 9368SOL    HW139740   0.268   1.128   7.072  0.5171  0.3820 -0.7871
 9368SOL    HW239741   0.137   1.072   7.032  0.7363 -0.8561  0.0151
 9369SOL     OW39742   0.158   2.552   2.481 -0.1669  0.1434 -0.2828
 9369SOL    HW139743   0.239   2.501   2.473 -0.7713 -0.6505 -1.3485
 9369SOL    HW239744   0.204   2.631   2.452 -0.9141 -0.5543 -3.3237
 9370SOL     OW39745   0.482   1.951  10.130 -0.2490  0.1923  0.1066
 9370SOL    HW139746   0.468   1.857  10.122  2.5878 -0.3318  1.6157
 9370SOL    HW239747   0.449   1.960  10.220 -0.7757  2.3742 -0.3023
 9371SOL     OW39748   0.387   3.358  10.549 -0.0857 -0.0168  0.1882
 9371SOL    HW139749   0.428   3.437  10.585  0.5473 -1.5966  3.0013
 9371SOL    HW239750   0.378   3.296  10.622  0.4584 -3.2362 -2.5229
 9372SOL     OW39751   3.656   2.286  15.260 -0.6293 -0.0745 -0.3911
 9372SOL    HW139752   3.690   2.327  15.181 -0.7623 -1.2594 -1.0667
 9372SOL    HW239753   3.576   2.251  15.220 -0.6633 -0.0713 -0.3262
 9373SOL     OW39754   2.521   0.635  10.824  0.0655  0.0915 -0.4396
 9373SOL    HW139755   2.588   0.601  10.765 -0.4288  0.0681 -0.9874
 9373SOL    HW239756   2.445   0.596  10.781 -1.1210  1.2870  0.5674
 9374SOL     OW39757   3.920   3.738   9.013 -0.0752 -0.0277 -0.4261
 9374SOL    HW139758   3.831   3.706   9.023  0.3225 -1.1133 -0.3915
 9374SOL    HW239759   3.910   3.803   8.944  0.4772  0.0338 -0.4503
 9375SOL     OW39760   0.578   2.290   1.757 -0.0406  0.7958 -0.6995
 9375SOL    HW139761   0.511   2.345   1.797 -0.6214  0.5599 -1.3489
 9375SOL    HW239762   0.653   2.315   1.811 -1.7321  2.4045  0.8841
 9376SOL     OW39763   0.785   1.632   4.570 -0.7308 -0.2388 -0.0896
 9376SOL    HW139764   0.768   1.588   4.486  1.3267  0.9276 -1.1366
 9376SOL    HW239765   0.698   1.652   4.604 -0.8024  0.6663 -0.8109
 9377SOL     OW39766   1.134   3.109  14.096  0.1156 -0.5429 -0.4377
 9377SOL    HW139767   1.110   3.200  14.117  0.3104 -0.3912 -0.8722
 9377SOL    HW239768   1.052   3.061  14.107  0.5133 -1.1021  0.0741
 9378SOL     OW39769   4.421   3.959   6.421  0.5394 -0.3632 -0.6494
 9378SOL    HW139770   4.450   3.899   6.352  0.5352 -4.0940  2.6117
 9378SOL    HW239771   4.470   4.039   6.401  1.4044 -0.4004  1.3283
 9379SOL     OW39772   2.334   4.337  12.352  0.0915  0.2641  0.2088
 9379SOL    HW139773   2.296   4.249  12.347  0.3696  0.0047  2.9032
 9379SOL    HW239774   2.289   4.376  12.427  1.2787 -0.9124  1.5302
 9380SOL     OW39775   3.465   2.801  16.349  0.0793 -0.1154 -0.6643
 9380SOL    HW139776   3.543   2.856  16.350 -0.2687  0.3187  2.6894
 9380SOL    HW239777   3.503   2.737  16.409 -1.2768 -0.0723  0.2345
 9381SOL     OW39778   4.216   0.783   1.157 -0.0987  0.6515  0.3227
 9381SOL    HW139779   4.217   0.844   1.083  1.1143 -0.4961 -0.6243
 9381SOL    HW239780   4.283   0.818   1.216 -0.7557  1.8179  0.3546
 9382SOL     OW39781   3.472   1.911  16.517  0.0723  0.0803 -0.4035
 9382SOL    HW139782   3.410   1.851  16.558  2.4454 -0.2621  2.7558
 9382SOL    HW239783   3.512   1.844  16.461  0.1564  0.7968 -1.1835
 9383SOL     OW39784   3.468   4.331   2.694 -0.0987 -0.2691 -0.8943
 9383SOL    HW139785   3.506   4.243   2.700  0.9105  0.2119 -0.2786
 9383SOL    HW239786   3.442   4.328   2.602 -1.6519 -2.4742 -0.3845
 9384SOL     OW39787   1.820   2.376   8.530 -0.2827  0.0031 -0.3923
 9384SOL    HW139788   1.784   2.385   8.442 -0.7261  1.3979 -0.0689
 9384SOL    HW239789   1.870   2.296   8.513 -0.3633  0.0334 -0.7750
 9385SOL     OW39790   1.468   1.193  11.245 -0.4264  0.2549  0.0780
 9385SOL    HW139791   1.550   1.192  11.196 -1.5369  0.5847 -1.8000
 9385SOL    HW239792   1.489   1.138  11.321 -1.4339 -0.9536 -0.5317
 9386SOL     OW39793   0.907   1.550   7.238  0.2111  0.2547  0.2380
 9386SOL    HW139794   0.816   1.561   7.212 -0.0069 -1.0612  0.4607
 9386SOL    HW239795   0.942   1.601   7.165 -0.0556  0.2430  0.1046
 9387SOL     OW39796   1.711   1.314   4.470 -0.2747 -0.4068 -0.1331
 9387SOL    HW139797   1.794   1.343   4.432  0.4696  1.3031  2.7795
 9387SOL    HW239798   1.705   1.226   4.433 -0.9304 -0.5257  0.2537
 9388SOL     OW39799   2.971   2.716   7.128  0.9068  0.1216  0.1542
 9388SOL    HW139800   3.013   2.790   7.083  0.1370 -0.2005 -1.1053
 9388SOL    HW239801   2.985   2.643   7.067 -0.9160  0.4134 -0.6237
 9389SOL     OW39802   3.788   3.882   6.077  0.6261  0.2046  0.7216
 9389SOL    HW139803   3.845   3.943   6.122 -1.1985  0.4126  2.7142
 9389SOL    HW239804   3.736   3.848   6.149 -1.0972 -0.6885 -0.9367
 9390SOL     OW39805   4.155   2.049  13.852  0.4701 -0.0112  0.0043
 9390SOL    HW139806   4.245   2.023  13.831  1.9917  4.2825  1.3222
 9390SOL    HW239807   4.153   2.128  13.799  1.1218  0.1285  0.1883
 9391SOL     OW39808   2.113   0.003   2.907 -0.3767 -0.5520 -0.3134
 9391SOL    HW139809   2.153   0.077   2.952  1.0210 -2.4961  1.6217
 9391SOL    HW239810   2.154   0.010   2.820  0.2150 -2.1165 -0.1689
 9392SOL     OW39811   4.158   0.827   4.572  0.3012  0.1520 -0.1267
 9392SOL    HW139812   4.076   0.839   4.621 -1.1531  4.0595 -3.5805
 9392SOL    HW239813   4.219   0.830   4.646  0.6779 -0.6893 -0.4012
 9393SOL     OW39814   3.864   4.275   3.103  0.1755 -0.6550 -0.0583
 9393SOL    HW139815   3.865   4.216   3.027  0.2144 -1.6347  0.7099
 9393SOL    HW239816   3.847   4.358   3.058 -0.7283 -0.5581  0.4521
 9394SOL     OW39817   0.876   1.540   6.606 -0.1541  0.6283 -0.5987
 9394SOL    HW139818   0.904   1.545   6.514  3.0424  0.5380  0.3741
 9394SOL    HW239819   0.958   1.521   6.650 -0.9673 -0.9091  0.2251
 9395SOL     OW39820   0.588   3.881  11.500 -0.4019 -0.4416  0.3605
 9395SOL    HW139821   0.653   3.863  11.568 -0.3209  1.2587  0.7146
 9395SOL    HW239822   0.530   3.940  11.548 -1.1323 -0.9300  0.0887
 9396SOL     OW39823   2.417   1.800   7.194 -0.4155  0.6139 -0.4512
 9396SOL    HW139824   2.357   1.873   7.180 -0.3509  0.0435 -3.8456
 9396SOL    HW239825   2.375   1.736   7.135  0.7176  0.3965 -1.0265
 9397SOL     OW39826   4.234   4.162   7.586  0.2201 -0.1848 -0.3221
 9397SOL    HW139827   4.147   4.202   7.581 -0.3955 -1.4773  0.1618
 9397SOL    HW239828   4.239   4.129   7.676 -2.9541 -1.1347 -0.4864
 9398SOL     OW39829   3.306   4.026   3.120  0.3040  0.4430  0.2355
 9398SOL    HW139830   3.291   4.096   3.184 -0.2004 -0.2635  0.8997
 9398SOL    HW239831   3.256   3.955   3.160  0.9374 -1.3563 -2.1549
 9399SOL     OW39832   0.619   0.045   5.249  0.3920 -0.5547  0.0084
 9399SOL    HW139833   0.567   4.700   5.233  1.0285 -0.8142 -0.7961
 9399SOL    HW239834   0.699   0.015   5.205 -0.1998 -0.0594 -1.4244
 9400SOL     OW39835   0.342   0.385   5.202 -0.5689 -0.1914  0.4053
 9400SOL    HW139836   0.348   0.439   5.281 -0.6341 -0.0157  0.2892
 9400SOL    HW239837   0.437   0.372   5.196 -1.0340 -2.8647 -1.2733
 9401SOL     OW39838   1.334   1.953   7.596 -0.2944 -0.0913  0.1560
 9401SOL    HW139839   1.420   1.912   7.590 -0.3942 -0.2453 -0.2387
 9401SOL    HW239840   1.294   1.918   7.516  2.0040 -0.8914 -0.6619
 9402SOL     OW39841   3.956   3.655   4.371 -0.5837  0.5370 -0.6191
 9402SOL    HW139842   3.911   3.719   4.427  1.0772  0.1902  1.1040
 9402SOL    HW239843   3.951   3.700   4.287  0.5305  0.7377 -0.5757
 9403SOL     OW39844   3.450   3.188   3.473 -0.1464 -0.3292 -0.0947
 9403SOL    HW139845   3.396   3.112   3.494  0.0619 -0.7482 -1.0557
 9403SOL    HW239846   3.519   3.185   3.539 -3.5448 -1.3923  3.4145
 9404SOL     OW39847   3.576   2.620   8.538  0.1082 -0.5071  0.2206
 9404SOL    HW139848   3.556   2.535   8.577  0.8864 -0.5969  0.4140
 9404SOL    HW239849   3.593   2.671   8.618  1.5743 -0.6431 -0.0011
 9405SOL     OW39850   1.293   1.291  17.411  0.4166 -0.4638  0.0993
 9405SOL    HW139851   1.355   1.218  17.413  2.6648  1.4610  0.0328
 9405SOL    HW239852   1.210   1.248  17.431  0.1915 -0.0843 -0.0099
 9406SOL     OW39853   2.155   1.071   2.285 -0.5347 -0.2577  0.2126
 9406SOL    HW139854   2.068   1.044   2.256 -0.6222 -0.7935  0.9718
 9406SOL    HW239855   2.204   1.009   2.231 -0.4628  1.0910 -1.2614
 9407SOL     OW39856   4.553   0.570  13.987 -0.3690 -0.2003  0.5214
 9407SOL    HW139857   4.536   0.486  13.944 -0.7949  0.8680 -1.4109
 9407SOL    HW239858   4.465   0.599  14.011 -0.3228 -0.6520  1.2159
 9408SOL     OW39859   3.880   1.904   5.090  0.1854 -0.1644  1.1794
 9408SOL    HW139860   3.876   1.879   4.998  0.6529 -0.9437  1.3681
 9408SOL    HW239861   3.802   1.860   5.124 -0.1097 -1.4923 -1.2300
 9409SOL     OW39862   0.932   4.052   7.129  0.1266 -0.2654  0.0094
 9409SOL    HW139863   0.880   4.047   7.049  0.4722  0.2838 -0.2433
 9409SOL    HW239864   0.867   4.033   7.196 -0.4715 -2.3355 -1.1603
 9410SOL     OW39865   0.486   0.096   5.885  0.0389 -0.4332  0.3092
 9410SOL    HW139866   0.440   0.025   5.841  0.3650 -1.7790  2.1181
 9410SOL    HW239867   0.568   0.076   5.841  0.9926  0.1257  1.8446
 9411SOL     OW39868   4.236   0.094   0.786  0.2842  0.5574  0.1766
 9411SOL    HW139869   4.309   0.036   0.810  0.4705  0.4755 -0.5542
 9411SOL    HW239870   4.171   0.055   0.844  1.5909 -0.4258  0.9888
 9412SOL     OW39871   1.081   2.097   4.308  0.3952 -1.3994  0.1684
 9412SOL    HW139872   1.112   2.028   4.250 -2.8642  0.0109 -3.3369
 9412SOL    HW239873   1.003   2.125   4.258  0.5526 -2.2056 -0.5363
 9413SOL     OW39874   3.005   0.622   5.757 -0.3065 -0.1523  0.7503
 9413SOL    HW139875   3.066   0.642   5.828  0.0309  2.3312 -0.2342
 9413SOL    HW239876   2.942   0.694   5.763 -1.0070 -0.7059  0.1773
 9414SOL     OW39877   3.413   2.007   0.300 -0.1439  0.4628 -0.4202
 9414SOL    HW139878   3.367   2.016   0.384 -1.0933  0.1203 -0.8990
 9414SOL    HW239879   3.458   2.091   0.294  2.1974 -0.8013 -0.6181
 9415SOL     OW39880   2.326   2.080   3.669 -0.2029  0.3306 -0.0292
 9415SOL    HW139881   2.373   2.160   3.692  0.8048 -0.3674  0.3481
 9415SOL    HW239882   2.356   2.062   3.580  0.1277 -0.9013  0.3361
 9416SOL     OW39883   2.629   4.047  14.859  0.5442  0.2079 -0.9164
 9416SOL    HW139884   2.654   4.135  14.829 -0.5586  0.0709 -2.2172
 9416SOL    HW239885   2.562   4.032  14.792 -1.3665  0.9348  0.8436
 9417SOL     OW39886   0.694   0.038   1.998 -0.0689 -0.4417  0.2432
 9417SOL    HW139887   0.749   4.698   2.024  0.1696 -0.5262 -0.4761
 9417SOL    HW239888   0.694   0.032   1.902 -1.1886 -0.5189  0.2532
 9418SOL     OW39889   1.670   3.140  15.363 -0.6291  0.0234  0.0896
 9418SOL    HW139890   1.659   3.094  15.280  3.0163  0.7788 -0.7810
 9418SOL    HW239891   1.688   3.064  15.419 -0.5969 -1.3858 -1.8498
 9419SOL     OW39892   2.813   4.583   8.494  0.1958 -0.6092  0.1966
 9419SOL    HW139893   2.832   4.545   8.408 -1.1580 -0.7526 -0.0403
 9419SOL    HW239894   2.733   4.542   8.525 -0.6131 -0.4565 -1.6811
 9420SOL     OW39895   0.853   0.882  15.142 -0.2166 -0.3801 -0.0373
 9420SOL    HW139896   0.835   0.789  15.126 -1.2643 -0.0195 -0.9430
 9420SOL    HW239897   0.865   0.871  15.237  0.9872  2.3204  0.1054
 9421SOL     OW39898   3.768   1.570   8.114  0.4596  0.7004  0.1219
 9421SOL    HW139899   3.827   1.541   8.045  0.1240  0.1608  0.0677
 9421SOL    HW239900   3.822   1.642   8.148  0.5803  0.0682  1.2404
 9422SOL     OW39901   1.546   3.359   2.480 -0.4407  0.3358  0.4229
 9422SOL    HW139902   1.479   3.417   2.517  0.0129  0.6824  0.7041
 9422SOL    HW239903   1.501   3.280   2.453  3.1762 -0.9373 -1.8057
 9423SOL     OW39904   0.349   1.626  14.246 -0.5685 -0.1561 -0.5352
 9423SOL    HW139905   0.293   1.571  14.191 -0.2392  0.6476 -1.6733
 9423SOL    HW239906   0.437   1.617  14.210  0.1215 -1.6080  1.5027
 9424SOL     OW39907   4.719   2.411   5.678 -0.0693  0.6640 -0.8153
 9424SOL    HW139908   4.631   2.426   5.644 -0.3563  0.8320  0.0224
 9424SOL    HW239909   0.015   2.396   5.588 -2.1796  0.6250 -1.4959
 9425SOL     OW39910   3.442   0.792   2.170  0.1951  0.4828 -0.4685
 9425SOL    HW139911   3.492   0.801   2.252 -1.0408  2.9876  0.0004
 9425SOL    HW239912   3.377   0.861   2.185  1.7545  2.2598 -1.8820
 9426SOL     OW39913   4.582   2.607   3.479 -0.1026 -0.4788 -0.7179
 9426SOL    HW139914   4.502   2.594   3.428 -0.1270 -1.6185 -0.3918
 9426SOL    HW239915   4.610   2.697   3.464  1.7361 -0.8784  0.3814
 9427SOL     OW39916   1.588   3.688   7.970  0.5920  0.3409  0.0717
 9427SOL    HW139917   1.680   3.711   7.980  0.8481  0.7331 -3.1735
 9427SOL    HW239918   1.565   3.670   8.061 -0.3509 -1.7347 -0.5628
 9428SOL     OW39919   3.437   3.757  14.285 -0.7479  0.3206  0.3504
 9428SOL    HW139920   3.444   3.662  14.298 -0.4024  0.1696 -0.8652
 9428SOL    HW239921   3.373   3.790  14.348 -0.3887 -1.6380  1.7492
 9429SOL     OW39922   0.315   3.337  16.204  0.2864  0.1405 -0.4817
 9429SOL    HW139923   0.249   3.402  16.182 -0.2109 -0.1466  0.1534
 9429SOL    HW239924   0.289   3.301  16.289  1.0674  0.6603 -0.0236
 9430SOL     OW39925   2.538   3.994   6.382 -0.0209  0.3653  0.2332
 9430SOL    HW139926   2.445   3.994   6.402  0.1447 -1.2396  0.9509
 9430SOL    HW239927   2.533   4.065   6.317  0.3597  0.9733  0.8680
 9431SOL     OW39928   2.435   3.612   5.527  0.9075 -0.5589  0.7533
 9431SOL    HW139929   2.373   3.545   5.499 -1.1395  0.0876  3.8337
 9431SOL    HW239930   2.462   3.575   5.611 -1.8838 -2.0733  0.9549
 9432SOL     OW39931   4.694   3.471   2.960 -0.2232  0.0395 -0.2984
 9432SOL    HW139932   4.645   3.501   3.036  0.5711 -0.2931  0.3407
 9432SOL    HW239933   4.695   3.378   2.979  1.8481 -0.3519 -2.3133
 9433SOL     OW39934   3.168   0.211   4.136  0.2159  0.2172  0.4153
 9433SOL    HW139935   3.207   0.237   4.220  0.5234  0.0158  0.3342
 9433SOL    HW239936   3.080   0.248   4.139  0.8000  1.4590  1.9962
 9434SOL     OW39937   0.306   3.257   1.767  0.5246  0.2379 -0.5707
 9434SOL    HW139938   0.247   3.315   1.814  1.0429  0.5259 -0.2709
 9434SOL    HW239939   0.260   3.174   1.783  0.8562  0.3788  1.1982
 9435SOL     OW39940   2.325   3.586  14.893  0.3091 -0.3342  0.4690
 9435SOL    HW139941   2.269   3.535  14.951  1.2758  2.0895  3.4784
 9435SOL    HW239942   2.391   3.618  14.954  1.6268  0.7251 -1.5257
 9436SOL     OW39943   4.568   3.972   8.266  0.3292  0.6966  0.1034
 9436SOL    HW139944   4.532   3.898   8.315  1.5975 -1.4846 -2.3072
 9436SOL    HW239945   4.498   3.998   8.206 -1.6914 -1.7224  1.4101
 9437SOL     OW39946   0.178   3.469  13.837  0.1974  0.5481  0.8743
 9437SOL    HW139947   0.211   3.458  13.926 -2.9662 -0.3637  1.9284
 9437SOL    HW239948   0.089   3.437  13.845  0.0637  1.2203  2.0494
 9438SOL     OW39949   1.550   2.348   7.437 -0.3020  0.1023 -0.1868
 9438SOL    HW139950   1.586   2.273   7.389  0.1165 -0.4712  1.0290
 9438SOL    HW239951   1.486   2.305   7.494  0.8810 -0.8697  0.4146
 9439SOL     OW39952   4.606   3.958   4.413  0.1233 -0.1965 -0.0089
 9439SOL    HW139953   4.629   3.992   4.326  1.0087 -0.5742  0.0770
 9439SOL    HW239954   4.665   4.001   4.474 -1.5548  1.5449  0.3994
 9440SOL     OW39955   2.026   4.070   9.249  0.8790 -0.2808  0.4615
 9440SOL    HW139956   1.933   4.049   9.238  0.9060  0.3276 -1.0500
 9440SOL    HW239957   2.024   4.148   9.193 -0.9608 -0.5993  0.0713
 9441SOL     OW39958   0.352   2.361  14.788  0.4717  0.3706 -0.3207
 9441SOL    HW139959   0.334   2.454  14.801  3.4477  0.6001  1.9237
 9441SOL    HW239960   0.446   2.356  14.803 -0.0754 -1.4688  2.5168
 9442SOL     OW39961   3.338   0.969   4.903  0.4099 -0.0911  0.4561
 9442SOL    HW139962   3.357   0.964   4.996  1.2471 -1.3237  0.2269
 9442SOL    HW239963   3.425   0.992   4.870  0.3278 -1.8568 -1.0485
 9443SOL     OW39964   0.462   3.940   4.435  0.1434 -0.4710 -0.1580
 9443SOL    HW139965   0.506   3.855   4.438  3.1631  0.9979 -2.7502
 9443SOL    HW239966   0.450   3.960   4.528  1.3025 -0.5315 -0.0014
 9444SOL     OW39967   0.879   2.192   2.622  0.2091 -0.4154  0.2867
 9444SOL    HW139968   0.807   2.141   2.587 -1.6540  2.1796  0.3209
 9444SOL    HW239969   0.920   2.244   2.553  1.3621  0.1971  1.4412
 9445SOL     OW39970   3.749   0.890  17.173  0.1275 -0.0092 -0.6777
 9445SOL    HW139971   3.823   0.918  17.118 -0.7414  0.9993 -1.3368
 9445SOL    HW239972   3.680   0.956  17.163  0.6332  0.8431  1.5343
 9446SOL     OW39973   4.429   3.442   1.359 -0.0483  0.1386  0.5870
 9446SOL    HW139974   4.503   3.503   1.361 -0.3043  0.4521  0.4899
 9446SOL    HW239975   4.365   3.497   1.405 -0.4008 -0.0637  0.3368
 9447SOL     OW39976   0.897   3.166   3.758 -0.4522 -0.1864 -0.0542
 9447SOL    HW139977   0.828   3.126   3.812 -0.3005 -0.1663  0.1576
 9447SOL    HW239978   0.846   3.191   3.681 -1.1090  1.1391  0.8152
 9448SOL     OW39979   2.973   4.488   3.470  0.6427  0.3133  0.5375
 9448SOL    HW139980   3.032   4.421   3.504  0.9898  0.8262  0.9450
 9448SOL    HW239981   3.034   4.549   3.428 -0.7376  2.8971  2.2779
 9449SOL     OW39982   1.870   2.496   5.055 -0.0054 -0.4602  0.7251
 9449SOL    HW139983   1.885   2.565   5.119  0.0053  0.3280 -0.1386
 9449SOL    HW239984   1.936   2.526   4.992 -0.6757  3.1961  1.7964
 9450SOL     OW39985   2.631   0.312   3.253  0.6798 -0.4620 -0.4035
 9450SOL    HW139986   2.592   0.306   3.165 -1.2180  0.7832  0.3530
 9450SOL    HW239987   2.717   0.281   3.225 -0.6549 -2.6705 -2.1435
 9451SOL     OW39988   2.100   0.523   7.520  0.1848 -0.2565  0.9426
 9451SOL    HW139989   2.173   0.578   7.491  0.2336 -0.9031 -0.1645
 9451SOL    HW239990   2.084   0.466   7.445  0.5529  1.7090 -0.6173
 9452SOL     OW39991   2.840   0.109   2.036 -0.1904  0.2114  0.5523
 9452SOL    HW139992   2.850   0.179   2.101 -0.7909  1.2553 -0.4640
 9452SOL    HW239993   2.793   0.156   1.966 -0.9861  2.1034  2.3637
 9453SOL     OW39994   2.547   1.820   6.867 -0.4907 -0.1983 -0.0833
 9453SOL    HW139995   2.467   1.790   6.911  0.1128 -1.4909  0.1336
 9453SOL    HW239996   2.505   1.872   6.798  1.6788  0.1158 -1.1514
 9454SOL     OW39997   1.305   0.841  16.836  0.1427  0.9582  0.0999
 9454SOL    HW139998   1.243   0.803  16.898  0.1203  1.8249  0.6054
 9454SOL    HW239999   1.241   0.895  16.787 -1.4869 -0.1691  0.9965
 9455SOL     OW40000   0.861   3.150   2.648 -0.2327 -0.0706 -0.6197
 9455SOL    HW140001   0.825   3.236   2.669 -0.2953  0.2133 -1.8754
 9455SOL    HW240002   0.952   3.171   2.629  0.1261  0.7120  2.0016
 9456SOL     OW40003   1.377   3.965   9.360  0.4486 -0.2267 -0.2394
 9456SOL    HW140004   1.461   3.984   9.401 -0.1883 -0.2930  1.1017
 9456SOL    HW240005   1.379   3.870   9.368 -0.7276 -0.0092  2.4972
 9457SOL     OW40006   0.038   1.293   8.747 -0.2779 -0.0832  0.1444
 9457SOL    HW140007   0.014   1.320   8.658 -0.0717  1.4351  0.5512
 9457SOL    HW240008   4.683   1.274   8.778 -0.3635 -3.1308 -1.9012
 9458SOL     OW40009   0.538   0.412  15.926  0.3973 -0.7361  0.2165
 9458SOL    HW140010   0.468   0.408  15.861 -0.2995  0.3200  0.9164
 9458SOL    HW240011   0.488   0.412  16.007  0.0113  0.7078 -0.0218
 9459SOL     OW40012   2.654   0.632   4.851 -0.3723 -0.1511  0.4854
 9459SOL    HW140013   2.645   0.606   4.942 -0.8336 -1.4282  0.0684
 9459SOL    HW240014   2.644   0.727   4.863  1.2419  0.0316  0.4089
 9460SOL     OW40015   3.434   3.925   6.404 -0.0116 -0.4504 -0.8374
 9460SOL    HW140016   3.374   3.998   6.413  0.1582 -0.4510  0.3513
 9460SOL    HW240017   3.396   3.863   6.467 -0.2865  1.4935  0.9081
 9461SOL     OW40018   4.233   0.749  12.192  0.2723 -0.2521  0.2041
 9461SOL    HW140019   4.161   0.804  12.164  1.1416  0.7477 -0.0710
 9461SOL    HW240020   4.207   0.674  12.139  1.5651 -0.0693 -0.6889
 9462SOL     OW40021   2.437   1.175  10.042 -0.5138  0.8015  0.5121
 9462SOL    HW140022   2.357   1.124  10.048  0.0354 -0.3346 -1.9423
 9462SOL    HW240023   2.400   1.253  10.083 -0.2124  1.2320 -0.0309
 9463SOL     OW40024   0.987   0.717  10.970  0.4558 -0.0312  0.7021
 9463SOL    HW140025   0.933   0.713  11.049 -2.1527  0.0687 -1.0904
 9463SOL    HW240026   1.015   0.625  10.974 -2.6442 -1.0545 -0.6844
 9464SOL     OW40027   0.183   0.265  15.284 -0.6696 -0.5210  0.5124
 9464SOL    HW140028   0.155   0.189  15.334  1.2673  1.0031  3.9614
 9464SOL    HW240029   0.130   0.334  15.324  0.6270 -0.1056  1.5230
 9465SOL     OW40030   3.576   0.913   8.538  0.2300 -0.4051  0.3416
 9465SOL    HW140031   3.589   0.863   8.458  0.5624 -0.9830  0.7566
 9465SOL    HW240032   3.647   0.882   8.594 -0.1769 -0.6760  0.7099
 9466SOL     OW40033   1.168   0.738  17.050 -0.3683  0.3504 -0.0795
 9466SOL    HW140034   1.257   0.726  17.083 -0.8972 -0.6552  0.9716
 9466SOL    HW240035   1.125   0.708  17.130  0.7624 -0.9449  0.0401
 9467SOL     OW40036   4.524   0.647   8.439  0.3166 -0.1882  0.1839
 9467SOL    HW140037   4.615   0.657   8.411 -0.4679 -0.5359 -2.4951
 9467SOL    HW240038   4.524   0.553   8.459  1.6853 -0.5911 -1.6376
 9468SOL     OW40039   3.605   3.312   0.075 -0.2378 -0.3272 -0.3701
 9468SOL    HW140040   3.586   3.397   0.034 -0.3197 -0.8482 -1.4126
 9468SOL    HW240041   3.643   3.267  17.734  0.5793  2.3349 -1.5264
 9469SOL     OW40042   2.887   1.771   9.269  0.1729  0.1360  0.3783
 9469SOL    HW140043   2.915   1.849   9.221 -0.6816 -0.1974 -0.6608
 9469SOL    HW240044   2.967   1.757   9.320 -0.1532 -2.0026  0.3061
 9470SOL     OW40045   4.119   0.709   6.847 -0.4493  0.0635 -0.0439
 9470SOL    HW140046   4.191   0.769   6.824  1.4912 -1.3046  2.3752
 9470SOL    HW240047   4.141   0.639   6.785 -0.5864  0.7721 -0.8937
 9471SOL     OW40048   4.613   2.069  15.696 -0.5864  0.0496  0.1930
 9471SOL    HW140049   4.636   2.018  15.775 -3.0628 -0.1393  0.7754
 9471SOL    HW240050   4.540   2.121  15.730  0.2377  1.2428  0.1466
 9472SOL     OW40051   1.890   2.737   2.624 -0.2654 -0.2049  0.1948
 9472SOL    HW140052   1.944   2.801   2.670 -1.3000  0.7864  0.0286
 9472SOL    HW240053   1.837   2.796   2.572 -1.5111  0.3017  2.0560
 9473SOL     OW40054   3.167   1.852   2.542  0.1531  0.3425  0.0005
 9473SOL    HW140055   3.219   1.809   2.474 -0.9742 -1.0602  0.0142
 9473SOL    HW240056   3.123   1.780   2.589  0.7503  0.5879  0.9438
 9474SOL     OW40057   0.840   2.305  17.141 -0.4486  0.6432 -0.1303
 9474SOL    HW140058   0.819   2.315  17.048  2.2106  0.3842 -0.7336
 9474SOL    HW240059   0.818   2.217  17.173 -4.5424  0.9525 -2.0466
 9475SOL     OW40060   0.131   0.761   9.533 -0.1776  0.5667 -0.2498
 9475SOL    HW140061   0.160   0.683   9.580 -0.6524 -0.1096 -1.0805
 9475SOL    HW240062   0.086   0.811   9.601  0.3380 -0.5310  0.8960
 9476SOL     OW40063   3.116   2.052   7.750  0.5190  0.6670  0.5128
 9476SOL    HW140064   3.128   2.011   7.836  0.1898  1.4300  0.9224
 9476SOL    HW240065   3.057   2.119   7.784  0.5660  2.2051 -2.5018
 9477SOL     OW40066   4.187   2.064   8.227  0.6178  0.6381 -0.0737
 9477SOL    HW140067   4.167   2.029   8.314 -1.3326 -1.0044 -1.1756
 9477SOL    HW240068   4.268   2.111   8.245 -0.0394  0.8903  2.2567
 9478SOL     OW40069   2.576   3.892   9.359 -0.4031 -0.2516 -0.1546
 9478SOL    HW140070   2.601   3.882   9.267 -0.0626  0.9700 -0.1988
 9478SOL    HW240071   2.504   3.829   9.355  0.7245 -1.5937  0.9751
 9479SOL     OW40072   4.547   2.688   8.247 -0.2353  0.3597  0.0235
 9479SOL    HW140073   4.455   2.706   8.269 -0.7082 -2.2138  0.1765
 9479SOL    HW240074   4.583   2.677   8.335  1.2478  0.8017 -0.5286
 9480SOL     OW40075   1.408   4.165   1.564 -0.4407  0.6131  0.1198
 9480SOL    HW140076   1.350   4.099   1.602  1.5234 -0.1711  1.7347
 9480SOL    HW240077   1.489   4.116   1.574  0.8282  2.2277 -1.9592
 9481SOL     OW40078   0.186   1.436  10.623 -1.1924  0.0498  0.5828
 9481SOL    HW140079   0.264   1.406  10.669  0.0279  0.4612 -1.2018
 9481SOL    HW240080   0.173   1.368  10.556  1.1591  0.0358  0.1571
 9482SOL     OW40081   1.465   3.482  15.907  0.4573  0.1203 -0.0760
 9482SOL    HW140082   1.495   3.404  15.954  0.6377 -0.3694 -0.9903
 9482SOL    HW240083   1.406   3.525  15.968  0.6715  2.6393 -1.6045
 9483SOL     OW40084   0.795   2.223   2.951 -0.0194  0.1947 -0.2779
 9483SOL    HW140085   0.821   2.133   2.932  1.7925  0.8222 -0.7580
 9483SOL    HW240086   0.747   2.241   2.871  0.4301 -1.1816 -0.8550
 9484SOL     OW40087   4.378   1.833   1.857  0.3606  0.2529  0.1701
 9484SOL    HW140088   4.374   1.743   1.890  3.5273  0.0472 -0.0265
 9484SOL    HW240089   4.423   1.810   1.777  2.7707 -2.7427  2.4026
 9485SOL     OW40090   1.359   0.870   9.968  0.0610  0.6006 -0.0910
 9485SOL    HW140091   1.291   0.895  10.030  2.9807  4.9788  1.3284
 9485SOL    HW240092   1.416   0.947   9.974 -1.7793  1.7724  2.2072
 9486SOL     OW40093   4.127   0.191   2.211  0.1807 -0.4056  0.1207
 9486SOL    HW140094   4.174   0.261   2.258 -0.4326  0.1903 -0.1496
 9486SOL    HW240095   4.046   0.201   2.262  0.9815 -0.4094  1.4146
 9487SOL     OW40096   3.570   1.907  12.664 -0.3765  0.3069  0.6785
 9487SOL    HW140097   3.615   1.878  12.585  1.3957  1.0743  1.4142
 9487SOL    HW240098   3.617   1.865  12.736  1.1184 -0.7709 -0.9391
 9488SOL     OW40099   1.297   2.162  17.239  0.2751 -0.2319 -0.1131
 9488SOL    HW140100   1.262   2.186  17.325  1.0114  0.0577  0.1002
 9488SOL    HW240101   1.218   2.133  17.193  0.4572  2.1338 -1.8975
 9489SOL     OW40102   0.292   0.487   7.907  0.7018  0.3590  0.1750
 9489SOL    HW140103   0.260   0.450   7.990  2.8994  1.5562  1.5753
 9489SOL    HW240104   0.215   0.540   7.890  0.6668  0.4642  0.6527
 9490SOL     OW40105   2.257   3.643   6.267 -0.1689 -0.2192  0.2533
 9490SOL    HW140106   2.351   3.622   6.272 -0.4037 -1.2400  0.4014
 9490SOL    HW240107   2.220   3.583   6.203 -1.1291 -1.4173  1.9102
 9491SOL     OW40108   3.533   0.604   0.974 -0.3005 -0.0765  0.1622
 9491SOL    HW140109   3.538   0.550   0.895 -0.4474 -0.5620  0.4847
 9491SOL    HW240110   3.600   0.566   1.030  0.5737 -1.0676 -1.5547
 9492SOL     OW40111   2.626   4.175  13.160  0.0992 -0.1379  0.3158
 9492SOL    HW140112   2.601   4.144  13.073 -0.7772  0.8507  0.2224
 9492SOL    HW240113   2.704   4.121  13.170  0.0693 -0.5544 -1.6589
 9493SOL     OW40114   0.883   2.682  13.552  0.2715 -0.4268  0.5392
 9493SOL    HW140115   0.888   2.762  13.604  0.9451 -0.0305 -0.1439
 9493SOL    HW240116   0.957   2.628  13.583  0.3486  0.1439  1.3455
 9494SOL     OW40117   2.601   0.464   3.476  0.2576  0.7031  0.2198
 9494SOL    HW140118   2.608   0.408   3.399  1.2443  0.6629  0.3388
 9494SOL    HW240119   2.533   0.420   3.526  0.1184  1.1136  0.3911
 9495SOL     OW40120   0.742   1.286  12.827 -0.0525 -0.2872  0.4093
 9495SOL    HW140121   0.750   1.334  12.909 -1.5622  0.2474  0.2493
 9495SOL    HW240122   0.831   1.293  12.794  0.3015 -0.8709  1.2409
 9496SOL     OW40123   1.461   4.266   4.947 -0.1114 -0.2079 -0.0307
 9496SOL    HW140124   1.420   4.267   4.861  2.4174 -2.7979 -1.2779
 9496SOL    HW240125   1.548   4.258   4.909 -0.0324 -0.3652  0.1817
 9497SOL     OW40126   4.535   3.057  10.940  0.0298 -0.6515 -0.0284
 9497SOL    HW140127   4.565   3.117  10.872 -1.6013 -0.3991 -0.5288
 9497SOL    HW240128   4.597   2.985  10.929  1.2307  0.2218  1.0662
 9498SOL     OW40129   1.051   0.537  14.950 -0.8936 -0.4332 -0.9685
 9498SOL    HW140130   1.080   0.566  14.864  0.2780 -0.1380 -0.4738
 9498SOL    HW240131   1.126   0.546  15.009 -1.5275 -0.8490 -0.1001
 9499SOL     OW40132   1.866   1.759  14.201 -0.4234  0.2818  0.1080
 9499SOL    HW140133   1.845   1.779  14.110  0.9461 -1.5204 -0.6154
 9499SOL    HW240134   1.873   1.663  14.201 -1.4810  0.1986  0.9886
 9500SOL     OW40135   0.616   3.149  10.618 -0.2121 -0.0416 -0.6628
 9500SOL    HW140136   0.699   3.171  10.576 -0.1628 -1.6651 -1.4457
 9500SOL    HW240137   0.596   3.237  10.650  3.0797  0.9969 -1.4753
 9501SOL     OW40138   1.167   1.891  12.308 -0.1544 -0.0656 -0.2397
 9501SOL    HW140139   1.164   1.825  12.240 -0.6881 -1.7466  1.4127
 9501SOL    HW240140   1.254   1.931  12.302  0.4410 -1.2168  0.8026
 9502SOL     OW40141   1.018   4.208   5.183 -0.1602 -0.1926  0.5821
 9502SOL    HW140142   1.036   4.302   5.184 -1.3776  0.0362  0.7102
 9502SOL    HW240143   1.008   4.194   5.089  2.5538  0.4971  0.1691
 9503SOL     OW40144   2.461   1.393   7.177 -0.2831  0.6410  0.0666
 9503SOL    HW140145   2.438   1.425   7.089  0.2300  3.1626  0.8415
 9503SOL    HW240146   2.539   1.339   7.162 -0.4591  0.3211  0.3103
 9504SOL     OW40147   1.197   1.951   8.302  0.5031  0.3220  0.5013
 9504SOL    HW140148   1.135   1.890   8.262  0.7739  0.7643 -0.6007
 9504SOL    HW240149   1.272   1.891   8.304 -0.8142 -1.3702 -1.1012
 9505SOL     OW40150   2.174   0.021   3.208 -0.1660  0.2297 -0.4945
 9505SOL    HW140151   2.220   0.076   3.145 -2.1085  1.7347 -0.6201
 9505SOL    HW240152   2.119   4.694   3.159 -1.3996  0.8369  0.1167
 9506SOL     OW40153   2.992   3.307   8.706 -0.0343  0.0576  0.0598
 9506SOL    HW140154   3.064   3.363   8.677  1.1345 -0.8621  1.1629
 9506SOL    HW240155   3.011   3.227   8.657 -0.4649  1.8067 -2.9127
 9507SOL     OW40156   4.731   2.489   5.103 -0.2576  0.2863  0.4620
 9507SOL    HW140157   4.644   2.487   5.142 -0.3638 -0.8222  0.1806
 9507SOL    HW240158   4.704   2.514   5.015  0.8082  2.2845  0.7096
 9508SOL     OW40159   2.893   3.817   7.666 -0.3296  0.0676  0.3200
 9508SOL    HW140160   2.906   3.864   7.748  1.5895 -0.8420  0.5366
 9508SOL    HW240161   2.957   3.853   7.606 -0.8702  0.0717 -0.2565
 9509SOL     OW40162   4.553   4.722   3.057  0.4465  0.4753 -0.0680
 9509SOL    HW140163   4.617   0.059   3.060 -0.7169  1.4280  2.1356
 9509SOL    HW240164   4.596   4.652   3.007 -0.6092 -0.2465  0.0363
 9510SOL     OW40165   0.969   4.064  17.126  0.2084 -0.7288 -0.1903
 9510SOL    HW140166   0.924   3.994  17.080 -3.5441  1.8910 -0.5538
 9510SOL    HW240167   1.060   4.061  17.095  1.2544  2.7277  2.3956
 9511SOL     OW40168   2.650   0.196  12.250  0.0571 -0.4911 -0.2264
 9511SOL    HW140169   2.691   0.168  12.168  0.7801  1.1543 -0.4328
 9511SOL    HW240170   2.561   0.169  12.229 -0.2785 -0.6095  1.3323
 9512SOL     OW40171   3.955   1.416  12.933  0.5676 -0.2060  0.7011
 9512SOL    HW140172   4.028   1.476  12.920 -0.0557  0.2470 -0.7388
 9512SOL    HW240173   4.012   1.340  12.940  0.9405  0.0146 -0.0017
 9513SOL     OW40174   3.697   1.371   2.712 -0.0393 -0.1835  0.2085
 9513SOL    HW140175   3.614   1.366   2.760  0.0606 -0.5313  0.3449
 9513SOL    HW240176   3.731   1.453   2.748 -0.6146 -0.4091  1.2702
 9514SOL     OW40177   2.779   1.170   0.864 -0.4751 -0.9580 -0.0571
 9514SOL    HW140178   2.864   1.158   0.906 -0.0069  1.1191 -0.3710
 9514SOL    HW240179   2.809   1.162   0.774 -2.9573  0.7738 -1.0342
 9515SOL     OW40180   4.553   3.124   2.920  0.3873  0.2705 -0.0749
 9515SOL    HW140181   4.605   3.053   2.882 -1.3791  0.1113 -2.2010
 9515SOL    HW240182   4.603   3.159   2.994 -0.8800  1.1081  0.3839
 9516SOL     OW40183   4.582   3.979   6.647  0.0260  0.4220 -0.6793
 9516SOL    HW140184   4.518   3.960   6.578 -0.0261 -1.2626 -0.1618
 9516SOL    HW240185   4.640   3.903   6.650  0.5368  0.8520  0.1903
 9517SOL     OW40186   3.267   2.632   3.383  0.4704  0.3524  0.3951
 9517SOL    HW140187   3.359   2.621   3.359  0.5483  2.0376 -0.0728
 9517SOL    HW240188   3.224   2.697   3.328  2.3597 -0.3668 -1.9372
 9518SOL     OW40189   4.262   4.572   3.063 -0.0507 -0.6725  0.6013
 9518SOL    HW140190   4.216   4.545   2.983 -0.7863  2.3547 -0.0061
 9518SOL    HW240191   4.259   4.667   3.066 -1.3690 -0.7571  1.9918
 9519SOL     OW40192   2.851   2.625   4.743 -0.5482  0.0015  0.0273
 9519SOL    HW140193   2.840   2.620   4.838  0.6402 -0.7690  0.1124
 9519SOL    HW240194   2.760   2.649   4.724 -1.1604 -2.1018  0.2903
 9520SOL     OW40195   0.811   2.867   7.737 -0.3731  0.4652 -0.2009
 9520SOL    HW140196   0.871   2.877   7.663  2.0089  1.0074  1.7878
 9520SOL    HW240197   0.844   2.933   7.799  0.7768 -0.1203 -0.1951
 9521SOL     OW40198   3.381   0.401   2.580  0.0802 -0.0011  0.2836
 9521SOL    HW140199   3.461   0.454   2.574  1.0965 -1.4173  1.4983
 9521SOL    HW240200   3.323   0.476   2.598  0.4315  0.4972 -0.6235
 9522SOL     OW40201   1.214   3.427   6.178 -0.5743 -0.4585 -0.1399
 9522SOL    HW140202   1.160   3.417   6.257  1.6009 -0.3581  1.3726
 9522SOL    HW240203   1.290   3.370   6.196 -0.4727  0.1097  1.2359
 9523SOL     OW40204   3.125   0.076   5.033 -0.4710 -0.1313  0.1155
 9523SOL    HW140205   3.184   0.140   4.994 -0.9852  0.4670  0.3327
 9523SOL    HW240206   3.125   0.014   4.960 -2.3613 -1.2536  1.0416
 9524SOL     OW40207   4.031   2.959   6.014  0.1344  0.0977  0.5382
 9524SOL    HW140208   3.978   2.880   6.008  1.7618 -0.8438 -1.3398
 9524SOL    HW240209   4.049   2.973   5.921 -1.3499  1.1147  0.4051
 9525SOL     OW40210   2.554   2.393   7.308  0.0270 -0.1677  0.2702
 9525SOL    HW140211   2.498   2.426   7.238 -0.1212  0.6731  0.7853
 9525SOL    HW240212   2.587   2.464   7.364  2.0921 -1.2721  0.4655
 9526SOL     OW40213   2.985   4.461  12.471 -0.3393 -0.1698 -0.4205
 9526SOL    HW140214   2.901   4.423  12.497 -0.5297  0.1674 -0.5430
 9526SOL    HW240215   3.054   4.416  12.520  0.9800  0.7426 -1.4601
 9527SOL     OW40216   1.880   4.661   3.183 -0.1914 -0.8550  0.2329
 9527SOL    HW140217   1.826   4.601   3.234 -3.0789  0.5046 -1.2278
 9527SOL    HW240218   1.901   4.600   3.112  1.2025 -0.0238 -0.0769
 9528SOL     OW40219   2.335   1.422  16.698  0.1370  0.2545 -0.5362
 9528SOL    HW140220   2.421   1.401  16.662 -0.9541 -2.1631 -1.7113
 9528SOL    HW240221   2.317   1.337  16.738 -3.3104  1.4039  0.2971
 9529SOL     OW40222   2.241   4.586   8.826  0.0193 -0.2567  0.1286
 9529SOL    HW140223   2.211   4.658   8.771  0.7486  0.3172  0.4777
 9529SOL    HW240224   2.313   4.618   8.881  0.8531 -1.3142 -0.3532
 9530SOL     OW40225   0.232   3.960  10.423 -0.0073  0.4829 -0.0478
 9530SOL    HW140226   0.315   4.007  10.416  1.1495 -1.5303  0.1450
 9530SOL    HW240227   0.191   3.996  10.502  0.5521 -0.1153  0.5179
 9531SOL     OW40228   2.544   0.599   7.420  0.4241  0.2156 -0.4818
 9531SOL    HW140229   2.549   0.509   7.451  1.0534  0.1213 -0.8875
 9531SOL    HW240230   2.452   0.618   7.441 -0.1077  0.4861 -3.0772
 9532SOL     OW40231   0.530   0.422   5.921 -0.1997 -0.3464 -0.1411
 9532SOL    HW140232   0.570   0.356   5.977  0.1723  0.0018  0.0031
 9532SOL    HW240233   0.610   0.462   5.887 -1.5161  1.2643 -1.3478
 9533SOL     OW40234   2.934   3.181   5.972 -0.3109 -1.0175  0.3407
 9533SOL    HW140235   2.906   3.237   5.899 -0.1963 -0.4480  0.7312
 9533SOL    HW240236   2.868   3.184   6.042 -0.9864  0.3184 -0.3598
 9534SOL     OW40237   4.624   1.422   3.986  0.4936 -0.4274  0.7170
 9534SOL    HW140238   4.585   1.489   3.929 -0.9643 -2.4484 -0.6530
 9534SOL    HW240239   4.618   1.458   4.075  0.3975  1.4210 -0.0268
 9535SOL     OW40240   4.363   1.996   7.803 -0.1281 -0.4765 -0.5564
 9535SOL    HW140241   4.343   1.964   7.715 -0.3469 -0.0177 -0.6735
 9535SOL    HW240242   4.277   2.019   7.838  0.3769  1.4577 -0.5778
 9536SOL     OW40243   2.905   1.198   5.756 -0.3528  0.8367  0.3341
 9536SOL    HW140244   2.967   1.265   5.728  0.1313  1.3675  2.6393
 9536SOL    HW240245   2.934   1.163   5.840 -2.4356  0.9716  1.1214
 9537SOL     OW40246   0.992   1.161   4.468  0.1683 -0.5308 -0.2715
 9537SOL    HW140247   0.942   1.241   4.454  2.1296  0.5939 -0.9038
 9537SOL    HW240248   0.933   1.113   4.526  1.5147 -0.8771  0.8304
 9538SOL     OW40249   2.801   4.080   9.322  0.1169  0.1034 -0.4024
 9538SOL    HW140250   2.773   3.991   9.346 -0.8761  0.5198 -0.0020
 9538SOL    HW240251   2.792   4.075   9.227  2.5923  1.5588 -0.7129
 9539SOL     OW40252   2.219   0.023  10.298  0.0881  0.0921  0.2744
 9539SOL    HW140253   2.193   4.683  10.243  0.6962 -2.4886  3.4716
 9539SOL    HW240254   2.282   0.074  10.247  0.2158 -0.0055  0.3359
 9540SOL     OW40255   1.663   3.037   0.453  0.3201 -0.1725  0.2425
 9540SOL    HW140256   1.637   3.029   0.361  0.7427  2.3256 -0.0834
 9540SOL    HW240257   1.593   3.094   0.484  0.2593  1.1488 -2.3299
 9541SOL     OW40258   1.185   0.101   6.062 -0.0798 -0.2085 -0.0651
 9541SOL    HW140259   1.222   0.148   5.987 -0.4867 -1.5156 -1.0871
 9541SOL    HW240260   1.101   0.147   6.065 -0.0582 -0.1605 -0.2088
 9542SOL     OW40261   1.970   4.575  10.407 -0.3454  0.0321  0.2218
 9542SOL    HW140262   1.937   4.660  10.375 -2.2394 -0.4518  0.8800
 9542SOL    HW240263   1.924   4.573  10.491  1.2518  2.0396  1.1443
 9543SOL     OW40264   0.820   0.369   3.600  0.3491  0.5630  0.0527
 9543SOL    HW140265   0.832   0.448   3.547 -1.5227  0.7024 -0.1377
 9543SOL    HW240266   0.741   0.338   3.557 -1.0904  0.7291  2.6080
 9544SOL     OW40267   2.028   2.315  16.748  0.2357 -0.1559 -0.0436
 9544SOL    HW140268   2.102   2.334  16.690  0.4628  2.1949  1.0361
 9544SOL    HW240269   2.014   2.220  16.740  2.6203 -0.4994 -0.0399
 9545SOL     OW40270   2.643   1.739   7.322 -0.1732 -0.4796  0.0054
 9545SOL    HW140271   2.576   1.780   7.267  1.7640  3.1214  0.3452
 9545SOL    HW240272   2.648   1.792   7.401 -0.6606 -2.5837  1.4579
 9546SOL     OW40273   2.885   3.377   1.695 -0.1467  0.7508 -0.1453
 9546SOL    HW140274   2.814   3.418   1.745 -0.0761 -0.8008  1.2134
 9546SOL    HW240275   2.962   3.428   1.718  0.1416  0.5197 -0.6122
 9547SOL     OW40276   2.454   1.926   6.634 -0.2195 -0.1386  0.1377
 9547SOL    HW140277   2.475   1.898   6.545  2.2512  0.4037  0.5667
 9547SOL    HW240278   2.483   2.017   6.630  3.7646 -1.3666  1.0592
 9548SOL     OW40279   3.646   3.032   6.128  0.1826 -0.3362  0.4427
 9548SOL    HW140280   3.615   3.121   6.112  0.9506 -0.0403  0.6463
 9548SOL    HW240281   3.691   3.041   6.211 -0.8658  3.3990  0.5735
 9549SOL     OW40282   2.224   1.418   5.482  0.5746  0.1510  0.1559
 9549SOL    HW140283   2.274   1.352   5.433 -1.0986  1.7958 -3.7585
 9549SOL    HW240284   2.198   1.472   5.407  3.3505  0.0268 -0.8945
 9550SOL     OW40285   2.456   0.895   3.885  0.5248  0.5207 -0.9940
 9550SOL    HW140286   2.490   0.899   3.796  3.5893 -0.0078  0.1520
 9550SOL    HW240287   2.483   0.808   3.914  1.4787  0.3953 -2.2596
 9551SOL     OW40288   1.885   1.480   6.411  0.5460 -0.2493 -0.0638
 9551SOL    HW140289   1.838   1.552   6.453  2.2461  0.1247  1.2133
 9551SOL    HW240290   1.922   1.439   6.490 -1.0173 -0.7416  0.4247
 9552SOL     OW40291   3.013   1.012   5.931 -0.6102  0.4069 -0.7892
 9552SOL    HW140292   3.072   1.078   5.968 -2.0074  1.0194  0.3267
 9552SOL    HW240293   3.001   0.957   6.009 -0.2062  1.4124 -0.0092
 9553SOL     OW40294   1.227   0.358   2.747 -0.0177 -0.4718  0.0963
 9553SOL    HW140295   1.145   0.401   2.722  0.5609  1.1594  1.0179
 9553SOL    HW240296   1.222   0.349   2.842  0.2668 -0.8593  0.0753
 9554SOL     OW40297   0.404   3.114  12.521 -0.7101  0.4842 -0.0394
 9554SOL    HW140298   0.454   3.137  12.443  0.1123 -1.4685 -0.0991
 9554SOL    HW240299   0.472   3.106  12.588 -0.9721 -0.6148  0.0881
 9555SOL     OW40300   1.210   2.261   3.154  0.0804  0.2186 -0.3133
 9555SOL    HW140301   1.149   2.194   3.183  1.9617 -0.4461  2.1069
 9555SOL    HW240302   1.152   2.331   3.123  0.3745  0.6359  0.0780
 9556SOL     OW40303   2.491   1.935   0.973 -0.2696 -0.1465 -0.7533
 9556SOL    HW140304   2.426   1.867   0.985  1.2712 -1.4373  0.3225
 9556SOL    HW240305   2.521   1.946   1.063 -0.0823 -0.2152 -0.8078
 9557SOL     OW40306   0.701   4.386   0.213 -0.6553  0.3319 -0.1778
 9557SOL    HW140307   0.640   4.324   0.173 -0.8332  1.0033 -0.9365
 9557SOL    HW240308   0.728   4.440   0.139  0.2900  1.4378  0.9741
 9558SOL     OW40309   3.354   0.328   7.081 -0.0848  0.2619  0.2457
 9558SOL    HW140310   3.436   0.327   7.132  1.3471  0.0258 -2.0480
 9558SOL    HW240311   3.307   0.392   7.135 -1.4254  0.5323 -1.2308
 9559SOL     OW40312   4.445   0.524   7.940 -0.2912  0.1525  0.0270
 9559SOL    HW140313   4.490   0.502   7.858 -2.6714  1.5766 -1.6510
 9559SOL    HW240314   4.448   0.444   7.993 -0.2203 -0.6403 -1.1864
 9560SOL     OW40315   3.760   2.870  16.264  0.1086 -0.4601 -0.1321
 9560SOL    HW140316   3.850   2.837  16.261 -0.1703 -1.0678 -2.0202
 9560SOL    HW240317   3.716   2.787  16.282 -2.5391  1.3925  1.8875
 9561SOL     OW40318   0.296   1.731  11.543  0.2074  0.0163  0.0583
 9561SOL    HW140319   0.338   1.722  11.629  0.3127  0.9834  0.1084
 9561SOL    HW240320   0.206   1.703  11.560  0.2621 -1.2289 -1.8024
 9562SOL     OW40321   0.313   2.474  15.054  0.0284 -0.1943 -0.0398
 9562SOL    HW140322   0.218   2.464  15.044  0.2051  0.3283 -2.4669
 9562SOL    HW240323   0.351   2.387  15.063  0.1297 -0.0630  0.7928
 9563SOL     OW40324   4.059   2.803   6.983  0.1394 -0.4406  0.0863
 9563SOL    HW140325   4.078   2.797   7.077  0.0706  0.3049  0.1485
 9563SOL    HW240326   4.137   2.758   6.950  0.8001  2.1334 -1.8497
 9564SOL     OW40327   1.214   2.170   0.244  0.0625 -0.5790  0.1520
 9564SOL    HW140328   1.245   2.251   0.284 -1.1824 -0.2846  0.5083
 9564SOL    HW240329   1.257   2.116   0.311 -2.5984 -0.9224  1.5653
 9565SOL     OW40330   2.108   0.685  17.621  0.4074  0.1595  0.2305
 9565SOL    HW140331   2.156   0.671  17.703 -3.1522 -0.9244  2.0984
 9565SOL    HW240332   2.067   0.600  17.611 -0.2823  0.5870 -0.4986
 9566SOL     OW40333   1.827   2.659   5.327 -0.5667 -0.3611 -0.2256
 9566SOL    HW140334   1.733   2.643   5.332 -0.9110  1.3336 -1.5494
 9566SOL    HW240335   1.837   2.715   5.404 -1.4222 -2.1840  1.2110
 9567SOL     OW40336   2.402   2.442   9.996  0.3178  0.4049  0.1541
 9567SOL    HW140337   2.400   2.529  10.035  1.3167 -0.7370  2.7465
 9567SOL    HW240338   2.375   2.467   9.908  0.2261 -0.4665 -0.0713
 9568SOL     OW40339   0.482   1.415   8.708  0.6924  0.1479 -0.3809
 9568SOL    HW140340   0.474   1.502   8.669  0.7112  0.8785  1.2530
 9568SOL    HW240341   0.416   1.366   8.660  0.8609  0.9565 -1.4544
 9569SOL     OW40342   4.612   2.286   6.332  1.2221 -0.3723 -0.4565
 9569SOL    HW140343   4.586   2.292   6.424 -2.7744 -4.0397 -1.3128
 9569SOL    HW240344   4.626   2.375   6.301  0.7573 -0.5984 -1.3378
   4.73394   4.73394  17.73491
