Membrane in water
40344
    1TMC1    C1    1   2.340   0.140  11.396 -0.2450  0.1501 -0.3261
    1TMC1    C2    2   2.382   0.270  11.405  0.0950 -0.2323 -0.1492
    1TMC1    C3    3   2.504   0.304  11.345 -0.0779 -0.0239 -0.0083
    1TMC1    C4    4   2.400   0.051  11.311  0.0349  0.0818 -0.1950
    1TMC1    C5    5   2.524   0.088  11.263  0.2037  0.5078 -0.1260
    1TMC1    C6    6   2.569   0.218  11.266 -0.5858 -0.2010  1.0366
    1TMC1     C    7   2.210   0.118  11.458  0.2292  0.2977 -0.6291
    1TMC1     O    8   2.165   0.215  11.519  0.0519 -0.2031 -0.2042
    1TMC1     H    9   2.326   0.341  11.464  0.3391 -1.8552  2.0169
    1TMC1    H1   10   2.363   4.687  11.287 -1.0565 -0.1306  2.3074
    1TMC1    H2   11   2.664   0.249  11.225  0.1551 -3.8626 -0.0295
    1TMC1    C7   12   2.579   0.005  11.166  0.3416 -0.1736  0.2348
    1TMC1    C8   13   2.529   0.440  11.319  0.2626 -0.3066  0.1523
    1TMC1    O1   14   2.648   0.031  11.063 -0.2390 -0.5930  0.1856
    1TMC1    O2   15   2.566   0.490  11.214 -0.6217 -0.5895 -0.1635
    1TMC1    O3   16   2.590   4.623  11.230 -0.1683  0.0864 -0.1255
    1TMC1    H3   17   2.545   4.613  11.316  1.0130  0.3651  0.5263
    1TMC1    O5   18   2.504   0.511  11.427 -0.6145 -0.3340 -0.2269
    1TMC1    H5   19   2.469   0.462  11.505  1.2715  0.0382  0.8476
    2MPD2     C   20   1.908   4.506  11.670  0.2259 -0.7513 -0.4014
    2MPD2    C1   21   1.917   4.641  11.688  0.1710  0.2612  0.0715
    2MPD2    C2   22   1.992   4.715  11.600  0.0430 -0.9175 -0.5451
    2MPD2    C3   23   2.060   4.655  11.499 -0.2482  0.6005 -0.3610
    2MPD2    C4   24   2.056   4.518  11.473  0.0507  0.6164  0.2412
    2MPD2    C5   25   1.983   4.451  11.564  0.5146  0.6968 -0.4834
    2MPD2     H   26   2.001   0.087  11.616  0.3714 -1.0811  0.3654
    2MPD2    H1   27   2.100   4.473  11.385 -0.6736 -0.7953  0.6077
    2MPD2    H2   28   1.857   4.434  11.733 -0.5554  0.5549  0.4732
    2MPD2    H3   29   1.975   4.343  11.560  0.6111  0.6052  1.5262
    2MPD2     N   30   2.160   4.728  11.426 -0.3902  0.0781 -0.4445
    2MPD2    H5   31   2.223   4.668  11.374  0.9038  0.2489  0.9523
    2MPD2    N1   32   1.872   4.707  11.801 -0.1685  0.1913 -0.6225
    2MPD2    H7   33   1.888   0.072  11.799  1.3781 -0.0216  1.5863
    3TMC1    C1   34   0.448   1.874  10.723 -0.6929 -0.5698  0.1632
    3TMC1    C2   35   0.553   1.944  10.773  0.3604  0.2426 -0.5685
    3TMC1    C3   36   0.624   2.024  10.692 -1.0835  0.0055  0.4324
    3TMC1    C4   37   0.422   1.879  10.595  0.0498  0.3983  0.1628
    3TMC1    C5   38   0.483   1.971  10.515 -0.2206  0.2641  0.4197
    3TMC1    C6   39   0.584   2.049  10.561 -0.2388 -0.0682 -0.0264
    3TMC1     C   40   0.399   1.752  10.788 -0.1303  0.0593  0.2526
    3TMC1     O   41   0.362   1.661  10.715  0.4895  0.3054  0.2144
    3TMC1     H   42   0.582   1.928  10.876 -1.4027  1.1442  0.0685
    3TMC1    H1   43   0.347   1.820  10.544  1.6472 -0.7173 -0.8897
    3TMC1    H2   44   0.636   2.121  10.499 -0.9262 -0.0872 -0.6303
    3TMC1    C7   45   0.442   1.998  10.376  0.1317 -0.0879 -0.3891
    3TMC1    C8   46   0.729   2.104  10.754 -0.6161 -0.4562  0.6884
    3TMC1    O1   47   0.515   2.065  10.302 -0.0798  0.0515 -0.2888
    3TMC1    O2   48   0.736   2.108  10.875 -0.4877  0.0217  0.1531
    3TMC1    O3   49   0.309   2.019  10.387 -0.1636  0.1430  0.2640
    3TMC1    H3   50   0.278   2.004  10.479 -1.4410  0.6677 -0.0908
    3TMC1    O5   51   0.743   2.203  10.668  0.6272  0.1563  0.1457
    3TMC1    H5   52   0.780   2.173  10.582 -0.9023 -0.6114 -0.2508
    4MPD2     C   53   0.329   1.456  11.206  0.6110  0.4891  0.8311
    4MPD2    C1   54   0.326   1.583  11.242 -0.3661 -0.5121 -0.5221
    4MPD2    C2   55   0.357   1.681  11.151  0.4093 -0.2925  0.5849
    4MPD2    C3   56   0.374   1.658  11.017  0.1460  0.1418 -0.3150
    4MPD2    C4   57   0.368   1.528  10.978  0.3079  0.3278 -0.2128
    4MPD2    C5   58   0.347   1.427  11.076  0.2895 -0.7016  0.0388
    4MPD2     H   59   0.350   1.784  11.181  0.8026 -0.8311  2.5251
    4MPD2    H1   60   0.377   1.495  10.875 -0.1549 -0.3792 -0.0288
    4MPD2    H2   61   0.302   1.374  11.273  2.7955  0.2888  1.4745
    4MPD2    H3   62   0.346   1.323  11.046 -1.3418 -0.8024  0.4110
    4MPD2     N   63   0.401   1.763  10.924  1.0402 -0.2498  0.1681
    4MPD2    H5   64   0.411   1.856  10.964  2.6618 -1.3166  2.2541
    4MPD2    N1   65   0.312   1.618  11.372  0.1479 -0.0111 -0.3002
    4MPD2    H7   66   0.308   1.716  11.399 -1.2704 -1.1173  3.4761
    5TCq1    O1   67   2.282   2.961  12.472 -0.6195  0.2865 -0.0662
    5TCq1    C1   68   2.305   3.025  12.358  0.3329 -0.3123  0.3588
    5TCq1    O2   69   2.257   3.130  12.326 -0.1980  0.4711 -0.8453
    5TCq1    C2   70   2.386   2.937  12.267 -0.2536  0.0210 -0.1713
    5TCq1    C3   71   2.463   2.840  12.324 -0.0765 -0.3303 -0.1352
    5TCq1    C4   72   2.557   2.780  12.237  0.0547  0.4380 -0.0262
    5TCq1    C5   73   2.570   2.819  12.106 -0.1182  0.7136  0.3480
    5TCq1    C6   74   2.481   2.914  12.062  1.3447 -0.3107 -0.2100
    5TCq1    C7   75   2.387   2.975  12.138 -0.2166  0.4979 -0.2478
    5TCq1    C8   76   2.463   2.922  11.913 -0.4126 -0.5414  0.2202
    5TCq1    O4   77   2.487   2.826  11.845 -0.1603 -0.2660  0.5388
    5TCq1    C9   78   2.646   2.680  12.290  0.1391 -0.2394  0.2041
    5TCq1    O5   79   2.653   2.672  12.418  0.0905  0.1645  0.1116
    5TCq1    O6   80   2.710   2.602  12.217  0.5238 -0.1064 -0.6618
    5TCq1    H1   81   2.301   2.865  12.465  1.0858  0.4493  2.2757
    5TCq1    H2   82   2.459   2.809  12.428  1.9485 -3.3715 -0.9671
    5TCq1    H3   83   2.637   2.765  12.040  0.4874  0.0774  1.4795
    5TCq1    H4   84   2.314   3.048  12.104  0.0881  0.8874 -0.0601
    6MPD2     C   85   2.254   3.169  11.741 -0.7667 -0.1733  0.0508
    6MPD2    C1   86   2.340   3.059  11.755 -0.4764  0.0352  0.1513
    6MPD2    C2   87   2.381   2.994  11.642  0.0771  1.1082  0.3721
    6MPD2    C3   88   2.329   3.025  11.515  0.3570 -0.2927  0.2865
    6MPD2    C4   89   2.232   3.123  11.511  0.9355 -0.5699  0.3891
    6MPD2    C5   90   2.193   3.196  11.619  0.2419  0.6719  0.6309
    6MPD2     H   91   2.462   2.923  11.643  0.2959  1.3593  0.3185
    6MPD2    H1   92   2.173   3.133  11.421 -1.4400 -1.5536  1.8216
    6MPD2    H2   93   2.220   3.221  11.830 -0.9530 -3.8585  2.1616
    6MPD2    H3   94   2.114   3.270  11.614 -0.5767 -0.3029 -0.7642
    6MPD2     N   95   2.359   2.936  11.404 -0.6760 -0.1944 -0.3460
    6MPD2    H5   96   2.413   2.854  11.429 -0.9526  0.0902  1.1732
    6MPD2    N1   97   2.389   3.033  11.883 -0.5629  0.0196  0.7769
    6MPD2    H7   98   2.351   3.098  11.951  0.9961  1.9888 -0.2678
    7TCq1    O1   99   4.094   2.629  13.266  0.3364  0.4697 -0.4467
    7TCq1    C1  100   4.019   2.702  13.357 -0.5519  0.6781 -0.7508
    7TCq1    O2  101   4.071   2.793  13.422 -0.2093  0.8988 -0.1589
    7TCq1    C2  102   3.880   2.678  13.308  0.4162  0.7416  0.3862
    7TCq1    C3  103   3.816   2.791  13.279 -0.8150 -0.1724 -0.3000
    7TCq1    C4  104   3.698   2.787  13.212  0.1327 -0.5974  0.6477
    7TCq1    C5  105   3.640   2.668  13.187 -0.2172  0.1806  0.5867
    7TCq1    C6  106   3.708   2.558  13.214  0.3862 -0.0138  0.9101
    7TCq1    C7  107   3.833   2.563  13.267  0.2070  0.4704 -0.1290
    7TCq1    C8  108   3.643   2.435  13.199 -0.0999 -0.5428 -0.7290
    7TCq1    O4  109   3.720   2.344  13.233  0.3078  0.0071  0.0134
    7TCq1    C9  110   3.620   2.907  13.174 -0.0898 -1.1316  0.0431
    7TCq1    O5  111   3.686   3.015  13.184  0.2674 -0.1214  0.0869
    7TCq1    O6  112   3.497   2.892  13.181 -0.7232  0.0175  0.2146
    7TCq1    H1  113   4.044   2.559  13.219 -0.8074  1.6277 -0.9640
    7TCq1    H2  114   3.858   2.890  13.292  0.4646 -0.7147 -0.3673
    7TCq1    H3  115   3.548   2.664  13.129 -0.6548  3.0013  1.1030
    7TCq1    H4  116   3.886   2.469  13.273  0.4537  0.5937 -0.3832
    8MPD2     C  117   3.273   2.113  13.032  0.2392  0.3218 -0.4046
    8MPD2    C1  118   3.387   2.082  13.101  0.6329 -0.2853 -0.8169
    8MPD2    C2  119   3.464   2.191  13.137 -1.2237  0.5376  0.1047
    8MPD2    C3  120   3.425   2.326  13.120  0.4618 -0.0105 -1.0393
    8MPD2    C4  121   3.307   2.353  13.067 -0.5842 -0.0631 -0.5750
    8MPD2    C5  122   3.241   2.246  13.014  0.1979 -0.3842 -0.7745
    8MPD2     H  123   3.555   2.175  13.194 -0.2631  1.8604 -1.0593
    8MPD2    H1  124   3.262   2.451  13.059  1.2643  0.9375  1.2887
    8MPD2    H2  125   3.215   2.035  12.983  1.4557 -1.7500  1.4543
    8MPD2    H3  126   3.142   2.267  12.977  0.3888 -0.4232 -1.3027
    8MPD2     N  127   3.505   2.437  13.160  0.5540  0.0953  0.4508
    8MPD2    H5  128   3.456   2.525  13.147 -0.5536 -0.8151 -1.4449
    8MPD2    N1  129   3.424   1.944  13.128 -0.0457 -0.6631 -0.0761
    8MPD2    H7  130   3.362   1.874  13.090  0.9416 -1.3419 -0.4246
    9TMC1    C1  131   1.909   2.064  11.488 -0.6594  1.0077 -0.4014
    9TMC1    C2  132   1.772   2.059  11.513  0.3402  0.2906 -0.0443
    9TMC1    C3  133   1.699   2.174  11.515 -0.2294 -0.5004 -0.3844
    9TMC1    C4  134   1.974   2.190  11.484  0.7295 -0.0301 -0.1780
    9TMC1    C5  135   1.894   2.305  11.491  0.1836 -0.2349 -0.6491
    9TMC1    C6  136   1.757   2.301  11.510 -0.5260 -0.8896  0.1009
    9TMC1     C  137   1.986   1.952  11.452 -0.3152  0.5766  0.0864
    9TMC1     O  138   2.101   1.980  11.413  0.6425 -0.0061  0.2183
    9TMC1     H  139   1.716   1.966  11.510  0.7480  0.0617 -0.5206
    9TMC1    H1  140   2.081   2.205  11.494  0.7104 -0.1658  0.2196
    9TMC1    H2  141   1.700   2.392  11.493  2.6187  0.8185 -1.3971
    9TMC1    C7  142   1.948   2.436  11.479  0.1979  0.0168 -0.1022
    9TMC1    C8  143   1.563   2.155  11.470  1.0759 -0.2231  0.4117
    9TMC1    O1  144   1.889   2.542  11.492  0.0643 -0.4673 -0.5318
    9TMC1    O2  145   1.518   2.050  11.417 -0.1729 -0.2295 -0.3341
    9TMC1    O3  146   2.058   2.429  11.402 -0.4664 -0.0662  0.4939
    9TMC1    H3  147   2.089   2.342  11.371  0.6725  0.7619 -0.7134
    9TMC1    O5  148   1.500   2.272  11.475 -0.1455 -0.1130  0.5518
    9TMC1    H5  149   1.546   2.328  11.541 -0.9854  0.2098  0.8670
   10MPD2     C  150   2.060   1.709  11.331 -0.7166 -0.4448 -0.1653
   10MPD2    C1  151   1.961   1.711  11.426  0.3971  0.9049  0.0784
   10MPD2    C2  152   1.927   1.597  11.500 -0.5254 -0.2484  0.3919
   10MPD2    C3  153   1.990   1.477  11.479 -0.0430 -0.1519  0.7098
   10MPD2    C4  154   2.093   1.483  11.387  0.0274  0.0150  0.3983
   10MPD2    C5  155   2.122   1.588  11.305 -0.4315  0.0557 -0.5476
   10MPD2     H  156   1.853   1.602  11.579 -0.4138 -1.4222  0.5780
   10MPD2    H1  157   2.159   1.398  11.372 -1.9910 -1.7534  1.4591
   10MPD2    H2  158   2.095   1.794  11.274 -0.7867 -0.6758 -0.5516
   10MPD2    H3  159   2.202   1.574  11.234  1.2191 -0.8576  1.5023
   10MPD2     N  160   1.958   1.351  11.534  0.1694 -0.8520  0.1559
   10MPD2    H5  161   2.025   1.275  11.528 -0.1596 -1.0254 -1.1958
   10MPD2    N1  162   1.917   1.833  11.475 -0.1794 -0.4436  0.2953
   10MPD2    H7  163   1.836   1.825  11.536  0.8745 -2.2403  1.4526
   11TCq1    O1  164   1.804   0.996  13.907  0.3452 -0.1559  0.0784
   11TCq1    C1  165   1.814   0.974  14.037 -0.4962 -0.1674  0.0535
   11TCq1    O2  166   1.736   1.000  14.124  0.6700 -0.2499 -0.1823
   11TCq1    C2  167   1.909   0.863  14.047  0.2427 -0.3035 -0.0555
   11TCq1    C3  168   2.021   0.869  13.969 -0.2938  0.3199 -0.9215
   11TCq1    C4  169   2.100   0.757  13.967  0.2263 -0.0992  0.5518
   11TCq1    C5  170   2.060   0.645  14.025 -0.1044 -0.2735  0.2905
   11TCq1    C6  171   1.936   0.641  14.095 -0.3406  0.8258 -0.3861
   11TCq1    C7  172   1.855   0.752  14.102  0.0300  0.3561 -0.2801
   11TCq1    C8  173   1.907   0.523  14.178  0.0047  0.8492 -0.1019
   11TCq1    O4  174   1.861   0.538  14.286 -0.2375 -0.2680  0.0085
   11TCq1    C9  175   2.218   0.765  13.888  0.2504 -0.3890  0.5877
   11TCq1    O5  176   2.235   0.872  13.825  0.0386  0.0016 -0.1560
   11TCq1    O6  177   2.302   0.676  13.903  0.2521 -0.1610 -0.0922
   11TCq1    H1  178   1.862   0.947  13.845  0.5577  0.6427 -0.3429
   11TCq1    H2  179   2.052   0.964  13.928  0.8589  0.0861 -0.5978
   11TCq1    H3  180   2.113   0.551  14.018 -1.4583 -0.8958 -1.4562
   11TCq1    H4  181   1.767   0.760  14.164 -0.1669  0.6124 -0.5950
   12MPD2     C  182   1.877   0.238  14.282  0.4370  0.2268  1.2498
   12MPD2    C1  183   1.898   0.277  14.153 -0.3316 -0.1594  0.8952
   12MPD2    C2  184   1.911   0.178  14.057  0.7145  0.5013 -0.4506
   12MPD2    C3  185   1.887   0.043  14.086 -0.0494 -0.5290  0.6085
   12MPD2    C4  186   1.849   0.002  14.217  0.4166  0.6759 -0.4962
   12MPD2    C5  187   1.853   0.104  14.314  0.1924  0.2160  0.0783
   12MPD2     H  188   1.945   0.209  13.959  3.7554  0.6374  0.6519
   12MPD2    H1  189   1.843   4.635  14.253 -0.1307  0.0944 -2.2087
   12MPD2    H2  190   1.866   0.312  14.361  2.6400  0.1862  1.6007
   12MPD2    H3  191   1.836   0.079  14.418  0.2324 -0.7376 -0.1512
   12MPD2     N  192   1.887   4.675  13.984  0.0019  0.0277  0.1688
   12MPD2    H5  193   1.865   4.577  14.004 -1.0604  0.7042  2.2864
   12MPD2    N1  194   1.933   0.408  14.110  0.8220  0.3844 -0.2881
   12MPD2    H7  195   1.955   0.410  14.011 -1.9553  0.0039 -0.9400
   13TCq1    O1  196   1.921   1.485  10.545 -0.0566  0.5225  0.1719
   13TCq1    C1  197   1.869   1.419  10.650  1.0962  1.0137 -0.0604
   13TCq1    O2  198   1.852   1.302  10.649 -0.5784 -0.4733  0.1667
   13TCq1    C2  199   1.776   1.512  10.713 -0.3973 -0.0026 -0.7146
   13TCq1    C3  200   1.801   1.644  10.718  1.1766  0.4344  0.5420
   13TCq1    C4  201   1.708   1.723  10.790 -0.8892 -0.9145 -0.1428
   13TCq1    C5  202   1.600   1.666  10.844 -0.1540 -0.3135 -0.3470
   13TCq1    C6  203   1.580   1.532  10.838 -0.1299  0.2630  0.4915
   13TCq1    C7  204   1.669   1.452  10.769  0.9404  0.2396 -0.0132
   13TCq1    C8  205   1.456   1.480  10.863 -0.5354  0.2856 -0.0429
   13TCq1    O4  206   1.382   1.548  10.936  0.1620  0.6311  0.1505
   13TCq1    C9  207   1.705   1.869  10.784 -0.4458  0.1267  0.4948
   13TCq1    O5  208   1.813   1.926  10.747 -0.7845 -0.7515 -0.4812
   13TCq1    O6  209   1.599   1.930  10.812  0.0257  0.0459  0.6966
   13TCq1    H1  210   1.913   1.582  10.556  0.5296  0.5751  0.1329
   13TCq1    H2  211   1.891   1.697  10.689  0.6494  0.6795 -0.6395
   13TCq1    H3  212   1.525   1.726  10.894  0.4294  0.8548 -0.8551
   13TCq1    H4  213   1.653   1.346  10.781  2.1651  0.0136 -0.3567
   14MPD2     C  214   1.230   1.342  10.610  0.5857 -0.3779 -0.0892
   14MPD2    C1  215   1.275   1.372  10.732 -0.0490 -0.6842  0.5864
   14MPD2    C2  216   1.180   1.392  10.823 -0.3667  0.5462 -0.0379
   14MPD2    C3  217   1.046   1.369  10.801 -0.0375  0.1933 -0.1001
   14MPD2    C4  218   1.004   1.344  10.676 -0.1137 -0.5208 -0.3381
   14MPD2    C5  219   1.095   1.328  10.579  0.6882 -0.3798 -0.7121
   14MPD2     H  220   1.205   1.425  10.923 -0.4149  1.7258 -0.4191
   14MPD2    H1  221   0.903   1.328  10.639 -0.6201  1.2997  0.2794
   14MPD2    H2  222   1.301   1.332  10.528 -0.5371  0.9443 -1.2223
   14MPD2    H3  223   1.054   1.331  10.478  1.1003  2.6622 -0.7823
   14MPD2     N  224   0.955   1.396  10.912 -0.1569  0.1969 -0.3320
   14MPD2    H5  225   1.002   1.420  10.999  0.6330  2.7362 -1.4593
   14MPD2    N1  226   1.416   1.397  10.757 -0.0747 -0.2016  0.7620
   14MPD2    H7  227   1.478   1.398  10.677  0.3801 -0.9578  1.1104
   15TCq1    O1  228   3.000   4.610   2.143  0.2382  0.9371  0.3332
   15TCq1    C1  229   2.936   4.579   2.033  0.3420 -0.0047 -0.1107
   15TCq1    O2  230   2.868   4.656   1.962 -0.2950 -0.5931 -0.0744
   15TCq1    C2  231   3.011   4.467   1.979  0.0748 -0.0199  0.8867
   15TCq1    C3  232   3.145   4.483   1.975  0.9665  0.0085  0.8060
   15TCq1    C4  233   3.218   4.431   1.878 -0.5399 -0.4062  0.3980
   15TCq1    C5  234   3.158   4.340   1.799  0.0791 -0.5750  0.1940
   15TCq1    C6  235   3.024   4.319   1.803  0.0623  0.2170  0.0041
   15TCq1    C7  236   2.946   4.402   1.876 -0.1505 -0.7084 -1.1180
   15TCq1    C8  237   2.974   4.238   1.694  0.2939  0.4693  0.4885
   15TCq1    O4  238   3.053   4.153   1.647 -0.0425  0.2848 -0.3082
   15TCq1    C9  239   3.362   4.460   1.875  0.2821 -0.5948  0.6697
   15TCq1    O5  240   3.415   4.484   1.988  0.6706  0.1120  0.5002
   15TCq1    O6  241   3.424   4.411   1.775 -0.0284 -0.2832 -0.2712
   15TCq1    H1  242   3.048   4.534   2.183  1.6810  2.4944  1.5847
   15TCq1    H2  243   3.190   4.548   2.049  1.9819  0.5316 -0.2773
   15TCq1    H3  244   3.216   4.279   1.731 -2.1355 -2.4675 -0.0009
   15TCq1    H4  245   2.838   4.399   1.866 -0.4233 -0.1320  1.7259
   16MPD2     C  246   2.671   4.293   1.481 -0.1387 -0.0190 -0.0202
   16MPD2    C1  247   2.791   4.234   1.521  0.2835 -0.5486 -0.5647
   16MPD2    C2  248   2.847   4.137   1.439 -0.7968  0.2359 -0.3756
   16MPD2    C3  249   2.785   4.091   1.329 -0.5406  0.6381  0.3533
   16MPD2    C4  250   2.659   4.146   1.295 -0.1435 -0.0849  0.4870
   16MPD2    C5  251   2.604   4.240   1.373 -0.1167 -0.6343 -0.8572
   16MPD2     H  252   2.942   4.088   1.456 -0.5697  0.3922 -1.2048
   16MPD2    H1  253   2.597   4.109   1.214  0.5328 -1.0226  0.3904
   16MPD2    H2  254   2.632   4.375   1.539 -1.2145 -0.5745  0.0325
   16MPD2    H3  255   2.512   4.283   1.333  0.7701  0.5030 -1.6703
   16MPD2     N  256   2.841   3.993   1.249  0.4024  0.1588  0.0511
   16MPD2    H5  257   2.938   3.967   1.265  1.2323  2.8702 -0.5475
   16MPD2    N1  258   2.853   4.282   1.642 -0.6362 -0.2534  0.2637
   16MPD2    H7  259   2.806   4.357   1.692 -2.0524 -0.0987 -1.2787
   17TMC1    C1  260   1.466   4.399  10.505  0.4819  0.3973  0.4844
   17TMC1    C2  261   1.342   4.345  10.539  0.0283 -0.4919 -0.4319
   17TMC1    C3  262   1.283   4.276  10.437  0.4184 -0.3350 -1.0993
   17TMC1    C4  263   1.518   4.396  10.375 -0.5766 -0.5074  0.0031
   17TMC1    C5  264   1.448   4.325  10.282  0.7869 -0.1326  0.6751
   17TMC1    C6  265   1.332   4.259  10.311  0.5497  0.2491 -0.3573
   17TMC1     C  266   1.534   4.475  10.603 -0.1118  1.3816  0.0034
   17TMC1     O  267   1.464   4.490  10.705 -0.3492 -0.1965 -0.4541
   17TMC1     H  268   1.302   4.352  10.640  0.3218 -0.6230 -0.3054
   17TMC1    H1  269   1.609   4.447  10.344 -0.4966 -0.5653  0.1424
   17TMC1    H2  270   1.279   4.203  10.236  0.0382  0.2715 -0.0125
   17TMC1    C7  271   1.482   4.349  10.147  0.4603  0.0938 -0.9875
   17TMC1    C8  272   1.138   4.269  10.458  0.4622  0.5909  1.1677
   17TMC1    O1  273   1.539   4.452  10.114 -0.3294  0.2967  0.4309
   17TMC1    O2  274   1.080   4.289  10.561 -0.1510  0.0239  0.1252
   17TMC1    O3  275   1.471   4.233  10.083  0.4991 -0.2303  0.1034
   17TMC1    H3  276   1.439   4.156  10.134 -3.0157 -0.2501 -2.0875
   17TMC1    O5  277   1.092   4.305  10.333 -0.0698  0.4584  0.4476
   17TMC1    H5  278   1.152   4.334  10.261  1.8765 -1.1472  1.4277
   18MPD2     C  279   1.712   4.655  10.756  0.6819 -0.1416  0.7962
   18MPD2    C1  280   1.751   4.595  10.636  0.3746  0.1283 -0.3551
   18MPD2    C2  281   1.889   4.602  10.602 -0.1324 -0.1052 -0.1208
   18MPD2    C3  282   1.973   4.689  10.672 -0.0948  0.9336 -0.3340
   18MPD2    C4  283   1.924   0.009  10.787 -0.1786  0.3563 -0.2813
   18MPD2    C5  284   1.798   4.723  10.839  0.2074 -0.3778  0.9095
   18MPD2     H  285   1.918   4.553  10.509 -2.4229 -1.9032  0.1187
   18MPD2    H1  286   1.987   0.077  10.843 -0.3059  1.6889 -1.7604
   18MPD2    H2  287   1.608   4.653  10.787  0.9896  1.2924  1.9474
   18MPD2    H3  288   1.767   0.040  10.929 -1.3686  3.4615 -1.8423
   18MPD2     N  289   2.106   4.720  10.623 -0.0927 -0.8065 -0.5962
   18MPD2    H5  290   2.160   0.063  10.660 -0.8613  0.3560 -1.9411
   18MPD2    N1  291   1.660   4.518  10.564  0.0533  0.2436  0.2822
   18MPD2    H7  292   1.703   4.481  10.480 -0.5655 -1.4886  0.7315
   19TMC2    C1  293   2.890   0.682  13.917 -0.1671  0.5294  0.5611
   19TMC2    C2  294   2.795   0.749  13.835 -0.5758  0.7371  0.4392
   19TMC2    C3  295   2.664   0.705  13.826  0.2290  0.1206 -0.3876
   19TMC2    C4  296   2.853   0.566  13.979 -0.4081 -0.4156  0.2557
   19TMC2    C5  297   2.721   0.529  13.970 -0.2296  0.0200 -0.7418
   19TMC2    C6  298   2.630   0.590  13.890  0.3071 -0.3391 -0.5399
   19TMC2     C  299   3.019   0.734  13.940 -0.3304 -0.8124  0.4590
   19TMC2     O  300   3.034   0.853  13.915 -0.2613  0.0463  0.5067
   19TMC2     H  301   2.821   0.839  13.780  1.4380  0.3292  0.7000
   19TMC2    H1  302   2.912   0.509  14.049 -0.4909 -0.8247 -0.0057
   19TMC2    H2  303   2.533   0.544  13.873  0.6948 -0.4361 -2.4421
   19TMC2    C7  304   2.682   0.401  14.033  0.3156 -1.0208 -0.3556
   19TMC2    C8  305   2.628   0.715  13.684  0.3986 -0.2910  0.2180
   19TMC2    O1  306   2.778   0.333  14.051  0.4860 -0.0918  0.5609
   19TMC2    O2  307   2.698   0.732  13.587  0.0743  0.1089  0.8158
   19TMC2    O5  308   2.492   0.701  13.679 -0.1870 -0.0600 -0.0549
   19TMC2    H5  309   2.441   0.703  13.763 -1.1359  0.1627 -0.6333
   20MPD2     C  310   3.315   0.782  14.011  0.1015 -0.4885 -0.4269
   20MPD2    C1  311   3.248   0.666  14.028  0.0362 -0.3632  0.5534
   20MPD2    C2  312   3.320   0.555  14.075  0.4225  0.0667 -0.2706
   20MPD2    C3  313   3.452   0.572  14.125 -0.0779  0.2275  0.5384
   20MPD2    C4  314   3.514   0.693  14.099  0.6160  0.4424  0.4924
   20MPD2    C5  315   3.446   0.793  14.046 -0.0848 -0.5906  0.2134
   20MPD2     H  316   3.288   0.453  14.060 -3.8545  1.4739 -0.5121
   20MPD2    H1  317   3.617   0.706  14.131  0.0777 -0.8102  2.7544
   20MPD2    H2  318   3.266   0.874  13.982 -1.9327 -0.8598  1.7702
   20MPD2    H3  319   3.497   0.888  14.033  2.0967 -2.0382 -1.6064
   20MPD2     N  320   3.519   0.465  14.195  0.2149  0.1455  0.1746
   20MPD2    H5  321   3.615   0.486  14.220  0.9063 -1.4170 -1.2018
   20MPD2    N1  322   3.110   0.643  13.994 -0.0179  0.1838  0.0265
   20MPD2    H7  323   3.081   0.550  14.024  3.2243 -0.5438  0.9164
   21TMC2    C1  324   0.662   0.702  14.507  0.8698  0.9381  0.0497
   21TMC2    C2  325   0.738   0.602  14.563 -0.2927 -0.4471  0.4857
   21TMC2    C3  326   0.757   0.620  14.696  0.2305 -0.5253  0.8735
   21TMC2    C4  327   0.605   0.807  14.580  0.2474 -0.3891  0.5275
   21TMC2    C5  328   0.603   0.796  14.718 -0.3005  0.3078  0.1379
   21TMC2    C6  329   0.679   0.701  14.780  0.3370 -0.2302  0.2555
   21TMC2     C  330   0.603   0.672  14.375  0.5554  0.1491  0.3702
   21TMC2     O  331   0.578   0.556  14.367  0.2571  0.0321  0.0653
   21TMC2     H  332   0.759   0.506  14.519 -0.2460 -1.7431  3.3445
   21TMC2    H1  333   0.543   0.887  14.542 -1.4821 -0.9881  2.1169
   21TMC2    H2  334   0.703   0.711  14.886 -0.9340 -0.0316  0.5342
   21TMC2    C7  335   0.534   0.891  14.801 -0.2810  0.5737 -0.0454
   21TMC2    C8  336   0.872   0.554  14.751  0.6410  0.1175 -0.1146
   21TMC2    O1  337   0.553   0.874  14.921 -0.2690 -0.3630 -0.2004
   21TMC2    O2  338   0.865   0.534  14.873 -0.1096  0.1741 -0.0624
   21TMC2    O5  339   0.989   0.552  14.670 -0.2631  0.4855 -0.4184
   21TMC2    H5  340   0.974   0.569  14.575 -3.2490  0.1241 -0.0196
   22MPD2     C  341   0.760   1.143  14.203  0.3159 -0.7895  0.0655
   22MPD2    C1  342   0.821   1.048  14.278 -1.0390  0.6324  0.0369
   22MPD2    C2  343   0.754   0.931  14.311 -0.1540  0.0346 -0.1196
   22MPD2    C3  344   0.628   0.900  14.265 -0.9016  0.6116 -0.1893
   22MPD2    C4  345   0.566   0.997  14.182 -0.0813  0.6530  0.0239
   22MPD2    C5  346   0.628   1.118  14.162  0.8905  0.2478  0.2030
   22MPD2     H  347   0.813   0.858  14.366  1.0595  0.4520 -0.8592
   22MPD2    H1  348   0.465   0.973  14.151  0.6102 -1.0979 -0.8935
   22MPD2    H2  349   0.810   1.233  14.171  0.0431 -1.1036 -1.2515
   22MPD2    H3  350   0.563   1.192  14.117  0.9441  0.5973  0.6925
   22MPD2     N  351   0.558   0.778  14.297 -0.1752 -0.2302  0.1164
   22MPD2    H5  352   0.498   0.743  14.222  1.3309 -1.0172 -0.7257
   22MPD2    N1  353   0.949   1.066  14.336  0.1839  0.3908  0.8802
   22MPD2    H7  354   0.995   0.992  14.387 -2.5242 -0.8700  1.5224
   23TMC2    C1  355   2.001   1.862  14.663 -0.5641 -0.3811 -0.1037
   23TMC2    C2  356   2.025   1.917  14.537 -0.7602  0.2230 -0.8410
   23TMC2    C3  357   1.937   1.886  14.440 -0.7912 -0.2024 -0.2337
   23TMC2    C4  358   1.883   1.798  14.697  0.2844  0.4528  0.1921
   23TMC2    C5  359   1.799   1.761  14.599  0.6489  0.0866 -0.7093
   23TMC2    C6  360   1.827   1.806  14.469  0.2176  0.2026  1.2440
   23TMC2     C  361   2.114   1.829  14.754  0.1084  0.0226 -0.5435
   23TMC2     O  362   2.090   1.744  14.842 -0.4033  0.2583  0.0642
   23TMC2     H  363   2.119   1.963  14.510  1.0863 -3.2459 -0.2179
   23TMC2    H1  364   1.854   1.778  14.800  2.5120 -1.2531  0.5199
   23TMC2    H2  365   1.755   1.780  14.392 -1.1224 -2.2660  3.3404
   23TMC2    C7  366   1.669   1.706  14.633  0.6893  0.0446  0.4318
   23TMC2    C8  367   1.964   1.922  14.299 -0.6815 -0.2820 -0.4726
   23TMC2    O1  368   1.658   1.635  14.730  0.1108 -0.4390 -0.7215
   23TMC2    O2  369   2.077   1.911  14.250 -0.0913  0.4517  0.1088
   23TMC2    O5  370   1.844   1.947  14.240  0.1476  0.3898 -0.0811
   23TMC2    H5  371   1.775   1.964  14.308  0.1540  1.2265 -0.2938
   24MPD2     C  372   2.522   1.992  15.002 -0.2570  0.2706 -0.2570
   24MPD2    C1  373   2.424   1.908  15.042 -0.9413 -0.3569  0.2394
   24MPD2    C2  374   2.317   1.891  14.955  0.3315 -0.2244 -0.0547
   24MPD2    C3  375   2.320   1.937  14.826 -0.5480  0.5640 -0.5981
   24MPD2    C4  376   2.430   2.009  14.780 -0.3633  0.2453  0.2450
   24MPD2    C5  377   2.523   2.041  14.872  0.0735  0.1140 -0.3730
   24MPD2     H  378   2.234   1.832  14.991 -1.8006  1.1207 -2.7881
   24MPD2    H1  379   2.435   2.034  14.675 -1.1908  1.1955  0.4283
   24MPD2    H2  380   2.595   2.025  15.074 -0.5791 -1.6628  0.9547
   24MPD2    H3  381   2.606   2.101  14.836  0.7953 -1.2873 -1.0092
   24MPD2     N  382   2.224   1.900  14.730 -0.3453  0.1737  0.0457
   24MPD2    H5  383   2.217   1.944  14.639  2.0618 -0.0141 -0.2352
   24MPD2    N1  384   2.416   1.858  15.173  0.4419 -0.5875 -0.2229
   24MPD2    H7  385   2.357   1.776  15.182  2.1580 -1.7154  0.8803
   25TMC2    C1  386   1.554   4.565  11.641 -0.6284  0.2141 -0.5480
   25TMC2    C2  387   1.567   4.441  11.704  0.3893  0.1470  0.6375
   25TMC2    C3  388   1.530   4.447  11.834 -0.2302  0.1305  0.6637
   25TMC2    C4  389   1.506   4.679  11.698 -0.2527  0.1038 -0.2226
   25TMC2    C5  390   1.455   4.674  11.826  0.2093  0.9069  0.4943
   25TMC2    C6  391   1.478   4.559  11.900 -0.0457 -0.0367  0.8764
   25TMC2     C  392   1.537   4.561  11.503 -0.4624 -0.6844  0.6108
   25TMC2     O  393   1.545   4.669  11.441 -0.2970 -0.7536 -0.2349
   25TMC2     H  394   1.604   4.350  11.659 -0.4019 -0.1638  0.6041
   25TMC2    H1  395   1.493   0.033  11.637  0.0303  1.3118  1.4536
   25TMC2    H2  396   1.438   4.557  12.000 -2.0033 -0.2472  0.0902
   25TMC2    C7  397   1.360   0.035  11.887  0.2847  0.6446  0.0785
   25TMC2    C8  398   1.566   4.338  11.919  0.2707  0.3987  0.5018
   25TMC2    O1  399   1.308   0.005  11.994  0.0392  0.9014  0.1893
   25TMC2    O2  400   1.543   4.357  12.036 -0.1061  0.7853 -0.1528
   25TMC2    O5  401   1.559   4.220  11.850 -0.2515  0.2414 -0.1116
   25TMC2    H5  402   1.520   4.222  11.760  1.0338  3.0283 -0.6184
   26MPD2     C  403   1.331   4.387  11.067 -0.5122 -0.0886 -0.1942
   26MPD2    C1  404   1.293   4.304  11.173 -0.3765  0.1028  0.1594
   26MPD2    C2  405   1.351   4.334  11.296  0.9711 -0.2733  0.1432
   26MPD2    C3  406   1.428   4.439  11.318  0.1375  0.0871 -0.8906
   26MPD2    C4  407   1.467   4.517  11.212  0.1582 -0.0317 -0.2416
   26MPD2    C5  408   1.426   4.491  11.083  0.4813  0.2321  0.5635
   26MPD2     H  409   1.312   4.278  11.380 -1.6400  1.6222  0.2128
   26MPD2    H1  410   1.539   4.597  11.229  0.8537 -0.5041 -0.9552
   26MPD2    H2  411   1.294   4.362  10.968  1.0502 -0.8121 -0.6007
   26MPD2    H3  412   1.456   4.550  10.997 -1.1519 -1.5956 -1.2780
   26MPD2     N  413   1.470   4.452  11.452  0.0563 -0.1010  0.5875
   26MPD2    H5  414   1.454   4.366  11.505 -1.6718 -1.0170 -1.4532
   26MPD2    N1  415   1.207   4.201  11.145  0.3831 -0.3085  0.0641
   26MPD2    H7  416   1.179   4.186  11.049  1.6314  0.2002 -0.3675
   27TMC2    C1  417   4.396   1.497  12.325  0.1220 -0.0449  0.5688
   27TMC2    C2  418   4.520   1.518  12.271  0.9928  0.4139 -0.1929
   27TMC2    C3  419   4.633   1.478  12.332 -0.8500 -0.7855  0.7893
   27TMC2    C4  420   4.383   1.421  12.440  0.8589 -0.2186 -0.1056
   27TMC2    C5  421   4.497   1.368  12.496  0.2098  0.1581 -0.0118
   27TMC2    C6  422   4.625   1.396  12.445  0.5229 -0.9069 -0.0476
   27TMC2     C  423   4.295   1.600  12.294 -0.2194 -0.1457 -0.0745
   27TMC2     O  424   4.315   1.657  12.188  0.3589 -0.3008  0.4519
   27TMC2     H  425   4.538   1.588  12.190 -1.4019  0.4816 -0.6736
   27TMC2    H1  426   4.285   1.410  12.486  0.3253 -0.7160 -1.3609
   27TMC2    H2  427   4.715   1.346  12.478  1.6278 -1.1615 -3.3550
   27TMC2    C7  428   4.491   1.267  12.605  0.5736 -0.4266  0.2786
   27TMC2    C8  429   0.021   1.507  12.262 -0.8008 -0.9882  0.4132
   27TMC2    O1  430   4.596   1.252  12.668  0.0054 -0.6795 -0.3656
   27TMC2    O2  431   0.032   1.569  12.156  0.1489  0.1544 -0.0360
   27TMC2    O5  432   0.123   1.461  12.333  0.1638  0.4975 -0.7131
   27TMC2    H5  433   0.112   1.459  12.430  2.6409  2.2211 -0.3969
   28MPD2     C  434   3.946   1.966  12.390  0.0513  0.5479  0.8254
   28MPD2    C1  435   3.924   1.867  12.483 -0.0254 -0.6762 -0.5344
   28MPD2    C2  436   4.003   1.756  12.475 -0.5569 -0.1245  0.1472
   28MPD2    C3  437   4.103   1.738  12.377  0.3734 -0.0334  0.4715
   28MPD2    C4  438   4.129   1.847  12.290  0.8349 -0.0495 -0.0582
   28MPD2    C5  439   4.050   1.958  12.292 -0.2167  0.4598  0.5625
   28MPD2     H  440   3.987   1.675  12.545 -0.5217 -0.4444 -0.2186
   28MPD2    H1  441   4.205   1.854  12.213  0.7707 -1.4282 -0.2474
   28MPD2    H2  442   3.883   2.054  12.391 -1.5842 -0.6221  0.5481
   28MPD2    H3  443   4.064   2.043  12.227 -0.0607  0.0763  0.0957
   28MPD2     N  444   4.186   1.621  12.377 -0.4435  0.4416  0.2917
   28MPD2    H5  445   4.166   1.559  12.455 -1.2006 -0.0235 -0.2715
   28MPD2    N1  446   3.821   1.879  12.577  0.3032 -0.4607 -0.3883
   28MPD2    H7  447   3.778   1.971  12.575  2.9330  0.7265 -2.0601
   29TMC2    C1  448   4.043   4.164  14.220  0.3198  0.5712  0.5753
   29TMC2    C2  449   3.960   4.187  14.328 -0.2568 -0.7796 -0.7449
   29TMC2    C3  450   4.014   4.262  14.428 -0.0139  0.6900 -0.2193
   29TMC2    C4  451   4.165   4.215  14.212 -0.1066 -0.1427 -0.0833
   29TMC2    C5  452   4.201   4.308  14.306 -0.3989 -0.0821 -0.0615
   29TMC2    C6  453   4.133   4.330  14.421  0.4398 -0.1978 -0.4219
   29TMC2     C  454   4.009   4.052  14.140 -0.1219 -0.1738  0.8685
   29TMC2     O  455   4.101   3.992  14.089 -0.0876  0.0096  0.7545
   29TMC2     H  456   3.866   4.139  14.350  0.4378 -1.9334 -0.3354
   29TMC2    H1  457   4.214   4.199  14.117  0.7183 -3.0271  0.8244
   29TMC2    H2  458   4.152   4.412  14.488  0.2921 -1.3109  0.9725
   29TMC2    C7  459   4.282   4.413  14.247  0.4331 -0.6094 -0.0756
   29TMC2    C8  460   3.916   4.304  14.525  0.4579 -0.2939 -0.4272
   29TMC2    O1  461   4.269   4.425  14.125  0.3047  0.0216 -0.5527
   29TMC2    O2  462   3.853   4.225  14.599  0.1536  0.2905  0.0103
   29TMC2    O5  463   3.875   4.431  14.500  0.5409  0.0442  0.4935
   29TMC2    H5  464   3.923   4.472  14.425  0.5756  0.8158  0.9271
   30MPD2     C  465   3.670   3.732  13.939  0.0749  0.0519  0.5432
   30MPD2    C1  466   3.811   3.724  13.939  0.0808  0.7640 -0.0671
   30MPD2    C2  467   3.878   3.824  14.009 -0.1967  0.5071 -0.4293
   30MPD2    C3  468   3.811   3.925  14.064  0.4210 -0.0573  0.0631
   30MPD2    C4  469   3.674   3.929  14.062  0.3048 -0.4140  0.6249
   30MPD2    C5  470   3.606   3.830  13.999 -0.4108 -0.3297  0.0075
   30MPD2     H  471   3.984   3.813  14.028 -0.1580 -1.3481 -1.6099
   30MPD2    H1  472   3.615   4.003  14.114  1.6289  0.6419  0.6116
   30MPD2    H2  473   3.598   3.673  13.884 -0.7544  1.8079 -0.2679
   30MPD2    H3  474   3.498   3.835  13.984 -0.6721 -0.6150  1.7825
   30MPD2     N  475   3.876   4.034  14.126  0.0669 -0.5136  0.7435
   30MPD2    H5  476   3.823   4.109  14.170 -1.8056 -1.8072  0.7147
   30MPD2    N1  477   3.880   3.610  13.887 -0.0289  0.0096 -0.3841
   30MPD2    H7  478   3.980   3.610  13.907  0.1310  0.3704 -1.1852
   31TMC2    C1  479   1.573   2.638  15.699  0.8274 -0.0941  0.3356
   31TMC2    C2  480   1.457   2.691  15.741  0.8374  0.3667 -1.0511
   31TMC2    C3  481   1.436   2.726  15.871 -0.0827 -0.5006  0.6072
   31TMC2    C4  482   1.680   2.612  15.779 -0.4204  0.0178 -0.0521
   31TMC2    C5  483   1.659   2.657  15.910 -0.2663  0.5527  0.2254
   31TMC2    C6  484   1.540   2.705  15.957  0.1820  0.5438  0.0582
   31TMC2     C  485   1.601   2.652  15.553  0.2173  0.3677 -0.1954
   31TMC2     O  486   1.555   2.742  15.485  0.4109  0.1295 -0.1354
   31TMC2     H  487   1.391   2.714  15.659  1.5117 -3.3841 -2.6736
   31TMC2    H1  488   1.774   2.575  15.741 -0.2167 -0.4462  0.8938
   31TMC2    H2  489   1.519   2.724  16.062 -0.4421 -0.8886  0.1867
   31TMC2    C7  490   1.765   2.617  15.999  0.4466 -0.1600  0.0433
   31TMC2    C8  491   1.323   2.659  15.937  0.2924 -0.6778  0.9229
   31TMC2    O1  492   1.853   2.546  15.958  0.1954  0.0396  0.0839
   31TMC2    O2  493   1.342   2.567  16.014  0.2322 -0.1841  0.3877
   31TMC2    O5  494   1.215   2.695  15.866  0.3566  0.1148 -0.3375
   31TMC2    H5  495   1.221   2.780  15.817  1.1257  0.9382  1.2135
   32MPD2     C  496   1.833   2.454  15.144  0.5481  0.3711 -0.3866
   32MPD2    C1  497   1.800   2.583  15.162 -0.6433  0.3292 -0.5140
   32MPD2    C2  498   1.750   2.622  15.281 -0.3376  0.0965 -0.4543
   32MPD2    C3  499   1.729   2.522  15.385  0.2004 -0.2173  0.2623
   32MPD2    C4  500   1.765   2.391  15.356 -0.4818  0.1061 -0.3757
   32MPD2    C5  501   1.814   2.360  15.234 -0.6885  0.0449 -0.5235
   32MPD2     H  502   1.727   2.727  15.301  0.0642  0.1742 -0.4042
   32MPD2    H1  503   1.753   2.322  15.439  1.9035 -0.6357 -0.6197
   32MPD2    H2  504   1.882   2.418  15.054  0.6131  3.6863 -1.7024
   32MPD2    H3  505   1.834   2.259  15.200 -0.0029  0.5406 -1.6171
   32MPD2     N  506   1.680   2.550  15.516  0.2709 -0.0399 -0.0972
   32MPD2    H5  507   1.687   2.469  15.578 -2.5403 -0.0739  0.1688
   32MPD2    N1  508   1.852   2.681  15.073 -0.2181 -0.5047 -0.3071
   32MPD2    H7  509   1.832   2.778  15.093 -0.9753 -0.2584 -2.2215
   33TMC2    C1  510   2.062   0.879  10.448  0.1940  0.3946 -0.1428
   33TMC2    C2  511   1.995   0.876  10.569 -0.0010 -0.3455 -0.4909
   33TMC2    C3  512   1.896   0.964  10.592 -0.0023  0.7361 -0.1814
   33TMC2    C4  513   2.020   0.969  10.348  0.0430  0.2502 -0.2331
   33TMC2    C5  514   1.912   1.048  10.372  0.1931 -0.4118  0.5236
   33TMC2    C6  515   1.848   1.048  10.493  0.7999 -0.7711 -0.0512
   33TMC2     C  516   2.160   0.781  10.432 -0.1495 -0.4509 -0.5130
   33TMC2     O  517   2.149   0.686  10.508  0.1266  0.0440  0.3831
   33TMC2     H  518   2.027   0.815  10.653 -1.0678 -0.7408 -0.3806
   33TMC2    H1  519   2.067   0.969  10.251 -1.7787  2.2081 -1.0899
   33TMC2    H2  520   1.767   1.119  10.505  0.1471 -1.3057 -1.3347
   33TMC2    C7  521   1.870   1.132  10.260 -0.2495  0.2251  0.3034
   33TMC2    C8  522   1.830   0.948  10.721  0.1067  0.2043 -0.7306
   33TMC2    O1  523   1.940   1.137  10.160 -0.0611  0.1543  0.0589
   33TMC2    O2  524   1.819   0.846  10.785 -0.3044 -0.1862 -0.2696
   33TMC2    O5  525   1.760   1.064  10.734 -0.6228 -0.1650 -0.2673
   33TMC2    H5  526   1.810   1.138  10.694  0.3996 -1.1661 -0.8372
   34MPD2     C  527   2.597   0.583  10.244  0.3382  0.9190 -0.6502
   34MPD2    C1  528   2.495   0.524  10.314 -0.6917  0.5746  0.2825
   34MPD2    C2  529   2.382   0.599  10.355 -0.1051 -0.0451  0.4732
   34MPD2    C3  530   2.379   0.736  10.331 -0.0998  0.4255 -0.5747
   34MPD2    C4  531   2.489   0.795  10.268  0.4071 -0.0879  0.5298
   34MPD2    C5  532   2.600   0.717  10.230 -0.3174 -0.1225  0.5306
   34MPD2     H  533   2.291   0.546  10.380 -2.6045  3.2498 -1.6088
   34MPD2    H1  534   2.489   0.899  10.239  1.3863 -0.4514 -0.8097
   34MPD2    H2  535   2.685   0.534  10.204 -0.6818 -0.5490 -1.0504
   34MPD2    H3  536   2.691   0.764  10.195  1.2628 -1.3897  2.9617
   34MPD2     N  537   2.267   0.821  10.351  0.0947  0.1268  0.3366
   34MPD2    H5  538   2.275   0.915  10.314 -4.5245  0.2514 -0.3509
   34MPD2    N1  539   2.496   0.378  10.328  0.5128  0.9311 -0.1506
   34MPD2    H7  540   2.571   0.329  10.282 -0.2800  0.5037 -0.9923
   35TMC2    C1  541   3.524   2.072  11.380 -0.7930  0.0262  0.0398
   35TMC2    C2  542   3.534   2.041  11.248  0.2118 -0.3381 -0.2447
   35TMC2    C3  543   3.489   1.924  11.208 -0.0247  0.5818  0.0196
   35TMC2    C4  544   3.473   1.986  11.470 -0.4986  0.0607 -0.7680
   35TMC2    C5  545   3.431   1.865  11.425  0.1435  0.6897 -0.8264
   35TMC2    C6  546   3.439   1.826  11.289 -0.3021 -0.2744 -0.5463
   35TMC2     C  547   3.596   2.187  11.429 -0.2419 -0.5197  0.0239
   35TMC2     O  548   3.652   2.258  11.350  0.4284  0.0160 -0.5394
   35TMC2     H  549   3.571   2.113  11.176  4.8719 -0.7390  1.7873
   35TMC2    H1  550   3.458   2.005  11.576  2.7481  0.5130 -0.3900
   35TMC2    H2  551   3.411   1.726  11.257 -1.7026 -0.2255  0.5150
   35TMC2    C7  552   3.397   1.760  11.520  0.1339 -0.0389  0.0722
   35TMC2    C8  553   3.549   1.888  11.086 -0.0278 -0.2008 -0.5093
   35TMC2    O1  554   3.336   1.669  11.468 -0.2345 -0.0054  0.8137
   35TMC2    O2  555   3.649   1.944  11.037 -0.8421  0.0881 -0.0026
   35TMC2    O5  556   3.505   1.768  11.045 -0.1522  0.1659  0.3200
   35TMC2    H5  557   3.409   1.755  11.061 -0.3731  0.3949 -0.8369
   36MPD2     C  558   3.679   2.532  11.808 -0.3560 -0.3854  0.6726
   36MPD2    C1  559   3.649   2.408  11.862 -1.5530  0.5843 -0.3679
   36MPD2    C2  560   3.628   2.297  11.779 -0.3000  0.7066  0.1278
   36MPD2    C3  561   3.634   2.308  11.638  0.0659  0.3183  0.0521
   36MPD2    C4  562   3.669   2.435  11.587 -0.0477  0.1625 -0.6471
   36MPD2    C5  563   3.689   2.543  11.672  0.0151  0.3778  0.0737
   36MPD2     H  564   3.610   2.198  11.819 -0.1616  0.1474 -1.1639
   36MPD2    H1  565   3.677   2.454  11.480  0.3600 -3.5027 -1.2677
   36MPD2    H2  566   3.708   2.618  11.868 -1.2844  0.0269  0.5241
   36MPD2    H3  567   3.715   2.636  11.622 -0.7526  0.5604  0.0170
   36MPD2     N  568   3.592   2.198  11.561  0.1202 -0.3844 -0.5131
   36MPD2    H5  569   3.560   2.113  11.605  1.1530 -0.2767  0.4423
   36MPD2    N1  570   3.615   2.400  12.005  0.0450 -0.1047  0.0903
   36MPD2    H7  571   3.638   2.481  12.062  0.4371 -0.2560  0.1481
   37TMC2    C1  572   0.904   2.819  11.855 -0.4023  0.0094  0.4087
   37TMC2    C2  573   0.810   2.919  11.846 -0.3262 -0.2045  0.0257
   37TMC2    C3  574   0.846   3.032  11.794  0.0854  0.4786 -0.5838
   37TMC2    C4  575   1.028   2.839  11.805 -0.1592 -0.0589  0.3147
   37TMC2    C5  576   1.061   2.954  11.742 -0.4111  0.2962 -0.4857
   37TMC2    C6  577   0.970   3.058  11.730 -0.2939  0.1462  0.3717
   37TMC2     C  578   0.867   2.697  11.915 -0.2147  0.4391  0.1083
   37TMC2     O  579   0.764   2.689  11.975  0.1373 -0.0781  0.3024
   37TMC2     H  580   0.708   2.906  11.881  0.3486 -1.6362  1.4711
   37TMC2    H1  581   1.105   2.764  11.822  1.1660  1.7145  2.0609
   37TMC2    H2  582   0.995   3.157  11.695 -0.1938  0.3806  1.1052
   37TMC2    C7  583   1.200   2.966  11.698 -0.0209 -0.3564  0.1504
   37TMC2    C8  584   0.746   3.145  11.791  0.9581  0.4159 -0.2104
   37TMC2    O1  585   1.271   2.866  11.710 -0.0969 -0.1017 -0.0196
   37TMC2    O2  586   0.629   3.133  11.792  0.3441  0.3108  0.0081
   37TMC2    O5  587   0.801   3.247  11.864  0.0751 -0.5322  0.1507
   37TMC2    H5  588   0.899   3.244  11.871  0.0897 -0.5116 -0.0619
   38MPD2     C  589   1.030   2.233  12.096 -0.8940 -0.3275  0.0519
   38MPD2    C1  590   1.105   2.264  11.984  0.3747  0.4029 -0.3020
   38MPD2    C2  591   1.081   2.381  11.913  0.9667 -0.0803  0.5238
   38MPD2    C3  592   0.974   2.466  11.957  0.0232 -0.0642 -0.3348
   38MPD2    C4  593   0.888   2.426  12.052 -0.1688 -0.0448 -0.1191
   38MPD2    C5  594   0.921   2.314  12.125 -0.4382 -0.1413  0.7489
   38MPD2     H  595   1.145   2.401  11.828  0.8015  0.2795  0.4841
   38MPD2    H1  596   0.805   2.480  12.096 -0.8003  0.2385 -1.6678
   38MPD2    H2  597   1.032   2.136  12.144  2.6277 -0.6558 -0.7705
   38MPD2    H3  598   0.850   2.300  12.205 -0.8493  0.0444  0.4130
   38MPD2     N  599   0.957   2.590  11.891  0.2476 -0.5535 -0.3400
   38MPD2    H5  600   1.020   2.611  11.815  0.6500  1.9597  0.7000
   38MPD2    N1  601   1.202   2.175  11.929 -0.0867 -0.1491  0.0008
   38MPD2    H7  602   1.239   2.199  11.837 -2.0506  0.2346 -0.6868
   39TMC2    C1  603   3.776   3.384   1.109  0.0661  0.4150 -0.1917
   39TMC2    C2  604   3.893   3.376   1.029  0.1764 -0.5641 -0.4526
   39TMC2    C3  605   3.996   3.445   1.084  0.1123 -0.6234  0.9008
   39TMC2    C4  606   3.771   3.437   1.235 -0.2055 -0.1690 -0.5595
   39TMC2    C5  607   3.890   3.487   1.286 -0.0849 -0.6249 -0.3687
   39TMC2    C6  608   3.998   3.494   1.208  0.0496 -0.1653  0.5687
   39TMC2     C  609   3.652   3.349   1.042  0.3410 -0.3498 -0.1150
   39TMC2     O  610   3.557   3.424   1.061 -0.0240  0.0725  0.2830
   39TMC2     H  611   3.885   3.377   0.921  0.5155  0.5951 -0.4620
   39TMC2    H1  612   3.679   3.445   1.292 -1.4690 -0.2359 -2.6014
   39TMC2    H2  613   4.088   3.547   1.239 -0.7025  0.2098  2.0825
   39TMC2    C7  614   3.875   3.584   1.395  0.2116 -0.0550 -0.4224
   39TMC2    C8  615   4.107   3.481   1.003 -0.2750  0.1342 -0.5796
   39TMC2    O1  616   3.778   3.575   1.469 -0.0438  0.0392  0.3691
   39TMC2    O2  617   4.170   3.585   1.015 -0.0291  0.2556 -0.3389
   39TMC2    O5  618   4.120   3.395   0.899  0.4860 -0.1871  0.2169
   39TMC2    H5  619   4.072   3.309   0.905  1.5695 -0.8807 -1.2113
   40MPD2     C  620   3.604   3.071   0.805  0.5937 -0.4847  0.3403
   40MPD2    C1  621   3.567   3.180   0.877  0.0939  0.2212 -0.4392
   40MPD2    C2  622   3.438   3.233   0.869  0.5707  0.0853 -0.0296
   40MPD2    C3  623   3.342   3.176   0.788  0.2255 -0.6242  0.3542
   40MPD2    C4  624   3.383   3.071   0.707  0.3166  0.0803 -0.5455
   40MPD2    C5  625   3.509   3.016   0.720  0.8368  1.2751  0.7462
   40MPD2     H  626   3.406   3.314   0.934  0.3862 -1.2912  1.5779
   40MPD2    H1  627   3.312   3.006   0.658 -1.6740  1.0876  1.0042
   40MPD2    H2  628   3.699   3.018   0.808  1.8227  1.8465  1.9622
   40MPD2    H3  629   3.540   2.943   0.647  0.8432  0.1137  1.9129
   40MPD2     N  630   3.204   3.208   0.802 -0.6108  0.7658 -0.7286
   40MPD2    H5  631   3.140   3.148   0.750 -0.8363 -1.9247  2.6219
   40MPD2    N1  632   3.666   3.231   0.962  0.0746  0.2900  0.4046
   40MPD2    H7  633   3.755   3.181   0.958  0.0783  0.3984 -0.8245
   41TMC2    C1  634   1.857   1.589  14.094  0.8839  0.0641  0.3909
   41TMC2    C2  635   1.739   1.541  14.049  0.0106  0.4178 -0.9332
   41TMC2    C3  636   1.696   1.598  13.936 -0.4071  0.0192 -0.0351
   41TMC2    C4  637   1.934   1.684  14.032  0.3043  0.1478 -1.0307
   41TMC2    C5  638   1.888   1.727  13.916 -0.2925 -0.0240  0.1365
   41TMC2    C6  639   1.762   1.694  13.874  0.0696  0.3286 -0.3793
   41TMC2     C  640   1.882   1.550  14.231 -0.0881 -0.3831  0.0618
   41TMC2     O  641   1.788   1.523  14.305 -0.3825 -0.9685  0.2508
   41TMC2     H  642   1.682   1.459  14.092 -1.9749  2.2518 -0.0753
   41TMC2    H1  643   2.020   1.723  14.086 -0.6904  0.9131  0.0057
   41TMC2    H2  644   1.708   1.742  13.794 -3.0828 -1.2592  0.8146
   41TMC2    C7  645   1.939   1.855  13.873  0.6625  0.2333  0.4032
   41TMC2    C8  646   1.555   1.594  13.907 -0.2804  0.1918 -0.5366
   41TMC2    O1  647   1.857   1.939  13.847 -0.3787  0.1262  0.7262
   41TMC2    O2  648   1.496   1.698  13.902 -0.4424  0.3222 -0.3241
   41TMC2    O5  649   1.499   1.480  13.949  0.1734 -0.4572  0.4280
   41TMC2    H5  650   1.569   1.413  13.937  0.0088 -0.6209  0.3732
   42MPD2     C  651   2.019   1.486  14.491  0.4013 -0.0922 -0.1870
   42MPD2    C1  652   2.084   1.526  14.376  0.1485  0.2569 -0.4738
   42MPD2    C2  653   2.220   1.546  14.382 -0.1649  0.6269 -0.4715
   42MPD2    C3  654   2.289   1.529  14.500 -0.8103  0.6628  0.4381
   42MPD2    C4  655   2.228   1.477  14.615 -0.3482 -0.5271 -0.5226
   42MPD2    C5  656   2.088   1.459  14.609  0.5464 -0.4456  0.0157
   42MPD2     H  657   2.275   1.578  14.294 -0.0085 -3.9541 -2.0421
   42MPD2    H1  658   2.275   1.452  14.710  1.1526 -0.7211 -1.3185
   42MPD2    H2  659   1.915   1.456  14.498  0.6408 -1.1287 -1.1243
   42MPD2    H3  660   2.033   1.437  14.699  3.6691  0.4049  2.1467
   42MPD2     N  661   2.423   1.564  14.519  0.2036 -0.6066 -0.2283
   42MPD2    H5  662   2.454   1.549  14.614 -2.5312  0.3067  0.8025
   42MPD2    N1  663   2.018   1.555  14.259  0.1178 -0.2031 -0.0180
   42MPD2    H7  664   2.076   1.579  14.179  0.7782 -1.5903  0.0366
   43TMC2    C1  665   3.578   0.111   0.801 -0.1339 -0.9087 -0.3448
   43TMC2    C2  666   3.519   0.034   0.891 -0.0516 -0.1803 -0.2911
   43TMC2    C3  667   3.491   0.087   1.015 -0.7364 -0.0504 -0.5315
   43TMC2    C4  668   3.609   0.241   0.828 -0.3971  0.7648  0.3921
   43TMC2    C5  669   3.571   0.294   0.948  1.0119 -0.5594  0.0352
   43TMC2    C6  670   3.513   0.220   1.045 -0.1721  0.1144 -0.0878
   43TMC2     C  671   3.624   0.053   0.687 -0.6895  0.2428  0.0515
   43TMC2     O  672   3.742   0.077   0.658  0.5081 -0.2805  0.2146
   43TMC2     H  673   3.490   4.667   0.865 -2.4619 -0.0106  1.7261
   43TMC2    H1  674   3.672   0.293   0.757  0.7137 -1.8524 -0.5459
   43TMC2    H2  675   3.468   0.266   1.132  1.4040  2.3796 -0.4712
   43TMC2    C7  676   3.624   0.432   0.974 -0.3570 -0.4450 -0.4498
   43TMC2    C8  677   3.399   0.011   1.092  0.3644  1.1852  0.2051
   43TMC2    O1  678   3.673   0.491   0.881  0.0515 -0.6287 -0.2792
   43TMC2    O2  679   3.328   4.657   1.045  0.7304  0.2255 -0.2659
   43TMC2    O5  680   3.454   0.005   1.216  0.4732 -0.4543  0.2438
   43TMC2    H5  681   3.525   0.072   1.224  2.0490 -2.1660  0.8226
   44MPD2     C  682   3.554   4.611   0.219 -0.4646  0.7175 -0.0654
   44MPD2    C1  683   3.674   4.631   0.283 -0.5681  0.3447  0.4973
   44MPD2    C2  684   3.673   4.657   0.423 -0.1016 -0.0861  0.0142
   44MPD2    C3  685   3.551   4.658   0.491  0.4004  0.2535  0.4436
   44MPD2    C4  686   3.438   4.623   0.427 -0.4641 -0.3001  0.1255
   44MPD2    C5  687   3.440   4.609   0.291  0.2541 -0.6563  0.6007
   44MPD2     H  688   3.767   4.668   0.476 -0.0798  1.5159 -0.3731
   44MPD2    H1  689   3.343   4.633   0.478 -0.6080  0.2671 -0.2475
   44MPD2    H2  690   3.555   4.604   0.111  0.7489 -0.7469  0.0395
   44MPD2    H3  691   3.347   4.612   0.236  0.3924 -0.9863  0.3480
   44MPD2     N  692   3.536   4.710   0.619  0.1013 -0.2436 -0.0053
   44MPD2    H5  693   3.440   4.718   0.650 -0.6162 -2.9826 -1.5547
   44MPD2    N1  694   3.799   4.621   0.213 -0.0082  0.3805 -0.2070
   44MPD2    H7  695   3.881   4.629   0.272  0.2326 -3.0462 -0.0828
   45TMC2    C1  696   4.734   2.451   9.637  0.5901 -0.7002 -0.4793
   45TMC2    C2  697   0.088   2.353   9.652  0.3224 -0.1616  0.2036
   45TMC2    C3  698   0.148   2.347   9.773 -0.6636 -1.5651 -0.6387
   45TMC2    C4  699   4.715   2.549   9.734  0.5406  0.3622 -0.5508
   45TMC2    C5  700   0.053   2.546   9.850  0.0670  0.1796 -0.0896
   45TMC2    C6  701   0.140   2.443   9.872 -0.0826  0.1376 -0.7620
   45TMC2     C  702   4.635   2.433   9.539  0.0379  0.0004 -0.0413
   45TMC2     O  703   4.673   2.405   9.426 -1.1472 -0.4173  0.3426
   45TMC2     H  704   0.094   2.271   9.582  1.0847 -0.2682  0.3921
   45TMC2    H1  705   4.650   2.633   9.714  0.9121  0.6794 -0.4259
   45TMC2    H2  706   0.183   2.428   9.970 -0.1137  0.5693 -0.6810
   45TMC2    C7  707   0.079   2.668   9.917  0.0461  0.0064 -0.3280
   45TMC2    C8  708   0.255   2.253   9.779  0.4539  0.1800  1.2073
   45TMC2    O1  709   0.138   2.666  10.024 -0.0662  0.2587 -0.0517
   45TMC2    O2  710   0.291   2.226   9.892 -0.1343  0.2129 -0.3124
   45TMC2    O5  711   0.336   2.280   9.682  0.0359 -0.0557  0.2987
   45TMC2    H5  712   0.285   2.329   9.615 -1.0563 -0.0818  1.1104
   46MPD2     C  713   4.370   2.393   9.374 -0.1884  0.3595  0.1833
   46MPD2    C1  714   4.382   2.425   9.516  0.1287 -0.3604 -0.3612
   46MPD2    C2  715   4.272   2.426   9.598  0.2195 -0.3289 -0.2148
   46MPD2    C3  716   4.143   2.405   9.548 -0.2014  0.0276 -0.4060
   46MPD2    C4  717   4.134   2.364   9.413  1.3007 -0.0443 -0.2697
   46MPD2    C5  718   4.246   2.348   9.334 -0.2385 -0.2561 -0.2011
   46MPD2     H  719   4.277   2.445   9.705 -1.2900 -2.8538  0.3139
   46MPD2    H1  720   4.039   2.331   9.374  1.1006  0.0767  0.1094
   46MPD2    H2  721   4.452   2.385   9.304 -0.3590 -0.0582  0.0314
   46MPD2    H3  722   4.231   2.311   9.233  3.3705 -2.4157  0.0487
   46MPD2     N  723   4.031   2.407   9.630  0.3164 -0.5582 -0.4329
   46MPD2    H5  724   4.056   2.436   9.724 -3.4597 -1.0241  0.6866
   46MPD2    N1  725   4.508   2.449   9.582 -0.0019 -0.1815  0.2648
   46MPD2    H7  726   4.498   2.450   9.683 -0.5149  0.3988  0.2065
   47TMC2    C1  727   0.643   3.037   9.504 -0.2954  0.6479 -0.5661
   47TMC2    C2  728   0.520   3.105   9.506  0.2370 -0.0036  0.1165
   47TMC2    C3  729   0.404   3.034   9.500 -0.1535 -0.1818 -0.5205
   47TMC2    C4  730   0.644   2.895   9.495  0.1993 -0.2271  0.1310
   47TMC2    C5  731   0.520   2.832   9.488  0.1414  0.7088  0.0977
   47TMC2    C6  732   0.396   2.897   9.494  0.4621 -0.1581 -0.3270
   47TMC2     C  733   0.758   3.124   9.517  0.5023 -0.7390 -0.0261
   47TMC2     O  734   0.749   3.242   9.486  0.5588 -0.6107  0.1637
   47TMC2     H  735   0.510   3.213   9.512 -0.5121 -0.1359  1.0547
   47TMC2    H1  736   0.736   2.839   9.509 -0.6663 -2.0309 -1.5325
   47TMC2    H2  737   0.299   2.849   9.496  0.5457 -0.2473  2.1289
   47TMC2    C7  738   0.521   2.691   9.509 -0.1832 -0.3945  0.3451
   47TMC2    C8  739   0.275   3.100   9.512 -0.7283 -0.8347  0.5154
   47TMC2    O1  740   0.431   2.634   9.570  0.6507  0.3741  0.0608
   47TMC2    O2  741   0.255   3.201   9.576 -0.9888  0.5220  0.5659
   47TMC2    O5  742   0.188   3.037   9.428 -0.2057  0.1195  0.4056
   47TMC2    H5  743   0.238   2.973   9.372 -0.5469  0.3298 -0.1441
   48MPD2     C  744   1.019   3.247   9.592  0.8339  0.6050  0.1487
   48MPD2    C1  745   1.003   3.116   9.566  0.7378 -0.1073  0.3785
   48MPD2    C2  746   1.111   3.026   9.575 -0.0484  0.3330  0.5451
   48MPD2    C3  747   1.238   3.066   9.614 -0.4500 -0.3466  0.0393
   48MPD2    C4  748   1.257   3.204   9.630 -0.0602  0.4558  0.2697
   48MPD2    C5  749   1.146   3.290   9.623 -0.5599  0.2924 -0.2101
   48MPD2     H  750   1.104   2.920   9.551 -2.1256  0.4213  0.7465
   48MPD2    H1  751   1.360   3.237   9.640  0.6826 -1.6980 -0.3156
   48MPD2    H2  752   0.942   3.323   9.590 -1.6223 -1.8246  1.6979
   48MPD2    H3  753   1.164   3.396   9.635 -0.2127  0.4633 -2.1301
   48MPD2     N  754   1.344   2.969   9.613 -0.3835 -0.3294 -0.5205
   48MPD2    H5  755   1.335   2.882   9.562  1.8998 -1.6391  1.3722
   48MPD2    N1  756   0.876   3.057   9.551  0.4456  0.1351 -0.7347
   48MPD2    H7  757   0.875   2.957   9.536 -4.7642  0.1355 -0.0876
   49TMC2    C1  758   1.001   0.767  10.100 -0.8972  0.1114  0.0741
   49TMC2    C2  759   1.033   0.815   9.970  0.2158  0.3388  0.0534
   49TMC2    C3  760   0.940   0.877   9.896  0.1719 -0.3222 -0.0366
   49TMC2    C4  761   0.874   0.783  10.147 -0.2016 -0.7128 -1.0448
   49TMC2    C5  762   0.781   0.843  10.067  0.2044 -0.2636 -0.1655
   49TMC2    C6  763   0.815   0.900   9.945  0.2633  0.1895  0.1623
   49TMC2     C  764   1.090   0.673  10.157 -0.6978 -0.5339  0.1143
   49TMC2     O  765   1.178   0.621  10.088  0.2838 -0.6494  0.7774
   49TMC2     H  766   1.134   0.793   9.937 -0.2748 -0.4288 -0.9255
   49TMC2    H1  767   0.842   0.730  10.236  0.6902  0.2493 -0.1519
   49TMC2    H2  768   0.743   0.938   9.873  1.8507  0.9793 -1.0177
   49TMC2    C7  769   0.647   0.817  10.098 -0.6044  0.2999 -0.0343
   49TMC2    C8  770   0.965   0.914   9.758  0.0046  0.1438  0.5570
   49TMC2    O1  771   0.629   0.743  10.193 -0.0166  0.4297 -0.0832
   49TMC2    O2  772   0.883   0.963   9.684 -0.1948  0.6077  0.3317
   49TMC2    O5  773   1.093   0.964   9.756  0.4700 -0.5170  0.0707
   49TMC2    H5  774   1.162   0.929   9.816 -1.0387 -0.0562  2.0770
   50MPD2     C  775   1.267   0.537  10.346  0.3136 -0.5054  0.1239
   50MPD2    C1  776   1.165   0.619  10.389 -0.2262  0.2571 -0.4354
   50MPD2    C2  777   1.149   0.646  10.521 -0.0689  0.2891  0.3769
   50MPD2    C3  778   1.220   0.585  10.621  0.1826 -0.0186 -0.7272
   50MPD2    C4  779   1.319   0.501  10.575 -1.2723 -0.4954  0.0453
   50MPD2    C5  780   1.348   0.473  10.445 -0.2719  0.0780 -0.7051
   50MPD2     H  781   1.063   0.710  10.538 -1.7629 -1.1144 -2.7818
   50MPD2    H1  782   1.375   0.439  10.645 -1.1461 -2.0205 -1.3957
   50MPD2    H2  783   1.295   0.507  10.245  2.7412 -0.7710  0.8625
   50MPD2    H3  784   1.433   0.410  10.421  0.7615  0.5601  1.6605
   50MPD2     N  785   1.200   0.593  10.759 -0.2492 -0.0737  0.5396
   50MPD2    H5  786   1.248   0.524  10.816  1.9074  0.8347 -0.1913
   50MPD2    N1  787   1.077   0.679  10.292  0.0271 -0.9197 -0.0763
   50MPD2    H7  788   1.003   0.738  10.328 -0.5344 -1.1067 -0.9123
   51TMC2    C1  789   0.758   2.779   0.988 -0.2534 -0.6006  0.5111
   51TMC2    C2  790   0.635   2.798   1.043 -0.4770 -0.1932 -0.6997
   51TMC2    C3  791   0.595   2.922   1.074 -0.3511  0.3821  0.3675
   51TMC2    C4  792   0.826   2.881   0.935 -0.1923 -0.3524  0.6485
   51TMC2    C5  793   0.778   3.005   0.955  0.7967  0.2630 -0.0757
   51TMC2    C6  794   0.667   3.038   1.027  0.2399  0.2401  0.0495
   51TMC2     C  795   0.809   2.638   0.981 -0.3234 -0.1487  0.1381
   51TMC2     O  796   0.887   2.611   0.889 -0.4513 -0.0405 -0.3415
   51TMC2     H  797   0.564   2.719   1.067 -0.9367 -0.0950 -1.7437
   51TMC2    H1  798   0.912   2.864   0.871  0.1127 -0.1033  0.9927
   51TMC2    H2  799   0.643   3.137   1.062  3.5048  0.8895  0.4608
   51TMC2    C7  800   0.849   3.109   0.890  0.1742 -0.1709  0.0538
   51TMC2    C8  801   0.464   2.943   1.124 -0.6107  0.4561  0.5165
   51TMC2    O1  802   0.966   3.096   0.870 -0.4812  0.5240 -0.0811
   51TMC2    O2  803   0.369   2.872   1.101  0.2575 -0.1877 -0.2521
   51TMC2    O5  804   0.454   3.037   1.221 -0.1073  0.5150 -0.0862
   51TMC2    H5  805   0.540   3.054   1.265 -0.0020  1.1064 -0.5258
   52MPD2     C  806   0.888   2.197   1.220 -1.3362 -0.1592 -0.0094
   52MPD2    C1  807   0.920   2.235   1.091  0.4255  0.3335 -0.2616
   52MPD2    C2  808   0.870   2.352   1.042 -0.1268 -1.4067 -1.3779
   52MPD2    C3  809   0.804   2.434   1.132  0.3314  0.2770 -0.3927
   52MPD2    C4  810   0.764   2.398   1.258  0.6916  0.7256  0.3032
   52MPD2    C5  811   0.809   2.278   1.300 -0.1901 -0.1571  0.3853
   52MPD2     H  812   0.899   2.381   0.941 -1.9211  0.1828 -1.4391
   52MPD2    H1  813   0.719   2.465   1.330 -0.4920  0.1975  0.0559
   52MPD2    H2  814   0.941   2.114   1.264  2.4015  1.6236 -1.0783
   52MPD2    H3  815   0.793   2.252   1.404 -1.9432  1.7462  0.5804
   52MPD2     N  816   0.773   2.567   1.098  0.6018  0.2989 -0.4708
   52MPD2    H5  817   0.717   2.619   1.165  3.0252  0.3085  1.5584
   52MPD2    N1  818   1.004   2.156   1.010 -0.7048 -0.7376  0.5858
   52MPD2    H7  819   1.027   2.202   0.923  1.3878 -1.1539  0.9079
   53TMC2    C1  820   1.899   2.892  11.698 -0.4205 -0.6674 -0.6458
   53TMC2    C2  821   2.015   2.861  11.646  0.2541  0.2651 -0.3374
   53TMC2    C3  822   2.070   2.741  11.677  0.6478  0.2530 -0.2198
   53TMC2    C4  823   1.841   2.802  11.788  0.1567 -0.0563 -0.3911
   53TMC2    C5  824   1.890   2.679  11.802 -0.4434 -0.3184 -0.2820
   53TMC2    C6  825   2.018   2.652  11.761  0.4855 -0.1088 -0.4805
   53TMC2     C  826   1.832   3.017  11.652  0.2668  0.4403 -0.9608
   53TMC2     O  827   1.896   3.107  11.602 -0.0281  0.3050 -0.2005
   53TMC2     H  828   2.073   2.932  11.589 -0.0296 -0.4631 -1.5224
   53TMC2    H1  829   1.751   2.829  11.842  1.8757  1.6365  1.6261
   53TMC2    H2  830   2.070   2.557  11.772 -0.9602 -1.1286 -2.4770
   53TMC2    C7  831   1.818   2.589  11.887  0.1899 -0.1879 -0.2415
   53TMC2    C8  832   2.184   2.707  11.599 -0.4510 -0.0635  0.6995
   53TMC2    O1  833   1.735   2.631  11.967 -0.0281  0.5276  0.0200
   53TMC2    O2  834   2.274   2.632  11.640 -0.2279  0.1843 -0.4267
   53TMC2    O5  835   2.146   2.711  11.470  0.0617  0.1781  0.0692
   53TMC2    H5  836   2.068   2.767  11.452 -0.3276  0.0924  1.5051
   54MPD2     C  837   1.621   3.191  11.534 -0.1951 -0.0322  0.4328
   54MPD2    C1  838   1.597   3.075  11.607 -0.3621 -0.0719  0.7656
   54MPD2    C2  839   1.472   3.032  11.636 -0.6594  0.3134  0.5088
   54MPD2    C3  840   1.365   3.110  11.598  0.8841  0.2077  0.5842
   54MPD2    C4  841   1.386   3.231  11.539 -1.0357  0.2898  0.1328
   54MPD2    C5  842   1.512   3.265  11.495  0.1535 -0.5241 -0.7136
   54MPD2     H  843   1.460   2.945  11.700 -0.4483  1.4020  2.0319
   54MPD2    H1  844   1.298   3.295  11.526 -2.0007 -1.3953 -1.6164
   54MPD2    H2  845   1.719   3.232  11.510  0.5675 -0.1951  3.3123
   54MPD2    H3  846   1.519   3.355  11.435 -0.6932 -0.2958 -0.4664
   54MPD2     N  847   1.230   3.085  11.640  0.0689 -0.5246 -0.0796
   54MPD2    H5  848   1.162   3.160  11.634  2.0767  1.6844  4.8190
   54MPD2    N1  849   1.700   2.996  11.664 -0.0153  0.5574 -0.2102
   54MPD2    H7  850   1.667   2.906  11.698 -0.5300  0.0764 -1.9927
   55TMC2    C1  851   2.087   4.585   0.090  0.1170 -0.2929 -0.1387
   55TMC2    C2  852   2.065   4.523  17.709  0.1356  0.6477  0.1428
   55TMC2    C3  853   2.067   4.384  17.701  0.3382 -0.5033 -1.1792
   55TMC2    C4  854   2.101   4.510   0.206 -0.4908 -0.3148  0.1420
   55TMC2    C5  855   2.093   4.374   0.199 -0.1710 -0.4238  1.0438
   55TMC2    C6  856   2.072   4.305   0.080 -0.3380  0.0744  0.0695
   55TMC2     C  857   2.068   4.730   0.093 -0.5683 -0.3971 -0.0171
   55TMC2     O  858   2.067   0.048   0.205  0.1448  0.6222  0.3567
   55TMC2     H  859   2.069   4.570  17.612  2.2291  1.0814  0.4303
   55TMC2    H1  860   2.119   4.568   0.296  1.0544 -0.1417 -0.2785
   55TMC2    H2  861   2.071   4.197   0.073  0.3691  0.0218  0.7892
   55TMC2    C7  862   2.100   4.289   0.318 -0.4530 -0.1914  0.1967
   55TMC2    C8  863   2.055   4.316  17.574  0.0494 -0.5450 -0.6677
   55TMC2    O1  864   2.127   4.172   0.309 -0.1141  0.0439  0.2551
   55TMC2    O2  865   2.087   4.199  17.567 -0.3187  0.0910 -0.4045
   55TMC2    O5  866   1.938   4.358  17.527  0.4703 -0.1431 -0.2695
   55TMC2    H5  867   1.895   4.433  17.574  1.1364 -0.3879  0.7312
   56MPD2     C  868   2.085   0.252  17.561  0.8437 -0.6879  0.0233
   56MPD2    C1  869   2.051   0.195  17.684 -0.6926 -0.6406  0.5142
   56MPD2    C2  870   1.996   0.278   0.042 -0.6488 -0.2381  0.1083
   56MPD2    C3  871   1.978   0.415   0.023 -0.3034 -0.3079  0.2046
   56MPD2    C4  872   2.024   0.476  17.641 -0.0311  0.7150  0.1709
   56MPD2    C5  873   2.078   0.388  17.550  0.1662  0.4338  0.0911
   56MPD2     H  874   1.977   0.237   0.140 -1.0434 -0.2843  0.0148
   56MPD2    H1  875   2.032   0.582  17.620  0.9595  0.6686  0.3494
   56MPD2    H2  876   2.132   0.192  17.485  0.5436 -1.1898  0.2366
   56MPD2    H3  877   2.124   0.432  17.462  0.4289 -0.3452 -0.1626
   56MPD2     N  878   1.922   0.490   0.126  0.4907  0.0149 -0.4798
   56MPD2    H5  879   1.875   0.445   0.204  0.6133  0.6236 -0.0552
   56MPD2    N1  880   2.067   0.057  17.708  0.4972 -0.3664  0.0320
   56MPD2    H7  881   2.096   0.002  17.628 -1.9239 -2.9442  0.9422
   57TMC2    C1  882   1.484   0.374  13.666  0.2427 -0.1054 -0.1191
   57TMC2    C2  883   1.487   0.239  13.676 -0.2281 -0.3947 -1.1911
   57TMC2    C3  884   1.572   0.168  13.595 -0.1219  0.0838 -0.1687
   57TMC2    C4  885   1.556   0.440  13.564  0.1766 -0.1484  0.2413
   57TMC2    C5  886   1.654   0.365  13.502  0.0113 -0.7203 -0.1543
   57TMC2    C6  887   1.657   0.226  13.511  0.4220  0.0020  0.7951
   57TMC2     C  888   1.401   0.453  13.745 -0.4672  0.6962 -0.2475
   57TMC2     O  889   1.367   0.558  13.698 -0.3930  0.4319  0.1641
   57TMC2     H  890   1.429   0.194  13.756  2.0260  1.5443  1.5280
   57TMC2    H1  891   1.561   0.548  13.558 -0.2122 -0.1686 -0.4670
   57TMC2    H2  892   1.729   0.167  13.455  0.1519  0.6808 -0.2599
   57TMC2    C7  893   1.741   0.439  13.418 -0.1439 -0.2353  0.1147
   57TMC2    C8  894   1.562   0.022  13.583 -0.1289 -0.4640  0.0350
   57TMC2    O1  895   1.698   0.544  13.375  0.1937  0.0053  0.0021
   57TMC2    O2  896   1.661   4.685  13.568 -0.0619  0.2525  0.2535
   57TMC2    O5  897   1.444   4.720  13.640  0.0185  0.5996  0.0955
   57TMC2    H5  898   1.369   0.048  13.641 -1.4772 -1.2141  2.0948
   58MPD2     C  899   1.071   0.497  14.123  0.4573  0.2653 -0.1784
   58MPD2    C1  900   1.109   0.590  14.026  0.4189 -0.5456  0.0444
   58MPD2    C2  901   1.223   0.560  13.954  0.0813 -0.1109  0.5808
   58MPD2    C3  902   1.279   0.438  13.953 -0.5062  0.5496  0.1954
   58MPD2    C4  903   1.234   0.345  14.043 -0.6035 -0.2528  0.1879
   58MPD2    C5  904   1.142   0.382  14.135 -1.2734  0.5605  0.1923
   58MPD2     H  905   1.258   0.644  13.896 -0.1504  0.6248  1.5094
   58MPD2    H1  906   1.290   0.252  14.051 -0.7314 -0.2496  1.1182
   58MPD2    H2  907   0.989   0.505  14.194  0.4935 -1.1890  0.0344
   58MPD2    H3  908   1.118   0.306  14.208 -0.6260  0.8320  0.6777
   58MPD2     N  909   1.378   0.400  13.865  0.3046  0.0447  0.3106
   58MPD2    H5  910   1.426   0.313  13.884  0.7954  0.4494  0.9221
   58MPD2    N1  911   1.045   0.712  14.003 -1.0550 -0.0474 -0.2597
   58MPD2    H7  912   1.087   0.770  13.931 -1.1616 -0.7396 -0.8825
   59TMC2    C1  913   3.965   1.321  12.677  0.5040  0.0250  0.1266
   59TMC2    C2  914   3.963   1.192  12.730  0.1650 -0.7169 -0.1060
   59TMC2    C3  915   3.856   1.121  12.700  0.1974 -0.7399 -0.3311
   59TMC2    C4  916   3.874   1.375  12.595  0.4386 -0.8934  0.2081
   59TMC2    C5  917   3.768   1.297  12.567  0.0499  0.5354  0.0422
   59TMC2    C6  918   3.754   1.172  12.628 -0.1815 -0.4827  0.1268
   59TMC2     C  919   4.065   1.413  12.721 -0.2264  1.0150  0.0293
   59TMC2     O  920   4.109   1.484  12.633  0.8151 -0.0848 -0.3615
   59TMC2     H  921   4.052   1.154  12.780  2.0349  2.3299 -1.0917
   59TMC2    H1  922   3.894   1.465  12.539  0.0873 -0.5168  0.6866
   59TMC2    H2  923   3.664   1.111  12.618 -0.2091 -0.3395 -0.5098
   59TMC2    C7  924   3.658   1.333  12.481  0.0168 -0.7564 -0.2477
   59TMC2    C8  925   3.826   1.004  12.780  0.0496 -0.6092 -0.8350
   59TMC2    O1  926   3.603   1.244  12.419 -0.1450  0.0282 -0.4390
   59TMC2    O2  927   3.752   0.912  12.743 -0.0268 -0.4285  0.1970
   59TMC2    O5  928   3.867   1.011  12.902 -0.2647  0.0526 -0.3443
   59TMC2    H5  929   3.900   1.101  12.922 -1.5423  0.7628 -1.4765
   60MPD2     C  930   4.318   1.541  12.821  0.5232 -0.5839  0.4359
   60MPD2    C1  931   4.242   1.444  12.886  0.0009  0.3245 -0.0002
   60MPD2    C2  932   4.285   1.392  12.998  0.8230  0.2838 -0.7116
   60MPD2    C3  933   4.409   1.433  13.060 -0.6967 -0.0440 -0.0503
   60MPD2    C4  934   4.485   1.536  13.000  0.3537 -0.2116 -0.1187
   60MPD2    C5  935   4.440   1.582  12.876 -0.3175 -0.5572 -0.4613
   60MPD2     H  936   4.222   1.318  13.045 -1.6605  1.2789 -2.4586
   60MPD2    H1  937   4.583   1.568  13.034  0.2877 -1.7439  1.4858
   60MPD2    H2  938   4.280   1.588  12.731 -1.4535 -1.7886  0.6565
   60MPD2    H3  939   4.493   1.652  12.814  0.7730 -1.7175 -0.8253
   60MPD2     N  940   4.460   1.386  13.182 -0.4045  0.0119 -0.8208
   60MPD2    H5  941   4.547   1.423  13.219 -1.7945  0.0779  2.3913
   60MPD2    N1  942   4.122   1.383  12.839  0.0299 -0.2402 -0.2570
   60MPD2    H7  943   4.074   1.317  12.899  0.7907  1.6018  2.3784
   61TMC2    C1  944   2.971   2.316  15.749  0.1500 -0.3791  0.0642
   61TMC2    C2  945   3.016   2.281  15.872 -0.9658  0.2645 -0.3757
   61TMC2    C3  946   2.999   2.369  15.977  0.0680 -0.0750  0.1832
   61TMC2    C4  947   2.905   2.433  15.733 -0.2742 -0.3649  0.0974
   61TMC2    C5  948   2.885   2.516  15.844  0.9928  0.3890  0.6400
   61TMC2    C6  949   2.951   2.491  15.961  0.7914 -0.2629 -0.1912
   61TMC2     C  950   3.008   2.237  15.640  0.5019 -0.0420 -0.3619
   61TMC2     O  951   3.022   2.118  15.659 -0.6075 -0.2631  0.6472
   61TMC2     H  952   3.065   2.186  15.886 -1.2303  0.1403 -0.2997
   61TMC2    H1  953   2.849   2.451  15.642  0.6979  1.9176 -0.0486
   61TMC2    H2  954   2.942   2.564  16.041 -0.5568 -0.8949  0.2251
   61TMC2    C7  955   2.852   2.657  15.818  0.0441 -0.3526  0.7237
   61TMC2    C8  956   3.074   2.337  16.097 -0.2367 -0.1665  0.0595
   61TMC2    O1  957   2.912   2.730  15.894 -0.0237  0.0987  0.0169
   61TMC2    O2  958   3.103   2.223  16.132  0.2842 -0.4777 -0.1286
   61TMC2    O5  959   3.156   2.436  16.104  0.3583 -0.1022  0.1032
   61TMC2    H5  960   3.181   2.487  16.023 -1.0443 -0.5145 -0.5921
   62MPD2     C  961   3.102   2.142  15.360  0.4953 -0.0388  0.2161
   62MPD2    C1  962   3.085   2.269  15.405  0.0875  0.2105  0.0752
   62MPD2    C2  963   3.102   2.367  15.312  0.1334  0.2506  0.2870
   62MPD2    C3  964   3.140   2.338  15.183  0.3057  0.0663 -0.3206
   62MPD2    C4  965   3.176   2.212  15.143 -0.2253  0.2264  0.2360
   62MPD2    C5  966   3.146   2.107  15.233 -0.0135  0.2157  0.4293
   62MPD2     H  967   3.055   2.459  15.348  0.9956  1.1162 -0.7863
   62MPD2    H1  968   3.220   2.196  15.045 -1.8948  0.0884 -0.4786
   62MPD2    H2  969   3.079   2.063  15.431  0.1757  0.1756  0.3517
   62MPD2    H3  970   3.164   2.005  15.201 -3.4572 -0.7221  1.5404
   62MPD2     N  971   3.153   2.439  15.087  0.1270 -0.3074 -0.3441
   62MPD2    H5  972   3.158   2.402  14.992 -1.0781  1.0261 -0.9352
   62MPD2    N1  973   3.045   2.314  15.532  0.7504 -0.1710 -0.0542
   62MPD2    H7  974   3.036   2.413  15.553 -1.1296 -0.2256 -0.6137
   63TMC2    C1  975   3.128   2.539  10.780 -0.4147 -0.1164  0.5861
   63TMC2    C2  976   3.235   2.603  10.830 -0.6500  0.0884 -0.0563
   63TMC2    C3  977   3.227   2.736  10.816 -1.3010  0.6174  0.3895
   63TMC2    C4  978   3.038   2.601  10.701 -0.0782  0.2319 -0.6120
   63TMC2    C5  979   3.025   2.733  10.704 -0.7174  0.1390 -0.6948
   63TMC2    C6  980   3.117   2.806  10.766  0.2615  0.0823 -0.1190
   63TMC2     C  981   3.054   2.445  10.866 -0.3749 -0.3558 -0.2663
   63TMC2     O  982   3.066   2.468  10.986  0.6065  0.1053  0.2429
   63TMC2     H  983   3.318   2.560  10.886 -1.4397 -1.0803  0.2234
   63TMC2    H1  984   2.970   2.543  10.639  1.8707 -2.5993 -0.0647
   63TMC2    H2  985   3.127   2.913  10.755  2.7312 -0.3636 -2.2160
   63TMC2    C7  986   2.925   2.791  10.626 -0.1998 -0.6106 -0.2479
   63TMC2    C8  987   3.343   2.814  10.862  0.1675 -0.0168  0.3673
   63TMC2    O1  988   2.879   2.746  10.524  0.9435  0.5235 -0.5606
   63TMC2    O2  989   3.337   2.927  10.911  0.3917 -0.6042 -0.5172
   63TMC2    O5  990   3.454   2.752  10.824 -0.1528 -0.1832  0.4799
   63TMC2    H5  991   3.444   2.676  10.763  0.1124 -1.3253  1.8591
   64MPD2     C  992   2.814   2.016  10.986 -0.0068  0.0746 -0.0343
   64MPD2    C1  993   2.818   2.020  10.850 -0.3110 -0.0511  0.3102
   64MPD2    C2  994   2.874   2.129  10.792  0.0783  0.4789 -1.0676
   64MPD2    C3  995   2.938   2.222  10.871  0.5712  0.0304  0.5198
   64MPD2    C4  996   2.934   2.213  11.006  0.0974  0.5027 -0.0841
   64MPD2    C5  997   2.867   2.107  11.063 -0.3479 -0.1399 -0.1703
   64MPD2     H  998   2.885   2.135  10.684  1.0288  0.0974 -0.9978
   64MPD2    H1  999   2.986   2.288  11.064  1.5022 -0.9651  0.5793
   64MPD2    H2 1000   2.765   1.935  11.038  2.2111 -1.6136 -0.5847
   64MPD2    H3 1001   2.860   2.103  11.171 -2.2930 -3.4432 -0.4380
   64MPD2     N 1002   3.006   2.330  10.810  0.2278 -0.1464 -0.4304
   64MPD2    H5 1003   3.007   2.331  10.709  1.5781  0.0431 -0.4106
   64MPD2    N1 1004   2.764   1.928  10.765  0.9097 -0.8900 -0.0367
   64MPD2    H7 1005   2.780   1.932  10.665 -0.4446  0.0271 -0.2061
   65TMC2    C1 1006   4.187   1.949  15.950 -0.2212 -0.5671  0.3384
   65TMC2    C2 1007   4.316   1.923  15.995 -0.0686 -0.1081 -0.6157
   65TMC2    C3 1008   4.419   2.003  15.951 -0.8670  0.3896 -0.6451
   65TMC2    C4 1009   4.158   2.051  15.860 -0.0848  0.5325 -0.4736
   65TMC2    C5 1010   4.258   2.129  15.817 -0.2841 -0.2243  0.0221
   65TMC2    C6 1011   4.391   2.109  15.861  0.2906 -0.4724  0.2704
   65TMC2     C 1012   4.087   1.860  15.985  0.4812 -0.0975  0.5375
   65TMC2     O 1013   4.104   1.797  16.092 -0.0667 -0.7066 -0.7492
   65TMC2     H 1014   4.331   1.833  16.053 -1.0097  1.5504  2.1736
   65TMC2    H1 1015   4.055   2.078  15.839  0.0159  2.0369  0.9877
   65TMC2    H2 1016   4.473   2.173  15.832  1.2150 -1.6433  0.3125
   65TMC2    C7 1017   4.220   2.255  15.764 -0.1115 -0.5402 -0.5416
   65TMC2    C8 1018   4.530   2.023  16.048  0.0520  0.0149 -0.4263
   65TMC2    O1 1019   4.310   2.307  15.698  0.8102  0.0616 -0.2472
   65TMC2    O2 1020   4.578   2.133  16.066  0.3728  0.3149 -0.1420
   65TMC2    O5 1021   4.548   1.905  16.107  0.2074 -0.4333  0.0461
   65TMC2    H5 1022   4.499   1.829  16.070  2.7810 -1.5619 -1.0015
   66MPD2     C 1023   3.853   1.679  16.006 -0.4945  0.6524 -0.5362
   66MPD2    C1 1024   3.877   1.764  15.897 -0.3064 -0.2195  0.3575
   66MPD2    C2 1025   3.816   1.740  15.779 -0.4995  0.3053 -0.0366
   66MPD2    C3 1026   3.721   1.639  15.772  0.2340  0.5485 -0.5306
   66MPD2    C4 1027   3.685   1.572  15.880  0.1690 -0.2559 -1.0399
   66MPD2    C5 1028   3.755   1.591  16.002  0.3614 -0.5638 -0.1178
   66MPD2     H 1029   3.845   1.804  15.697 -0.2310  0.5024  0.2089
   66MPD2    H1 1030   3.615   1.489  15.883  0.7201 -0.7539 -2.1972
   66MPD2    H2 1031   3.916   1.674  16.094  1.5416 -2.1206 -2.1384
   66MPD2    H3 1032   3.720   1.536  16.088  0.1035  0.5212  0.4724
   66MPD2     N 1033   3.674   1.590  15.646 -0.3659 -0.0708 -0.1267
   66MPD2    H5 1034   3.614   1.509  15.655  1.4140 -1.4453 -0.5519
   66MPD2    N1 1035   3.984   1.860  15.893 -0.0184 -0.6490 -0.9191
   66MPD2    H7 1036   3.988   1.911  15.806 -0.0711  2.6424  1.0038
   67TMC2    C1 1037   4.072   1.257  14.200 -0.1505  0.2188  0.1801
   67TMC2    C2 1038   3.959   1.305  14.253  0.3645 -0.0798 -0.4115
   67TMC2    C3 1039   3.945   1.312  14.387 -0.6405  1.2840 -0.3949
   67TMC2    C4 1040   4.179   1.233  14.277  0.6264  0.9492 -0.4556
   67TMC2    C5 1041   4.157   1.245  14.409 -0.0268  0.0178  0.8196
   67TMC2    C6 1042   4.043   1.286  14.472  0.6351 -0.1870 -0.2257
   67TMC2     C 1043   4.060   1.207  14.060  0.4143  0.3198  0.7080
   67TMC2     O 1044   4.146   1.134  14.012  0.5697 -0.1456  0.5248
   67TMC2     H 1045   3.872   1.326  14.192  1.3531 -1.5678 -2.3364
   67TMC2    H1 1046   4.265   1.185  14.231 -2.4019 -1.8170 -3.2556
   67TMC2    H2 1047   4.023   1.278  14.579 -1.2875 -1.1720 -0.6669
   67TMC2    C7 1048   4.262   1.208  14.498 -0.2676 -0.1971  0.6343
   67TMC2    C8 1049   3.812   1.340  14.434  0.6112  0.2333  0.1922
   67TMC2    O1 1050   4.334   1.115  14.456  0.5207 -0.0345  0.2152
   67TMC2    O2 1051   3.714   1.327  14.359  0.2338  0.3896 -0.0780
   67TMC2    O5 1052   3.818   1.417  14.542  0.0549 -0.2946 -0.2499
   67TMC2    H5 1053   3.906   1.451  14.568 -1.4259  1.4637  2.4952
   68MPD2     C 1054   3.971   1.129  13.779 -0.6028 -0.5657 -0.3967
   68MPD2    C1 1055   3.920   1.235  13.852  0.2622 -0.0739 -1.1236
   68MPD2    C2 1056   3.818   1.316  13.806 -0.5590 -0.2490 -0.2173
   68MPD2    C3 1057   3.780   1.300  13.671  0.0420 -0.2581 -0.5715
   68MPD2    C4 1058   3.838   1.205  13.599 -0.0587  0.2744  0.1682
   68MPD2    C5 1059   3.928   1.119  13.648  0.3605  0.1128  0.4348
   68MPD2     H 1060   3.771   1.398  13.860 -1.2811  1.5715 -3.6444
   68MPD2    H1 1061   3.802   1.191  13.497 -3.4117 -0.5190  1.4413
   68MPD2    H2 1062   4.040   1.059  13.825 -1.8060 -1.7146 -0.3773
   68MPD2    H3 1063   3.967   1.038  13.587 -1.9846 -0.8730  0.2268
   68MPD2     N 1064   3.667   1.368  13.611  0.0426 -0.0570  0.1550
   68MPD2    H5 1065   3.642   1.338  13.517  2.0244  0.8603 -0.6485
   68MPD2    N1 1066   3.957   1.260  13.987  0.6131 -0.3282 -0.7514
   68MPD2    H7 1067   3.911   1.339  14.031 -2.8793 -3.3947  1.1621
   69TMC2    C1 1068   1.412   2.798  12.562 -0.1727  0.1373  0.3729
   69TMC2    C2 1069   1.326   2.881  12.508  0.2054 -0.1297  0.2250
   69TMC2    C3 1070   1.389   2.972  12.430 -0.3312  0.2636 -0.4756
   69TMC2    C4 1071   1.548   2.805  12.563 -0.9390  0.0779  0.0455
   69TMC2    C5 1072   1.604   2.880  12.460 -0.0667 -0.2371 -0.0159
   69TMC2    C6 1073   1.522   2.963  12.391  0.0533  0.0972 -0.5803
   69TMC2     C 1074   1.355   2.684  12.641  0.2431  0.1254 -0.1830
   69TMC2     O 1075   1.427   2.585  12.645  0.3848 -0.4445 -0.0019
   69TMC2     H 1076   1.218   2.883  12.510  0.1081 -3.5973 -0.6960
   69TMC2    H1 1077   1.607   2.740  12.626 -1.0742 -0.8164 -0.7478
   69TMC2    H2 1078   1.564   3.041  12.329  0.9703  0.4654  0.4885
   69TMC2    C7 1079   1.723   2.826  12.405  0.4047 -0.0230 -0.6027
   69TMC2    C8 1080   1.326   3.092  12.370  0.6797 -0.2583 -0.3881
   69TMC2    O1 1081   1.765   2.725  12.459 -0.0550  0.0434  0.5080
   69TMC2    O2 1082   1.369   3.164  12.279 -0.2195 -0.0290 -0.5807
   69TMC2    O5 1083   1.212   3.114  12.435  0.5958  0.1782  0.1954
   69TMC2    H5 1084   1.184   3.054  12.508 -0.5298 -0.3072 -0.6416
   70MPD2     C 1085   1.045   2.684  12.833  0.0213 -0.7793  0.5301
   70MPD2    C1 1086   1.148   2.626  12.770  0.0913 -0.2875  0.2553
   70MPD2    C2 1087   1.173   2.487  12.773 -0.3041 -0.0731 -0.0389
   70MPD2    C3 1088   1.101   2.415  12.863  0.3374  0.2848 -0.6448
   70MPD2    C4 1089   0.997   2.475  12.931  0.6039 -0.1763  0.6488
   70MPD2    C5 1090   0.962   2.607  12.912 -0.4959 -0.2633  0.1618
   70MPD2     H 1091   1.248   2.442  12.709  0.4276 -0.7090  1.2646
   70MPD2    H1 1092   0.936   2.431  13.008 -0.0960 -2.7254 -1.3381
   70MPD2    H2 1093   1.020   2.789  12.831 -1.5340 -1.1800 -1.0869
   70MPD2    H3 1094   0.894   2.649  12.985 -0.7957 -0.0668 -0.2322
   70MPD2     N 1095   1.117   2.277  12.892 -0.1180 -0.8424  0.0940
   70MPD2    H5 1096   1.046   2.244  12.956 -0.7204  0.2373 -0.0161
   70MPD2    N1 1097   1.234   2.717  12.701  0.5278 -0.1546  0.0162
   70MPD2    H7 1098   1.194   2.811  12.699  0.2817 -0.2708 -0.6202
   71TMC2    C1 1099   2.982   2.509   0.976  0.1661  0.1616  0.4553
   71TMC2    C2 1100   3.051   2.592   1.064  0.3365  0.6044  0.2211
   71TMC2    C3 1101   3.071   2.534   1.190  0.4134  0.3502  0.2908
   71TMC2    C4 1102   2.911   2.404   1.015  0.1987 -1.0276 -0.6940
   71TMC2    C5 1103   2.943   2.348   1.137 -1.1146  0.0001  0.5184
   71TMC2    C6 1104   3.026   2.410   1.225  0.1599 -0.4559  0.6394
   71TMC2     C 1105   2.959   2.563   0.838 -0.6502  0.4559  0.4659
   71TMC2     O 1106   2.990   2.680   0.818  0.2742 -0.2833 -0.7915
   71TMC2     H 1107   3.115   2.670   1.026  3.1654 -0.8894  1.9599
   71TMC2    H1 1108   2.851   2.346   0.946 -2.1875 -1.6078  1.8613
   71TMC2    H2 1109   3.041   2.374   1.327  1.2955 -1.9619 -0.0590
   71TMC2    C7 1110   2.901   2.212   1.171  0.1370  0.5877  0.3329
   71TMC2    C8 1111   3.104   2.624   1.301 -0.5000 -1.0364  0.0237
   71TMC2    O1 1112   2.970   2.158   1.255  0.1445 -0.5141 -0.3596
   71TMC2    O2 1113   3.115   2.582   1.413  0.2072  0.3036  0.2683
   71TMC2    O5 1114   3.057   2.748   1.263 -0.1327  0.2370  0.2553
   71TMC2    H5 1115   3.048   2.755   1.165 -0.0130 -1.9309  0.0687
   72MPD2     C 1116   2.817   2.553   0.354 -0.3217  0.2881  0.9337
   72MPD2    C1 1117   2.824   2.659   0.440  0.3271 -0.3372 -0.3513
   72MPD2    C2 1118   2.868   2.635   0.573  0.2161  0.4417  0.3042
   72MPD2    C3 1119   2.887   2.506   0.618  0.6426 -0.2243 -0.1168
   72MPD2    C4 1120   2.871   2.405   0.528  0.0974  0.4981  0.3630
   72MPD2    C5 1121   2.847   2.431   0.397  0.0716  0.9425  0.5501
   72MPD2     H 1122   2.867   2.720   0.640 -1.1779  1.9740 -1.6472
   72MPD2    H1 1123   2.877   2.301   0.557  0.3484  0.9191  1.8639
   72MPD2    H2 1124   2.807   2.553   0.246  0.0326  0.1410  0.9004
   72MPD2    H3 1125   2.830   2.346   0.332 -1.9954  0.7960  1.2787
   72MPD2     N 1126   2.917   2.471   0.753  0.7789  0.0766  0.5773
   72MPD2    H5 1127   2.896   2.374   0.773  0.0037 -0.2161 -1.5873
   72MPD2    N1 1128   2.801   2.796   0.399 -0.3780 -0.0006 -0.2690
   72MPD2    H7 1129   2.793   2.869   0.469 -1.2274 -0.3094 -0.0377
   73TMC2    C1 1130   3.067   0.091  13.943 -0.2847  0.4592  0.7665
   73TMC2    C2 1131   3.026   0.108  14.072 -0.4351 -0.4419  0.4368
   73TMC2    C3 1132   3.086   0.037  14.169 -0.5300 -0.0869  0.2935
   73TMC2    C4 1133   3.163   4.725  13.919 -0.1234 -0.8750 -0.2175
   73TMC2    C5 1134   3.224   4.659  14.019 -0.5071  0.4641  0.2140
   73TMC2    C6 1135   3.183   4.675  14.148 -0.3093 -0.1159  0.5560
   73TMC2     C 1136   3.108   0.209  13.881 -1.1367 -0.5911  0.4193
   73TMC2     O 1137   3.228   0.208  13.856  0.4943 -0.4109  0.4585
   73TMC2     H 1138   2.943   0.176  14.086  1.2357  1.5351  0.7692
   73TMC2    H1 1139   3.195   4.705  13.817 -0.1798  1.9271 -0.7806
   73TMC2    H2 1140   3.242   4.649  14.235  0.1203  0.3851  0.4120
   73TMC2    C7 1141   3.370   4.660  14.020  0.1326  0.6035 -0.0888
   73TMC2    C8 1142   3.077   0.089  14.304  0.1191  1.1316  0.6941
   73TMC2    O1 1143   3.430   4.579  14.088 -0.2936  0.5948  0.3319
   73TMC2    O2 1144   3.172   0.088  14.380 -0.3493 -0.1175 -0.4580
   73TMC2    O5 1145   2.960   0.146  14.324 -0.5036 -0.3093  0.1481
   73TMC2    H5 1146   2.899   0.113  14.255 -3.8603  0.1906  2.8892
   74MPD2     C 1147   3.047   0.605  13.577  0.4746  0.1481 -0.2825
   74MPD2    C1 1148   3.161   0.565  13.648 -0.1426 -0.0576  0.0473
   74MPD2    C2 1149   3.145   0.458  13.732 -0.4029  0.1954  0.1272
   74MPD2    C3 1150   3.029   0.393  13.739 -0.7876  0.6515 -0.0562
   74MPD2    C4 1151   2.929   0.419  13.659 -0.0131  0.0950 -0.8059
   74MPD2    C5 1152   2.936   0.526  13.571 -0.1512 -0.5200  0.2974
   74MPD2     H 1153   3.231   0.423  13.787  0.9594  0.9925 -1.4900
   74MPD2    H1 1154   2.838   0.361  13.649 -0.4789  0.6898 -0.0086
   74MPD2    H2 1155   3.043   0.695  13.517  1.3290  0.0834 -0.4336
   74MPD2    H3 1156   2.842   0.559  13.530  0.7438  0.6158 -0.8492
   74MPD2     N 1157   3.010   0.282  13.825  0.6904 -0.7962 -0.6716
   74MPD2    H5 1158   2.912   0.255  13.834  1.1273 -1.4721  2.0377
   74MPD2    N1 1159   3.287   0.632  13.636 -0.4110  0.8455 -0.5711
   74MPD2    H7 1160   3.286   0.714  13.577  1.6583  0.9259 -0.4875
   75TMC2    C1 1161   3.476   1.494  13.591 -0.5255 -0.2415  0.7468
   75TMC2    C2 1162   3.400   1.609  13.619 -0.8633 -0.0743  0.0772
   75TMC2    C3 1163   3.285   1.637  13.545 -1.0259  1.1427 -0.6269
   75TMC2    C4 1164   3.436   1.415  13.484 -0.0080 -0.1686  0.8135
   75TMC2    C5 1165   3.322   1.446  13.411  0.1086 -0.7306  0.3870
   75TMC2    C6 1166   3.244   1.556  13.440  0.3564  0.7355 -0.0828
   75TMC2     C 1167   3.587   1.460  13.675 -0.9560  0.3559  0.3419
   75TMC2     O 1168   3.610   1.528  13.772  0.2856  0.2873  0.8290
   75TMC2     H 1169   3.444   1.685  13.683  0.3146 -1.6256  1.1324
   75TMC2    H1 1170   3.501   1.354  13.422 -1.7530 -0.0644 -1.1230
   75TMC2    H2 1171   3.164   1.594  13.377 -0.7041 -2.1665 -0.4758
   75TMC2    C7 1172   3.277   1.351  13.307  0.1532 -0.4936  0.1728
   75TMC2    C8 1173   3.240   1.775  13.543  0.1983  0.3351 -0.1404
   75TMC2    O1 1174   3.203   1.389  13.216  0.7458 -0.1751 -1.1143
   75TMC2    O2 1175   3.213   1.831  13.435 -0.6953  0.3361 -0.3823
   75TMC2    O5 1176   3.230   1.827  13.670 -0.1189 -0.1938  0.0045
   75TMC2    H5 1177   3.263   1.766  13.739 -2.5084  2.2961  3.3190
   76TMC2    C1 1178   2.592   1.537  12.578 -0.1820  0.2327 -0.7822
   76TMC2    C2 1179   2.514   1.433  12.529 -0.6351  0.1447 -0.3329
   76TMC2    C3 1180   2.544   1.305  12.568 -0.4246 -0.4857  0.0847
   76TMC2    C4 1181   2.704   1.510  12.658  0.2151 -0.2696 -0.6105
   76TMC2    C5 1182   2.711   1.385  12.708  0.2040  0.3599  0.1120
   76TMC2    C6 1183   2.629   1.283  12.672  0.0873  0.0885  0.1912
   76TMC2     C 1184   2.576   1.662  12.513 -0.1267  0.4652  0.1036
   76TMC2     O 1185   2.502   1.669  12.417 -0.4564  0.1258  0.7687
   76TMC2     H 1186   2.467   1.447  12.432  0.1414  1.2470 -0.5551
   76TMC2    H1 1187   2.786   1.578  12.679 -0.1885  0.3058 -0.9208
   76TMC2    H2 1188   2.624   1.191  12.729 -0.0969  0.3970  0.6707
   76TMC2    C7 1189   2.784   1.354  12.829 -0.2905  0.1189 -0.9660
   76TMC2    C8 1190   2.475   1.197  12.499  0.6212  0.1016  0.4459
   76TMC2    O1 1191   2.822   1.235  12.833 -0.1298  0.1207  0.0506
   76TMC2    O2 1192   2.373   1.223  12.434  0.1081  0.1584 -0.2643
   76TMC2    O5 1193   2.580   1.126  12.450  0.2304  0.0549  0.7032
   76TMC2    H5 1194   2.668   1.153  12.484  1.6589 -1.6970 -1.5988
   77MPD2     C 1195   2.643   2.171  12.493  0.3460 -0.4344  0.5402
   77MPD2    C1 1196   2.547   2.089  12.437  0.2698 -0.2509 -0.1662
   77MPD2    C2 1197   2.554   1.950  12.451  0.3231 -1.0392 -0.0877
   77MPD2    C3 1198   2.651   1.899  12.540 -0.1023 -1.1387  0.4098
   77MPD2    C4 1199   2.740   1.994  12.602 -0.6605  0.1934  0.5493
   77MPD2    C5 1200   2.740   2.123  12.575 -0.6174 -1.0104 -0.1695
   77MPD2     H 1201   2.477   1.889  12.406  1.1936 -1.7740 -0.5553
   77MPD2    H1 1202   2.811   1.960  12.677 -1.0886  0.0593  0.8935
   77MPD2    H2 1203   2.635   2.279  12.491 -2.3446 -0.5943  2.7849
   77MPD2    H3 1204   2.817   2.187  12.616 -1.6247 -0.3046  0.6206
   77MPD2     N 1205   2.654   1.757  12.569 -0.2175  0.2484 -0.4132
   77MPD2    H5 1206   2.690   1.724  12.658 -1.3825 -1.1292 -0.4472
   77MPD2    N1 1207   2.444   2.147  12.365 -0.1281 -0.1033  0.0983
   77MPD2    H7 1208   2.447   2.249  12.359 -1.0088 -0.1060 -0.4831
   78TMC2    C1 1209   3.601   1.449   1.334  0.0157  0.3053 -0.2669
   78TMC2    C2 1210   3.599   1.319   1.289  0.1742  0.0217  0.0338
   78TMC2    C3 1211   3.552   1.300   1.158 -0.3459  0.0397 -0.1612
   78TMC2    C4 1212   3.565   1.555   1.254  0.3650  0.4099  0.2225
   78TMC2    C5 1213   3.499   1.527   1.143 -0.4822  0.0161  0.3490
   78TMC2    C6 1214   3.511   1.408   1.084  0.0901 -0.0295  0.0990
   78TMC2     C 1215   3.663   1.482   1.461 -0.4981 -0.0262  0.9458
   78TMC2     O 1216   3.693   1.599   1.478  0.1739 -0.2220  0.3041
   78TMC2     H 1217   3.609   1.234   1.355  1.9008  0.1288 -0.0935
   78TMC2    H1 1218   3.558   1.647   1.311  2.2389  0.2404  0.7515
   78TMC2    H2 1219   3.460   1.383   0.991  1.3171  0.3584 -0.6717
   78TMC2    C7 1220   3.462   1.646   1.069 -0.1249  0.1572  0.1910
   78TMC2    C8 1221   3.522   1.162   1.111  0.4002 -0.3209 -0.5826
   78TMC2    O1 1222   3.506   1.753   1.104 -0.0423 -0.4627 -0.6311
   78TMC2    O2 1223   3.441   1.138   1.025 -0.3451  0.1297  0.2660
   78TMC2    O5 1224   3.621   1.079   1.162  0.1003 -0.6081 -0.3525
   78TMC2    H5 1225   3.690   1.119   1.220 -0.8616 -0.8700  0.9902
   79MPD1     C 1226   3.742   1.425   1.956 -0.0236 -0.0716 -0.0387
   79MPD1    C1 1227   3.793   1.516   1.872 -0.3769 -0.1053  0.4706
   79MPD1    C2 1228   3.763   1.503   1.739 -0.0805 -0.5204  0.5392
   79MPD1    C3 1229   3.693   1.394   1.687  1.2738 -0.4490 -0.1196
   79MPD1    C4 1230   3.656   1.297   1.776  0.1575  0.3593 -0.6170
   79MPD1    C5 1231   3.683   1.310   1.910 -0.8459  0.0970 -0.3098
   79MPD1     H 1232   3.799   1.583   1.675 -0.3340  1.0286  2.3479
   79MPD1    H1 1233   3.598   1.210   1.747  1.9315 -0.5742 -1.3624
   79MPD1    H2 1234   3.755   1.424   2.063  1.0606  1.0518 -0.1579
   79MPD1    H3 1235   3.663   1.240   1.991  2.8816  0.9201  1.3222
   79MPD1     N 1236   3.655   1.375   1.551  0.4590  1.2167 -0.5445
   79MPD1    H5 1237   3.595   1.295   1.530 -1.6913  2.1019  2.1342
   79MPD1    N1 1238   3.832   1.636   1.917  0.0389  0.2682  0.5732
   79MPD1    H6 1239   3.874   1.622   2.008  0.3998  1.9716  0.6535
   79MPD1    H7 1240   3.898   1.686   1.858  0.2385  1.1378  1.5408
   80TMC2    C1 1241   0.544   1.543  12.080 -0.1672  0.5857 -0.1503
   80TMC2    C2 1242   0.503   1.671  12.056  0.0973 -0.5057  0.7153
   80TMC2    C3 1243   0.456   1.729  12.171 -0.0390  0.2834  0.0342
   80TMC2    C4 1244   0.538   1.475  12.201 -0.4021 -0.8738 -0.3093
   80TMC2    C5 1245   0.492   1.540  12.310  0.2823  0.4343  0.2386
   80TMC2    C6 1246   0.449   1.670  12.300  0.0241  0.0800 -1.1898
   80TMC2     C 1247   0.623   1.475  11.970 -0.1701 -0.1231 -0.0397
   80TMC2     O 1248   0.613   1.351  11.959  0.3800 -0.3969 -0.0347
   80TMC2     H 1249   0.510   1.716  11.958 -0.9789  0.5012  1.1128
   80TMC2    H1 1250   0.570   1.372  12.212  2.0086  0.1672  2.2898
   80TMC2    H2 1251   0.423   1.731  12.387 -0.9967 -0.8845 -0.8130
   80TMC2    C7 1252   0.516   1.482  12.444  0.0750  0.0712 -0.7212
   80TMC2    C8 1253   0.399   1.861  12.154 -0.5760 -0.6948 -0.0749
   80TMC2    O1 1254   0.428   1.512  12.525 -0.6489  0.0588 -0.3153
   80TMC2    O2 1255   0.319   1.883  12.064  0.0085  0.4447  0.5651
   80TMC2    O5 1256   0.480   1.946  12.227  0.6565  0.0154 -0.7671
   80TMC2    H5 1257   0.536   1.886  12.280 -4.1326 -2.4411  1.5768
   81MPD2     C 1258   0.781   1.397  11.730 -0.3246  0.6102  0.4210
   81MPD2    C1 1259   0.788   1.515  11.797 -0.3974  1.0421  0.2907
   81MPD2    C2 1260   0.894   1.599  11.778  0.0111  0.3148 -0.2963
   81MPD2    C3 1261   0.995   1.566  11.691  0.0378  0.0495 -0.0346
   81MPD2    C4 1262   0.977   1.459  11.614 -0.0086  0.0957 -0.1482
   81MPD2    C5 1263   0.870   1.373  11.630  0.6896  0.0782 -0.2332
   81MPD2     H 1264   0.897   1.691  11.836 -0.5349  0.4051 -0.4124
   81MPD2    H1 1265   1.053   1.431  11.541 -2.1050 -0.5565 -2.0684
   81MPD2    H2 1266   0.695   1.332  11.738 -0.3991  0.5582 -0.8802
   81MPD2    H3 1267   0.883   1.280  11.577  1.1969  0.6555 -1.1211
   81MPD2     N 1268   1.111   1.648  11.667  0.0920 -0.5485 -0.1583
   81MPD2    H5 1269   1.180   1.597  11.612 -0.9866 -2.6673  0.4251
   81MPD2    N1 1270   0.700   1.560  11.900 -0.3291 -0.0624 -0.1093
   81MPD2    H7 1271   0.711   1.654  11.936  0.4941  0.3898 -1.5564
   82TMC2    C1 1272   4.044   0.921  11.005 -0.2540 -0.9682  0.0136
   82TMC2    C2 1273   4.027   1.009  11.108 -0.1184  0.3086 -0.3714
   82TMC2    C3 1274   3.992   0.959  11.232  0.3561 -0.2555 -0.0457
   82TMC2    C4 1275   4.034   0.789  11.023  0.2446 -0.2612  0.9464
   82TMC2    C5 1276   3.984   0.741  11.141 -0.1307  0.8428  0.4106
   82TMC2    C6 1277   3.977   0.826  11.251 -0.4637  0.4689 -0.2988
   82TMC2     C 1278   4.050   0.982  10.872  0.0777  0.4334 -0.1556
   82TMC2     O 1279   4.001   0.919  10.779  0.9143  0.2225 -0.3815
   82TMC2     H 1280   4.014   1.115  11.094 -0.9665  0.3006  0.3214
   82TMC2    H1 1281   4.047   0.721  10.940 -2.1398 -1.2144  1.3351
   82TMC2    H2 1282   3.942   0.779  11.342  2.1089 -0.5410  0.1658
   82TMC2    C7 1283   3.974   0.595  11.174 -0.3175  0.5709 -0.0852
   82TMC2    C8 1284   3.954   1.052  11.339 -1.0174 -0.8485 -0.1936
   82TMC2    O1 1285   4.000   0.559  11.289  0.2278 -0.0520  0.1234
   82TMC2    O2 1286   3.934   1.171  11.318 -0.6957 -0.0250 -0.2016
   82TMC2    O5 1287   3.968   0.994  11.456  0.1471  0.2571 -0.2549
   82TMC2    H5 1288   4.012   0.909  11.436 -0.3800 -1.0433  4.2565
   83MPD2     C 1289   4.065   1.433  10.623  0.4805 -1.3862  0.1714
   83MPD2    C1 1290   3.965   1.344  10.628 -0.4355  0.4825 -0.0469
   83MPD2    C2 1291   3.986   1.218  10.694  0.3125 -0.0175  0.4742
   83MPD2    C3 1292   4.104   1.204  10.769  0.4642  0.1648  0.3880
   83MPD2    C4 1293   4.197   1.301  10.780 -0.0888 -0.2220 -0.5534
   83MPD2    C5 1294   4.179   1.417  10.705 -0.0494 -0.0457 -0.7312
   83MPD2     H 1295   3.915   1.136  10.694 -0.5850  0.7702 -0.8168
   83MPD2    H1 1296   4.283   1.282  10.843 -1.6052  1.4080  2.0507
   83MPD2    H2 1297   4.053   1.521  10.561  2.2558 -0.6241  0.9246
   83MPD2    H3 1298   4.259   1.490  10.701 -0.8423  0.7599 -2.0342
   83MPD2     N 1299   4.113   1.106  10.868 -0.1140 -0.9479 -0.4606
   83MPD2    H5 1300   4.178   1.121  10.944 -2.2140 -0.4859  1.2670
   83MPD2    N1 1301   3.850   1.380  10.555 -0.4843  0.6133  0.9441
   83MPD2    H7 1302   3.853   1.472  10.514  0.1106  0.0119 -0.3780
   84TMC2    C1 1303   0.902   0.636  11.108  0.0327 -0.7052  0.3976
   84TMC2    C2 1304   0.963   0.538  11.179  1.0981 -0.8590 -0.4050
   84TMC2    C3 1305   1.087   0.502  11.130  0.4909  0.2564 -1.1760
   84TMC2    C4 1306   0.952   0.684  10.993 -0.5005 -0.6358  0.1959
   84TMC2    C5 1307   1.061   0.631  10.940  0.1715 -0.3032 -0.3040
   84TMC2    C6 1308   1.137   0.545  11.008  0.5542 -0.3757  0.2312
   84TMC2     C 1309   0.764   0.648  11.122  0.4715 -1.0817  0.1614
   84TMC2     O 1310   0.710   0.757  11.095  0.1875 -0.1571 -0.1128
   84TMC2     H 1311   0.925   0.499  11.272 -3.7028 -3.5104 -3.4741
   84TMC2    H1 1312   0.890   0.761  10.948  1.8605  0.7661 -0.6578
   84TMC2    H2 1313   1.231   0.503  10.974 -1.4404 -2.8620 -2.2439
   84TMC2    C7 1314   1.104   0.678  10.811  0.0226 -0.0422 -0.4852
   84TMC2    C8 1315   1.186   0.430  11.203 -0.4610  1.0054  0.4443
   84TMC2    O1 1316   1.042   0.767  10.760 -0.1237 -0.4684  0.0668
   84TMC2    O2 1317   1.297   0.484  11.212  0.3916 -0.3350 -0.5320
   84TMC2    O5 1318   1.111   0.370  11.304  0.1826  0.1582  0.3923
   84TMC2    H5 1319   1.042   0.314  11.264  0.8946  0.4450 -1.2332
   85TMC2    C1 1320   1.424   3.324  15.870  0.2670 -0.2264 -0.6432
   85TMC2    C2 1321   1.297   3.371  15.862  0.5836 -0.1163  0.6737
   85TMC2    C3 1322   1.276   3.448  15.754  0.7190 -0.1297 -0.3404
   85TMC2    C4 1323   1.531   3.350  15.779  0.3680  0.1885  0.8991
   85TMC2    C5 1324   1.499   3.424  15.664 -0.3002 -0.1976 -0.1689
   85TMC2    C6 1325   1.366   3.462  15.644 -0.0311 -0.3992  0.2654
   85TMC2     C 1326   1.464   3.240  15.976  0.6278 -0.6527  0.6182
   85TMC2     O 1327   1.573   3.244  16.030 -0.0674  0.0504 -0.1461
   85TMC2     H 1328   1.227   3.365  15.945  1.2301 -1.2004  1.1289
   85TMC2    H1 1329   1.626   3.304  15.805 -0.3193 -1.6914  0.0542
   85TMC2    H2 1330   1.333   3.503  15.549 -0.1981  2.5918  1.6311
   85TMC2    C7 1331   1.587   3.417  15.552  0.3101  0.1998 -0.1716
   85TMC2    C8 1332   1.143   3.487  15.732 -0.2852  0.0280  0.6923
   85TMC2    O1 1333   1.681   3.341  15.564 -0.8272  0.2202  0.0854
   85TMC2    O2 1334   1.048   3.443  15.792 -0.0065  0.5677  0.2726
   85TMC2    O5 1335   1.150   3.617  15.706 -0.0308  0.7304  0.2596
   85TMC2    H5 1336   1.242   3.645  15.686  0.6972 -1.9214 -0.1128
   86MPD2     C 1337   1.300   2.880  16.305  0.4792 -0.4209 -0.0388
   86MPD2    C1 1338   1.210   2.885  16.199  0.0057  0.2267 -0.7402
   86MPD2    C2 1339   1.242   2.969  16.098  0.3495 -0.5758 -0.0172
   86MPD2    C3 1340   1.358   3.054  16.103  0.0034 -0.2490 -0.3162
   86MPD2    C4 1341   1.440   3.051  16.213  0.4040 -0.3292  0.0583
   86MPD2    C5 1342   1.410   2.960  16.308  0.0404  0.0853  0.2886
   86MPD2     H 1343   1.174   2.963  16.014 -0.2629 -0.8409  0.4940
   86MPD2    H1 1344   1.527   3.113  16.228 -0.9815  2.2794 -2.4875
   86MPD2    H2 1345   1.283   2.807  16.383 -0.1519  0.6160  0.7967
   86MPD2    H3 1346   1.474   2.961  16.396 -0.5553 -1.9850  0.7505
   86MPD2     N 1347   1.370   3.147  15.993  0.0808 -0.7468 -0.1827
   86MPD2    H5 1348   1.294   3.142  15.927  0.1638  2.2241 -0.4813
   86MPD2    N1 1349   1.093   2.805  16.190  0.8533  0.2387 -0.4066
   86MPD2    H7 1350   1.041   2.806  16.103  0.6996 -0.1914 -0.3184
   87TMC2    C1 1351   3.337   0.763   1.196 -0.1801 -0.6111 -0.2356
   87TMC2    C2 1352   3.349   0.700   1.316  0.3577 -0.2914  0.7197
   87TMC2    C3 1353   3.316   0.777   1.427  0.1773  0.3520  0.2123
   87TMC2    C4 1354   3.285   0.889   1.185 -0.2842  0.4214  0.5926
   87TMC2    C5 1355   3.247   0.954   1.299  0.7441 -0.0541  0.3538
   87TMC2    C6 1356   3.272   0.900   1.420 -0.0647 -1.0591  0.1175
   87TMC2     C 1357   3.313   0.695   1.075  0.4292 -0.0443  0.0044
   87TMC2     O 1358   3.348   0.755   0.971  0.2372  0.1906  0.8491
   87TMC2     H 1359   3.388   0.600   1.320 -1.6672 -1.0197  2.1010
   87TMC2    H1 1360   3.296   0.948   1.094 -0.2423 -1.1187 -0.3960
   87TMC2    H2 1361   3.280   0.966   1.506 -0.3489 -0.6534 -0.1676
   87TMC2    C7 1362   3.215   1.096   1.274 -0.5104 -0.1878  0.1160
   87TMC2    C8 1363   3.373   0.727   1.545  0.5199 -0.1986 -0.2183
   87TMC2    O1 1364   3.148   1.119   1.175  0.0753  0.1210  0.8037
   87TMC2    O2 1365   3.456   0.636   1.546 -0.1277  0.7004  0.1130
   87TMC2    O5 1366   3.290   0.752   1.646 -0.1954  0.7017  0.0029
   87TMC2    H5 1367   3.206   0.796   1.620 -0.0967  0.1433 -1.2537
   88MPD2     C 1368   3.319   1.393   1.493  0.2224  0.0015  0.1231
   88MPD2    C1 1369   3.251   1.322   1.391 -0.8802 -1.3163  0.2712
   88MPD2    C2 1370   3.188   1.400   1.297  0.1776 -0.1339  0.3191
   88MPD2    C3 1371   3.181   1.540   1.311  0.4594  0.1782  0.1057
   88MPD2    C4 1372   3.242   1.597   1.419 -0.7927  0.4597  0.4356
   88MPD2    C5 1373   3.307   1.526   1.516 -0.1922  0.1540  0.4911
   88MPD2     H 1374   3.166   1.356   1.201 -1.5021  1.5071 -0.0584
   88MPD2    H1 1375   3.248   1.704   1.436 -0.6027  0.5281 -0.0422
   88MPD2    H2 1376   3.379   1.336   1.562 -0.1314 -2.5526 -1.6896
   88MPD2    H3 1377   3.364   1.576   1.593 -0.4110 -1.2206  1.5536
   88MPD2     N 1378   3.118   1.631   1.221 -0.8226  0.3115 -1.0829
   88MPD2    H5 1379   3.124   1.730   1.242  1.9669  0.0731 -0.6953
   88MPD2    N1 1380   3.268   1.184   1.374 -0.1841  0.6890  0.4100
   88MPD2    H7 1381   3.334   1.139   1.436 -2.3105 -0.4673  1.8524
   89TMC2    C1 1382   4.079   4.390   1.353 -0.4377 -0.5446 -0.1056
   89TMC2    C2 1383   4.164   4.359   1.250  0.4305 -0.0489  0.2036
   89TMC2    C3 1384   4.217   4.468   1.183 -0.5573 -0.2469  0.9208
   89TMC2    C4 1385   4.066   4.519   1.406 -0.5423 -0.2960 -0.0655
   89TMC2    C5 1386   4.108   4.615   1.322 -0.0038 -0.7307  0.4499
   89TMC2    C6 1387   4.184   4.596   1.213  0.0199 -0.3349  0.4590
   89TMC2     C 1388   4.010   4.287   1.434  0.2794  0.0669  0.2239
   89TMC2     O 1389   3.948   4.324   1.526 -0.1121  0.1605  0.1236
   89TMC2     H 1390   4.208   4.260   1.238  2.3783  1.1374 -2.3844
   89TMC2    H1 1391   3.984   4.536   1.475  0.7512  0.0513  1.3842
   89TMC2    H2 1392   4.215   4.675   1.144 -0.8648  0.9094  1.4864
   89TMC2    C7 1393   4.087   0.014   1.371  0.0914  0.0980 -0.4466
   89TMC2    C8 1394   4.310   4.438   1.074 -0.2762  0.2013  0.0526
   89TMC2    O1 1395   4.014   0.026   1.471  0.8900 -0.1892 -0.3988
   89TMC2    O2 1396   4.393   4.509   1.022  0.1919  0.7239  0.3920
   89TMC2    O5 1397   4.255   4.335   1.005  0.0063  0.1133  0.1610
   89TMC2    H5 1398   4.174   4.297   1.046  1.1815  0.0322  2.4321
   90MPD2     C 1399   3.870   3.822   1.574 -0.5937 -0.3344  0.2499
   90MPD2    C1 1400   3.943   3.815   1.459 -0.8265 -0.2403  0.0006
   90MPD2    C2 1401   3.996   3.930   1.403  0.2784  0.2630  0.6940
   90MPD2    C3 1402   3.977   4.053   1.457  0.0376 -0.2046 -0.0301
   90MPD2    C4 1403   3.915   4.057   1.581  0.3303 -0.4010  0.4623
   90MPD2    C5 1404   3.854   3.944   1.631 -0.7062  0.7232 -0.1850
   90MPD2     H 1405   4.044   3.918   1.307 -0.8108  1.0072  0.0552
   90MPD2    H1 1406   3.906   4.136   1.654 -0.6395  0.7131 -0.8558
   90MPD2    H2 1407   3.830   3.738   1.630 -0.3426 -0.3633  0.3815
   90MPD2    H3 1408   3.806   3.956   1.727 -1.5009  1.4011 -0.6717
   90MPD2     N 1409   4.022   4.162   1.389 -0.0451  0.1038 -0.1073
   90MPD2    H5 1410   4.077   4.150   1.303  2.1436  0.5959  1.2165
   90MPD2    N1 1411   3.954   3.697   1.379 -0.2123 -0.3509  0.5306
   90MPD2    H7 1412   4.012   3.724   1.300  0.6863 -0.6596  1.0791
   91TMC2    C1 1413   0.945   4.102  16.334 -0.1790  0.5530  0.2944
   91TMC2    C2 1414   0.989   4.149  16.453 -0.2873 -0.7740 -0.5109
   91TMC2    C3 1415   0.920   4.104  16.561  0.9056 -0.1548 -0.4207
   91TMC2    C4 1416   0.843   4.013  16.318 -0.0187 -1.0165 -0.3563
   91TMC2    C5 1417   0.777   3.973  16.434  0.3277  0.7125 -1.0320
   91TMC2    C6 1418   0.824   4.008  16.556 -0.1110 -0.2420  0.7823
   91TMC2     C 1419   1.033   4.104  16.218  0.4195 -0.0710  0.1736
   91TMC2     O 1420   0.991   4.073  16.110  0.3481  0.3638 -0.1624
   91TMC2     H 1421   1.060   4.230  16.460  1.1003 -1.9258 -1.4639
   91TMC2    H1 1422   0.823   3.968  16.221  3.4796  0.1355 -1.6169
   91TMC2    H2 1423   0.775   3.960  16.640 -1.1073 -0.3794  0.1250
   91TMC2    C7 1424   0.662   3.889  16.418 -0.3466  0.7398  0.3071
   91TMC2    C8 1425   0.969   4.137  16.692 -0.3922  0.2355 -0.2007
   91TMC2    O1 1426   0.627   3.817  16.509  0.0508 -0.3742 -0.1330
   91TMC2    O2 1427   0.908   4.111  16.793  0.1296  0.1374  0.4317
   91TMC2    O5 1428   1.101   4.133  16.678 -0.2265 -0.0095  0.0069
   91TMC2    H5 1429   1.144   4.110  16.593 -2.3568 -2.0784 -0.5004
   92MPD2     C 1430   1.261   4.141  16.020  0.1183 -0.0396 -0.8592
   92MPD2    C1 1431   1.274   4.134  16.158 -0.4302  0.3806  0.0107
   92MPD2    C2 1432   1.402   4.137  16.211 -0.6992 -0.9820  0.3618
   92MPD2    C3 1433   1.513   4.137  16.127 -0.0239 -0.0661  0.1438
   92MPD2    C4 1434   1.499   4.142  15.988  0.1278  0.2134  0.4612
   92MPD2    C5 1435   1.373   4.150  15.938  0.2805  0.5694 -0.5113
   92MPD2     H 1436   1.420   4.155  16.317 -0.3304  1.0979 -0.0572
   92MPD2    H1 1437   1.579   4.138  15.914  0.3756  1.1121  0.6770
   92MPD2    H2 1438   1.166   4.134  15.969 -1.0320 -2.7524  1.6270
   92MPD2    H3 1439   1.363   4.162  15.831  1.9411  3.2290 -0.3697
   92MPD2     N 1440   1.637   4.126  16.186 -0.3162  0.3519 -0.3966
   92MPD2    H5 1441   1.645   4.162  16.281  0.8394 -1.4339  0.1870
   92MPD2    N1 1442   1.165   4.130  16.251  0.1048  0.4930  0.8301
   92MPD2    H7 1443   1.192   4.125  16.349 -0.8298  2.7499  1.1835
   93TMC2    C1 1444   3.389   4.214  14.044 -0.8590  0.2150 -0.8507
   93TMC2    C2 1445   3.356   4.222  14.176  1.0063  1.1228 -0.1669
   93TMC2    C3 1446   3.448   4.281  14.261  0.3174 -0.2755  0.6930
   93TMC2    C4 1447   3.504   4.269  13.997  0.1894  0.0741 -0.1208
   93TMC2    C5 1448   3.598   4.323  14.089  1.0587 -0.5221 -0.1757
   93TMC2    C6 1449   3.572   4.318  14.218  0.2984 -0.2517  0.7655
   93TMC2     C 1450   3.339   4.101  13.975 -0.6878  0.1960 -0.0417
   93TMC2     O 1451   3.419   4.070  13.885 -0.4180 -0.2536 -0.4697
   93TMC2     H 1452   3.258   4.189  14.210  0.0331  1.8530 -2.2019
   93TMC2    H1 1453   3.524   4.264  13.890 -2.5624 -1.5329 -0.5567
   93TMC2    H2 1454   3.641   4.349  14.295  0.5405  0.1488  0.3864
   93TMC2    C7 1455   3.728   4.358  14.051  0.1825  0.1183 -0.2564
   93TMC2    C8 1456   3.450   4.237  14.398 -0.7626  0.3479 -0.5288
   93TMC2    O1 1457   3.823   4.332  14.123  0.5266  0.2203 -0.4070
   93TMC2    O2 1458   3.544   4.164  14.424 -0.2091 -0.0562  0.5080
   93TMC2    O5 1459   3.319   4.209  14.429 -0.3329  0.2410  0.2566
   93TMC2    H5 1460   3.257   4.281  14.404 -1.1179 -0.0826  1.2499
   94MPD2     C 1461   3.181   3.864  13.861  0.4312 -0.4696  0.0040
   94MPD2    C1 1462   3.144   3.938  13.977  0.7858  0.7982 -0.0053
   94MPD2    C2 1463   3.017   3.906  14.034  0.3181 -0.2627  0.2253
   94MPD2    C3 1464   2.923   3.825  13.973 -0.0139 -0.2883  0.5031
   94MPD2    C4 1465   2.968   3.756  13.863  0.5762  0.5333 -0.6625
   94MPD2    C5 1466   3.090   3.775  13.803 -0.0997 -0.0305  0.6789
   94MPD2     H 1467   2.976   3.969  14.112  1.2826  1.1484 -0.4142
   94MPD2    H1 1468   2.906   3.684  13.812 -1.0248  0.9467  0.6969
   94MPD2    H2 1469   3.280   3.876  13.818  0.5386  0.6644  0.5643
   94MPD2    H3 1470   3.132   3.722  13.719 -0.5552  0.3360  0.2174
   94MPD2     N 1471   2.785   3.823  14.006 -0.0448 -0.3314 -0.4933
   94MPD2    H5 1472   2.722   3.770  13.946  1.0735 -2.0928 -0.1275
   94MPD2    N1 1473   3.220   4.051  14.022 -0.0531  0.1773 -0.2015
   94MPD2    H7 1474   3.182   4.118  14.089 -0.1388  0.8751 -0.9450
   95TMC2    C1 1475   2.758   1.209  15.649  0.9029  0.6314  0.4038
   95TMC2    C2 1476   2.727   1.324  15.707  0.0912  0.0255  0.2410
   95TMC2    C3 1477   2.607   1.332  15.770 -0.7085 -0.1324 -0.8967
   95TMC2    C4 1478   2.678   1.092  15.654 -0.1584 -0.6110 -0.0417
   95TMC2    C5 1479   2.558   1.111  15.714 -0.5905 -0.2594  0.2223
   95TMC2    C6 1480   2.521   1.224  15.785  0.2476  0.2316 -0.1196
   95TMC2     C 1481   2.880   1.206  15.564 -0.1777  0.8554 -0.0978
   95TMC2     O 1482   2.926   1.317  15.535  0.1469 -0.2614  0.8823
   95TMC2     H 1483   2.783   1.417  15.702 -2.4717  1.6081  0.7033
   95TMC2    H1 1484   2.693   1.005  15.592 -0.4080 -0.6042 -0.1123
   95TMC2    H2 1485   2.433   1.221  15.847  0.9572 -0.6693  0.8466
   95TMC2    C7 1486   2.480   0.991  15.747 -0.5078  0.0451  0.0528
   95TMC2    C8 1487   2.553   1.465  15.820  0.0618 -0.2865 -0.2902
   95TMC2    O1 1488   2.545   0.890  15.734  0.5742 -0.1891  0.2001
   95TMC2    O2 1489   2.589   1.565  15.756  0.5210 -0.1166  0.0893
   95TMC2    O5 1490   2.429   1.455  15.874  0.0310 -0.4562 -0.4832
   95TMC2    H5 1491   2.420   1.373  15.927  0.5922 -0.0700  0.2113
   96MPD2     C 1492   3.298   0.988  15.349 -0.3701 -0.6156  0.2619
   96MPD2    C1 1493   3.267   1.115  15.380  0.0170  0.3188  0.4473
   96MPD2    C2 1494   3.148   1.149  15.447 -0.1218 -0.0246  1.1918
   96MPD2    C3 1495   3.056   1.054  15.472 -0.2159  0.1601 -0.4889
   96MPD2    C4 1496   3.094   0.922  15.453 -0.0329 -0.4383 -0.7538
   96MPD2    C5 1497   3.208   0.888  15.387  0.1684 -0.6599  0.3625
   96MPD2     H 1498   3.121   1.254  15.441  1.2191  0.3203  1.1671
   96MPD2    H1 1499   3.034   0.842  15.494 -0.9347  1.7397  2.1630
   96MPD2    H2 1500   3.390   0.961  15.298 -1.6593 -1.9433 -1.3443
   96MPD2    H3 1501   3.249   0.788  15.379  2.1805  0.1803  0.1217
   96MPD2     N 1502   2.928   1.081  15.532 -0.0597 -0.0206 -0.1108
   96MPD2    H5 1503   2.880   0.999  15.567 -0.6757 -0.0081 -0.9242
   96MPD2    N1 1504   3.363   1.215  15.345 -0.3011 -0.2315  0.3009
   96MPD2    H7 1505   3.441   1.186  15.287  0.7188  0.8704  1.1141
   97TMC2    C1 1506   0.351   3.678   0.089 -0.9057  0.4508  0.3017
   97TMC2    C2 1507   0.295   3.673  17.706  0.1053  0.2678  0.7070
   97TMC2    C3 1508   0.317   3.771  17.617 -0.4362  0.2685 -0.3778
   97TMC2    C4 1509   0.442   3.779   0.119 -0.0507  0.4665 -0.4615
   97TMC2    C5 1510   0.446   3.887   0.030  1.9365 -0.5352 -0.2046
   97TMC2    C6 1511   0.382   3.885  17.650 -0.7609 -0.1863 -0.9969
   97TMC2     C 1512   0.317   3.565   0.172 -0.2454  0.9727 -0.2750
   97TMC2     O 1513   0.281   3.464   0.112 -0.1441  0.3301  0.5970
   97TMC2     H 1514   0.231   3.588  17.685 -0.7042  0.6445  1.6455
   97TMC2    H1 1515   0.507   3.782   0.205 -1.8406  0.0589  0.9044
   97TMC2    H2 1516   0.396   3.969  17.582  1.5914 -0.2703 -0.6048
   97TMC2    C7 1517   0.530   4.001   0.057  0.1414  0.5276 -0.0439
   97TMC2    C8 1518   0.249   3.769  17.487  0.8057 -0.0008 -0.2358
   97TMC2    O1 1519   0.626   3.993   0.134 -0.4043  0.1784  0.3568
   97TMC2    O2 1520   0.226   3.873  17.421  0.2605 -0.5080  0.1546
   97TMC2    O5 1521   0.198   3.649  17.465 -0.0186 -0.1576 -0.7181
   97TMC2    H5 1522   0.253   3.585  17.515  0.8351  1.0485 -0.1181
   98MPD2     C 1523   0.202   3.340   0.632 -0.4119  0.4798 -0.1204
   98MPD2    C1 1524   0.191   3.300   0.501  1.1852  0.0586 -0.7979
   98MPD2    C2 1525   0.253   3.370   0.403  0.2774  0.5137  0.5397
   98MPD2    C3 1526   0.306   3.498   0.418 -0.7304  0.5088  0.0220
   98MPD2    C4 1527   0.317   3.539   0.547  0.0782 -0.0966  0.9496
   98MPD2    C5 1528   0.268   3.461   0.656  0.7823  0.7872  0.7278
   98MPD2     H 1529   0.244   3.333   0.302 -4.1802  2.4756  0.2107
   98MPD2    H1 1530   0.348   3.637   0.583  1.3968 -0.2847  0.3507
   98MPD2    H2 1531   0.158   3.292   0.719 -3.0250  1.5970 -0.8311
   98MPD2    H3 1532   0.272   3.503   0.756  0.5228  0.1880  0.9895
   98MPD2     N 1533   0.337   3.583   0.310 -0.1290 -0.0942 -0.0270
   98MPD2    H5 1534   0.364   3.678   0.333 -2.5669  0.6137 -0.0763
   98MPD2    N1 1535   0.114   3.183   0.481 -0.0363 -0.5043  0.0357
   98MPD2    H7 1536   0.072   3.144   0.565  2.6386 -2.1023  0.6239
   99TMC2    C1 1537   3.917   0.664   1.704  0.3669  0.0729 -0.0776
   99TMC2    C2 1538   4.034   0.697   1.761 -0.4290  0.5359 -0.6218
   99TMC2    C3 1539   4.044   0.686   1.895 -0.2588 -0.0042 -0.9464
   99TMC2    C4 1540   3.812   0.634   1.776 -0.1803  0.2640 -0.1810
   99TMC2    C5 1541   3.830   0.625   1.921  0.9637  0.2055 -0.2958
   99TMC2    C6 1542   3.948   0.650   1.981 -0.0149  0.1166  0.5315
   99TMC2     C 1543   3.893   0.720   1.570  0.1332  0.1184  0.0583
   99TMC2     O 1544   3.983   0.796   1.536 -0.3424  0.7534 -0.0979
   99TMC2     H 1545   4.128   0.718   1.711  0.4610  0.3392  0.9678
   99TMC2    H1 1546   3.712   0.642   1.735 -0.8593 -1.0115  1.2138
   99TMC2    H2 1547   3.957   0.646   2.089 -0.9986 -2.5401  0.5072
   99TMC2    C7 1548   3.732   0.559   2.002  0.3569 -0.3922  0.2892
   99TMC2    C8 1549   4.153   0.777   1.938  0.3101 -0.3589  0.2516
   99TMC2    O1 1550   3.760   0.544   2.121 -0.0279  0.0073 -0.2017
   99TMC2    O2 1551   4.164   0.886   1.884 -0.1335  0.0606 -0.2451
   99TMC2    O5 1552   4.165   0.755   2.072 -0.5421 -0.3319  0.1358
   99TMC2    H5 1553   4.149   0.660   2.088 -0.5683 -0.0189  2.0026
  100MPD2     C 1554   3.799   0.789   1.297  0.6153 -0.0991 -0.6502
  100MPD2    C1 1555   3.760   0.674   1.363  0.4169 -0.2476  0.0224
  100MPD2    C2 1556   3.693   0.574   1.301  0.5752  0.4618  0.0840
  100MPD2    C3 1557   3.671   0.580   1.166  1.1330  0.5332 -0.8100
  100MPD2    C4 1558   3.704   0.695   1.099  0.0623  0.2703 -0.3533
  100MPD2    C5 1559   3.768   0.788   1.162  0.8840 -0.0606  0.1783
  100MPD2     H 1560   3.682   0.485   1.361  2.5902  0.4949  0.5204
  100MPD2    H1 1561   3.698   0.712   0.992 -0.3098  0.1059 -0.3596
  100MPD2    H2 1562   3.857   0.872   1.336  0.7585  0.1028 -1.2918
  100MPD2    H3 1563   3.794   0.876   1.104 -0.5215 -1.3076 -2.3453
  100MPD2     N 1564   3.623   0.462   1.109 -0.2324  0.1794 -0.1423
  100MPD2    H5 1565   3.602   0.385   1.171  0.2786  2.4540  2.8065
  100MPD2    N1 1566   3.799   0.645   1.501 -0.5215 -0.0511  0.6032
  100MPD2    H7 1567   3.761   0.562   1.545  0.2536 -2.6215 -3.5354
  101TMC2    C1 1568   0.345   1.644  12.832  0.7612 -0.0997  0.0865
  101TMC2    C2 1569   0.242   1.702  12.772  0.8604  0.2797 -0.1617
  101TMC2    C3 1570   0.267   1.801  12.681  0.4416 -0.2890  0.1629
  101TMC2    C4 1571   0.474   1.696  12.820  0.1540 -0.4952  0.0808
  101TMC2    C5 1572   0.492   1.797  12.723  0.1973  0.3403  0.7296
  101TMC2    C6 1573   0.396   1.842  12.638 -1.1005  0.6062 -0.2813
  101TMC2     C 1574   0.308   1.557  12.942 -0.3972  0.1502  0.6314
  101TMC2     O 1575   0.190   1.541  12.969 -0.5862  0.1838 -1.1745
  101TMC2     H 1576   0.139   1.666  12.777  1.1755 -0.7500 -0.9582
  101TMC2    H1 1577   0.555   1.672  12.887  1.3675 -1.4182 -1.7342
  101TMC2    H2 1578   0.411   1.917  12.561  1.2784  1.4164  0.9785
  101TMC2    C7 1579   0.627   1.831  12.691 -0.2243 -0.0791  0.0739
  101TMC2    C8 1580   0.147   1.849  12.621 -0.5574 -0.2485  0.2287
  101TMC2    O1 1581   0.645   1.945  12.651  0.3979 -0.4431 -0.2655
  101TMC2    O2 1582   0.056   1.770  12.597 -0.9382  1.0326  0.1458
  101TMC2    O5 1583   0.163   1.980  12.574  0.0746  0.3428 -0.5217
  101TMC2    H5 1584   0.248   2.017  12.606 -0.1400  0.2948  0.0960
  102MPD2     C 1585   0.512   1.326  13.143 -0.0254 -0.1452 -0.6067
  102MPD2    C1 1586   0.398   1.384  13.103 -0.2273 -0.7773 -0.3937
  102MPD2    C2 1587   0.275   1.352  13.160 -0.5046 -0.3255  0.7218
  102MPD2    C3 1588   0.272   1.256  13.253 -0.1748 -0.1739  0.4618
  102MPD2    C4 1589   0.390   1.182  13.280 -0.4265 -0.3625 -0.4604
  102MPD2    C5 1590   0.508   1.221  13.226 -0.1064  0.2568  0.0870
  102MPD2     H 1591   0.184   1.397  13.121  0.7867 -0.5411 -2.5512
  102MPD2    H1 1592   0.384   1.094  13.343 -2.2068 -0.2558 -0.4861
  102MPD2    H2 1593   0.611   1.357  13.110  0.4111  1.1422  1.8545
  102MPD2    H3 1594   0.602   1.169  13.242 -1.0017 -1.2862  0.2371
  102MPD2     N 1595   0.141   1.235  13.307  0.5923  0.9665  0.5681
  102MPD2    H5 1596   0.074   1.303  13.272 -2.7051 -2.3867  0.3009
  102MPD2    N1 1597   0.415   1.493  13.006 -0.4742  0.2552 -0.3547
  102MPD2    H7 1598   0.503   1.510  12.958 -1.5376  2.3677 -1.5576
  103TMC2    C1 1599   2.862   1.803  13.560 -0.2007 -0.3403 -0.0539
  103TMC2    C2 1600   2.904   1.909  13.479  0.3315 -0.5769  0.3139
  103TMC2    C3 1601   2.857   2.039  13.500  0.3325 -0.1635  0.0230
  103TMC2    C4 1602   2.766   1.825  13.658 -0.2816 -0.0452  0.0575
  103TMC2    C5 1603   2.713   1.949  13.674  0.2772 -0.1167  0.3432
  103TMC2    C6 1604   2.751   2.053  13.592 -0.2482  0.7468  0.0041
  103TMC2     C 1605   2.875   1.668  13.506  0.5969  0.1193 -0.0800
  103TMC2     O 1606   2.858   1.574  13.582 -0.5556  0.3029 -0.0748
  103TMC2     H 1607   2.982   1.893  13.404 -1.0140 -0.0435 -1.1974
  103TMC2    H1 1608   2.739   1.746  13.727 -3.3245  0.4883 -0.5487
  103TMC2    H2 1609   2.701   2.149  13.598 -0.4727  0.6021  0.4920
  103TMC2    C7 1610   2.585   1.943  13.744 -0.1714 -0.6142 -0.6066
  103TMC2    C8 1611   2.891   2.141  13.403 -0.3810  0.6719 -0.1823
  103TMC2    O1 1612   2.568   1.874  13.843  0.1722  0.4186 -0.1109
  103TMC2    O2 1613   2.957   2.111  13.305 -0.4614 -0.6318 -0.0465
  103TMC2    O5 1614   2.904   2.259  13.471  0.3165 -0.0163  0.2282
  103TMC2    H5 1615   2.844   2.261  13.548 -1.1372 -1.6672 -0.8603
  104MPD2     C 1616   2.900   1.424  13.328 -0.0904  1.1260  0.5290
  104MPD2    C1 1617   2.868   1.548  13.280 -0.8466  0.1876 -0.0086
  104MPD2    C2 1618   2.832   1.564  13.142  0.8170 -0.0002 -0.3477
  104MPD2    C3 1619   2.831   1.452  13.057 -0.1924  0.3766  0.2470
  104MPD2    C4 1620   2.865   1.328  13.116 -0.1852  0.1022 -0.0992
  104MPD2    C5 1621   2.888   1.312  13.254 -0.5901  0.2414  0.8585
  104MPD2     H 1622   2.814   1.665  13.105  0.3708  0.2047  0.4291
  104MPD2    H1 1623   2.887   1.242  13.054  0.2696  0.3624 -0.2968
  104MPD2    H2 1624   2.912   1.408  13.435 -1.0469 -0.1739  0.4403
  104MPD2    H3 1625   2.910   1.215  13.296 -3.3604 -1.6189 -2.0163
  104MPD2     N 1626   2.794   1.463  12.918  0.3476  0.3626  0.1127
  104MPD2    H5 1627   2.789   1.558  12.882  1.1246  0.9677  1.6337
  104MPD2    N1 1628   2.858   1.664  13.371 -0.0113 -0.1179  0.1411
  104MPD2    H7 1629   2.835   1.757  13.337 -1.3199  0.0130  1.3842
  105TMC2    C1 1630   3.564   0.456   0.320  0.2333  0.0312  0.8176
  105TMC2    C2 1631   3.524   0.401   0.203  0.3156 -0.1128  0.2004
  105TMC2    C3 1632   3.435   0.300   0.211  0.1249  0.2960 -0.9362
  105TMC2    C4 1633   3.526   0.410   0.442  0.6356 -0.0583 -0.2482
  105TMC2    C5 1634   3.444   0.301   0.442 -0.6353 -0.0266  0.3826
  105TMC2    C6 1635   3.393   0.245   0.329  0.0680  0.4186  0.4328
  105TMC2     C 1636   3.708   0.489   0.324 -0.2391  0.0321  0.8370
  105TMC2     O 1637   3.772   0.435   0.412 -0.4657  0.2317 -0.3028
  105TMC2     H 1638   3.569   0.440   0.113 -0.6697  1.9335  0.5911
  105TMC2    H1 1639   3.583   0.446   0.527 -1.1930 -0.5705  1.1931
  105TMC2    H2 1640   3.323   0.164   0.336  2.1485 -1.3354  1.0485
  105TMC2    C7 1641   3.351   0.282   0.560  0.0247 -0.0271 -0.3892
  105TMC2    C8 1642   3.381   0.238   0.096 -0.3668  0.4195 -0.7117
  105TMC2    O1 1643   3.285   0.184   0.553 -0.3167  0.0716  0.1297
  105TMC2    O2 1644   3.276   0.186   0.095 -0.0339 -0.2399  0.2076
  105TMC2    O5 1645   3.492   0.183   0.048  0.2423  0.1178 -0.1690
  105TMC2    H5 1646   3.578   0.204   0.089 -0.2121  0.9513  0.3696
  106MPD2     C 1647   4.126   0.655   0.068 -0.5714 -0.0194  0.5598
  106MPD2    C1 1648   4.015   0.707   0.007  0.2021 -0.1565  0.1218
  106MPD2    C2 1649   3.898   0.681   0.073  0.1376 -0.0509  0.0277
  106MPD2    C3 1650   3.880   0.600   0.178 -0.4572  0.8496  0.6294
  106MPD2    C4 1651   3.994   0.544   0.232 -0.1160  0.3685  0.7952
  106MPD2    C5 1652   4.116   0.575   0.178 -0.3483  0.2043  0.0367
  106MPD2     H 1653   3.807   0.722   0.030  0.3902 -0.9639 -1.3742
  106MPD2    H1 1654   3.998   0.468   0.309  2.8752  0.0276  0.2752
  106MPD2    H2 1655   4.224   0.667   0.022 -0.0932 -1.1020  1.3221
  106MPD2    H3 1656   4.204   0.516   0.204 -0.4625 -0.4316 -1.0134
  106MPD2     N 1657   3.746   0.568   0.216  0.6540  0.0832  0.2089
  106MPD2    H5 1658   3.675   0.600   0.151  0.7861  1.5251  0.7907
  106MPD2    N1 1659   4.013   0.787  17.627 -0.0589  0.1674  0.4907
  106MPD2    H7 1660   3.929   0.845  17.622 -1.1575 -1.4946 -0.1748
  107TMC2    C1 1661   4.614   0.895  11.351 -0.7102  0.3464 -0.9413
  107TMC2    C2 1662   4.659   1.014  11.293 -0.6458  0.3733 -0.2923
  107TMC2    C3 1663   0.035   1.009  11.213  0.5017 -0.1815 -0.5138
  107TMC2    C4 1664   4.658   0.772  11.309 -0.3681 -0.7770  0.5351
  107TMC2    C5 1665   0.031   0.767  11.217 -0.5442 -0.0531  0.6437
  107TMC2    C6 1666   0.088   0.885  11.171  0.0552  0.1850  0.2884
  107TMC2     C 1667   4.535   0.909  11.477  0.1980 -0.3213  0.0879
  107TMC2     O 1668   4.526   0.802  11.546 -0.3755 -0.1198  0.2672
  107TMC2     H 1669   4.638   1.112  11.335  3.6863  0.6582  1.2731
  107TMC2    H1 1670   4.627   0.680  11.356 -1.0575 -0.3926  0.8352
  107TMC2    H2 1671   0.163   0.876  11.094  0.3592  1.1638  0.4677
  107TMC2    C7 1672   0.099   0.637  11.195 -0.5134 -0.3073 -0.1315
  107TMC2    C8 1673   0.098   1.131  11.178 -0.0025  0.3727  0.2144
  107TMC2    O1 1674   0.030   0.540  11.222 -0.1170  0.2865  0.1575
  107TMC2    O2 1675   0.046   1.239  11.168  0.6492  0.3115  0.1872
  107TMC2    O5 1676   0.219   1.104  11.134 -0.2120 -0.5224 -0.4282
  107TMC2    H5 1677   0.245   1.018  11.175 -2.7218 -0.4903  1.2250
  108MPD2     C 1678   4.257   1.119  11.541  0.5969 -0.1181  0.2711
  108MPD2    C1 1679   4.365   1.051  11.575 -0.8036 -0.5834  0.6965
  108MPD2    C2 1680   4.368   0.992  11.703  0.2592 -0.1340  0.1360
  108MPD2    C3 1681   4.267   1.020  11.802 -0.5892 -0.0113  0.1457
  108MPD2    C4 1682   4.156   1.094  11.759 -0.4779  0.0857  0.0450
  108MPD2    C5 1683   4.158   1.144  11.631  0.2619 -0.4511  0.6140
  108MPD2     H 1684   4.447   0.925  11.734  0.8880  0.9578  0.9179
  108MPD2    H1 1685   4.072   1.125  11.820  0.3532 -0.1090  1.2924
  108MPD2    H2 1686   4.249   1.169  11.445 -2.0711 -0.8061  0.1382
  108MPD2    H3 1687   4.070   1.197  11.595  1.0696  1.9036  2.0801
  108MPD2     N 1688   4.262   0.964  11.929  0.3314  0.0086  0.0039
  108MPD2    H5 1689   4.169   0.959  11.971 -1.4602  2.2945 -3.6685
  108MPD2    N1 1690   4.460   1.021  11.477  0.1187  0.2569 -0.2817
  108MPD2    H7 1691   4.459   1.078  11.392  0.2769 -1.9326 -1.7459
  109TMC2    C1 1692   4.276   2.022  17.593 -0.4665  0.6367  0.0966
  109TMC2    C2 1693   4.276   1.993  17.459  0.5160 -0.0294 -0.8899
  109TMC2    C3 1694   4.326   2.087  17.374  0.5158 -0.4749  0.4173
  109TMC2    C4 1695   4.332   2.134  17.653 -0.0517 -0.6037  0.7084
  109TMC2    C5 1696   4.393   2.218  17.564  0.1879  0.9301  0.2692
  109TMC2    C6 1697   4.390   2.205  17.429 -0.7356  0.0859  0.0432
  109TMC2     C 1698   4.203   1.936  17.684 -0.1743  0.7201 -0.1315
  109TMC2     O 1699   4.161   1.834  17.634 -0.3956 -0.0072 -0.0717
  109TMC2     H 1700   4.223   1.907  17.418  0.4604 -0.8465  0.8661
  109TMC2    H1 1701   4.347   2.148   0.022  0.6316 -0.2526  0.5655
  109TMC2    H2 1702   4.443   2.278  17.370 -0.2189 -1.4426 -1.3594
  109TMC2    C7 1703   4.438   2.333  17.625  0.5136  0.1814 -0.1472
  109TMC2    C8 1704   4.278   2.083  17.242 -0.1564  0.3538  0.0774
  109TMC2    O1 1705   4.388   2.366  17.730  0.0996  0.0076 -0.0544
  109TMC2    O2 1706   4.226   1.985  17.193 -0.4300  0.2149 -0.3250
  109TMC2    O5 1707   4.276   2.211  17.196 -0.0473  0.2010 -0.2619
  109TMC2    H5 1708   4.305   2.282  17.257 -0.8650  0.8490 -0.6192
  110MPD2     C 1709   3.916   1.848   0.366  0.5839  0.3256 -0.3631
  110MPD2    C1 1710   3.946   1.979   0.360 -0.0408 -0.4742 -0.0148
  110MPD2    C2 1711   4.039   2.030   0.268 -0.6783 -0.0424  0.4835
  110MPD2    C3 1712   4.088   1.939   0.173  0.1077  0.0904  0.6481
  110MPD2    C4 1713   4.043   1.806   0.169 -0.6272  0.6090  0.2009
  110MPD2    C5 1714   3.956   1.761   0.269  0.5556 -0.2441  0.0272
  110MPD2     H 1715   4.042   2.136   0.246 -2.2470 -0.4163 -1.5095
  110MPD2    H1 1716   4.079   1.739   0.091 -0.4462  0.7020  0.2050
  110MPD2    H2 1717   3.858   1.806   0.447 -0.9304 -2.5636 -2.9585
  110MPD2    H3 1718   3.909   1.663   0.267 -1.3227  0.6541  0.1501
  110MPD2     N 1719   4.171   1.989   0.071  0.3693 -0.2901  0.0888
  110MPD2    H5 1720   4.196   2.086   0.087 -0.1031  0.0970 -1.5289
  110MPD2    N1 1721   3.878   2.065   0.446  0.7604  0.1517 -0.1323
  110MPD2    H7 1722   3.811   2.014   0.502 -0.1569  0.8145 -0.6281
  111TMC2    C1 1723   0.358   2.996  12.215 -0.3089  0.2915 -0.0551
  111TMC2    C2 1724   0.291   2.927  12.307  0.0834 -0.3514  0.0305
  111TMC2    C3 1725   0.359   2.879  12.414 -0.6502 -0.0831 -0.0758
  111TMC2    C4 1726   0.493   3.003  12.206  0.5491  0.0264  0.2681
  111TMC2    C5 1727   0.562   2.946  12.308  0.0284 -0.6350  0.2905
  111TMC2    C6 1728   0.492   2.886  12.409  0.1686  0.3204  0.5635
  111TMC2     C 1729   0.276   3.047  12.106  0.4964 -0.4251  0.0957
  111TMC2     O 1730   0.329   3.071  11.997 -0.9648 -0.1042 -0.0752
  111TMC2     H 1731   0.186   2.903  12.298 -0.1244  0.8404 -0.6987
  111TMC2    H1 1732   0.537   3.049  12.119  1.3829 -2.1610 -0.4634
  111TMC2    H2 1733   0.540   2.831  12.490 -1.3093  1.0956  1.9601
  111TMC2    C7 1734   0.684   2.874  12.294 -0.4426  0.8145  0.5743
  111TMC2    C8 1735   0.300   2.810  12.529  0.4806  0.0180  0.1766
  111TMC2    O1 1736   0.690   2.762  12.342 -0.4714 -0.0660  0.1288
  111TMC2    O2 1737   0.311   2.863  12.641 -0.0835 -0.5756  0.6908
  111TMC2    O5 1738   0.328   2.683  12.494 -0.4198 -0.0887  0.1195
  111TMC2    H5 1739   0.324   2.677  12.396 -1.9254  0.1253  0.1775
  112MPD2     C 1740   4.558   3.201  11.909 -0.0783  0.3549  0.1034
  112MPD2    C1 1741   4.672   3.153  11.847 -0.2785 -0.2513 -0.7929
  112MPD2    C2 1742   0.044   3.110  11.929 -0.3567 -0.3021  0.0219
  112MPD2    C3 1743   0.037   3.124  12.068  0.6101  0.3016  0.2981
  112MPD2    C4 1744   4.651   3.169  12.121  0.1780 -0.4914  0.1356
  112MPD2    C5 1745   4.547   3.208  12.040  0.2939  0.6557  0.8030
  112MPD2     H 1746   0.128   3.059  11.884  1.1282  1.3304  0.9231
  112MPD2    H1 1747   4.632   3.190  12.226  0.1348  1.2325 -0.2207
  112MPD2    H2 1748   4.477   3.230  11.843 -1.3602 -3.0648  0.2275
  112MPD2    H3 1749   4.456   3.239  12.091  0.3794 -1.9343  2.5338
  112MPD2     N 1750   0.149   3.083  12.150  0.1630 -0.2828  0.0676
  112MPD2    H5 1751   0.132   3.071  12.249 -0.3581 -1.0525 -0.1177
  112MPD2    N1 1752   4.692   3.144  11.704  0.0026 -0.5998 -0.0317
  112MPD2    H7 1753   0.046   3.104  11.674  0.2324 -0.4458  0.4337
  113TMC2    C1 1754   2.615   0.245   0.998 -0.0344  0.3158  0.0543
  113TMC2    C2 1755   2.552   0.352   0.954 -0.2284 -0.3313 -0.3444
  113TMC2    C3 1756   2.501   0.362   0.831 -0.5839  0.8924 -0.8485
  113TMC2    C4 1757   2.602   0.127   0.928 -0.2203  0.2312  0.0124
  113TMC2    C5 1758   2.527   0.125   0.811  0.0499  0.5485  0.2673
  113TMC2    C6 1759   2.482   0.245   0.753 -0.2505 -0.0288 -0.3173
  113TMC2     C 1760   2.674   0.248   1.129 -0.4093 -0.1250  0.3515
  113TMC2     O 1761   2.648   0.353   1.188 -0.2396  0.3342  0.5766
  113TMC2     H 1762   2.565   0.444   1.010 -0.8139 -0.6170  0.2699
  113TMC2    H1 1763   2.639   0.037   0.976  2.6796  1.5433  0.2439
  113TMC2    H2 1764   2.426   0.247   0.661 -3.3828  0.0097  1.6081
  113TMC2    C7 1765   2.486   0.004   0.742  0.2033 -0.5903  0.4116
  113TMC2    C8 1766   2.408   0.470   0.806  0.6875  0.7998  0.6729
  113TMC2    O1 1767   2.443   0.003   0.628  0.1497 -0.4233 -0.2578
  113TMC2    O2 1768   2.352   0.524   0.898 -0.0529  0.1843  0.6319
  113TMC2    O5 1769   2.419   0.510   0.680 -0.2721  0.1059 -0.2206
  113TMC2    H5 1770   2.488   0.470   0.623 -1.9610 -1.3822 -1.2422
  114MPD2     C 1771   3.116   0.214   1.400  1.4888  0.6398 -0.4211
  114MPD2    C1 1772   3.005   0.291   1.426 -0.4700  1.0558  0.3892
  114MPD2    C2 1773   2.888   0.271   1.344  0.3264  0.0448 -0.5984
  114MPD2    C3 1774   2.883   0.174   1.249 -0.3289  0.1669  0.3607
  114MPD2    C4 1775   2.997   0.101   1.232  0.4681 -0.3307 -0.8227
  114MPD2    C5 1776   3.109   0.124   1.301  0.9595  0.1597  0.1761
  114MPD2     H 1777   2.801   0.333   1.362  0.3444 -1.4412  4.6715
  114MPD2    H1 1778   3.000   0.019   1.161  0.1831  0.5574 -1.8584
  114MPD2    H2 1779   3.195   0.219   1.475  0.9755 -0.5460  0.1964
  114MPD2    H3 1780   3.205   0.075   1.292  0.1041 -1.0574 -2.3105
  114MPD2     N 1781   2.779   0.159   1.147  0.4274 -0.0083 -0.2489
  114MPD2    H5 1782   2.786   0.079   1.084  1.4985 -0.9154  1.0299
  114MPD2    N1 1783   2.988   0.378   1.532  0.2295 -0.1243  0.3199
  114MPD2    H7 1784   2.902   0.431   1.540  1.2444  1.6139 -0.1090
  115TMC2    C1 1785   3.852   3.095  17.644  0.2683 -0.7343 -0.8672
  115TMC2    C2 1786   3.972   3.097  17.569 -0.0034  0.0415 -0.1944
  115TMC2    C3 1787   4.045   3.211  17.562 -0.5304 -0.5930  0.6585
  115TMC2    C4 1788   3.793   3.212  17.688  0.6144 -0.4326 -0.8098
  115TMC2    C5 1789   3.875   3.324  17.672  0.5371  0.6650 -0.3746
  115TMC2    C6 1790   3.997   3.324  17.610 -0.9296  0.2204 -0.6925
  115TMC2     C 1791   3.763   2.986  17.615 -0.0336 -0.1106 -0.3165
  115TMC2     O 1792   3.785   2.937  17.506 -0.4021 -0.0123  0.3393
  115TMC2     H 1793   4.010   3.005  17.529 -2.6614 -0.9712 -0.3923
  115TMC2    H1 1794   3.703   3.203   0.010  1.4306  3.1225  0.9688
  115TMC2    H2 1795   4.064   3.409  17.612 -0.0179 -0.4854 -1.5795
  115TMC2    C7 1796   3.805   3.448  17.691 -0.2804 -0.3178  0.1302
  115TMC2    C8 1797   4.175   3.214  17.498  0.1064 -0.2300  0.3713
  115TMC2    O1 1798   3.711   3.441   0.035  0.6090 -0.3770 -0.2417
  115TMC2    O2 1799   4.262   3.298  17.530  0.0340  0.1063 -0.2464
  115TMC2    O5 1800   4.201   3.098  17.431  0.0707  0.2546  0.0293
  115TMC2    H5 1801   4.124   3.054  17.390  1.3967  0.3599 -2.5781
  116MPD2     C 1802   3.501   2.564  17.685 -0.1421 -0.0131 -0.0641
  116MPD2    C1 1803   3.497   2.657  17.585  0.7698  0.5812 -0.4377
  116MPD2    C2 1804   3.549   2.785  17.597  0.8098  0.5700 -0.3916
  116MPD2    C3 1805   3.622   2.816  17.713 -0.1610 -0.6358  0.2899
  116MPD2    C4 1806   3.621   2.725   0.079 -0.4901  0.4820  1.1114
  116MPD2    C5 1807   3.569   2.598   0.058  0.0040  0.6086 -0.4250
  116MPD2     H 1808   3.552   2.853  17.513 -0.8389 -0.8670 -1.6013
  116MPD2    H1 1809   3.673   2.732   0.173 -1.3844  0.2775  1.6237
  116MPD2    H2 1810   3.454   2.467  17.686 -0.5259  0.1613 -1.1982
  116MPD2    H3 1811   3.570   2.527   0.140 -1.3730  1.5965  0.4461
  116MPD2     N 1812   3.701   2.933  17.727 -0.0841 -0.1264 -0.5087
  116MPD2    H5 1813   3.720   2.975   0.079 -1.8912 -3.8652  1.6243
  116MPD2    N1 1814   3.442   2.610  17.464  0.2608 -0.3304 -0.1531
  116MPD2    H7 1815   3.414   2.513  17.471  4.2728 -1.6087 -1.5795
  117TMC2    C1 1816   2.654   4.280  14.309  0.4496  0.4093 -0.2188
  117TMC2    C2 1817   2.788   4.235  14.332 -0.1868 -0.0468 -0.0106
  117TMC2    C3 1818   2.878   4.340  14.338  0.0690 -0.1111  0.6140
  117TMC2    C4 1819   2.615   4.413  14.307  0.7260  0.8501 -0.0781
  117TMC2    C5 1820   2.714   4.507  14.324  0.2547  0.3152 -0.2255
  117TMC2    C6 1821   2.849   4.477  14.338 -0.3248 -0.7739 -0.3889
  117TMC2     C 1822   2.547   4.181  14.303 -0.3034 -0.0478 -0.4065
  117TMC2     O 1823   2.544   4.097  14.393  0.0118  0.0769  0.4309
  117TMC2     H 1824   2.812   4.130  14.334  0.4247  0.0975  0.0486
  117TMC2    H1 1825   2.514   4.444  14.282  0.3593 -1.3481 -1.3435
  117TMC2    H2 1826   2.927   4.548  14.361  0.1591 -1.1248 -0.9429
  117TMC2    C7 1827   2.687   4.644  14.272 -0.3631 -0.3591  0.0056
  117TMC2    C8 1828   3.023   4.304  14.340  0.5221  0.0790 -0.3387
  117TMC2    O1 1829   2.787   4.704  14.232  0.0048  0.3861  0.0578
  117TMC2    O2 1830   3.117   4.367  14.391 -0.5097 -0.5962 -0.2615
  117TMC2    O5 1831   3.042   4.226  14.235 -0.0539 -0.7810  0.4143
  117TMC2    H5 1832   2.966   4.209  14.175  0.4815 -0.8471 -0.2423
  118MPD2     C 1833   2.366   0.084  14.289  0.4485 -0.1498 -0.5849
  118MPD2    C1 1834   2.495   0.066  14.248 -0.4998 -0.0163 -0.4762
  118MPD2    C2 1835   2.565   0.163  14.178  0.1650  0.3850 -0.7864
  118MPD2    C3 1836   2.497   0.284  14.152  0.6852  0.5562 -0.0904
  118MPD2    C4 1837   2.369   0.300  14.185 -0.5970  0.1934 -0.4593
  118MPD2    C5 1838   2.301   0.200  14.247  0.0077  0.1517  0.1044
  118MPD2     H 1839   2.666   0.151  14.142  0.8877  1.0766  1.0088
  118MPD2    H1 1840   2.314   0.392  14.165 -0.1411  0.9139  1.7114
  118MPD2    H2 1841   2.322   4.734  14.339  0.2369  0.7964  0.8311
  118MPD2    H3 1842   2.197   0.221  14.271 -0.8843 -0.4421 -3.2005
  118MPD2     N 1843   2.549   0.388  14.068  0.6518  0.3905  0.3647
  118MPD2    H5 1844   2.490   0.470  14.058 -1.3644 -1.2759 -1.2449
  118MPD2    N1 1845   2.555   4.675  14.279  0.3904  0.2290  0.4929
  118MPD2    H7 1846   2.499   4.607  14.329 -0.4538  0.9309  0.5018
  119TMC2    C1 1847   1.046   0.470  13.588 -0.0895 -0.0719  0.4764
  119TMC2    C2 1848   1.045   0.402  13.702  0.2317 -0.1852  0.5555
  119TMC2    C3 1849   0.925   0.382  13.771  0.0945 -0.1527 -0.1632
  119TMC2    C4 1850   0.932   0.535  13.540 -0.0503 -0.3028 -0.0218
  119TMC2    C5 1851   0.820   0.512  13.607 -0.2208 -0.1487 -0.0325
  119TMC2    C6 1852   0.813   0.439  13.722  0.2829 -0.2233  0.3978
  119TMC2     C 1853   1.166   0.449  13.505 -0.4557  0.0294 -0.0341
  119TMC2     O 1854   1.216   0.338  13.507 -0.4968  0.2030  0.1415
  119TMC2     H 1855   1.140   0.362  13.738  2.2820  0.4550 -4.1422
  119TMC2    H1 1856   0.928   0.582  13.442 -1.0142  0.8811  0.5872
  119TMC2    H2 1857   0.719   0.413  13.769 -0.1380  1.4843  0.5026
  119TMC2    C7 1858   0.708   0.595  13.581 -0.2830 -0.5649  0.3104
  119TMC2    C8 1859   0.920   0.278  13.869  0.5751 -0.3215 -0.8706
  119TMC2    O1 1860   0.706   0.636  13.469 -0.1498  0.2614 -0.3335
  119TMC2    O2 1861   0.997   0.182  13.861 -0.6048  0.1762  0.0391
  119TMC2    O5 1862   0.813   0.282  13.943  0.6493 -0.0435 -0.4074
  119TMC2    H5 1863   0.772   0.371  13.943  0.8753  0.0613 -0.7666
  120MPD2     C 1864   1.094   0.932  13.351 -0.0348 -0.1928 -0.1884
  120MPD2    C1 1865   1.103   0.879  13.476 -0.4716 -0.1334  0.9649
  120MPD2    C2 1866   1.145   0.747  13.500 -0.1078  0.0013 -0.0757
  120MPD2    C3 1867   1.174   0.666  13.396  0.0683  0.6797 -0.0619
  120MPD2    C4 1868   1.162   0.714  13.264  0.7793  0.2710  0.0740
  120MPD2    C5 1869   1.127   0.846  13.245  0.5667  0.2593  0.3865
  120MPD2     H 1870   1.162   0.704  13.598 -1.9815 -2.2071 -0.7356
  120MPD2    H1 1871   1.171   0.647  13.179 -2.8479 -0.8669  0.5985
  120MPD2    H2 1872   1.053   1.030  13.328 -0.3170 -0.6904 -1.7782
  120MPD2    H3 1873   1.119   0.888  13.145 -2.0733 -1.3178 -0.0399
  120MPD2     N 1874   1.209   0.532  13.409  0.3274 -0.3964 -0.3734
  120MPD2    H5 1875   1.248   0.491  13.326  0.8557 -1.8052  0.5798
  120MPD2    N1 1876   1.060   0.963  13.587  0.0302  0.6392 -0.4678
  120MPD2    H7 1877   1.015   1.050  13.560 -0.9834  0.6624  1.3023
  121TMC2    C1 1878   1.983   2.609  14.161 -0.1321 -0.3184 -0.1972
  121TMC2    C2 1879   2.101   2.537  14.172  0.0691 -0.4296 -0.3127
  121TMC2    C3 1880   2.081   2.405  14.202 -0.7421 -0.0132  0.0051
  121TMC2    C4 1881   1.861   2.558  14.197 -0.5162 -0.1443 -0.5762
  121TMC2    C5 1882   1.854   2.433  14.244  0.3090  0.8758 -0.4901
  121TMC2    C6 1883   1.967   2.353  14.251 -0.4596  0.0295  0.0256
  121TMC2     C 1884   1.984   2.753  14.137 -0.3501 -0.0262 -0.1571
  121TMC2     O 1885   1.903   2.813  14.202  0.6036 -0.2659 -0.0545
  121TMC2     H 1886   2.197   2.585  14.158 -0.2734 -0.2969 -2.2025
  121TMC2    H1 1887   1.772   2.619  14.190 -1.3062 -0.7631  4.8284
  121TMC2    H2 1888   1.957   2.248  14.274  0.2145 -0.2048 -0.7709
  121TMC2    C7 1889   1.750   2.385  14.335  0.7908 -0.3711  0.0402
  121TMC2    C8 1890   2.200   2.322  14.219  0.3440  0.0990  0.0608
  121TMC2    O1 1891   1.762   2.268  14.375  0.6588 -0.5691 -0.3657
  121TMC2    O2 1892   2.210   2.235  14.302  0.0293 -0.3734 -0.8567
  121TMC2    O5 1893   2.281   2.346  14.112 -0.4049 -0.2293  0.3993
  121TMC2    H5 1894   2.251   2.419  14.054  0.7070 -1.8466 -2.2013
  122MPD2     C 1895   2.104   3.018  14.178 -0.9116 -0.1666  0.0606
  122MPD2    C1 1896   2.117   2.938  14.065  0.0390 -0.0440 -0.4952
  122MPD2    C2 1897   2.189   2.985  13.952 -0.5608  0.6280 -0.0375
  122MPD2    C3 1898   2.226   3.117  13.937 -0.0182  0.1777 -0.3940
  122MPD2    C4 1899   2.218   3.192  14.050 -0.1302 -0.0848  0.4683
  122MPD2    C5 1900   2.156   3.143  14.161  0.2955 -0.1229 -0.7827
  122MPD2     H 1901   2.205   2.912  13.873  0.4723 -2.4213  2.9670
  122MPD2    H1 1902   2.239   3.299  14.057  0.2285 -0.0956 -0.4480
  122MPD2    H2 1903   2.064   2.980  14.271 -2.5020  1.4675  0.0384
  122MPD2    H3 1904   2.139   3.204  14.249  0.4987 -1.4236  0.1516
  122MPD2     N 1905   2.279   3.181  13.821 -0.6134 -0.1013 -0.4633
  122MPD2    H5 1906   2.314   3.276  13.835 -2.3273  0.3275  0.9738
  122MPD2    N1 1907   2.078   2.803  14.059  0.0819  1.2117 -0.2781
  122MPD2    H7 1908   2.116   2.727  14.003  0.2654 -0.5548  2.2359
  123TMC2    C1 1909   1.445   0.961  10.739 -0.1546  0.1538  0.1837
  123TMC2    C2 1910   1.527   0.847  10.755 -0.6963 -0.5506  0.1539
  123TMC2    C3 1911   1.541   0.776  10.641  0.8225  1.0843  0.8697
  123TMC2    C4 1912   1.386   0.989  10.620 -0.5997 -0.2372 -0.1078
  123TMC2    C5 1913   1.421   0.923  10.508 -0.5088 -0.4219 -0.5450
  123TMC2    C6 1914   1.508   0.819  10.517 -0.2122 -0.1867 -0.3033
  123TMC2     C 1915   1.395   0.994  10.869  0.4838 -0.2597 -0.6294
  123TMC2     O 1916   1.466   0.974  10.964 -0.2533  0.0087  1.1170
  123TMC2     H 1917   1.594   0.831  10.838 -0.8173  1.4842  0.6581
  123TMC2    H1 1918   1.320   1.075  10.614  0.9348  0.8581 -1.2079
  123TMC2    H2 1919   1.544   0.776  10.424 -0.3340 -1.8695  0.4149
  123TMC2    C7 1920   1.375   0.962  10.375  0.3278  0.2901 -0.4223
  123TMC2    C8 1921   1.633   0.662  10.654  0.9469 -0.0352  0.0094
  123TMC2    O1 1922   1.461   0.972  10.287 -0.1450 -0.2527 -0.1107
  123TMC2    O2 1923   1.701   0.609  10.563 -0.3439  0.4262  0.3653
  123TMC2    O5 1924   1.594   0.599  10.763 -0.2098 -0.5385  0.1499
  123TMC2    H5 1925   1.516   0.644  10.803  0.1627  0.9007 -0.7327
  124MPD2     C 1926   0.962   0.985  11.147 -0.0898 -0.6457 -0.2172
  124MPD2    C1 1927   0.928   1.024  11.018  0.0849  0.6973 -0.5446
  124MPD2    C2 1928   1.037   1.046  10.932  0.9459 -0.0750 -0.0654
  124MPD2    C3 1929   1.173   1.026  10.967 -0.1855  0.4403 -0.8659
  124MPD2    C4 1930   1.196   0.976  11.094  0.1607 -0.4004  0.1379
  124MPD2    C5 1931   1.095   0.960  11.182 -0.8321 -0.5965 -0.0722
  124MPD2     H 1932   1.024   1.084  10.832  1.5690  0.7006  0.1487
  124MPD2    H1 1933   1.295   0.946  11.126 -0.1355 -0.4934  0.9699
  124MPD2    H2 1934   0.876   0.962  11.208 -1.1112  1.4857 -0.8712
  124MPD2    H3 1935   1.115   0.921  11.281  2.1368  2.0489  0.3855
  124MPD2     N 1936   1.267   1.042  10.863  0.0578 -0.2011 -0.5475
  124MPD2    H5 1937   1.223   1.053  10.772  0.3503  0.8937 -0.5626
  124MPD2    N1 1938   0.794   1.040  10.973  0.5789  0.3492 -0.0720
  124MPD2    H7 1939   0.725   1.018  11.043  0.1256  0.2084 -0.5658
  125TMC2    C1 1940   0.582   1.775   9.785  0.2231  0.1644  0.2945
  125TMC2    C2 1941   0.443   1.770   9.775  0.2089 -0.9783 -0.1586
  125TMC2    C3 1942   0.387   1.871   9.702  0.7150 -0.3172 -0.1705
  125TMC2    C4 1943   0.663   1.876   9.726  0.3365 -0.1739  0.1437
  125TMC2    C5 1944   0.595   1.970   9.661 -0.3070 -0.3319  0.9762
  125TMC2    C6 1945   0.458   1.971   9.645  0.6607  0.1235  0.3328
  125TMC2     C 1946   0.633   1.694   9.899  0.3860 -0.7094 -0.2300
  125TMC2     O 1947   0.558   1.656   9.987  0.1661 -0.1241 -0.2251
  125TMC2     H 1948   0.376   1.709   9.836  0.3581 -0.1957  0.7917
  125TMC2    H1 1949   0.771   1.867   9.737  0.2637 -0.8420  0.3161
  125TMC2    H2 1950   0.418   2.037   9.569  1.3087  2.1099  1.7334
  125TMC2    C7 1951   0.670   2.046   9.567 -0.3138 -0.0673  0.4058
  125TMC2    C8 1952   0.246   1.868   9.669  0.2393  0.1924  0.6583
  125TMC2    O1 1953   0.751   1.989   9.493 -0.0876  0.3150  0.7068
  125TMC2    O2 1954   0.190   1.973   9.634 -0.6101  0.3921  0.2200
  125TMC2    O5 1955   0.185   1.757   9.714  0.3988  0.2928  0.2932
  125TMC2    H5 1956   0.242   1.678   9.722 -0.0643 -0.0286  0.4101
  126MPD1     C 1957   1.058   1.497  10.133 -0.3312  0.1324  0.0608
  126MPD1    C1 1958   1.095   1.554  10.015 -0.3152 -0.8247 -0.3053
  126MPD1    C2 1959   0.991   1.591   9.933  0.3062 -0.2574  0.0270
  126MPD1    C3 1960   0.860   1.613   9.975  0.2966  0.3194  0.0916
  126MPD1    C4 1961   0.822   1.562  10.101  0.0055 -0.0245 -0.3158
  126MPD1    C5 1962   0.921   1.504  10.176 -0.0985  0.0025 -0.2406
  126MPD1     H 1963   1.016   1.619   9.832 -0.7532  1.5188  0.2606
  126MPD1    H1 1964   0.719   1.568  10.135  0.1608 -1.7544  0.4379
  126MPD1    H2 1965   1.133   1.442  10.189 -1.9198 -2.8363 -0.6728
  126MPD1    H3 1966   0.906   1.454  10.271 -0.8860 -0.9982 -0.8827
  126MPD1     N 1967   0.769   1.675   9.889  0.3800 -0.1097  0.0380
  126MPD1    H5 1968   0.793   1.679   9.791 -1.0479 -0.3221 -0.3182
  126MPD1    N1 1969   1.229   1.549   9.965 -0.5749  0.7743  0.3021
  126MPD1    H6 1970   1.241   1.610   9.884 -2.0005  0.6053 -0.0435
  126MPD1    H7 1971   1.300   1.563  10.036 -0.0939  3.0246 -0.6335
  127TMC2    C1 1972   1.905   1.815   9.681 -0.2577  0.0604 -0.3829
  127TMC2    C2 1973   2.031   1.775   9.699 -0.8011  0.0320 -0.3383
  127TMC2    C3 1974   2.052   1.645   9.731  0.6305  0.2504  0.0594
  127TMC2    C4 1975   1.805   1.726   9.677  0.5239  0.3648  0.5728
  127TMC2    C5 1976   1.826   1.593   9.704  0.2994 -0.0423  0.4211
  127TMC2    C6 1977   1.955   1.549   9.730 -0.3605  0.7543  0.4317
  127TMC2     C 1978   1.888   1.945   9.625  0.5511  0.6325  0.7185
  127TMC2     O 1979   1.984   2.020   9.637 -0.1007  0.1515  0.9536
  127TMC2     H 1980   2.118   1.838   9.687 -0.9411  0.2741 -0.0571
  127TMC2    H1 1981   1.707   1.769   9.694  0.1335 -0.5849  0.7495
  127TMC2    H2 1982   1.977   1.444   9.748 -0.7156  0.6541  0.2794
  127TMC2    C7 1983   1.714   1.518   9.759 -0.2999 -0.5377  0.7012
  127TMC2    C8 1984   2.185   1.596   9.703 -0.8557  0.2754 -0.5821
  127TMC2    O1 1985   1.605   1.565   9.747  0.2364  0.2526  0.0459
  127TMC2    O2 1986   2.248   1.653   9.612  0.4903 -0.0687 -0.3565
  127TMC2    O5 1987   2.211   1.474   9.763 -0.2614 -0.1891 -0.1157
  127TMC2    H5 1988   2.145   1.462   9.834  0.1452 -0.0092  0.2961
  128MPD2     C 1989   1.622   2.049   9.405  0.0849 -0.5976 -0.2534
  128MPD2    C1 1990   1.720   2.073   9.494  0.3811  0.5783  0.3408
  128MPD2    C2 1991   1.756   2.203   9.535 -0.1561 -0.1234 -0.0022
  128MPD2    C3 1992   1.671   2.314   9.492  0.3660  0.0042 -0.2167
  128MPD2    C4 1993   1.573   2.284   9.399  0.0203 -0.1955 -0.0558
  128MPD2    C5 1994   1.553   2.153   9.358  0.7433  0.1509  0.6091
  128MPD2     H 1995   1.801   2.233   9.629 -0.5034  0.1828  0.0642
  128MPD2    H1 1996   1.507   2.361   9.360 -0.8617 -0.7144  0.4125
  128MPD2    H2 1997   1.585   1.953   9.369 -0.4251 -0.0425 -1.2120
  128MPD2    H3 1998   1.475   2.125   9.289  0.0867  0.3450  1.2716
  128MPD2     N 1999   1.676   2.443   9.550 -0.7892  0.4526 -0.0591
  128MPD2    H5 2000   1.736   2.467   9.629  0.3302 -1.3986 -0.3668
  128MPD2    N1 2001   1.773   1.954   9.549 -0.2231  0.2077 -0.3628
  128MPD2    H7 2002   1.725   1.865   9.546  0.1866  0.0269 -1.4639
  129TMC2    C1 2003   1.225   1.094   1.377 -0.1502 -0.3592 -0.6864
  129TMC2    C2 2004   1.234   0.956   1.392 -1.0982  0.4619  0.2125
  129TMC2    C3 2005   1.130   0.886   1.449 -0.6680  0.1154 -0.0184
  129TMC2    C4 2006   1.117   1.166   1.432  0.3326  0.2848 -0.0917
  129TMC2    C5 2007   1.032   1.092   1.516  0.5969 -0.9808 -0.1392
  129TMC2    C6 2008   1.034   0.954   1.520  0.2150 -0.2759  0.3287
  129TMC2     C 2009   1.342   1.149   1.320  0.3210 -0.0836  0.0873
  129TMC2     O 2010   1.442   1.084   1.299 -0.1164 -0.1508 -0.0866
  129TMC2     H 2011   1.295   0.896   1.326 -1.1697  2.4266 -1.6308
  129TMC2    H1 2012   1.125   1.274   1.431 -0.4699  0.3534  1.0136
  129TMC2    H2 2013   0.979   0.899   1.595  0.4393 -0.1282  0.6035
  129TMC2    C7 2014   0.917   1.158   1.582  0.0270 -0.3533  0.5939
  129TMC2    C8 2015   1.132   0.743   1.447  0.6986  0.0363  0.7486
  129TMC2    O1 2016   0.812   1.101   1.609  0.1610 -0.4644 -0.2712
  129TMC2    O2 2017   1.228   0.669   1.437 -0.2480  0.1926 -0.8193
  129TMC2    O5 2018   1.004   0.703   1.462 -0.2511 -0.0314 -0.2245
  129TMC2    H5 2019   0.933   0.769   1.450  0.0262  0.6043  1.6742
  130MPD2     C 2020   1.548   1.338   1.214 -0.2048 -0.2807  0.0332
  130MPD2    C1 2021   1.407   1.359   1.206  0.1013 -0.8776 -0.0259
  130MPD2    C2 2022   1.364   1.471   1.131 -0.2405 -0.3936 -0.0781
  130MPD2    C3 2023   1.445   1.550   1.056 -0.1390  0.4206  0.3033
  130MPD2    C4 2024   1.580   1.526   1.060  0.0617  0.3087  0.3586
  130MPD2    C5 2025   1.632   1.419   1.130  0.4782 -0.9783  0.2997
  130MPD2     H 2026   1.259   1.499   1.130 -0.2908 -0.5954 -0.6083
  130MPD2    H1 2027   1.652   1.601   1.028 -0.5270  1.9554  2.9343
  130MPD2    H2 2028   1.596   1.260   1.271  0.4098 -0.7379 -1.1078
  130MPD2    H3 2029   1.739   1.405   1.135  0.7400  0.7202 -0.4816
  130MPD2     N 2030   1.387   1.666   0.995 -0.0262 -0.2471 -0.3014
  130MPD2    H5 2031   1.285   1.672   1.000 -0.0333  0.0740 -0.8418
  130MPD2    N1 2032   1.315   1.277   1.272 -0.1834 -0.2116 -0.7781
  130MPD2    H7 2033   1.219   1.308   1.280  0.6416  2.1606 -0.2633
  131TMC2    C1 2034   1.028   1.797  10.351  0.1815 -0.0987 -0.0133
  131TMC2    C2 2035   1.151   1.773  10.402 -0.1130 -0.2118  0.5443
  131TMC2    C3 2036   1.260   1.778  10.320 -0.3103 -0.3865  0.1026
  131TMC2    C4 2037   1.015   1.841  10.222  0.3272 -0.3374  0.1882
  131TMC2    C5 2038   1.125   1.855  10.144  0.6823 -0.2133 -0.4312
  131TMC2    C6 2039   1.251   1.826  10.189 -0.1817  0.4077 -0.2163
  131TMC2     C 2040   0.913   1.739  10.425 -0.8752  0.0922 -0.0832
  131TMC2     O 2041   0.935   1.661  10.514 -0.4529  0.6006 -0.4930
  131TMC2     H 2042   1.163   1.760  10.509  1.7145 -1.2062  0.2054
  131TMC2    H1 2043   0.917   1.852  10.176  0.6444 -1.5361 -0.7682
  131TMC2    H2 2044   1.333   1.827  10.118  0.4456  0.8244  0.5152
  131TMC2    C7 2045   1.115   1.902  10.002 -0.0670  0.3698  0.3427
  131TMC2    C8 2046   1.366   1.680  10.330 -0.6335 -0.3293 -0.0456
  131TMC2    O1 2047   1.213   1.883   9.928  0.1775 -0.5107  0.3876
  131TMC2    O2 2048   1.418   1.624  10.235  0.2245  0.4566  0.0786
  131TMC2    O5 2049   1.363   1.637  10.458 -0.5110 -0.5105 -0.4619
  131TMC2    H5 2050   1.332   1.708  10.519 -0.0914 -0.3700 -0.4112
  132MPD2     C 2051   0.569   1.712  10.301 -0.9420  0.2429  0.3110
  132MPD2    C1 2052   0.671   1.690  10.389  0.4709 -0.0226 -0.3174
  132MPD2    C2 2053   0.649   1.595  10.493 -0.1559  1.0581  0.4642
  132MPD2    C3 2054   0.535   1.520  10.507 -0.2380  0.0376  0.4782
  132MPD2    C4 2055   0.428   1.559  10.428  0.2182 -0.2055  0.5170
  132MPD2    C5 2056   0.449   1.648  10.324  0.0785  0.0150 -0.4500
  132MPD2     H 2057   0.738   1.567  10.548 -0.1370  0.0324 -0.0932
  132MPD2    H1 2058   0.331   1.512  10.432  0.4592 -0.6217  1.7316
  132MPD2    H2 2059   0.583   1.765  10.208 -0.0272 -2.2384 -0.9732
  132MPD2    H3 2060   0.365   1.657  10.256 -0.4227  0.5179  0.2332
  132MPD2     N 2061   0.538   1.411  10.597 -0.2612  0.2888 -0.1220
  132MPD2    H5 2062   0.624   1.404  10.652  0.4916 -1.1810 -1.4972
  132MPD2    N1 2063   0.792   1.762  10.362  0.2474 -0.4416  0.7551
  132MPD2    H7 2064   0.796   1.820  10.279  2.1070 -0.7380  0.6405
  133TMC2    C1 2065   2.753   2.293   9.800 -0.3711  0.5517 -0.6154
  133TMC2    C2 2066   2.667   2.364   9.715  0.2814 -0.3992  0.0125
  133TMC2    C3 2067   2.534   2.344   9.740 -0.4464 -0.0244  0.1910
  133TMC2    C4 2068   2.710   2.219   9.909 -0.5324 -0.1707  0.1599
  133TMC2    C5 2069   2.576   2.212   9.927 -0.6509 -0.0648 -0.1729
  133TMC2    C6 2070   2.487   2.271   9.839  0.6179 -0.4279 -0.4715
  133TMC2     C 2071   2.894   2.289   9.767 -0.3640  0.0837  0.2397
  133TMC2     O 2072   2.973   2.250   9.853 -0.0664  0.0488  0.0420
  133TMC2     H 2073   2.691   2.442   9.643 -1.0190  0.5932  0.6377
  133TMC2    H1 2074   2.787   2.191   9.980  0.5250 -0.0255 -0.9327
  133TMC2    H2 2075   2.382   2.264   9.863  0.6383  1.4226  0.1734
  133TMC2    C7 2076   2.519   2.126  10.026 -0.1795  0.7337  0.3466
  133TMC2    C8 2077   2.448   2.427   9.654 -0.3305 -0.3749 -0.4573
  133TMC2    O1 2078   2.415   2.165  10.081 -0.2077  0.1597  0.4867
  133TMC2    O2 2079   2.487   2.467   9.545 -0.4685  0.4139 -0.0482
  133TMC2    O5 2080   2.329   2.444   9.719  0.4930  0.5124 -0.2057
  133TMC2    H5 2081   2.323   2.422   9.814 -0.0885  0.7919 -0.1792
  134MPD2     C 2082   3.054   2.332   9.439  0.2909 -0.2915 -0.7176
  134MPD2    C1 2083   3.045   2.342   9.578 -0.2897 -1.0493 -0.1765
  134MPD2    C2 2084   3.165   2.354   9.643  0.1219 -0.4802  0.0776
  134MPD2    C3 2085   3.288   2.374   9.574 -0.1753  0.2449 -0.1828
  134MPD2    C4 2086   3.288   2.375   9.436  0.0810 -0.3631  0.1762
  134MPD2    C5 2087   3.171   2.356   9.374 -0.3883  0.0782  0.0973
  134MPD2     H 2088   3.169   2.325   9.748 -0.0610 -1.7273 -0.2518
  134MPD2    H1 2089   3.375   2.394   9.374  0.2271 -1.2857  0.1015
  134MPD2    H2 2090   2.968   2.315   9.376 -1.3040  0.0337  1.3662
  134MPD2    H3 2091   3.158   2.348   9.267 -0.8222 -0.2951  0.1767
  134MPD2     N 2092   3.418   2.383   9.628 -0.7418 -0.8699 -0.6618
  134MPD2    H5 2093   3.491   2.413   9.565 -0.8877  0.2983 -0.2722
  134MPD2    N1 2094   2.916   2.322   9.639 -0.1387 -0.3842  0.2796
  134MPD2    H7 2095   2.839   2.338   9.575 -1.8811 -2.0915  1.9661
  135TMC2    C1 2096   1.312   3.837  10.264 -0.5929 -1.0418  0.4767
  135TMC2    C2 2097   1.317   3.873  10.392  0.6034 -0.6569  0.1087
  135TMC2    C3 2098   1.245   3.810  10.485  0.0132  0.0722 -0.8068
  135TMC2    C4 2099   1.224   3.738  10.231 -0.3036  0.2727  0.4481
  135TMC2    C5 2100   1.155   3.672  10.332  0.2590  0.0203 -0.6309
  135TMC2    C6 2101   1.156   3.711  10.460 -0.2716 -0.4697 -0.8662
  135TMC2     C 2102   1.401   3.886  10.165  0.0508 -0.1204  0.0716
  135TMC2     O 2103   1.429   4.000  10.187 -0.2646  0.2543 -0.0509
  135TMC2     H 2104   1.384   3.954  10.417  1.1188  0.3109 -4.4101
  135TMC2    H1 2105   1.220   3.690  10.134  2.1081  1.1065 -0.0498
  135TMC2    H2 2106   1.104   3.651  10.534  0.1788  1.2238  0.8299
  135TMC2    C7 2107   1.048   3.575  10.294 -0.0772 -0.2046 -0.2210
  135TMC2    C8 2108   1.259   3.860  10.618 -0.2742 -0.1069 -0.0707
  135TMC2    O1 2109   0.995   3.583  10.184 -0.1049 -0.1396 -0.4149
  135TMC2    O2 2110   1.306   3.971  10.641  0.0395 -0.3518 -0.2985
  135TMC2    O5 2111   1.285   3.762  10.707 -0.4736  0.3606  0.0999
  135TMC2    H5 2112   1.270   3.672  10.671  1.3492 -0.4073  1.2480
  136MPD2     C 2113   1.635   3.943   9.975  0.2788 -0.6470  0.2244
  136MPD2    C1 2114   1.569   3.823   9.993  0.5083 -0.0470 -0.1699
  136MPD2    C2 2115   1.606   3.712   9.919  0.1724 -0.6787  0.2464
  136MPD2    C3 2116   1.731   3.713   9.849  0.5352 -0.2720  0.6746
  136MPD2    C4 2117   1.802   3.832   9.849 -0.0377 -0.2067  0.2416
  136MPD2    C5 2118   1.747   3.947   9.892 -0.3146 -0.6474 -0.7186
  136MPD2     H 2119   1.549   3.619   9.921 -0.8175 -0.0518  1.1810
  136MPD2    H1 2120   1.901   3.840   9.804 -0.2959  3.6791  0.2909
  136MPD2    H2 2121   1.606   4.035  10.024 -1.2732  0.3439 -2.5515
  136MPD2    H3 2122   1.802   4.041   9.890  2.3433 -2.1602  1.2361
  136MPD2     N 2123   1.797   3.601   9.793 -0.2515 -0.1361 -0.3000
  136MPD2    H5 2124   1.872   3.618   9.726  0.6029  2.0189  1.1813
  136MPD2    N1 2125   1.461   3.796  10.085  0.1068  0.0811  0.0325
  136MPD2    H7 2126   1.426   3.701  10.089  0.8137 -0.0289  3.5887
  137TMC2    C1 2127   1.253   3.072  10.096  0.0051  0.6173  0.0784
  137TMC2    C2 2128   1.328   3.174  10.150 -0.9786  0.4152  0.0031
  137TMC2    C3 2129   1.287   3.303  10.127  1.2821 -0.2147  0.3798
  137TMC2    C4 2130   1.143   3.096  10.012 -0.2908  1.0523 -0.0584
  137TMC2    C5 2131   1.117   3.222   9.974 -0.2470  0.4648 -0.1236
  137TMC2    C6 2132   1.187   3.329  10.032  0.1649  0.4571 -0.2971
  137TMC2     C 2133   1.324   2.944  10.093  0.1038 -0.5267 -0.0336
  137TMC2     O 2134   1.419   2.926  10.166  0.6827  0.0725 -0.3444
  137TMC2     H 2135   1.416   3.150  10.209 -1.2575 -2.3400 -0.6978
  137TMC2    H1 2136   1.073   3.017   9.988  0.3798  0.4578 -0.0345
  137TMC2    H2 2137   1.167   3.427   9.991 -0.4611  0.3249 -0.3112
  137TMC2    C7 2138   0.981   3.252   9.927  0.1916 -0.4014  0.1402
  137TMC2    C8 2139   1.379   3.407  10.156  0.2362  0.3747 -0.3278
  137TMC2    O1 2140   0.943   3.368   9.942  0.2539  0.5327  0.5281
  137TMC2    O2 2141   1.388   3.503  10.077 -0.0164 -0.2662 -0.0122
  137TMC2    O5 2142   1.413   3.402  10.285 -0.4088  0.6355 -0.4617
  137TMC2    H5 2143   1.371   3.327  10.332 -0.3602  0.5183 -0.6053
  138MPD2     C 2144   1.267   2.694   9.826  0.0498 -0.3955  0.0234
  138MPD2    C1 2145   1.316   2.740   9.947  1.5043  0.7127  0.1948
  138MPD2    C2 2146   1.405   2.668  10.028 -0.1527 -0.5987 -0.2985
  138MPD2    C3 2147   1.432   2.539   9.987 -1.0086 -0.5612 -0.2502
  138MPD2    C4 2148   1.376   2.486   9.871 -0.2457 -0.9316  0.8396
  138MPD2    C5 2149   1.299   2.563   9.783  0.1445 -0.4022 -0.0822
  138MPD2     H 2150   1.448   2.719  10.114 -1.0927  0.2695 -0.3436
  138MPD2    H1 2151   1.402   2.384   9.843  1.2647  0.1783 -1.8120
  138MPD2    H2 2152   1.200   2.753   9.765  1.1742  1.7614  0.8840
  138MPD2    H3 2153   1.267   2.516   9.691 -2.7384 -1.7941  1.6380
  138MPD2     N 2154   1.515   2.456  10.070  1.0959  0.3863 -0.3818
  138MPD2    H5 2155   1.571   2.503  10.140  0.4969  0.3272  0.1332
  138MPD2    N1 2156   1.280   2.876   9.981 -0.2443 -0.3271  0.1991
  138MPD2    H7 2157   1.212   2.922   9.922  1.0771 -0.7090 -1.6349
  139TMC2    C1 2158   2.423   0.468  13.380  0.2378 -0.0938 -0.3190
  139TMC2    C2 2159   2.476   0.560  13.299  0.4114 -0.4940 -0.8223
  139TMC2    C3 2160   2.399   0.668  13.278  0.0984  0.0890  0.3368
  139TMC2    C4 2161   2.303   0.483  13.452 -0.2736 -0.1734  0.4544
  139TMC2    C5 2162   2.237   0.601  13.432  0.4376 -0.4706  0.1652
  139TMC2    C6 2163   2.284   0.690  13.343  0.4328 -0.1240 -0.8098
  139TMC2     C 2164   2.509   0.360  13.424 -0.7996 -0.3625  0.0159
  139TMC2     O 2165   2.591   0.337  13.336  0.2181  0.4421  0.2321
  139TMC2     H 2166   2.555   0.522  13.235  0.8664 -1.6438  0.4200
  139TMC2    H1 2167   2.257   0.398  13.501  1.9550 -0.0976  2.6729
  139TMC2    H2 2168   2.229   0.779  13.314  2.2046  0.4307 -2.4073
  139TMC2    C7 2169   2.112   0.630  13.503 -0.1593  0.0092 -0.8727
  139TMC2    C8 2170   2.410   0.733  13.148 -0.1866  0.2447  0.4050
  139TMC2    O1 2171   2.052   0.723  13.456  0.2754 -0.4326 -0.1292
  139TMC2    O2 2172   2.316   0.788  13.089 -0.1363  0.5430  0.1217
  139TMC2    O5 2173   2.538   0.724  13.092  0.0292  0.2608 -0.2792
  139TMC2    H5 2174   2.614   0.712  13.153 -0.1233 -0.2160 -0.1789
  140MPD2     C 2175   2.551   0.203  13.756 -0.0365  0.5690 -0.0713
  140MPD2    C1 2176   2.570   0.217  13.622  0.2656  0.1539 -0.3724
  140MPD2    C2 2177   2.670   0.138  13.567  0.0058 -0.4131  0.4961
  140MPD2    C3 2178   2.753   0.055  13.640 -0.2221  0.3599 -0.3513
  140MPD2    C4 2179   2.732   0.050  13.774  0.1642 -0.6994 -0.2050
  140MPD2    C5 2180   2.637   0.127  13.834 -0.3269 -0.4591  1.1949
  140MPD2     H 2181   2.685   0.156  13.461 -0.0007 -1.7933  0.2594
  140MPD2    H1 2182   2.794   4.726  13.842 -1.0961 -0.5749  1.0554
  140MPD2    H2 2183   2.467   0.258  13.797 -1.8694 -1.5017 -1.0481
  140MPD2    H3 2184   2.606   0.099  13.935 -0.3647 -2.4342  0.6418
  140MPD2     N 2185   2.862   4.731  13.573 -0.1178 -0.2327  0.3301
  140MPD2    H5 2186   2.883   0.025  13.478 -1.6823 -0.4955 -0.1001
  140MPD2    N1 2187   2.490   0.315  13.553  0.1039 -0.3523 -0.2730
  140MPD2    H7 2188   2.419   0.363  13.607 -0.1288 -1.1313  0.1001
  141TMC2    C1 2189   2.633   1.682  14.489  0.1226  0.7118  0.1412
  141TMC2    C2 2190   2.695   1.591  14.570  1.0348  0.7082  0.3108
  141TMC2    C3 2191   2.797   1.643  14.647  0.5158 -0.0332 -0.0654
  141TMC2    C4 2192   2.658   1.819  14.501 -0.1449  0.2970 -0.7502
  141TMC2    C5 2193   2.765   1.859  14.571 -0.3980  0.8363 -0.4494
  141TMC2    C6 2194   2.841   1.768  14.637  0.2738  0.0631  0.7495
  141TMC2     C 2195   2.506   1.647  14.440  0.2070  0.6100  0.0542
  141TMC2     O 2196   2.478   1.701  14.332  0.2700 -0.4329 -0.0116
  141TMC2     H 2197   2.664   1.487  14.578 -0.4279  1.1472  0.4784
  141TMC2    H1 2198   2.590   1.890  14.456  1.1378  1.2395 -1.1794
  141TMC2    H2 2199   2.935   1.793  14.684  0.3513 -0.5647  0.9275
  141TMC2    C7 2200   2.789   1.997  14.600 -0.3905 -0.0406  0.6485
  141TMC2    C8 2201   2.889   1.553  14.708  0.6318 -0.5912 -0.7816
  141TMC2    O1 2202   2.836   2.032  14.705  0.1717  0.1114 -0.1508
  141TMC2    O2 2203   2.992   1.591  14.762  0.0610 -0.9284  0.5288
  141TMC2    O5 2204   2.876   1.426  14.671 -0.2013 -0.2686  0.2323
  141TMC2    H5 2205   2.831   1.414  14.585 -3.2182 -0.3882  1.8498
  142TMC2    C1 2206   0.426   0.985  10.413  0.9638  0.3342  0.2752
  142TMC2    C2 2207   0.344   1.084  10.366  0.0402  0.7037 -0.4159
  142TMC2    C3 2208   0.396   1.190  10.291  0.3076 -0.2009  0.1723
  142TMC2    C4 2209   0.562   0.984  10.390 -0.1952 -0.2514  0.5590
  142TMC2    C5 2210   0.613   1.099  10.333 -0.1018 -0.2685  0.2378
  142TMC2    C6 2211   0.537   1.198  10.286 -0.0834  0.3406  1.1990
  142TMC2     C 2212   0.360   0.881  10.482  0.2314 -0.0647  0.0058
  142TMC2     O 2213   0.236   0.871  10.481  0.1790 -0.4731 -0.3638
  142TMC2     H 2214   0.236   1.077  10.365  0.0400  0.7870 -1.2036
  142TMC2    H1 2215   0.624   0.899  10.419 -1.7151 -2.1234 -1.7080
  142TMC2    H2 2216   0.574   1.285  10.232 -2.4385  0.7003  0.1606
  142TMC2    C7 2217   0.756   1.129  10.357  0.4695 -0.3171 -0.5938
  142TMC2    C8 2218   0.306   1.285  10.226 -0.1715 -0.0227  0.3419
  142TMC2    O1 2219   0.804   1.090  10.465  0.0962 -0.2037 -0.0348
  142TMC2    O2 2220   0.327   1.347  10.124 -0.6009  0.0095  0.2073
  142TMC2    O5 2221   0.209   1.319  10.314 -0.0864 -0.1738 -0.4460
  142TMC2    H5 2222   0.217   1.275  10.401  2.2940  2.1990  0.5311
  143MPD2     C 2223   0.458   0.479  10.799 -0.4840 -0.5833  0.2719
  143MPD2    C1 2224   0.365   0.490  10.697 -0.3589  0.0902  0.4156
  143MPD2    C2 2225   0.355   0.605  10.615  0.1483  0.2389  0.4889
  143MPD2    C3 2226   0.442   0.710  10.644 -0.3938  0.4403  0.5526
  143MPD2    C4 2227   0.537   0.695  10.736  0.7235  0.3851  0.1522
  143MPD2    C5 2228   0.549   0.585  10.820 -0.5662 -0.4853  0.8478
  143MPD2     H 2229   0.287   0.623  10.532 -0.2589  2.9655  1.4213
  143MPD2    H1 2230   0.622   0.762  10.739  0.9040  0.1398  0.4420
  143MPD2    H2 2231   0.469   0.400  10.872 -0.5020 -2.1857 -1.4862
  143MPD2    H3 2232   0.635   0.578  10.886 -0.1312 -1.2362  0.1977
  143MPD2     N 2233   0.454   0.815  10.557 -0.0940  0.3064  0.5759
  143MPD2    H5 2234   0.545   0.858  10.563 -2.7769  6.1665 -0.2006
  143MPD2    N1 2235   0.294   0.370  10.663 -0.0370  0.3377 -0.1468
  143MPD2    H7 2236   0.322   0.287  10.714  1.2165  1.0261  0.2746
  144TMC2    C1 2237   3.359   3.962   0.753  0.1814 -0.0444 -0.1685
  144TMC2    C2 2238   3.453   3.912   0.661 -0.3150  1.0902 -0.1001
  144TMC2    C3 2239   3.581   3.957   0.663  0.3109 -0.6055  0.3373
  144TMC2    C4 2240   3.391   4.045   0.858 -0.1362  0.2782 -0.0949
  144TMC2    C5 2241   3.528   4.076   0.862 -0.2200  0.3579 -0.0469
  144TMC2    C6 2242   3.620   4.036   0.769  0.2751 -0.1757 -0.9995
  144TMC2     C 2243   3.218   3.954   0.713  0.4814  0.0566 -0.4458
  144TMC2     O 2244   3.203   3.907   0.603  0.0911 -0.6589  0.3535
  144TMC2     H 2245   3.424   3.845   0.580  2.0115 -0.2714  0.1799
  144TMC2    H1 2246   3.316   4.068   0.933  0.5868  1.7044  0.1997
  144TMC2    H2 2247   3.725   4.061   0.778 -0.0695  0.8568  0.1321
  144TMC2    C7 2248   3.580   4.123   0.988 -0.0681 -0.3355 -0.3562
  144TMC2    C8 2249   3.682   3.879   0.587 -0.4608 -0.4983  0.0488
  144TMC2    O1 2250   3.701   4.103   0.993 -0.0735 -0.2718  0.1753
  144TMC2    O2 2251   3.649   3.784   0.513 -0.2754 -0.4827  0.1879
  144TMC2    O5 2252   3.796   3.946   0.580  0.1547  0.5910  0.3788
  144TMC2    H5 2253   3.802   4.031   0.629 -0.2616  0.2862  0.9647
  145MPD2     C 2254   2.735   4.126   0.697  0.0385 -0.0515  0.1634
  145MPD2    C1 2255   2.816   4.055   0.596  0.1671  0.4730  0.3637
  145MPD2    C2 2256   2.937   4.014   0.642  0.2596 -0.4517  0.1937
  145MPD2    C3 2257   2.990   4.050   0.762  0.1189 -0.1032  0.0987
  145MPD2    C4 2258   2.916   4.123   0.853 -0.0655  0.6951 -0.3652
  145MPD2    C5 2259   2.784   4.156   0.820  0.0389 -0.3547 -0.8587
  145MPD2     H 2260   2.995   3.963   0.565 -1.9282 -1.3040 -0.8964
  145MPD2    H1 2261   2.954   4.145   0.952 -1.3766  0.4825  0.1792
  145MPD2    H2 2262   2.635   4.158   0.668  0.1255  1.4695  1.5674
  145MPD2    H3 2263   2.721   4.211   0.889  4.4470 -0.0558  2.9157
  145MPD2     N 2264   3.128   4.025   0.791  0.0530 -0.0233 -0.2255
  145MPD2    H5 2265   3.172   4.072   0.869 -0.7262  1.0787 -0.4634
  145MPD2    N1 2266   2.763   4.022   0.468 -0.2101  0.4667  0.4989
  145MPD2    H7 2267   2.814   3.956   0.409 -1.5636  0.2528 -0.4235
  146TMC2    C1 2268   0.218   3.584  12.817 -0.2027  0.6636  0.2284
  146TMC2    C2 2269   0.194   3.720  12.796  0.2119  0.2196 -0.2590
  146TMC2    C3 2270   0.288   3.776  12.709  0.7624 -1.1484  0.4838
  146TMC2    C4 2271   0.313   3.505  12.758  0.5880  0.3077 -0.3422
  146TMC2    C5 2272   0.410   3.565  12.680 -0.1345 -0.5077 -0.2526
  146TMC2    C6 2273   0.395   3.703  12.659 -0.1306  0.1973 -0.1802
  146TMC2     C 2274   0.137   3.522  12.932 -0.4177  0.0191 -0.5750
  146TMC2     O 2275   0.037   3.595  12.948  0.2515  0.1389  0.7052
  146TMC2     H 2276   0.118   3.782  12.842  0.1217  0.9975 -1.4746
  146TMC2    H1 2277   0.301   3.398  12.772 -2.3070  0.9256  2.0465
  146TMC2    H2 2278   0.469   3.760  12.604  1.0257 -1.1239  0.0176
  146TMC2    C7 2279   0.532   3.505  12.633 -0.3101  0.2100 -0.1884
  146TMC2    C8 2280   0.298   3.916  12.726 -0.2844  0.8168 -0.5222
  146TMC2    O1 2281   0.595   3.572  12.553 -0.3757 -0.1582  0.4955
  146TMC2    O2 2282   0.270   3.977  12.826 -0.1042 -0.3012 -0.0017
  146TMC2    O5 2283   0.301   3.971  12.600 -0.5344  0.2321 -0.2549
  146TMC2    H5 2284   0.329   3.903  12.535  0.7745  0.0482  0.5106
  147MPD2     C 2285   0.849   3.101  12.560 -0.4525  0.2298  0.6937
  147MPD2    C1 2286   0.736   3.057  12.633 -0.6451  0.1428  0.5262
  147MPD2    C2 2287   0.643   3.155  12.677  1.4302  0.4161 -0.6991
  147MPD2    C3 2288   0.653   3.289  12.646  0.3348  0.0805  0.1717
  147MPD2    C4 2289   0.772   3.329  12.589  0.3299  0.4474 -0.5195
  147MPD2    C5 2290   0.866   3.235  12.550  0.5675 -0.9317 -0.3543
  147MPD2     H 2291   0.561   3.126  12.740  0.4960  0.4361 -1.9006
  147MPD2    H1 2292   0.781   3.437  12.578  0.5877  0.2970 -1.7732
  147MPD2    H2 2293   0.919   3.035  12.509 -2.2518 -0.7341 -0.5071
  147MPD2    H3 2294   0.954   3.276  12.501 -0.6915  0.8125 -1.1475
  147MPD2     N 2295   0.548   3.377  12.683  0.4136  0.5317 -0.3564
  147MPD2    H5 2296   0.476   3.345  12.747  1.9554 -1.8511  0.2117
  147MPD2    N1 2297   0.715   2.912  12.646 -0.4197  0.0053  0.7946
  147MPD2    H7 2298   0.791   2.855  12.610 -1.8725 -1.1592 -0.4189
  148TMC2    C1 2299   4.501   2.618  10.866  0.1628 -0.4660  0.2081
  148TMC2    C2 2300   4.547   2.737  10.901 -0.4147  0.4727 -0.3489
  148TMC2    C3 2301   4.626   2.748  11.014 -0.1470  0.9088 -0.2034
  148TMC2    C4 2302   4.510   2.512  10.951  0.0018 -0.2735 -0.0547
  148TMC2    C5 2303   4.590   2.522  11.062 -0.8012  0.2073 -0.2538
  148TMC2    C6 2304   4.646   2.643  11.098 -0.3797 -0.4522 -1.0220
  148TMC2     C 2305   4.414   2.612  10.748  0.0445  0.2412  0.1939
  148TMC2     O 2306   4.374   2.718  10.700  0.3860 -0.2259  0.8445
  148TMC2     H 2307   4.548   2.816  10.827 -2.4954 -0.7062 -1.6276
  148TMC2    H1 2308   4.450   2.428  10.918  0.7045 -1.1394  0.8893
  148TMC2    H2 2309   4.701   2.648  11.191 -0.5967  1.1617 -0.9861
  148TMC2    C7 2310   4.601   2.414  11.160 -0.5976 -0.1828  0.4133
  148TMC2    C8 2311   4.655   2.878  11.067 -0.4189  0.2591  0.4821
  148TMC2    O1 2312   4.644   2.439  11.272 -0.4483  0.0923  0.3838
  148TMC2    O2 2313   4.714   2.900  11.173 -0.2675  0.4542  0.3081
  148TMC2    O5 2314   4.594   2.978  10.998  0.4905 -0.2571 -0.1953
  148TMC2    H5 2315   4.522   2.948  10.938  0.2221  1.6270 -0.8187
  149MPD2     C 2316   4.297   2.527  10.490 -0.3032 -0.9299 -0.0530
  149MPD2    C1 2317   4.364   2.440  10.569  0.2052  0.5348 -0.4093
  149MPD2    C2 2318   4.383   2.308  10.534 -0.2617  0.8708  0.0333
  149MPD2    C3 2319   4.324   2.258  10.421 -0.0894  0.3094  0.3811
  149MPD2    C4 2320   4.265   2.350  10.337  0.6455  0.0692 -0.6273
  149MPD2    C5 2321   4.241   2.480  10.369  0.5837 -0.3953 -0.0498
  149MPD2     H 2322   4.427   2.250  10.614 -0.7855 -0.8208 -0.9176
  149MPD2    H1 2323   4.212   2.315  10.249 -0.5660  2.0666 -0.6828
  149MPD2    H2 2324   4.275   2.629  10.521  0.0287 -0.5850 -0.9545
  149MPD2    H3 2325   4.181   2.546  10.308 -1.8013 -1.5814  1.0007
  149MPD2     N 2326   4.334   2.124  10.377  0.1605 -0.1204 -0.4748
  149MPD2    H5 2327   4.310   2.111  10.279  0.7435  1.4396 -0.8254
  149MPD2    N1 2328   4.424   2.488  10.689  0.2597 -0.1554  0.3700
  149MPD2    H7 2329   4.474   2.417  10.742 -0.9958  0.6683  2.6475
  150TMC2    C1 2330   2.800   1.096  12.145  0.1623  0.1445 -0.1069
  150TMC2    C2 2331   2.771   1.230  12.150  0.0725 -0.5384  0.1791
  150TMC2    C3 2332   2.879   1.312  12.160  0.6911  0.4302  0.1514
  150TMC2    C4 2333   2.927   1.045  12.141 -0.5984 -0.5615 -0.5991
  150TMC2    C5 2334   3.026   1.135  12.154  0.0173  0.1288 -0.5449
  150TMC2    C6 2335   3.011   1.267  12.166 -0.3953  0.1667 -0.1805
  150TMC2     C 2336   2.689   1.000  12.160  0.0116 -0.5403 -1.1163
  150TMC2     O 2337   2.724   0.883  12.179  0.0784  0.0040  0.1778
  150TMC2     H 2338   2.669   1.265  12.147  0.9666  2.2293  1.3511
  150TMC2    H1 2339   2.942   0.938  12.134  0.9514 -0.2843 -1.5139
  150TMC2    H2 2340   3.090   1.329  12.206 -1.1736  1.7875 -1.1544
  150TMC2    C7 2341   3.161   1.089  12.180 -0.2632  0.5093  0.1438
  150TMC2    C8 2342   2.846   1.454  12.146 -0.2756  0.1247  0.3154
  150TMC2    O1 2343   3.249   1.167  12.140 -0.1520 -0.1142  0.0982
  150TMC2    O2 2344   2.763   1.505  12.223 -0.3290 -0.4812  0.2003
  150TMC2    O5 2345   2.955   1.518  12.109 -0.3515  0.1966 -0.3316
  150TMC2    H5 2346   3.005   1.462  12.046 -1.0014 -0.6079 -0.1344
  151MPD2     C 2347   2.217   0.827  12.130  0.1404  0.5337  0.5263
  151MPD2    C1 2348   2.226   0.927  12.038  0.2353 -0.1234 -0.5169
  151MPD2    C2 2349   2.342   0.999  12.030  0.0820  0.4800  0.0540
  151MPD2    C3 2350   2.450   0.970  12.113  0.3152  0.3242  0.0066
  151MPD2    C4 2351   2.438   0.871  12.208 -0.6589  0.0353 -0.4029
  151MPD2    C5 2352   2.318   0.804  12.217  0.5805 -0.8148  0.0161
  151MPD2     H 2353   2.349   1.086  11.966  0.6309  0.1180 -0.3775
  151MPD2    H1 2354   2.513   0.832  12.275  0.3380  0.3721 -1.3198
  151MPD2    H2 2355   2.127   0.769  12.143  0.4765 -0.6662 -2.4237
  151MPD2    H3 2356   2.310   0.717  12.282  1.6048 -0.8817  0.0670
  151MPD2     N 2357   2.568   1.047  12.112 -0.8360  0.7329 -0.2566
  151MPD2    H5 2358   2.560   1.130  12.053 -0.3773  0.6707 -0.4065
  151MPD2    N1 2359   2.113   0.954  11.958 -0.0249 -0.3352  0.0235
  151MPD2    H7 2360   2.026   0.931  12.004 -0.0080 -0.9992 -0.2836
  152TMC2    C1 2361   2.027   0.427  12.719 -0.0131 -0.5674 -0.1284
  152TMC2    C2 2362   2.023   0.295  12.771 -0.4458 -0.1908  0.2737
  152TMC2    C3 2363   2.077   0.191  12.710  0.1533  0.2713  0.3168
  152TMC2    C4 2364   2.088   0.445  12.599 -0.8995  0.6896  0.1795
  152TMC2    C5 2365   2.151   0.337  12.537 -0.0264  0.3599  0.5050
  152TMC2    C6 2366   2.138   0.210  12.592  0.7835 -0.2222 -0.8057
  152TMC2     C 2367   1.919   0.521  12.745 -0.2134  0.2878  0.8734
  152TMC2     O 2368   1.926   0.626  12.684 -0.6948 -0.2711 -0.2065
  152TMC2     H 2369   1.991   0.289  12.874 -2.7207  0.0709 -0.4289
  152TMC2    H1 2370   2.080   0.534  12.537 -0.6806  1.1634  0.8280
  152TMC2    H2 2371   2.184   0.126  12.541 -1.0720 -0.3642 -2.2235
  152TMC2    C7 2372   2.255   0.350  12.443 -0.0626 -0.2357 -0.4739
  152TMC2    C8 2373   2.087   0.073  12.787  0.2455  0.4949 -0.2689
  152TMC2    O1 2374   2.274   0.257  12.370 -0.2108  0.0618  0.6262
  152TMC2    O2 2375   2.015   0.047  12.880  0.0856  1.1690 -0.4351
  152TMC2    O5 2376   2.190   4.729  12.753  0.0432  0.2457  0.1497
  152TMC2    H5 2377   2.255   0.034  12.692 -0.9403 -0.7490 -1.5225
  153MPD2     C 2378   1.635   0.488  12.983  0.1751 -0.4912  0.1175
  153MPD2    C1 2379   1.707   0.531  12.873  0.8136 -0.5580  0.2275
  153MPD2    C2 2380   1.643   0.619  12.787  0.3750 -0.3527 -0.6122
  153MPD2    C3 2381   1.517   0.668  12.825  0.5248 -0.0990 -0.4074
  153MPD2    C4 2382   1.452   0.620  12.936  0.1250  0.5826 -0.0972
  153MPD2    C5 2383   1.507   0.529  13.015 -0.2635  1.2131  0.2057
  153MPD2     H 2384   1.701   0.645  12.699 -0.8853 -1.7470 -1.8496
  153MPD2    H1 2385   1.365   0.668  12.979  0.0620  0.3999 -0.0229
  153MPD2    H2 2386   1.679   0.418  13.052 -2.2392 -1.9876  0.1663
  153MPD2    H3 2387   1.460   0.493  13.105  0.8193 -0.2108  0.1911
  153MPD2     N 2388   1.473   0.780  12.753  0.6499 -0.1919 -0.8198
  153MPD2    H5 2389   1.540   0.817  12.685  1.6677  1.0769  0.8853
  153MPD2    N1 2390   1.832   0.476  12.843 -0.3835 -0.4272  0.2751
  153MPD2    H7 2391   1.856   0.394  12.899 -0.0807 -0.8846 -0.5331
  154TMC2    C1 2392   2.725   0.692   0.251  0.4244 -0.1485 -0.2694
  154TMC2    C2 2393   2.774   0.566   0.212 -0.2848 -0.0048 -0.1851
  154TMC2    C3 2394   2.796   0.552   0.080  0.4936 -0.4215  0.0259
  154TMC2    C4 2395   2.677   0.785   0.162  0.2634 -0.7055  0.7522
  154TMC2    C5 2396   2.696   0.748   0.028  0.2116 -0.6196  0.2519
  154TMC2    C6 2397   2.758   0.638  17.721  0.0135  0.2221  0.5812
  154TMC2     C 2398   2.713   0.720   0.393  0.1268 -0.2566  0.3360
  154TMC2     O 2399   2.640   0.813   0.430 -0.1479 -0.2879 -0.3683
  154TMC2     H 2400   2.801   0.486   0.279  0.4427 -1.5017 -2.2490
  154TMC2    H1 2401   2.623   0.875   0.189  0.0181 -0.1583 -1.5837
  154TMC2    H2 2402   2.779   0.632  17.615  0.6939 -1.8853  0.8491
  154TMC2    C7 2403   2.622   0.825  17.661 -0.6153 -0.4392 -0.1333
  154TMC2    C8 2404   2.828   0.418   0.046  0.2430 -0.0179  0.4526
  154TMC2    O1 2405   2.600   0.762  17.558  0.5505  0.2995  0.1598
  154TMC2    O2 2406   2.791   0.328   0.122 -0.3013  0.7377  0.2489
  154TMC2    O5 2407   2.819   0.400  17.653  0.2298 -0.1009 -0.3664
  154TMC2    H5 2408   2.853   0.477  17.604  0.7650 -0.7884 -1.0828
  155MPD2     C 2409   2.918   0.587   0.674 -0.0203  0.2910  0.6482
  155MPD2    C1 2410   2.801   0.639   0.613 -0.3991  0.9510 -0.2897
  155MPD2    C2 2411   2.689   0.673   0.698 -0.6767 -0.1665 -0.2667
  155MPD2    C3 2412   2.697   0.662   0.836  0.2102  0.2315 -0.1858
  155MPD2    C4 2413   2.812   0.599   0.876 -0.0229  0.0259 -0.7567
  155MPD2    C5 2414   2.927   0.572   0.806 -0.3591  0.0851  0.2437
  155MPD2     H 2415   2.600   0.713   0.652 -0.6975  1.7534  1.4758
  155MPD2    H1 2416   2.825   0.582   0.982 -1.1638  0.7436 -0.5123
  155MPD2    H2 2417   2.995   0.552   0.607 -0.6292  1.6339 -0.7347
  155MPD2    H3 2418   3.018   0.532   0.847  0.0579  1.4625  0.6714
  155MPD2     N 2419   2.602   0.718   0.926  0.2690  0.2770 -0.2905
  155MPD2    H5 2420   2.628   0.716   1.024 -1.6866 -0.7338  0.2189
  155MPD2    N1 2421   2.805   0.657   0.470 -0.0030  0.1818  0.1482
  155MPD2    H7 2422   2.883   0.616   0.420 -0.9356 -1.4192  0.0055
  156TMC2    C1 2423   2.600   3.298  11.480 -0.2477  0.2337  0.3679
  156TMC2    C2 2424   2.663   3.219  11.382  0.3750  0.1900 -0.3277
  156TMC2    C3 2425   2.600   3.214  11.258  0.7677  0.1805 -0.2201
  156TMC2    C4 2426   2.496   3.384  11.450 -0.1795 -0.4289 -1.0944
  156TMC2    C5 2427   2.443   3.375  11.325 -0.4740  0.5427 -0.1785
  156TMC2    C6 2428   2.487   3.285  11.232  0.3043 -0.5842 -0.1523
  156TMC2     C 2429   2.613   3.275  11.624  0.0977  0.5695  0.4339
  156TMC2     O 2430   2.562   3.361  11.696  0.2470 -0.2367 -0.0280
  156TMC2     H 2431   2.751   3.159  11.402  0.3369  0.7478  1.5511
  156TMC2    H1 2432   2.446   3.447  11.523  0.3788  0.6919 -1.6889
  156TMC2    H2 2433   2.433   3.271  11.139  0.3419  2.1439 -0.5791
  156TMC2    C7 2434   2.305   3.434  11.321  0.1209  0.6033  0.0514
  156TMC2    C8 2435   2.651   3.137  11.148  0.2720 -0.3342  0.2782
  156TMC2    O1 2436   2.280   3.538  11.383  0.2113  0.1461  0.7607
  156TMC2    O2 2437   2.633   3.159  11.028 -0.3872  0.3380  0.0225
  156TMC2    O5 2438   2.643   3.014  11.203  0.4856 -0.5600  0.0128
  156TMC2    H5 2439   2.653   3.009  11.301  2.1904  0.4496 -0.1028
  157MPD2     C 2440   2.822   3.021  11.802 -0.0631 -0.4432 -0.1121
  157MPD2    C1 2441   2.720   3.117  11.789  0.5936  0.2220  0.1345
  157MPD2    C2 2442   2.661   3.177  11.896  0.0266  0.3530 -0.3385
  157MPD2    C3 2443   2.706   3.142  12.021  0.2921  0.0613 -0.6078
  157MPD2    C4 2444   2.796   3.039  12.045 -0.0765  0.1903  0.1607
  157MPD2    C5 2445   2.843   2.975  11.938  0.0008 -0.1458  0.1469
  157MPD2     H 2446   2.580   3.249  11.892 -0.8889 -0.8078 -2.5551
  157MPD2    H1 2447   2.826   3.000  12.141 -0.4094 -1.9166 -0.5968
  157MPD2    H2 2448   2.870   2.970  11.719  1.3422 -0.9848  1.0501
  157MPD2    H3 2449   2.919   2.899  11.954  0.3300  0.0463 -0.5025
  157MPD2     N 2450   2.620   3.194  12.121 -0.3631  0.2628  0.0036
  157MPD2    H5 2451   2.545   3.259  12.101 -0.4877 -0.3004 -1.3502
  157MPD2    N1 2452   2.695   3.164  11.657  0.3548 -0.3983  0.1308
  157MPD2    H7 2453   2.738   3.108  11.585 -1.3828 -0.0347 -1.1967
  158TMC2    C1 2454   2.366   1.581  13.637  0.4340  0.3893  0.7176
  158TMC2    C2 2455   2.445   1.652  13.551 -0.0276  0.5762  0.1044
  158TMC2    C3 2456   2.384   1.751  13.478 -0.3592  0.0771  0.4885
  158TMC2    C4 2457   2.232   1.615  13.648 -0.3735 -0.5268 -0.1165
  158TMC2    C5 2458   2.171   1.710  13.560 -0.6884  0.4020 -0.8462
  158TMC2    C6 2459   2.249   1.775  13.470  0.1218  0.3660  0.0686
  158TMC2     C 2460   2.444   1.507  13.733 -0.4189 -0.2802  0.0863
  158TMC2     O 2461   2.562   1.532  13.740 -0.2353  0.1135  0.0395
  158TMC2     H 2462   2.552   1.637  13.543 -0.0433  0.0882  0.8638
  158TMC2    H1 2463   2.169   1.580  13.729 -1.9750  0.0761 -1.0980
  158TMC2    H2 2464   2.208   1.840  13.394 -1.1847 -0.2371  0.2491
  158TMC2    C7 2465   2.029   1.732  13.547 -0.1534 -0.3502  0.1428
  158TMC2    C8 2466   2.479   1.822  13.391  0.6937 -0.3950  0.4239
  158TMC2    O1 2467   1.988   1.835  13.490  0.2303 -0.0519  0.7111
  158TMC2    O2 2468   2.588   1.861  13.422  0.0769  0.0777  0.7456
  158TMC2    O5 2469   2.419   1.864  13.280 -0.1728  0.0161  0.3567
  158TMC2    H5 2470   2.335   1.820  13.257 -0.2673  1.6877 -2.4788
  159MPD2     C 2471   2.432   1.330  14.219 -0.2550  0.1915 -0.5556
  159MPD2    C1 2472   2.321   1.294  14.154 -0.3689 -0.0015  0.6968
  159MPD2    C2 2473   2.296   1.345  14.031  0.5068  0.1448 -0.2228
  159MPD2    C3 2474   2.391   1.416  13.957  0.0444 -0.5253 -0.2391
  159MPD2    C4 2475   2.514   1.435  14.017 -0.3850  0.2373  0.2449
  159MPD2    C5 2476   2.519   1.409  14.152  0.4684 -0.3909 -0.9979
  159MPD2     H 2477   2.204   1.323  13.978 -0.0613 -1.1200  1.2757
  159MPD2    H1 2478   2.586   1.499  13.967 -1.9536  1.0332 -1.0125
  159MPD2    H2 2479   2.435   1.313  14.326 -0.9351  0.4329 -0.5018
  159MPD2    H3 2480   2.610   1.435  14.204  0.1790  0.7441 -1.0581
  159MPD2     N 2481   2.362   1.454  13.827  0.4333 -0.1761  0.1126
  159MPD2    H5 2482   2.269   1.430  13.795 -0.0107  0.6046  0.8369
  159MPD2    N1 2483   2.226   1.217  14.229  0.3107  0.6128  0.0295
  159MPD2    H7 2484   2.255   1.193  14.323  1.8432  1.9175 -0.1085
  160TMC2    C1 2485   1.320   4.541   1.491 -0.0940  0.1013  0.5739
  160TMC2    C2 2486   1.297   4.642   1.578 -0.1560  0.0841 -0.0094
  160TMC2    C3 2487   1.412   4.721   1.601 -0.8080  0.1932  0.3394
  160TMC2    C4 2488   1.439   4.496   1.450  0.9098  0.5511  0.1531
  160TMC2    C5 2489   1.547   4.575   1.479  0.7167  0.0225 -0.0647
  160TMC2    C6 2490   1.534   4.696   1.552 -0.5502 -0.3369 -0.5523
  160TMC2     C 2491   1.219   4.526   1.384 -0.0489  0.3118  0.1245
  160TMC2     O 2492   1.218   4.430   1.310 -0.4022  0.3880 -0.4769
  160TMC2     H 2493   1.199   4.669   1.616 -0.2767 -1.2395  0.6084
  160TMC2    H1 2494   1.449   4.408   1.388  0.6622  1.3512 -1.0242
  160TMC2    H2 2495   1.616   0.028   1.578 -0.5162 -1.2036  1.5318
  160TMC2    C7 2496   1.663   4.556   1.397  0.0911 -0.0594  0.0813
  160TMC2    C8 2497   1.410   0.067   1.722  0.5343  0.6419 -0.2315
  160TMC2    O1 2498   1.668   4.446   1.347  0.3253 -0.3344 -0.1523
  160TMC2    O2 2499   1.498   0.071   1.809 -0.7497  0.5351  0.3934
  160TMC2    O5 2500   1.294   0.129   1.727  1.1436  0.0622  0.1831
  160TMC2    H5 2501   1.246   0.121   1.642  1.8896  0.6429 -0.2853
  161MPD2     C 2502   0.994   4.551   1.197  0.1174 -0.6035 -1.2059
  161MPD2    C1 2503   1.063   4.661   1.254  0.1541 -0.3864 -0.3172
  161MPD2    C2 2504   1.044   0.054   1.201 -0.2209 -0.4101 -0.8445
  161MPD2    C3 2505   0.957   0.080   1.103 -0.7424 -0.4774  0.8611
  161MPD2    C4 2506   0.886   4.706   1.054  0.2880 -0.3917 -0.8749
  161MPD2    C5 2507   0.905   4.575   1.102  0.6520  0.5124 -0.0279
  161MPD2     H 2508   1.103   0.136   1.240  1.3520 -1.4434 -1.0372
  161MPD2    H1 2509   0.806   4.724   0.983 -1.2414 -1.3690  0.6184
  161MPD2    H2 2510   1.011   4.447   1.222  1.6106 -0.8281 -3.1424
  161MPD2    H3 2511   0.859   4.495   1.046 -2.9602  1.4857  1.5640
  161MPD2     N 2512   0.933   0.209   1.050 -0.6410  0.3182  0.4353
  161MPD2    H5 2513   0.885   0.222   0.962 -0.4249 -1.1063  0.1088
  161MPD2    N1 2514   1.163   4.647   1.351  0.1800  0.0376 -0.0459
  161MPD2    H7 2515   1.216   4.731   1.374 -2.5128  1.5751  0.5906
  162TMC2    C1 2516   4.169   2.189   1.216 -0.3605  0.6546 -0.1866
  162TMC2    C2 2517   4.049   2.243   1.260 -0.3027 -0.4722  0.4477
  162TMC2    C3 2518   4.045   2.322   1.375 -0.6031 -0.3397  0.2363
  162TMC2    C4 2519   4.282   2.209   1.291  0.6588 -0.0667 -0.4873
  162TMC2    C5 2520   4.274   2.288   1.406 -0.7705 -0.7673  0.1613
  162TMC2    C6 2521   4.159   2.351   1.443  0.1189  0.1124  0.1916
  162TMC2     C 2522   4.179   2.110   1.092 -0.1393 -0.4550  0.3112
  162TMC2     O 2523   4.294   2.084   1.050 -0.4251  0.0196 -0.3943
  162TMC2     H 2524   3.966   2.235   1.191 -1.0651  0.6331  1.2397
  162TMC2    H1 2525   4.377   2.169   1.257  0.5459 -0.9491  0.2152
  162TMC2    H2 2526   4.155   2.441   1.503  0.5882  0.2556  0.0106
  162TMC2    C7 2527   4.397   2.318   1.470 -0.5754 -0.1332 -0.2198
  162TMC2    C8 2528   3.945   2.420   1.372 -0.0898  0.0596 -0.2302
  162TMC2    O1 2529   4.395   2.419   1.538 -0.4886  0.4338  0.3326
  162TMC2    O2 2530   3.968   2.535   1.401 -0.0720 -0.0804  0.6077
  162TMC2    O5 2531   3.832   2.356   1.326  0.1199  0.2060  0.5149
  162TMC2    H5 2532   3.837   2.259   1.311 -0.4956 -0.1139  2.3888
  163MPD2     C 2533   3.956   1.827   0.724 -0.2041 -0.3186 -0.3904
  163MPD2    C1 2534   4.077   1.894   0.716  0.0145  0.7803 -0.1082
  163MPD2    C2 2535   4.110   1.962   0.837 -0.3492 -0.6876  0.9000
  163MPD2    C3 2536   4.024   1.977   0.942  0.6265  0.3822  0.3649
  163MPD2    C4 2537   3.900   1.924   0.936  0.5596 -0.0627  0.2376
  163MPD2    C5 2538   3.866   1.848   0.830 -0.3676 -0.1376 -0.3024
  163MPD2     H 2539   4.213   1.995   0.840  0.1001 -2.0937  1.1746
  163MPD2    H1 2540   3.828   1.940   1.016  0.0089  2.0144 -0.6715
  163MPD2    H2 2541   3.919   1.769   0.640 -1.9357 -1.1275  0.9354
  163MPD2    H3 2542   3.771   1.797   0.829  0.8595 -2.3907 -1.2400
  163MPD2     N 2543   4.055   2.057   1.060 -0.6006  0.2359  0.3597
  163MPD2    H5 2544   3.982   2.071   1.128 -1.8724 -1.2680 -0.6963
  163MPD2    N1 2545   4.159   1.867   0.604  0.9334 -0.2966 -0.0733
  163MPD2    H7 2546   4.113   1.804   0.539  1.6362  0.0746 -0.9396
  164TMC2    C1 2547   0.303   1.600  11.605 -0.0502  0.3334  0.5084
  164TMC2    C2 2548   0.341   1.530  11.722  0.2469 -0.3852 -0.0112
  164TMC2    C3 2549   0.279   1.556  11.835  0.1454  0.3814 -0.1709
  164TMC2    C4 2550   0.213   1.701  11.617 -0.3797 -0.7402  0.4628
  164TMC2    C5 2551   0.160   1.725  11.743 -0.0015  0.8938  0.0198
  164TMC2    C6 2552   0.177   1.646  11.849 -0.2284 -0.9759 -0.6080
  164TMC2     C 2553   0.334   1.536  11.482 -0.5677  0.3879  0.0816
  164TMC2     O 2554   0.388   1.426  11.487 -0.2576  0.0486 -0.1007
  164TMC2     H 2555   0.411   1.448  11.721  1.3047  0.4988  0.9138
  164TMC2    H1 2556   0.203   1.764  11.530 -2.1539 -1.5161  0.1105
  164TMC2    H2 2557   0.145   1.665  11.951 -2.1497 -0.2460 -1.3560
  164TMC2    C7 2558   0.070   1.838  11.752  0.9432 -0.1275  0.0012
  164TMC2    C8 2559   0.260   1.430  11.920  0.2508  0.0610 -0.0295
  164TMC2    O1 2560   0.013   1.863  11.647  0.4331 -0.0093 -0.6048
  164TMC2    O2 2561   0.321   1.327  11.888 -0.4912  0.1890  0.3445
  164TMC2    O5 2562   0.131   1.434  11.934 -0.4245  0.1105 -0.2033
  164TMC2    H5 2563   0.109   1.508  11.995  4.3048  1.0241  0.3957
  165TMC2    C1 2564   1.248   3.614   0.670 -0.2384  0.7774  0.3047
  165TMC2    C2 2565   1.211   3.729   0.601  0.3799  0.5075  0.2483
  165TMC2    C3 2566   1.302   3.832   0.605  0.4669  0.2630 -0.2305
  165TMC2    C4 2567   1.367   3.593   0.735 -0.4690  0.2061 -0.2335
  165TMC2    C5 2568   1.452   3.703   0.736 -0.3590  0.2588 -0.2957
  165TMC2    C6 2569   1.420   3.822   0.672  0.7519  1.0134 -0.4550
  165TMC2     C 2570   1.154   3.515   0.695  0.3050 -0.2349 -0.0328
  165TMC2     O 2571   1.165   3.441   0.795 -0.2113 -0.4000  0.5210
  165TMC2     H 2572   1.112   3.755   0.565 -0.1626  2.0443  2.8391
  165TMC2    H1 2573   1.387   3.493   0.771  4.1210  0.5215 -1.8835
  165TMC2    H2 2574   1.478   3.914   0.675  2.1588  0.0815  1.0161
  165TMC2    C7 2575   1.573   3.698   0.807 -0.0305  0.5726 -0.5635
  165TMC2    C8 2576   1.255   3.969   0.552 -0.6337 -0.4641  0.6002
  165TMC2    O1 2577   1.654   3.785   0.774  0.0808  0.8641  0.0271
  165TMC2    O2 2578   1.180   3.970   0.456 -0.0463 -0.7486  0.2745
  165TMC2    O5 2579   1.237   4.036   0.666 -0.2069 -0.1945 -0.3675
  165TMC2    H5 2580   1.281   3.999   0.746 -2.1629 -0.3609  0.6510
  166MPD2     C 2581   0.671   3.374   0.693 -0.7626 -0.8755 -0.0118
  166MPD2    C1 2582   0.777   3.304   0.752  0.0690  0.2041 -1.2940
  166MPD2    C2 2583   0.907   3.345   0.721 -0.4240  0.2056 -0.0008
  166MPD2    C3 2584   0.927   3.456   0.633  0.1093  0.8968 -0.3166
  166MPD2    C4 2585   0.815   3.502   0.569 -0.0386 -0.2936  0.7627
  166MPD2    C5 2586   0.687   3.473   0.601 -0.1668 -0.3038 -0.1293
  166MPD2     H 2587   0.992   3.291   0.760  1.1271  2.7753  0.2056
  166MPD2    H1 2588   0.825   3.575   0.489  0.4853 -2.7926 -1.4838
  166MPD2    H2 2589   0.567   3.353   0.716 -1.0030  0.5752  0.2328
  166MPD2    H3 2590   0.602   3.523   0.556 -0.7594 -1.4995 -0.3486
  166MPD2     N 2591   1.051   3.518   0.608 -0.0515  0.9177  0.0734
  166MPD2    H5 2592   1.056   3.578   0.527 -0.3967  1.4391  0.4402
  166MPD2    N1 2593   0.755   3.193   0.833 -0.2151 -0.2811 -0.4866
  166MPD2    H7 2594   0.660   3.173   0.861  0.2340 -1.2329  0.3580
  167TMC2    C1 2595   4.642   0.840  13.155 -0.1880 -0.0849 -0.6741
  167TMC2    C2 2596   4.636   0.806  13.281  0.2454  0.5429  0.2749
  167TMC2    C3 2597   0.014   0.773  13.349  0.0635  0.2999 -0.2259
  167TMC2    C4 2598   0.022   0.847  13.080 -0.3451  0.1838 -0.4978
  167TMC2    C5 2599   0.134   0.807  13.147  0.3642 -0.2067 -0.1510
  167TMC2    C6 2600   0.139   0.782  13.285 -0.3857 -0.6758  0.4240
  167TMC2     C 2601   4.518   0.844  13.088  0.5546  0.3917 -0.5407
  167TMC2     O 2602   4.423   0.775  13.126  0.1334 -0.5961 -0.0230
  167TMC2     H 2603   4.540   0.805  13.332  1.2844 -0.9623  2.2000
  167TMC2    H1 2604   0.017   0.856  12.972 -0.3906 -1.3300 -0.6290
  167TMC2    H2 2605   0.230   0.748  13.335 -0.8582 -2.7890 -0.1652
  167TMC2    C7 2606   0.256   0.799  13.074  0.3674 -0.0134 -0.4194
  167TMC2    C8 2607   0.001   0.757  13.497 -0.6250  0.3764 -0.4254
  167TMC2    O1 2608   0.335   0.720  13.129  0.1971 -0.2347 -0.3110
  167TMC2    O2 2609   4.645   0.813  13.562 -0.0498 -0.2087  0.4005
  167TMC2    O5 2610   0.083   0.668  13.538  0.0848 -0.0176 -0.7216
  167TMC2    H5 2611   0.134   0.617  13.472  0.5325  0.5978 -0.8458
  168MPD2     C 2612   4.297   0.871  12.883 -0.1197 -0.4862 -0.5449
  168MPD2    C1 2613   4.416   0.938  12.885  0.4412 -0.2973 -0.0567
  168MPD2    C2 2614   4.440   1.046  12.798 -0.6156  0.2432  0.1552
  168MPD2    C3 2615   4.350   1.088  12.704  0.2540 -0.2522  0.2949
  168MPD2    C4 2616   4.241   1.005  12.691  0.0359  0.0598  0.4406
  168MPD2    C5 2617   4.210   0.904  12.783  0.0597 -0.1091 -0.4396
  168MPD2     H 2618   4.539   1.090  12.800 -1.1641  1.4790  0.1848
  168MPD2    H1 2619   4.173   1.020  12.608 -0.4940 -2.8300  0.3527
  168MPD2    H2 2620   4.275   0.781  12.940  0.7437  1.6249  3.1105
  168MPD2    H3 2621   4.124   0.841  12.766  0.2005 -0.2460 -0.6498
  168MPD2     N 2622   4.373   1.196  12.615 -0.5007  0.7727 -0.3939
  168MPD2    H5 2623   4.297   1.210  12.548 -0.3611 -0.1777 -0.7500
  168MPD2    N1 2624   4.523   0.923  12.974  0.6245 -0.2281 -0.8356
  168MPD2    H7 2625   4.612   0.965  12.949  2.0333 -2.4677  0.4710
  169MPD1     C 2626   1.429   2.587   8.913  0.4493 -0.1279 -0.3593
  169MPD1    C1 2627   1.384   2.466   8.950 -0.3159 -0.0521  0.1501
  169MPD1    C2 2628   1.478   2.373   9.008 -0.0243 -0.6466  0.1457
  169MPD1    C3 2629   1.614   2.405   9.008  0.4477 -0.1355 -0.2067
  169MPD1    C4 2630   1.655   2.525   8.959 -0.2828 -0.4196  0.6510
  169MPD1    C5 2631   1.563   2.617   8.911  0.3356  0.0807  0.1291
  169MPD1     H 2632   1.449   2.277   9.048  0.8756 -0.5786  0.9448
  169MPD1    H1 2633   1.757   2.560   8.964 -0.5613  0.0429  3.1759
  169MPD1    H2 2634   1.370   2.672   8.880 -1.4248 -1.1133  0.4170
  169MPD1    H3 2635   1.594   2.715   8.875  1.3871 -1.1115 -2.2120
  169MPD1     N 2636   1.700   2.307   9.065 -0.1332  0.2184  1.3921
  169MPD1    H5 2637   1.658   2.219   9.091  0.1959 -0.5627 -0.7194
  169MPD1    N1 2638   1.241   2.441   8.975 -0.4999  0.2784  0.5114
  169MPD1    H6 2639   1.192   2.501   8.909  0.0294  0.1794  0.0252
  169MPD1    H7 2640   1.221   2.342   8.958 -1.7103  0.1576  2.6915
  170MPD1     C 2641   0.271   4.438  12.553  0.6409 -0.6766  0.5660
  170MPD1    C1 2642   0.336   4.552  12.605 -0.5699 -0.0993 -0.3380
  170MPD1    C2 2643   0.403   4.549  12.729  0.4434  0.8124  0.4149
  170MPD1    C3 2644   0.419   4.426  12.797  0.2586  0.8799  0.4145
  170MPD1    C4 2645   0.350   4.320  12.756 -0.5957  0.3227 -0.2874
  170MPD1    C5 2646   0.272   4.326  12.641  0.8395 -0.2833 -0.2132
  170MPD1     H 2647   0.454   4.635  12.770  0.7628  0.1812  1.3206
  170MPD1    H1 2648   0.360   4.227  12.811  0.1461 -0.1903 -1.2778
  170MPD1    H2 2649   0.200   4.442  12.471  0.5792 -1.9025  0.5515
  170MPD1    H3 2650   0.219   4.242  12.598 -0.1237  1.4379 -2.4207
  170MPD1     N 2651   0.491   4.419  12.915  0.0465 -0.6056 -0.4610
  170MPD1    H5 2652   0.536   4.505  12.946 -0.7646  0.0264 -1.0486
  170MPD1    N1 2653   0.310   4.676  12.551 -0.2935 -0.4659  0.1962
  170MPD1    H6 2654   0.390   4.730  12.584 -2.1479  1.3379  1.7152
  170MPD1    H7 2655   0.323   4.668  12.451 -0.9189  3.8382 -0.1986
  171MPD1     C 2656   3.937   0.127  15.006 -0.2138  0.1094  0.0982
  171MPD1    C1 2657   3.858   0.140  15.120  0.0255 -0.0842 -0.0423
  171MPD1    C2 2658   3.903   0.065  15.227 -0.2987  0.4420 -0.2890
  171MPD1    C3 2659   4.012   4.717  15.223  0.1265 -0.3718 -0.5299
  171MPD1    C4 2660   4.083   4.707  15.108  0.0152 -0.3202  0.3052
  171MPD1    C5 2661   4.053   0.046  14.999  0.6402 -0.0141  0.2921
  171MPD1     H 2662   3.839   0.054  15.314 -0.8392 -2.6566 -1.0542
  171MPD1    H1 2663   4.162   4.633  15.103 -0.0095 -0.3372  0.1807
  171MPD1    H2 2664   3.922   0.177  14.911 -0.5214  0.7775  0.5000
  171MPD1    H3 2665   4.107   0.033  14.906  1.4266 -0.2292  0.7798
  171MPD1     N 2666   4.062   4.642  15.336 -0.1074 -0.1099  0.6845
  171MPD1    H5 2667   4.136   4.577  15.314  0.4673  0.7301  0.1368
  171MPD1    N1 2668   3.732   0.196  15.118 -0.2083 -0.3723  0.3169
  171MPD1    H6 2669   3.723   0.267  15.046  5.2717 -0.2069 -0.1858
  171MPD1    H7 2670   3.699   0.225  15.211 -0.5369  0.8729 -0.1877
  172MPD1     C 2671   2.723   4.418  17.558  0.3942  0.2681  0.0089
  172MPD1    C1 2672   2.739   4.502  17.662 -0.0200  0.2411 -0.0181
  172MPD1    C2 2673   2.805   4.458   0.039  0.3288  0.5863  0.2882
  172MPD1    C3 2674   2.840   4.335   0.072  0.7941  0.2126  0.5587
  172MPD1    C4 2675   2.818   4.241  17.708  0.0744  0.1239 -0.2501
  172MPD1    C5 2676   2.762   4.285  17.590 -0.5287 -0.1306 -0.3615
  172MPD1     H 2677   2.827   4.545   0.101  2.3967  0.0202  0.3439
  172MPD1    H1 2678   2.832   4.135  17.728  2.0695  0.6533  1.0881
  172MPD1    H2 2679   2.662   4.438  17.471 -0.8669 -0.3706  0.7438
  172MPD1    H3 2680   2.749   4.218  17.505  0.4716 -0.1622 -0.4861
  172MPD1     N 2681   2.894   4.300   0.195 -0.2676  0.1714 -0.0661
  172MPD1    H5 2682   2.938   4.210   0.209 -0.1951  0.1429 -0.4823
  172MPD1    N1 2683   2.715   4.640  17.640  0.1890 -0.3069 -1.0642
  172MPD1    H6 2684   2.623   4.651  17.599  0.4656  0.4776 -1.4752
  172MPD1    H7 2685   2.721   4.687  17.730 -0.3575  1.8065 -2.1602
  173MPD1     C 2686   0.454   3.996  14.099 -0.5190  0.3168  0.1626
  173MPD1    C1 2687   0.360   4.076  14.034  0.2537  0.0029 -0.1730
  173MPD1    C2 2688   0.232   4.030  14.030 -0.1689  0.3029 -0.7010
  173MPD1    C3 2689   0.195   3.923  14.108  0.1749 -0.1679  0.9262
  173MPD1    C4 2690   0.294   3.848  14.179  0.2164  0.0864  0.2724
  173MPD1    C5 2691   0.427   3.889  14.168  0.2253 -0.2346  0.2565
  173MPD1     H 2692   0.162   4.082  13.965 -1.5555  0.5201  0.9842
  173MPD1    H1 2693   0.282   3.761  14.242  0.6452 -0.4457 -0.3776
  173MPD1    H2 2694   0.559   4.019  14.082 -0.7203 -0.7667 -2.4711
  173MPD1    H3 2695   0.506   3.832  14.217  2.2547 -0.1605 -2.9198
  173MPD1     N 2696   0.062   3.884  14.112  0.1111  0.3381  0.3453
  173MPD1    H5 2697   4.726   3.944  14.070 -0.3767 -0.5484 -0.1081
  173MPD1    N1 2698   0.407   4.172  13.946  0.0977 -0.6685 -0.1475
  173MPD1    H6 2699   0.335   4.238  13.917  1.6486  0.4143 -1.5228
  173MPD1    H7 2700   0.486   4.224  13.985  0.4187  0.0033 -1.7053
  174MPD1     C 2701   4.208   3.081  14.318 -0.4240  0.2263  0.7672
  174MPD1    C1 2702   4.141   3.166  14.230 -0.1082 -0.7159  0.5306
  174MPD1    C2 2703   4.194   3.288  14.197 -0.1027  0.1050 -0.0850
  174MPD1    C3 2704   4.318   3.324  14.246 -0.4035 -0.4989 -0.1077
  174MPD1    C4 2705   4.390   3.240  14.327 -0.3209 -0.3875 -0.1290
  174MPD1    C5 2706   4.342   3.116  14.355  0.1259 -0.4771  0.0393
  174MPD1     H 2707   4.127   3.355  14.145  0.3261 -0.3704 -1.2524
  174MPD1    H1 2708   4.485   3.261  14.375  0.3738 -0.8264 -1.3067
  174MPD1    H2 2709   4.179   2.981  14.346  3.3916 -1.4809 -1.4838
  174MPD1    H3 2710   4.399   3.050  14.419 -3.4182 -2.1376  1.4635
  174MPD1     N 2711   4.373   3.452  14.232 -0.5666  0.3891  0.4349
  174MPD1    H5 2712   4.466   3.468  14.270  1.0137 -1.3564 -2.6986
  174MPD1    N1 2713   4.010   3.130  14.187 -0.3036  0.2752 -0.1185
  174MPD1    H6 2714   4.002   3.029  14.182 -2.2122  0.3889  0.5685
  174MPD1    H7 2715   3.985   3.174  14.098  1.5226 -0.2080 -0.8659
  175MPD1     C 2716   2.746   0.457  15.679 -0.1233 -0.4854 -0.4052
  175MPD1    C1 2717   2.673   0.557  15.722 -0.5022  0.0877 -0.1665
  175MPD1    C2 2718   2.638   0.561  15.857 -0.1239  0.2350  0.3943
  175MPD1    C3 2719   2.672   0.460  15.935 -0.1755  0.0248  0.7054
  175MPD1    C4 2720   2.741   0.352  15.885 -0.1777  0.2530  0.2200
  175MPD1    C5 2721   2.778   0.345  15.753 -0.0492 -0.4531  0.3202
  175MPD1     H 2722   2.594   0.647  15.906  0.7686  0.8669  0.0815
  175MPD1    H1 2723   2.764   0.266  15.946 -1.0854 -0.2358 -0.1262
  175MPD1    H2 2724   2.786   0.458  15.578  0.7946 -0.9846 -0.0448
  175MPD1    H3 2725   2.845   0.269  15.715  0.6263  0.2931  0.0168
  175MPD1     N 2726   2.634   0.438  16.069  0.2420 -0.4708  0.0266
  175MPD1    H5 2727   2.664   0.352  16.114  1.9430  0.1589  0.0710
  175MPD1    N1 2728   2.668   0.673  15.636 -0.1402  0.6806  0.1326
  175MPD1    H6 2729   2.667   0.644  15.538 -2.8463  0.9614  0.0762
  175MPD1    H7 2730   2.589   0.733  15.657  0.5412  1.6517 -0.1211
  176MPD1     C 2731   4.578   2.347  16.410 -0.3802  0.4134  0.0149
  176MPD1    C1 2732   4.688   2.424  16.439  0.8736  0.5540 -0.5028
  176MPD1    C2 2733   4.710   2.440  16.575 -0.5207  0.0996 -0.2895
  176MPD1    C3 2734   4.624   2.394  16.674  0.7260 -0.1958 -0.9169
  176MPD1    C4 2735   4.522   2.310  16.637  0.1609  0.1581  0.2608
  176MPD1    C5 2736   4.498   2.292  16.504 -0.2259 -0.2901  0.2383
  176MPD1     H 2737   0.069   2.489  16.602 -2.0457  1.0708  3.2130
  176MPD1    H1 2738   4.458   2.265  16.712  0.0382 -0.4855 -0.2353
  176MPD1    H2 2739   4.560   2.322  16.306  0.9740  0.9223 -0.3318
  176MPD1    H3 2740   4.409   2.237  16.475  0.5934 -0.9435 -1.0369
  176MPD1     N 2741   4.646   2.431  16.809  0.1699 -0.0592 -0.9438
  176MPD1    H5 2742   4.716   2.505  16.811 -0.6136  0.6539 -0.2506
  176MPD1    N1 2743   0.060   2.440  16.351  0.4190 -0.1845 -0.4216
  176MPD1    H6 2744   0.124   2.513  16.381 -1.9315  2.3989 -1.6197
  176MPD1    H7 2745   0.022   2.460  16.259 -1.8237  1.1684  0.7797
  177MPD1     C 2746   2.407   2.920   9.717  0.8304 -0.1262 -0.1362
  177MPD1    C1 2747   2.370   2.809   9.642  0.3628 -0.0955  0.0285
  177MPD1    C2 2748   2.239   2.769   9.636  0.4132  0.4248 -0.1800
  177MPD1    C3 2749   2.142   2.814   9.717 -0.6529 -0.1640 -0.5383
  177MPD1    C4 2750   2.187   2.906   9.818  0.3913  0.0829 -0.1559
  177MPD1    C5 2751   2.313   2.960   9.809 -0.4785 -0.1460 -0.2173
  177MPD1     H 2752   2.213   2.694   9.563 -0.7790  0.3914  0.2834
  177MPD1    H1 2753   2.125   2.948   9.897 -1.0464  2.2478 -2.4464
  177MPD1    H2 2754   2.502   2.969   9.700  0.8414  1.1020  3.5037
  177MPD1    H3 2755   2.339   3.046   9.871 -4.0372  0.6119  0.2445
  177MPD1     N 2756   2.007   2.771   9.702 -0.4753 -0.1745 -0.0044
  177MPD1    H5 2757   1.993   2.710   9.622  2.3224  0.6830 -1.1350
  177MPD1    N1 2758   2.457   2.758   9.546 -0.3069  0.5745 -0.0488
  177MPD1    H6 2759   2.449   2.657   9.545  2.1552  0.3894  0.2335
  177MPD1    H7 2760   2.556   2.774   9.563 -0.5950  0.5569  1.6429
  178MPD1     C 2761   0.625   3.390   0.237  0.5582  0.0848 -0.2867
  178MPD1    C1 2762   0.744   3.426   0.174 -0.4823 -0.6313  0.1285
  178MPD1    C2 2763   0.801   3.341   0.082  0.1913  0.2624 -0.3726
  178MPD1    C3 2764   0.749   3.219   0.051  0.1881  0.0421 -0.0636
  178MPD1    C4 2765   0.640   3.176   0.119  0.8505  0.2503 -0.5996
  178MPD1    C5 2766   0.586   3.264   0.208 -0.0122 -0.1064  0.3993
  178MPD1     H 2767   0.893   3.374   0.035  1.1774  3.2407  3.5754
  178MPD1    H1 2768   0.602   3.077   0.098 -1.1620  0.6757  1.0187
  178MPD1    H2 2769   0.587   3.446   0.322  0.7765  0.3266 -0.3486
  178MPD1    H3 2770   0.498   3.232   0.263 -0.5925 -0.2233 -0.6025
  178MPD1     N 2771   0.812   3.125  17.702  0.3303 -0.2090 -0.9096
  178MPD1    H5 2772   0.764   3.037  17.685  0.7679 -0.8388  1.0954
  178MPD1    N1 2773   0.814   3.543   0.203 -0.3572 -0.0306 -0.2067
  178MPD1    H6 2774   0.852   3.579   0.116  0.1921  1.5619  0.6756
  178MPD1    H7 2775   0.760   3.620   0.243  1.3050  1.2628 -0.4046
  179MPD1     C 2776   4.185   1.177  15.722 -0.8499 -0.0929 -0.6694
  179MPD1    C1 2777   4.247   1.228  15.831 -0.3014  0.4904  0.1153
  179MPD1    C2 2778   4.373   1.178  15.864 -0.1674 -0.1574 -0.0168
  179MPD1    C3 2779   4.437   1.085  15.786  0.3797 -0.0770 -0.3155
  179MPD1    C4 2780   4.374   1.034  15.677  0.2934 -0.9917  0.0579
  179MPD1    C5 2781   4.245   1.080  15.646 -0.4325  0.1995  0.3719
  179MPD1     H 2782   4.428   1.218  15.948  2.9501 -3.5011 -0.4458
  179MPD1    H1 2783   4.411   0.953  15.614  0.9407  0.5488 -1.5560
  179MPD1    H2 2784   4.086   1.210  15.693  0.3937  1.4998 -3.1550
  179MPD1    H3 2785   4.195   1.037  15.560  0.7986 -1.4401  0.4704
  179MPD1     N 2786   4.556   1.021  15.819  0.1039  0.1242  0.2395
  179MPD1    H5 2787   4.587   0.958  15.746  2.1263 -0.1205  1.3211
  179MPD1    N1 2788   4.183   1.341  15.891  0.5003 -0.5403 -0.3892
  179MPD1    H6 2789   4.092   1.353  15.847 -0.0101  2.2959  1.4303
  179MPD1    H7 2790   4.173   1.332  15.992 -2.6770  2.2825 -0.4660
  180MPD1     C 2791   4.602   3.207  14.763 -0.1362  0.5759  0.8081
  180MPD1    C1 2792   4.694   3.248  14.667 -0.1084  0.0741 -0.7129
  180MPD1    C2 2793   4.720   3.168  14.563 -0.6875 -0.0718  0.4066
  180MPD1    C3 2794   4.658   3.042  14.548 -0.9037 -0.3234  0.1688
  180MPD1    C4 2795   4.545   3.012  14.627 -0.8829 -0.0343  0.1070
  180MPD1    C5 2796   4.524   3.093  14.746  0.0589 -0.1021 -0.0695
  180MPD1     H 2797   0.049   3.198  14.481  0.3770 -0.9529  0.9024
  180MPD1    H1 2798   4.486   2.923  14.614 -0.8212 -0.1986  0.9252
  180MPD1    H2 2799   4.586   3.273  14.848  1.8502  1.8939  0.1595
  180MPD1    H3 2800   4.444   3.086  14.818 -0.0241 -0.1220 -0.1638
  180MPD1     N 2801   4.698   2.958  14.438  0.1801 -0.1898 -0.2250
  180MPD1    H5 2802   0.050   2.989  14.395  0.2561 -0.5257 -0.3083
  180MPD1    N1 2803   0.019   3.374  14.670 -0.6072 -0.2254 -0.0786
  180MPD1    H6 2804   0.012   3.414  14.763  0.6123 -1.7109  0.6457
  180MPD1    H7 2805   0.116   3.378  14.638 -1.2042  0.1803 -1.8854
  181MPD1     C 2806   1.602   0.695  10.210 -0.4862  0.2417  0.0375
  181MPD1    C1 2807   1.682   0.774  10.128  0.5509  0.0431 -0.0693
  181MPD1    C2 2808   1.807   0.742  10.088 -0.1049 -0.5238 -0.3740
  181MPD1    C3 2809   1.868   0.623  10.142  0.2559 -0.2637 -0.2018
  181MPD1    C4 2810   1.788   0.545  10.224  0.0455  0.0423 -0.4318
  181MPD1    C5 2811   1.659   0.580  10.254 -0.3104 -0.0364  0.1140
  181MPD1     H 2812   1.856   0.797  10.008  0.4999 -1.0857 -0.3900
  181MPD1    H1 2813   1.837   0.452  10.251 -2.3523 -0.7270  1.2128
  181MPD1    H2 2814   1.499   0.709  10.241 -0.7667  0.3361 -0.9125
  181MPD1    H3 2815   1.609   0.509  10.319  1.0930  0.7904  2.0916
  181MPD1     N 2816   1.999   0.585  10.110  0.8057 -0.9046  0.1814
  181MPD1    H5 2817   2.031   0.492  10.133 -1.3233 -1.6359  0.1609
  181MPD1    N1 2818   1.612   0.879  10.068 -0.1918  0.1449  0.3950
  181MPD1    H6 2819   1.672   0.959  10.048 -0.1627  0.4301  1.6381
  181MPD1    H7 2820   1.538   0.910  10.130 -0.3561 -0.0370  0.2883
  182MPD1     C 2821   2.969   3.074   1.148 -0.2552  0.1959  0.5235
  182MPD1    C1 2822   2.935   2.982   1.058 -0.5800 -0.1481 -0.1019
  182MPD1    C2 2823   2.801   2.947   1.051  0.1405 -0.1137  0.1570
  182MPD1    C3 2824   2.699   3.025   1.106  0.0026  0.1018 -0.0772
  182MPD1    C4 2825   2.738   3.120   1.198 -0.2053  0.2642  0.5060
  182MPD1    C5 2826   2.872   3.144   1.221  0.5779 -0.0790  0.3322
  182MPD1     H 2827   2.782   2.858   0.991 -0.2860  0.9642 -1.3068
  182MPD1    H1 2828   2.665   3.188   1.240  0.8135  1.2671  0.6315
  182MPD1    H2 2829   3.073   3.097   1.168  0.0713  0.8676 -1.8836
  182MPD1    H3 2830   2.899   3.218   1.295 -1.1616 -0.4269  1.3031
  182MPD1     N 2831   2.560   3.006   1.090 -0.3434 -0.2232 -0.9192
  182MPD1    H5 2832   2.493   3.071   1.128  1.6529  0.8949  0.6785
  182MPD1    N1 2833   3.038   2.896   1.014 -0.0577 -0.1340 -0.1246
  182MPD1    H6 2834   3.020   2.849   0.925 -2.1726  0.5980 -0.0909
  182MPD1    H7 2835   3.129   2.939   1.004 -0.4269  0.8240  0.5643
  183MPD1     C 2836   4.161   0.291   9.685 -0.9509 -0.1779 -0.6010
  183MPD1    C1 2837   4.098   0.231   9.793 -0.4512 -0.0209 -0.0686
  183MPD1    C2 2838   3.984   0.161   9.767 -0.5251  0.6292  0.3951
  183MPD1    C3 2839   3.921   0.158   9.642 -0.2213 -0.3957 -0.4054
  183MPD1    C4 2840   3.975   0.224   9.540  0.4925 -0.0418 -0.5505
  183MPD1    C5 2841   4.101   0.278   9.559  0.3250 -0.0247  0.0803
  183MPD1     H 2842   3.925   0.120   9.848 -1.9004  0.9533 -0.4418
  183MPD1    H1 2843   3.943   0.225   9.437 -0.3161 -2.4677 -0.3276
  183MPD1    H2 2844   4.254   0.345   9.698 -0.9386 -0.2966 -0.1932
  183MPD1    H3 2845   4.160   0.321   9.479  2.1893 -1.5133  0.6348
  183MPD1     N 2846   3.792   0.101   9.642 -0.4363  0.4428  0.0215
  183MPD1    H5 2847   3.771   0.046   9.725  2.1414  1.9218  1.6668
  183MPD1    N1 2848   4.168   0.206   9.913  0.3979  0.2618 -0.2272
  183MPD1    H6 2849   4.115   0.175   9.994  0.8967 -2.4749 -0.9450
  183MPD1    H7 2850   4.228   0.285   9.937  0.2618  0.6556 -1.2072
  184MPD1     C 2851   2.481   2.171  10.922  0.8707  0.5236  1.0519
  184MPD1    C1 2852   2.363   2.102  10.890 -0.5170  0.7356  0.2717
  184MPD1    C2 2853   2.317   2.113  10.755 -0.1344 -0.7213  0.3059
  184MPD1    C3 2854   2.386   2.186  10.662  0.3365  0.3530 -0.3595
  184MPD1    C4 2855   2.501   2.255  10.693  0.4646 -0.6372 -0.6123
  184MPD1    C5 2856   2.549   2.240  10.819  0.4689 -0.0490  0.5446
  184MPD1     H 2857   2.231   2.053  10.730 -0.1365 -1.4434  2.0437
  184MPD1    H1 2858   2.552   2.322  10.625  0.1188 -0.5035 -0.7409
  184MPD1    H2 2859   2.526   2.157  11.019  0.9229  1.1166  1.1073
  184MPD1    H3 2860   2.637   2.301  10.837  1.2857 -1.1088  0.1353
  184MPD1     N 2861   2.358   2.186  10.521 -0.0344 -0.9395  0.7893
  184MPD1    H5 2862   2.416   2.245  10.462 -1.4185 -2.3263 -1.9597
  184MPD1    N1 2863   2.284   2.060  10.998  0.1646 -0.0656  0.0414
  184MPD1    H6 2864   2.231   1.981  10.962 -0.0046 -0.1331  0.4433
  184MPD1    H7 2865   2.334   2.037  11.084 -0.4875  1.7101  0.8819
  185MPD1     C 2866   1.612   1.791   9.962 -0.1174  0.3602 -0.6458
  185MPD1    C1 2867   1.592   1.928   9.953 -0.4832  1.0837 -0.5782
  185MPD1    C2 2868   1.698   2.011   9.988 -0.1948  0.3258 -0.2642
  185MPD1    C3 2869   1.798   1.969  10.070 -0.3477  0.0443 -0.2573
  185MPD1    C4 2870   1.805   1.830  10.084  0.5789  0.0749 -0.2472
  185MPD1    C5 2871   1.722   1.744  10.022  0.8566  0.9469  0.5743
  185MPD1     H 2872   1.686   2.117   9.970 -1.5712  0.1026 -0.6947
  185MPD1    H1 2873   1.890   1.787  10.137 -0.6373 -0.4284  1.2756
  185MPD1    H2 2874   1.540   1.718   9.927  0.1289  0.2015 -0.8175
  185MPD1    H3 2875   1.735   1.638  10.039  1.1390  0.6332 -1.6362
  185MPD1     N 2876   1.902   2.047  10.132  0.3415 -0.6661  0.4209
  185MPD1    H5 2877   1.982   2.001  10.176 -0.6450 -0.8248  2.0760
  185MPD1    N1 2878   1.487   1.992   9.887 -0.4008  0.0549 -0.4489
  185MPD1    H6 2879   1.467   2.080   9.935 -1.9680 -0.4583 -0.1594
  185MPD1    H7 2880   1.402   1.938   9.897  1.6500 -2.8945  1.3401
  186MPD1     C 2881   1.156   1.264  15.873  0.1346  0.8957 -0.2671
  186MPD1    C1 2882   1.058   1.222  15.956  0.0624 -0.0223  0.2456
  186MPD1    C2 2883   0.979   1.309  16.025 -0.1237 -0.9380  0.4563
  186MPD1    C3 2884   1.000   1.449  16.004 -0.4309 -0.2547  0.1658
  186MPD1    C4 2885   1.102   1.488  15.916 -0.7059  0.3018  0.2178
  186MPD1    C5 2886   1.171   1.392  15.851  0.7636  0.5452 -0.1422
  186MPD1     H 2887   0.916   1.273  16.105 -1.5930  0.5319 -0.0393
  186MPD1    H1 2888   1.133   1.590  15.899  3.4756 -1.0756 -0.2370
  186MPD1    H2 2889   1.235   1.202  15.833 -1.8378 -0.8150 -1.4889
  186MPD1    H3 2890   1.250   1.423  15.783  1.7300 -1.1735  0.1912
  186MPD1     N 2891   0.933   1.552  16.073  0.0674 -0.3719  0.3382
  186MPD1    H5 2892   0.970   1.643  16.045 -0.8189 -0.5261 -1.3096
  186MPD1    N1 2893   1.053   1.086  15.971 -0.2005 -0.3270  0.5087
  186MPD1    H6 2894   1.100   1.023  15.906  0.4463  0.8434 -0.1482
  186MPD1    H7 2895   0.971   1.044  16.014 -0.1523 -2.0114 -1.0446
  187MPD1     C 2896   4.624   3.499   0.344 -0.3942 -0.2406 -0.1116
  187MPD1    C1 2897   4.702   3.608   0.315  0.1958 -0.5407 -0.4328
  187MPD1    C2 2898   4.690   3.675   0.192  0.1944  0.2840  0.0043
  187MPD1    C3 2899   4.615   3.608   0.091 -0.1657  0.2198 -0.1501
  187MPD1    C4 2900   4.560   3.483   0.116  0.1707 -0.4595  0.2526
  187MPD1    C5 2901   4.559   3.438   0.243  0.0773  0.4838  0.4444
  187MPD1     H 2902   4.723   3.778   0.187 -2.0031  0.9831 -0.1800
  187MPD1    H1 2903   4.496   3.440   0.040  1.7187  0.0488 -1.3357
  187MPD1    H2 2904   4.627   3.466   0.447  1.8128 -0.9558 -0.4052
  187MPD1    H3 2905   4.505   3.346   0.264  0.0052  0.6122  0.8329
  187MPD1     N 2906   4.589   3.662  17.702 -0.1279 -0.7868  0.2876
  187MPD1    H5 2907   4.529   3.610  17.638 -0.1664 -0.2266 -0.1329
  187MPD1    N1 2908   0.025   3.675   0.422 -0.3518  0.2328 -0.2969
  187MPD1    H6 2909   0.063   3.609   0.489  0.0739 -0.6110 -1.3639
  187MPD1    H7 2910   0.097   3.739   0.390 -1.0267  0.2607 -1.7657
  188MPD1     C 2911   0.444   3.863   9.784 -0.0010  0.6468 -0.2615
  188MPD1    C1 2912   0.314   3.872   9.738 -0.3177  0.1477 -0.1695
  188MPD1    C2 2913   0.215   3.792   9.798  0.4760  0.0489  0.0663
  188MPD1    C3 2914   0.245   3.698   9.891 -0.2690  0.3488 -0.3110
  188MPD1    C4 2915   0.371   3.689   9.932 -0.5141 -0.1771  0.0417
  188MPD1    C5 2916   0.472   3.766   9.883  0.5003  0.0432 -0.3482
  188MPD1     H 2917   0.113   3.825   9.782  0.2493 -0.2482  0.8765
  188MPD1    H1 2918   0.404   3.605   9.992  3.6273  0.7827 -0.9255
  188MPD1    H2 2919   0.520   3.935   9.756  0.7756  0.0235  0.2419
  188MPD1    H3 2920   0.574   3.750   9.917 -0.0197 -2.2795  0.1134
  188MPD1     N 2921   0.154   3.602   9.939 -0.4476 -0.3517 -0.4808
  188MPD1    H5 2922   0.177   3.543  10.019  0.4969  0.8585  0.1419
  188MPD1    N1 2923   0.279   3.984   9.656  0.2721  0.1222 -0.2905
  188MPD1    H6 2924   0.194   3.976   9.601 -0.3698 -1.1123  0.8589
  188MPD1    H7 2925   0.357   4.019   9.601 -0.0165  2.2605  0.6779
  189MPD1     C 2926   1.628   4.133   0.628 -0.5795  0.1180  0.8354
  189MPD1    C1 2927   1.586   4.105   0.500 -0.9055  0.3056 -0.4257
  189MPD1    C2 2928   1.488   4.190   0.439 -0.0379 -0.0328  0.1119
  189MPD1    C3 2929   1.421   4.284   0.513  0.0461 -0.3911 -0.1966
  189MPD1    C4 2930   1.455   4.310   0.652  0.0135  0.0721 -0.0824
  189MPD1    C5 2931   1.570   4.241   0.698 -0.3015  0.1779 -0.2282
  189MPD1     H 2932   1.464   4.176   0.335  2.8247 -0.0235 -0.5388
  189MPD1    H1 2933   1.410   4.382   0.719  2.6160  2.0071 -0.3762
  189MPD1    H2 2934   1.708   4.094   0.691  0.1974 -0.3479 -0.4492
  189MPD1    H3 2935   1.610   4.279   0.791 -1.2120  1.0600 -0.1976
  189MPD1     N 2936   1.313   4.354   0.452  0.2880 -0.2818  0.4199
  189MPD1    H5 2937   1.296   4.335   0.354  1.3910 -1.6116  0.4800
  189MPD1    N1 2938   1.662   4.012   0.429  0.3617 -0.1160 -0.5223
  189MPD1    H6 2939   1.714   3.948   0.489 -0.4064 -1.1273 -0.9404
  189MPD1    H7 2940   1.604   3.962   0.362 -1.0032  0.7098  0.0400
  190MPD1     C 2941   0.111   2.413  15.204  0.1300 -0.4627  0.6312
  190MPD1    C1 2942   0.245   2.420  15.163 -0.2465 -0.3371 -0.0799
  190MPD1    C2 2943   0.342   2.448  15.261  0.4060  0.2265 -0.4506
  190MPD1    C3 2944   0.318   2.469  15.395 -0.4975 -0.2214 -0.5312
  190MPD1    C4 2945   0.181   2.463  15.430 -0.4364 -0.0295 -0.0182
  190MPD1    C5 2946   0.087   2.434  15.340  0.2058  0.3412 -0.1088
  190MPD1     H 2947   0.444   2.462  15.228  0.1320 -0.6811 -1.6758
  190MPD1    H1 2948   0.150   2.492  15.530  0.2633 -0.2898  0.2701
  190MPD1    H2 2949   0.028   2.379  15.143  0.8020 -0.0263 -0.5226
  190MPD1    H3 2950   4.717   2.424  15.366  0.3003  1.4250  0.6744
  190MPD1     N 2951   0.432   2.518  15.468  0.4408 -0.6137  0.5213
  190MPD1    H5 2952   0.515   2.540  15.414 -0.8199 -0.1208 -1.2200
  190MPD1    N1 2953   0.277   2.379  15.038  0.3825 -0.0116 -0.0221
  190MPD1    H6 2954   0.367   2.412  15.007  0.3295  0.9254  0.8213
  190MPD1    H7 2955   0.201   2.391  14.972  1.0087  0.5441 -0.6327
  191MPD1     C 2956   4.415   4.609  12.916 -0.5532 -0.4709 -0.1788
  191MPD1    C1 2957   4.289   4.641  12.882  0.2058  0.4266 -0.3043
  191MPD1    C2 2958   4.275   0.022  12.808 -0.9187 -0.4874 -0.6056
  191MPD1    C3 2959   4.377   0.097  12.756  0.2198  0.0699 -0.2070
  191MPD1    C4 2960   4.507   0.073  12.802 -0.7839 -0.2291 -0.5734
  191MPD1    C5 2961   4.517   4.698  12.879 -0.0733  0.4699 -0.5206
  191MPD1     H 2962   4.172   0.056  12.798 -0.5890  0.3976 -0.9735
  191MPD1    H1 2963   4.597   0.125  12.772 -1.0458  0.0274 -0.9102
  191MPD1    H2 2964   4.433   4.533  12.991  1.5743  2.0675  1.8392
  191MPD1    H3 2965   4.611   4.692  12.931 -0.2776 -0.1533 -0.2249
  191MPD1     N 2966   4.356   0.204  12.667 -0.1116 -0.6646 -0.5071
  191MPD1    H5 2967   4.261   0.220  12.634  0.2085  0.5587 -0.8468
  191MPD1    N1 2968   4.182   4.591  12.955  0.6208  0.7012  0.3593
  191MPD1    H6 2969   4.102   4.598  12.892 -0.2543  0.5767  1.4717
  191MPD1    H7 2970   4.195   4.491  12.964  1.6055  0.7963  0.0012
  192MPD1     C 2971   3.936   4.565  12.030 -0.7184 -0.2440 -0.8100
  192MPD1    C1 2972   4.001   4.534  12.147  0.7292 -0.9529 -0.1335
  192MPD1    C2 2973   4.079   4.634  12.205 -0.5261 -0.3654  0.1644
  192MPD1    C3 2974   4.108   0.015  12.140  0.2123  0.5073 -0.5381
  192MPD1    C4 2975   4.051   0.031  12.020  0.8098  0.0037  0.1562
  192MPD1    C5 2976   3.957   4.679  11.965 -0.3321 -0.1818  0.0750
  192MPD1     H 2977   4.113   4.630  12.308  0.3817 -1.5598 -0.1819
  192MPD1    H1 2978   4.075   0.115  11.957  2.4647 -0.2541  0.4357
  192MPD1    H2 2979   3.863   4.497  11.987 -2.3124  0.1482  1.2238
  192MPD1    H3 2980   3.927   4.706  11.865  4.2026 -0.2203 -1.2866
  192MPD1     N 2981   4.196   0.106  12.204  0.2770  0.1449  0.0796
  192MPD1    H5 2982   4.254   0.073  12.281 -0.2767 -2.1556 -0.5175
  192MPD1    N1 2983   3.964   4.415  12.215  0.9366  0.0004  0.3571
  192MPD1    H6 2984   4.041   4.389  12.277  1.1500  0.1366  0.1507
  192MPD1    H7 2985   3.938   4.344  12.146 -1.3031  1.4190 -0.2443
  193MPD1     C 2986   3.784   4.506  16.110 -0.0476 -0.3741 -0.6444
  193MPD1    C1 2987   3.718   4.604  16.173  0.0703  0.3155 -0.9506
  193MPD1    C2 2988   3.789   4.686  16.258  0.4581  0.2625 -0.2323
  193MPD1    C3 2989   3.923   4.670  16.285  0.0333 -0.6787  0.5702
  193MPD1    C4 2990   3.988   4.576  16.213 -0.8260 -0.5889 -0.4865
  193MPD1    C5 2991   3.919   4.483  16.137  0.6539 -0.3319  0.0986
  193MPD1     H 2992   3.740   0.035  16.308 -0.0052 -1.8153  2.8091
  193MPD1    H1 2993   4.095   4.564  16.221 -0.8196  0.3257  0.7512
  193MPD1    H2 2994   3.737   4.431  16.047 -0.5511  1.3026 -2.2482
  193MPD1    H3 2995   3.979   4.407  16.089  2.0139  0.6567  0.2528
  193MPD1     N 2996   4.001   4.733  16.379 -0.8550 -0.4391  0.7889
  193MPD1    H5 2997   4.100   4.714  16.368 -1.0120 -0.2683 -1.0151
  193MPD1    N1 2998   3.580   4.641  16.148  0.1304 -0.5228  0.0436
  193MPD1    H6 2999   3.527   4.560  16.117  1.2884 -0.3251 -2.4909
  193MPD1    H7 3000   3.538   4.687  16.228 -2.1126  0.3756 -1.6278
  194MPD1     C 3001   1.931   2.668  17.248 -0.2984  0.0151 -0.8070
  194MPD1    C1 3002   1.960   2.665  17.382  0.1367 -0.4628  0.1618
  194MPD1    C2 3003   2.030   2.551  17.429  0.4964 -0.3246  0.2362
  194MPD1    C3 3004   2.065   2.454  17.340 -0.0902 -0.5641  0.2297
  194MPD1    C4 3005   2.025   2.457  17.211 -0.7595 -0.2655 -0.1606
  194MPD1    C5 3006   1.958   2.568  17.161  0.2643  0.5740 -0.1804
  194MPD1     H 3007   2.067   2.545  17.531 -0.4389 -0.6598  0.5548
  194MPD1    H1 3008   2.055   2.382  17.139 -0.5723 -0.9094  0.5889
  194MPD1    H2 3009   1.886   2.758  17.208  0.4552  1.0248  0.5919
  194MPD1    H3 3010   1.927   2.567  17.057  1.4246 -2.1276 -0.4923
  194MPD1     N 3011   2.127   2.334  17.379 -0.6871 -0.2505 -0.1918
  194MPD1    H5 3012   2.141   2.261  17.309  1.7232  0.3391 -0.3229
  194MPD1    N1 3013   1.917   2.761  17.465 -0.5350 -0.1608  0.7306
  194MPD1    H6 3014   1.916   2.851  17.417 -1.6372 -1.4533 -1.6252
  194MPD1    H7 3015   1.982   2.773  17.543 -0.2034  0.3050  0.3860
  195MPD1     C 3016   4.154   3.950   0.198 -0.6012  0.5997 -0.3759
  195MPD1    C1 3017   4.260   3.874   0.180  0.1166 -0.0218  0.3897
  195MPD1    C2 3018   4.236   3.746   0.197  0.2479  0.5729 -0.4762
  195MPD1    C3 3019   4.116   3.690   0.236 -0.5822 -0.4014  0.4188
  195MPD1    C4 3020   4.011   3.773   0.262 -0.3757  0.0250  0.2931
  195MPD1    C5 3021   4.031   3.909   0.251 -0.5170  0.5356 -0.4271
  195MPD1     H 3022   4.317   3.681   0.166  0.6954 -0.5614  3.1117
  195MPD1    H1 3023   3.909   3.747   0.286 -0.5968  0.6621  0.0399
  195MPD1    H2 3024   4.152   4.056   0.173  0.1310  0.9760  1.1906
  195MPD1    H3 3025   3.947   3.977   0.256 -1.2554 -0.4925  1.2167
  195MPD1     N 3026   4.093   3.552   0.247 -0.3308 -0.1210  0.3628
  195MPD1    H5 3027   4.011   3.515   0.295  0.8143  0.0212  2.4184
  195MPD1    N1 3028   4.377   3.920   0.105 -0.6471  0.2733 -0.5533
  195MPD1    H6 3029   4.405   4.016   0.123 -5.3326  1.6300 -0.7110
  195MPD1    H7 3030   4.462   3.864   0.116 -1.8797 -1.8538 -1.8502
  196MPD1     C 3031   1.977   3.133  17.690 -0.0587  0.7063 -0.4094
  196MPD1    C1 3032   2.078   3.221  17.657  0.4540 -0.0492  0.0340
  196MPD1    C2 3033   2.200   3.187  17.714 -0.6835  0.1939 -0.4519
  196MPD1    C3 3034   2.218   3.087   0.073  0.7495 -0.3319 -0.3931
  196MPD1    C4 3035   2.117   3.006   0.098 -0.5927 -0.1560 -0.6665
  196MPD1    C5 3036   1.995   3.025   0.038  0.9619  0.1687 -0.2655
  196MPD1     H 3037   2.280   3.256  17.689 -1.2341  0.8591 -0.3761
  196MPD1    H1 3038   2.120   2.931   0.176 -2.5926  0.1490 -0.2942
  196MPD1    H2 3039   1.878   3.152  17.651 -0.8571 -1.3884  0.5960
  196MPD1    H3 3040   1.913   2.956   0.056  0.8522  1.2046  3.3064
  196MPD1     N 3041   2.340   3.066   0.139 -0.5442  0.2008 -0.7267
  196MPD1    H5 3042   2.354   2.987   0.201 -2.0681  0.5158  0.0083
  196MPD1    N1 3043   2.042   3.344  17.599 -0.0360  0.3141  0.2393
  196MPD1    H6 3044   1.983   3.334  17.517  0.3789  0.3356 -0.0614
  196MPD1    H7 3045   2.129   3.385  17.566 -1.8480  1.8828 -2.5088
  197MPD1     C 3046   2.419   0.293  17.159 -0.6625 -0.7487 -0.2732
  197MPD1    C1 3047   2.503   0.393  17.206  0.2065 -0.3068 -0.0804
  197MPD1    C2 3048   2.537   0.499  17.122  0.2443 -0.1484  0.1607
  197MPD1    C3 3049   2.514   0.486  16.986  0.3570  0.3425  0.9201
  197MPD1    C4 3050   2.436   0.383  16.940  0.4292  0.2033  0.6021
  197MPD1    C5 3051   2.394   0.282  17.024 -0.0980 -0.4834  0.1572
  197MPD1     H 3052   2.596   0.581  17.162  0.0879 -1.3899  2.9411
  197MPD1    H1 3053   2.414   0.377  16.834 -1.2491  1.6065  0.8794
  197MPD1    H2 3054   2.389   0.212  17.225 -1.3967  0.5238  0.9421
  197MPD1    H3 3055   2.333   0.198  16.992  1.6408 -1.8526  0.4516
  197MPD1     N 3056   2.550   0.585  16.889 -0.2129 -0.0569  0.9844
  197MPD1    H5 3057   2.505   0.579  16.798  3.3984 -3.9066 -0.5459
  197MPD1    N1 3058   2.512   0.420  17.344 -0.9120  0.3153  0.4977
  197MPD1    H6 3059   2.533   0.334  17.394 -0.4117  0.8108  1.1562
  197MPD1    H7 3060   2.580   0.491  17.372 -0.5515 -0.7460  2.3571
  198MPD1     C 3061   0.136   0.016  15.790  0.0405 -0.1985  1.0075
  198MPD1    C1 3062   0.124   4.666  15.900 -0.1713  0.5281 -0.0104
  198MPD1    C2 3063   0.145   4.532  15.881 -0.5447 -0.2387 -0.0419
  198MPD1    C3 3064   0.144   4.478  15.756  0.7672  0.7492  0.1338
  198MPD1    C4 3065   0.122   4.558  15.645 -0.5898  0.3686 -0.4254
  198MPD1    C5 3066   0.123   4.695  15.662 -0.9218  0.7347  0.0964
  198MPD1     H 3067   0.160   4.467  15.966 -0.9571  0.5243  0.6216
  198MPD1    H1 3068   0.106   4.527  15.543 -2.1543 -1.4103  0.3596
  198MPD1    H2 3069   0.137   0.122  15.811 -0.4988  0.1297 -0.6263
  198MPD1    H3 3070   0.118   0.021  15.572 -1.5441  1.5645  0.6827
  198MPD1     N 3071   0.136   4.338  15.748 -0.6524 -0.3546  0.6108
  198MPD1    H5 3072   0.178   4.293  15.829  0.2382 -1.2508 -0.3443
  198MPD1    N1 3073   0.131   4.710  16.033  0.4527 -0.5653 -0.1777
  198MPD1    H6 3074   0.100   4.642  16.102  0.1474 -0.3314 -0.0840
  198MPD1    H7 3075   0.077   0.057  16.060 -0.5634 -1.0469 -0.7521
  199MPD1     C 3076   3.072   1.399   9.534  0.3854  0.8343 -0.3241
  199MPD1    C1 3077   3.035   1.310   9.634 -0.4639 -0.0674  0.4217
  199MPD1    C2 3078   2.897   1.286   9.652  0.3992  0.4504 -0.8061
  199MPD1    C3 3079   2.805   1.324   9.561 -0.1136 -0.0978 -0.0268
  199MPD1    C4 3080   2.851   1.410   9.463  0.4840  0.6567 -0.2586
  199MPD1    C5 3081   2.982   1.452   9.447  0.3881 -0.3493 -0.3363
  199MPD1     H 3082   2.866   1.227   9.737  1.4029  2.4866  0.9770
  199MPD1    H1 3083   2.776   1.443   9.392 -0.7473 -1.6196 -0.0307
  199MPD1    H2 3084   3.177   1.424   9.520  0.3907  0.6800 -0.5628
  199MPD1    H3 3085   3.011   1.529   9.377  2.5552 -0.0988  0.8296
  199MPD1     N 3086   2.667   1.289   9.569 -0.1982 -0.0088  1.0682
  199MPD1    H5 3087   2.614   1.318   9.487 -2.1555 -2.5704  1.4306
  199MPD1    N1 3088   3.119   1.275   9.739 -0.2138  0.7082  0.4769
  199MPD1    H6 3089   3.089   1.203   9.804  0.1837  0.0736 -0.0486
  199MPD1    H7 3090   3.215   1.259   9.708 -0.4989  1.9537 -1.0509
  200MPD1     C 3091   1.462   0.277  15.563  0.1317 -0.3660  0.3438
  200MPD1    C1 3092   1.443   0.229  15.435  0.0431  0.0244 -0.4337
  200MPD1    C2 3093   1.521   0.273  15.331  0.7591 -0.6058 -0.5255
  200MPD1    C3 3094   1.615   0.371  15.356 -0.2674  0.5906 -0.6760
  200MPD1    C4 3095   1.611   0.439  15.477 -0.9683 -0.1827 -0.2576
  200MPD1    C5 3096   1.535   0.392  15.580 -0.0476  0.1676 -0.5466
  200MPD1     H 3097   1.516   0.224  15.234 -0.7807 -0.2793 -0.6020
  200MPD1    H1 3098   1.681   0.517  15.505  0.1768 -1.7561  1.2514
  200MPD1    H2 3099   1.417   0.249  15.658  0.4766  1.1494  0.9624
  200MPD1    H3 3100   1.541   0.442  15.676  0.3507 -0.8383 -0.0522
  200MPD1     N 3101   1.682   0.414  15.240  0.2852  0.5905  0.2825
  200MPD1    H5 3102   1.683   0.357  15.156 -1.2984  1.9571 -0.6705
  200MPD1    N1 3103   1.367   0.114  15.422 -0.7547  0.0737 -0.3061
  200MPD1    H6 3104   1.291   0.126  15.488 -0.9657 -1.7648 -0.2094
  200MPD1    H7 3105   1.337   0.119  15.325  0.7867 -0.4024 -0.8113
  201MPD1     C 3106   4.214   4.535  13.319 -0.1170 -0.1308  0.8112
  201MPD1    C1 3107   4.286   4.432  13.268 -0.0839 -0.1972 -0.3169
  201MPD1    C2 3108   4.236   4.304  13.277 -0.0632  0.2317 -0.4233
  201MPD1    C3 3109   4.110   4.281  13.322 -0.3184 -0.2392 -0.0806
  201MPD1    C4 3110   4.034   4.389  13.376  0.3904 -0.4447 -0.5422
  201MPD1    C5 3111   4.087   4.516  13.370 -0.4043 -0.4158 -0.2017
  201MPD1     H 3112   4.301   4.229  13.233  0.7786 -0.0638  1.3381
  201MPD1    H1 3113   3.934   4.375  13.415  0.1157  1.4204 -0.5512
  201MPD1    H2 3114   4.246   4.638  13.309  1.2320 -0.4238  2.1447
  201MPD1    H3 3115   4.028   4.604  13.392  0.2101 -0.1213  0.2509
  201MPD1     N 3116   4.065   4.147  13.331  0.4315  0.2515 -0.5442
  201MPD1    H5 3117   4.131   4.088  13.283  1.5709  2.5964 -1.8281
  201MPD1    N1 3118   4.417   4.449  13.239 -0.0820  0.3184  0.1259
  201MPD1    H6 3119   4.441   4.539  13.197 -2.7715  0.7542 -0.4513
  201MPD1    H7 3120   4.449   4.372  13.181 -3.5242 -0.2452 -1.0150
  202MPD1     C 3121   4.612   4.219   9.753  0.1296  0.3990 -0.1961
  202MPD1    C1 3122   4.492   4.280   9.763 -0.7265 -0.1649 -0.0503
  202MPD1    C2 3123   4.397   4.194   9.807  0.0844 -0.4725 -0.4247
  202MPD1    C3 3124   4.416   4.077   9.869  0.3876  0.3682  0.5802
  202MPD1    C4 3125   4.547   4.023   9.872  0.1481 -0.1200  0.2622
  202MPD1    C5 3126   4.647   4.099   9.812  0.1161  0.0866 -0.1844
  202MPD1     H 3127   4.299   4.238   9.825 -1.4010 -2.5576 -3.6087
  202MPD1    H1 3128   4.575   3.925   9.911 -0.4357  0.7666  2.9106
  202MPD1    H2 3129   4.692   4.261   9.695  0.0577  0.9697  0.1212
  202MPD1    H3 3130   0.009   4.057   9.787  0.4520 -0.2815  1.7369
  202MPD1     N 3131   4.312   4.016   9.947 -0.1779 -0.0086 -0.6202
  202MPD1    H5 3132   4.330   3.924   9.986 -0.6740  0.3087  0.3531
  202MPD1    N1 3133   4.468   4.384   9.679 -0.2968 -0.0657  0.4181
  202MPD1    H6 3134   4.539   4.456   9.673  0.6951 -1.3867 -3.4963
  202MPD1    H7 3135   4.378   4.419   9.712 -0.0457  0.7976  0.1939
  203MPD1     C 3136   2.365   4.406  12.627  0.0921  0.6674  0.2242
  203MPD1    C1 3137   2.365   4.306  12.530 -0.4026 -0.5792 -0.7264
  203MPD1    C2 3138   2.459   4.200  12.554  0.2149  0.2363 -0.0762
  203MPD1    C3 3139   2.553   4.210  12.655 -0.5375 -0.3639 -0.3038
  203MPD1    C4 3140   2.540   4.308  12.751  0.7076  0.2700 -0.1065
  203MPD1    C5 3141   2.441   4.403  12.741 -0.0530  0.1378  0.8220
  203MPD1     H 3142   2.470   4.132  12.471 -1.3082  0.1496 -0.2045
  203MPD1    H1 3143   2.600   4.304  12.841 -0.0945 -1.8474  0.3350
  203MPD1    H2 3144   2.308   4.497  12.619  1.5547  1.4914 -0.6832
  203MPD1    H3 3145   2.436   4.492  12.804 -3.8462 -1.3978  2.7128
  203MPD1     N 3146   2.667   4.129  12.657 -0.5013 -0.0667  0.0940
  203MPD1    H5 3147   2.669   4.057  12.586  0.9212  1.4706 -1.4116
  203MPD1    N1 3148   2.292   4.323  12.412 -0.0244 -0.0979 -0.3236
  203MPD1    H6 3149   2.196   4.346  12.437 -0.0444 -0.4924 -0.0316
  203MPD1    H7 3150   2.285   4.236  12.359 -1.0480  0.6888 -1.4705
  204MPD1     C 3151   1.309   0.803  17.680 -0.7223  1.1638 -0.1817
  204MPD1    C1 3152   1.404   0.807  17.584  0.5808  0.5178  0.3753
  204MPD1    C2 3153   1.479   0.689  17.556 -0.2405  0.2118 -0.9875
  204MPD1    C3 3154   1.464   0.572  17.629  0.2895  0.1410 -0.9090
  204MPD1    C4 3155   1.359   0.569  17.723 -0.1513  0.5615 -0.0784
  204MPD1    C5 3156   1.290   0.685   0.010 -0.0440 -0.3999 -0.3364
  204MPD1     H 3157   1.558   0.699  17.482  0.0740 -3.5466 -1.1583
  204MPD1    H1 3158   1.335   0.479   0.040  0.9028 -0.9022 -1.9882
  204MPD1    H2 3159   1.243   0.886  17.699 -0.4206  1.5989 -1.0139
  204MPD1    H3 3160   1.213   0.681   0.086 -0.9266  0.6857 -1.1686
  204MPD1     N 3161   1.547   0.458  17.598  0.2442 -0.1729  1.2404
  204MPD1    H5 3162   1.602   0.476  17.515 -0.8636  1.0436  0.7642
  204MPD1    N1 3163   1.431   0.927  17.520 -0.6711  0.0060  0.7050
  204MPD1    H6 3164   1.480   0.922  17.431  2.0481 -3.3946  2.3984
  204MPD1    H7 3165   1.363   1.003  17.529 -0.5193  0.2232 -0.0370
  205MPD1     C 3166   2.492   3.779   0.412  0.2119  0.3793 -0.2769
  205MPD1    C1 3167   2.445   3.697   0.307 -0.4187  0.1129  0.7431
  205MPD1    C2 3168   2.323   3.719   0.249  0.8174  0.1325  0.0193
  205MPD1    C3 3169   2.246   3.822   0.296 -0.0502 -0.4048 -0.4968
  205MPD1    C4 3170   2.288   3.895   0.400 -0.0759  0.3800 -0.0060
  205MPD1    C5 3171   2.412   3.879   0.459 -0.8288  0.5889  0.8237
  205MPD1     H 3172   2.288   3.640   0.183 -1.3605  1.0507  0.0725
  205MPD1    H1 3173   2.217   3.962   0.447  0.4825  1.1840 -0.3199
  205MPD1    H2 3174   2.587   3.772   0.463 -0.0985 -0.2173  0.2204
  205MPD1    H3 3175   2.436   3.929   0.552 -0.4718  0.4678  0.7982
  205MPD1     N 3176   2.117   3.850   0.253  0.7113 -0.4264 -0.3784
  205MPD1    H5 3177   2.075   3.941   0.270  0.9330  0.4138 -4.2970
  205MPD1    N1 3178   2.533   3.600   0.251 -0.2930 -0.1228  0.2428
  205MPD1    H6 3179   2.524   3.611   0.150 -1.0897  0.8303  0.4201
  205MPD1    H7 3180   2.627   3.620   0.282  1.0525 -0.0648 -3.8882
  206MPD1     C 3181   2.489   1.949  17.166 -0.1638  0.2379  0.3319
  206MPD1    C1 3182   2.497   1.850  17.067  0.0320 -0.0375  0.2152
  206MPD1    C2 3183   2.463   1.888  16.938 -0.2773  0.0579 -0.1566
  206MPD1    C3 3184   2.421   2.019  16.913  0.9646  0.3079  0.3552
  206MPD1    C4 3185   2.418   2.108  17.016  0.4133 -0.7867  0.2720
  206MPD1    C5 3186   2.458   2.076  17.140  0.8708  0.4630 -0.2464
  206MPD1     H 3187   2.463   1.816  16.857  0.8759  0.5190 -0.5716
  206MPD1    H1 3188   2.381   2.207  16.994  0.2691 -0.7734  0.5760
  206MPD1    H2 3189   2.500   1.922  17.271  0.3985  0.4344  0.3215
  206MPD1    H3 3190   2.463   2.150  17.220  1.4995 -0.0133  0.1526
  206MPD1     N 3191   2.379   2.069  16.788  0.4858 -0.2240  0.2518
  206MPD1    H5 3192   2.331   2.158  16.783 -0.8307 -1.0370 -1.5793
  206MPD1    N1 3193   2.530   1.717  17.102  0.7593  0.1052  0.3070
  206MPD1    H6 3194   2.585   1.679  17.025  0.9055  0.0265  0.4488
  206MPD1    H7 3195   2.591   1.713  17.183  1.5229 -1.0967 -0.3310
  207MPD1     C 3196   4.396   4.407  10.096 -0.1841  1.4915 -0.4840
  207MPD1    C1 3197   4.390   4.539  10.093  0.4089 -0.2276  0.2380
  207MPD1    C2 3198   4.481   4.618  10.156  0.0122  0.1274  0.8043
  207MPD1    C3 3199   4.591   4.562  10.222  1.0226  0.1766 -0.4030
  207MPD1    C4 3200   4.600   4.424  10.223  0.1480  0.0059  0.4738
  207MPD1    C5 3201   4.506   4.349  10.153 -0.5413 -0.1548 -0.6000
  207MPD1     H 3202   4.465   4.725  10.162 -1.3817 -0.0499  0.4913
  207MPD1    H1 3203   4.671   4.359  10.272 -0.9523 -1.3979  0.1925
  207MPD1    H2 3204   4.326   4.342  10.044  0.2983 -0.3685  1.2069
  207MPD1    H3 3205   4.522   4.244  10.134  1.2487 -0.0223  0.1266
  207MPD1     N 3206   4.690   4.619  10.299  0.0741 -0.5655 -0.1263
  207MPD1    H5 3207   0.032   4.557  10.324 -0.7156 -0.2820  2.9686
  207MPD1    N1 3208   4.269   4.597  10.040  0.0808  0.3809  0.4534
  207MPD1    H6 3209   4.212   4.549   9.971  0.2501 -1.5370  1.6682
  207MPD1    H7 3210   4.279   4.695  10.012  1.6364 -0.4438 -1.8510
  208MPD1     C 3211   1.287   2.069   0.378  0.0880  0.5285 -0.4580
  208MPD1    C1 3212   1.402   2.091   0.306  1.1115  0.4956  0.0571
  208MPD1    C2 3213   1.437   2.220   0.275 -0.0123  0.2827 -0.0655
  208MPD1    C3 3214   1.356   2.326   0.311 -0.1977  0.4135 -0.3179
  208MPD1    C4 3215   1.235   2.302   0.355 -0.0688 -0.9724 -0.7993
  208MPD1    C5 3216   1.205   2.176   0.404  0.2504 -0.1574  0.1468
  208MPD1     H 3217   1.528   2.228   0.217 -0.2831 -1.1668 -0.6803
  208MPD1    H1 3218   1.163   2.379   0.379  0.8585 -0.9203  1.8971
  208MPD1    H2 3219   1.262   1.974   0.423  2.7041  0.7294  1.4385
  208MPD1    H3 3220   1.120   2.166   0.470 -0.7899  0.2214 -1.1196
  208MPD1     N 3221   1.412   2.455   0.290 -0.4346  0.0092  0.1434
  208MPD1    H5 3222   1.509   2.451   0.260  0.6278  0.5836  3.5841
  208MPD1    N1 3223   1.495   1.988   0.296  0.1473 -0.2732 -0.0190
  208MPD1    H6 3224   1.572   2.013   0.234 -1.0058  0.9389 -0.9491
  208MPD1    H7 3225   1.453   1.897   0.279 -0.5319 -0.5113  2.9595
  209MPD1     C 3226   0.473   3.551  11.048  0.0678 -0.1768  0.8637
  209MPD1    C1 3227   0.429   3.649  10.966 -0.6475  0.3875 -0.1392
  209MPD1    C2 3228   0.488   3.772  10.976 -0.3733  0.6292  0.3077
  209MPD1    C3 3229   0.570   3.801  11.083  0.5706  0.1126 -0.7407
  209MPD1    C4 3230   0.616   3.709  11.173 -0.3507 -0.6301  0.4365
  209MPD1    C5 3231   0.569   3.580  11.145  0.7522  0.0147 -0.0870
  209MPD1     H 3232   0.470   3.839  10.893  0.2383 -1.8633 -1.8598
  209MPD1    H1 3233   0.683   3.726  11.256  0.9788  1.6100 -1.0956
  209MPD1    H2 3234   0.442   3.447  11.044 -1.0957  0.1785  0.4566
  209MPD1    H3 3235   0.600   3.497  11.208  1.1028 -0.3343 -0.7247
  209MPD1     N 3236   0.628   3.937  11.084 -0.1417 -0.5425 -0.1327
  209MPD1    H5 3237   0.586   3.994  11.011 -0.0393 -0.0916  0.1633
  209MPD1    N1 3238   0.357   3.632  10.843 -0.2381 -0.1184  0.0976
  209MPD1    H6 3239   0.301   3.547  10.836 -1.6770  0.9079 -0.7815
  209MPD1    H7 3240   0.301   3.715  10.827 -0.4352 -1.0281 -3.9283
  210MPD1     C 3241   1.145   0.072  11.495  0.4788 -0.3100 -0.5819
  210MPD1    C1 3242   1.082   4.707  11.560 -0.3697  1.2350  0.0311
  210MPD1    C2 3243   1.013   4.612  11.485  0.0871 -0.8585  0.1137
  210MPD1    C3 3244   1.024   4.611  11.346 -0.3340 -0.1850 -0.1519
  210MPD1    C4 3245   1.090   4.714  11.280 -0.3634 -0.7068  0.8291
  210MPD1    C5 3246   1.153   0.078  11.359  0.3439 -0.3614 -0.4086
  210MPD1     H 3247   0.951   4.540  11.536 -1.3807  0.8445  0.7305
  210MPD1    H1 3248   1.097   4.722  11.172 -0.0988  3.3121  1.1325
  210MPD1    H2 3249   1.197   0.154  11.543 -1.3465  0.8092 -0.5030
  210MPD1    H3 3250   1.214   0.155  11.312 -0.6756  0.5525 -0.2458
  210MPD1     N 3251   0.968   4.509  11.266  0.7263 -0.3853  0.3002
  210MPD1    H5 3252   0.994   4.518  11.168  0.1419  3.3592  0.5110
  210MPD1    N1 3253   1.070   4.706  11.699 -0.0093  0.2168 -0.0634
  210MPD1    H6 3254   1.130   0.036  11.750  0.5784  0.8181 -1.5205
  210MPD1    H7 3255   1.011   4.633  11.740 -1.0208  2.3356  2.2475
  211MPD1     C 3256   2.449   3.563  16.080 -0.6399 -0.1086 -0.6536
  211MPD1    C1 3257   2.316   3.553  16.047  0.9483 -0.2224  0.1106
  211MPD1    C2 3258   2.231   3.661  16.076  0.3905 -0.3370  0.4040
  211MPD1    C3 3259   2.285   3.771  16.142  0.3355 -0.8826  0.6509
  211MPD1    C4 3260   2.416   3.769  16.181 -0.3704  1.2106  0.6811
  211MPD1    C5 3261   2.500   3.672  16.144  1.0415 -0.7105 -0.5804
  211MPD1     H 3262   2.129   3.662  16.040  1.1952  1.2521 -1.8137
  211MPD1    H1 3263   2.466   3.838  16.248  0.5546 -1.2430  2.5345
  211MPD1    H2 3264   2.518   3.482  16.058 -0.3698 -0.0058 -0.1833
  211MPD1    H3 3265   2.604   3.684  16.170  1.5743 -3.7658 -1.3780
  211MPD1     N 3266   2.195   3.866  16.181 -0.1818  0.3436 -0.0634
  211MPD1    H5 3267   2.096   3.848  16.167 -0.1569 -0.1092  0.3613
  211MPD1    N1 3268   2.271   3.440  15.971  0.0078  0.1899 -0.4356
  211MPD1    H6 3269   2.172   3.423  15.989  0.0518  0.0950 -0.2827
  211MPD1    H7 3270   2.323   3.355  15.991  0.2252  0.1599 -1.1218
  212MPD1     C 3271   1.735   2.290  16.373 -0.8933  0.1876  0.4456
  212MPD1    C1 3272   1.645   2.366  16.451  0.2995 -0.5579 -0.1091
  212MPD1    C2 3273   1.581   2.303  16.557 -0.8069  0.0644  0.5946
  212MPD1    C3 3274   1.623   2.178  16.601 -0.4961  0.6706  1.1206
  212MPD1    C4 3275   1.717   2.108  16.516 -0.2941 -0.6888  0.1359
  212MPD1    C5 3276   1.770   2.167  16.410 -0.0474  0.4948 -0.3392
  212MPD1     H 3277   1.516   2.363  16.620 -1.0079  0.9164 -0.4117
  212MPD1    H1 3278   1.762   2.015  16.546 -0.4531 -1.3012 -1.5463
  212MPD1    H2 3279   1.790   2.327  16.287  1.4175 -0.6498  1.5620
  212MPD1    H3 3280   1.845   2.113  16.352  0.3620 -0.4253  1.0478
  212MPD1     N 3281   1.584   2.110  16.725 -0.0266  0.4161 -0.1399
  212MPD1    H5 3282   1.604   2.011  16.737  0.3474  0.2055 -2.6385
  212MPD1    N1 3283   1.588   2.484  16.394 -0.6137 -0.2957  0.1927
  212MPD1    H6 3284   1.658   2.535  16.340  0.4902  0.2197  2.0911
  212MPD1    H7 3285   1.559   2.548  16.467 -0.3222 -3.2627  2.9345
  213MPD1     C 3286   4.670   2.656  15.622  0.0073  0.1768  0.1564
  213MPD1    C1 3287   4.538   2.604  15.628  0.2762 -0.2285  0.0551
  213MPD1    C2 3288   4.449   2.672  15.550  0.6510  0.1754  0.7323
  213MPD1    C3 3289   4.480   2.796  15.492  0.2493  0.0061 -0.3398
  213MPD1    C4 3290   4.604   2.852  15.500 -0.1617 -0.2520 -0.3358
  213MPD1    C5 3291   4.699   2.778  15.566 -0.1518 -0.0267  0.4295
  213MPD1     H 3292   4.352   2.631  15.527  0.6139  1.2058 -0.9324
  213MPD1    H1 3293   4.621   2.953  15.464  2.1037  0.1883  1.9932
  213MPD1    H2 3294   0.021   2.591  15.637 -1.9230 -2.4299 -0.1531
  213MPD1    H3 3295   0.068   2.807  15.563  0.3476 -1.8214  0.3404
  213MPD1     N 3296   4.376   2.849  15.405 -0.1363 -0.4567 -0.6209
  213MPD1    H5 3297   4.297   2.789  15.384 -0.6778 -0.3392  1.1286
  213MPD1    N1 3298   4.528   2.470  15.647  0.3869 -0.6799 -0.2571
  213MPD1    H6 3299   4.436   2.430  15.670  0.3055  0.4963  1.5005
  213MPD1    H7 3300   4.586   2.440  15.725 -1.3196 -1.5798  0.6887
  214MPD1     C 3301   3.522   2.589  15.094  0.6806  0.1433 -0.2437
  214MPD1    C1 3302   3.579   2.594  15.216  0.0478 -0.1655  0.5094
  214MPD1    C2 3303   3.667   2.699  15.240 -0.3704 -0.3533  0.4713
  214MPD1    C3 3304   3.728   2.772  15.134  0.1077 -0.3246  0.1607
  214MPD1    C4 3305   3.683   2.745  15.014 -0.9189  0.0428 -0.3835
  214MPD1    C5 3306   3.577   2.661  14.992 -0.0708 -0.6726 -0.2235
  214MPD1     H 3307   3.704   2.717  15.341  3.2590  1.0964 -1.1221
  214MPD1    H1 3308   3.718   2.798  14.926  2.1680 -0.2451  0.6997
  214MPD1    H2 3309   3.445   2.518  15.064  0.2836  0.1481  0.7549
  214MPD1    H3 3310   3.534   2.654  14.893 -0.3914 -0.0859 -0.1223
  214MPD1     N 3311   3.840   2.865  15.149  0.0838  0.0250  0.2644
  214MPD1    H5 3312   3.876   2.901  15.061  0.0937  0.0890  0.2942
  214MPD1    N1 3313   3.527   2.515  15.321  0.4007 -0.1794  0.4106
  214MPD1    H6 3314   3.591   2.508  15.400  2.1540 -0.9916 -1.0815
  214MPD1    H7 3315   3.494   2.423  15.292  0.0079 -0.4976  1.8527
  215MPD1     C 3316   0.173   3.896  10.523  0.3840 -0.0851  1.0207
  215MPD1    C1 3317   0.088   4.002  10.537  0.5131 -0.4431  0.4304
  215MPD1    C2 3318   0.129   4.096  10.632  0.1006 -0.2307 -0.0492
  215MPD1    C3 3319   0.252   4.090  10.692 -0.0985  0.3731  0.2162
  215MPD1    C4 3320   0.337   3.981  10.663  0.0347  0.4539  0.7261
  215MPD1    C5 3321   0.301   3.890  10.574 -0.1515  0.2779  0.6923
  215MPD1     H 3322   0.069   4.185  10.649  2.0402  0.9848  0.4256
  215MPD1    H1 3323   0.434   3.974  10.711  0.7567  1.8042 -0.5073
  215MPD1    H2 3324   0.137   3.817  10.458  0.8703 -0.0636  0.7254
  215MPD1    H3 3325   0.371   3.809  10.554 -2.7559 -1.3698 -1.7542
  215MPD1     N 3326   0.286   4.187  10.787  0.5502  0.1799  0.3753
  215MPD1    H5 3327   0.215   4.260  10.791  1.0535  0.8457 -2.7549
  215MPD1    N1 3328   4.690   3.994  10.478 -0.2829  0.2124 -0.2792
  215MPD1    H6 3329   4.640   4.081  10.463 -0.9563 -0.3722 -1.4368
  215MPD1    H7 3330   4.685   3.943  10.389  1.4426  0.6986 -0.6536
  216MPD1     C 3331   1.807   2.246  17.010  0.2898  0.6466 -0.4399
  216MPD1    C1 3332   1.839   2.133  16.936 -0.7319  0.3225 -0.4191
  216MPD1    C2 3333   1.841   2.012  17.006 -0.4274  0.1388 -0.1000
  216MPD1    C3 3334   1.793   2.002  17.135  0.7215  0.4420  0.7165
  216MPD1    C4 3335   1.756   2.117  17.206  0.3578  0.0636  0.4975
  216MPD1    C5 3336   1.768   2.241  17.138 -0.2973  0.4670 -0.4841
  216MPD1     H 3337   1.859   1.918  16.956  0.9110  0.2095  0.2452
  216MPD1    H1 3338   1.714   2.123  17.305 -3.5586  0.8582 -1.2151
  216MPD1    H2 3339   1.820   2.348  16.977 -1.4935  0.5186 -1.5336
  216MPD1    H3 3340   1.757   2.340  17.180 -0.6973 -0.0047  0.5169
  216MPD1     N 3341   1.787   1.873  17.188 -1.2626  0.0381 -0.1256
  216MPD1    H5 3342   1.822   1.808  17.119  1.6404  1.2111  0.2433
  216MPD1    N1 3343   1.899   2.143  16.802 -0.6037 -0.0321  0.2620
  216MPD1    H6 3344   1.864   2.228  16.758 -0.9274  0.5593  1.6599
  216MPD1    H7 3345   1.861   2.068  16.745  0.3890 -1.0953  1.0008
  217MPD1     C 3346   1.375   2.934   9.230  0.3724 -0.4857 -0.2461
  217MPD1    C1 3347   1.503   2.891   9.238 -0.7858  0.1213 -0.1045
  217MPD1    C2 3348   1.598   2.968   9.304  0.2364  0.5299 -0.0658
  217MPD1    C3 3349   1.567   3.092   9.363  0.1197 -0.3084  0.5207
  217MPD1    C4 3350   1.436   3.133   9.357 -0.0519 -0.2798  0.4175
  217MPD1    C5 3351   1.347   3.052   9.293  0.7532 -0.1299  0.3675
  217MPD1     H 3352   1.696   2.925   9.317  0.5851  1.4555  0.3469
  217MPD1    H1 3353   1.398   3.231   9.385 -0.5051 -0.2077 -0.4785
  217MPD1    H2 3354   1.306   2.879   9.168 -2.0574  1.7636  0.4824
  217MPD1    H3 3355   1.247   3.089   9.275  1.6774  0.5381 -3.2943
  217MPD1     N 3356   1.661   3.165   9.444 -0.2312  0.3632 -0.9152
  217MPD1    H5 3357   1.628   3.253   9.483 -0.8119  0.1787 -0.9950
  217MPD1    N1 3358   1.551   2.780   9.165  0.3124 -0.1364  0.0177
  217MPD1    H6 3359   1.637   2.735   9.194 -0.7843 -1.0184  1.9706
  217MPD1    H7 3360   1.477   2.712   9.148 -0.0359  0.3246 -0.3008
  218MPD1     C 3361   3.908   3.884  12.583 -0.6242 -0.4621  0.1998
  218MPD1    C1 3362   3.974   3.895  12.707 -0.4886  0.0796  0.0205
  218MPD1    C2 3363   4.036   4.013  12.736  0.3179  0.1667 -0.5917
  218MPD1    C3 3364   4.051   4.117  12.649 -0.1768 -0.6613  0.3838
  218MPD1    C4 3365   3.983   4.102  12.534  0.1928 -0.0063 -0.2197
  218MPD1    C5 3366   3.915   3.987  12.493 -0.4229  0.4997  0.5568
  218MPD1     H 3367   4.086   4.031  12.830 -1.3878 -0.4909  0.4615
  218MPD1    H1 3368   3.981   4.174  12.452  2.1588  0.0971 -0.1843
  218MPD1    H2 3369   3.846   3.797  12.564  0.7331 -1.3910 -0.0060
  218MPD1    H3 3370   3.849   3.975  12.407  1.9313 -1.2087 -1.0150
  218MPD1     N 3371   4.133   4.229  12.675  0.6058  0.0237  0.3525
  218MPD1    H5 3372   4.177   4.222  12.767  1.3622 -1.9333 -0.1599
  218MPD1    N1 3373   3.950   3.801  12.811  0.8679  0.3913  0.0858
  218MPD1    H6 3374   3.937   3.709  12.769  0.8567  0.7107 -0.6046
  218MPD1    H7 3375   4.019   3.809  12.885  2.8140 -1.5140 -1.5276
  219MPD1     C 3376   4.718   0.240  12.121 -0.2279 -0.0687 -0.1515
  219MPD1    C1 3377   4.604   0.161  12.092  0.4197 -0.1188  0.3744
  219MPD1    C2 3378   4.571   0.061  12.189 -0.1081  0.1025 -0.0583
  219MPD1    C3 3379   4.640   0.050  12.311 -0.1987  0.0130 -0.4992
  219MPD1    C4 3380   0.012   0.136  12.338  0.7033  0.2441 -0.3034
  219MPD1    C5 3381   0.048   0.223  12.240  0.7139  0.1650 -0.0351
  219MPD1     H 3382   4.483   4.734  12.173  1.3276 -1.9614 -0.0872
  219MPD1    H1 3383   0.057   0.130  12.436  0.1448  0.2541 -0.0480
  219MPD1    H2 3384   0.031   0.304  12.048 -0.6836 -0.3706 -0.7159
  219MPD1    H3 3385   0.134   0.288  12.253  0.5976  0.4801 -0.8032
  219MPD1     N 3386   4.593   4.707  12.421  0.0401  0.7424 -0.6508
  219MPD1    H5 3387   4.649   4.711  12.506 -1.4341 -0.5172  0.3728
  219MPD1    N1 3388   4.535   0.171  11.969 -0.1910 -0.8110  0.3060
  219MPD1    H6 3389   4.441   0.134  11.982 -0.9127  1.4619  1.7713
  219MPD1    H7 3390   4.533   0.267  11.934  0.5820 -0.7451  0.4342
  220MPD1     C 3391   4.130   0.764  10.036 -0.1351  0.1353  0.0049
  220MPD1    C1 3392   4.197   0.774  10.153  0.0845  0.7896  0.7235
  220MPD1    C2 3393   4.248   0.660  10.206  0.4120 -0.0135 -0.4458
  220MPD1    C3 3394   4.197   0.532  10.170 -0.2048 -0.0287 -0.2300
  220MPD1    C4 3395   4.105   0.530  10.068 -0.8136 -0.5940  0.2065
  220MPD1    C5 3396   4.072   0.643  10.005  0.1981 -0.1805  0.4222
  220MPD1     H 3397   4.329   0.666  10.278  0.3887  0.5663 -0.4688
  220MPD1    H1 3398   4.050   0.441  10.040 -0.6290 -0.7241  0.2527
  220MPD1    H2 3399   4.111   0.855   9.981  0.9787  0.0488 -0.5209
  220MPD1    H3 3400   3.993   0.644   9.932  1.1797 -4.0019 -0.6918
  220MPD1     N 3401   4.233   0.421  10.257 -0.3298 -0.3428 -0.3518
  220MPD1    H5 3402   4.303   0.444  10.326  0.3689  1.1489 -1.5566
  220MPD1    N1 3403   4.268   0.887  10.194 -0.0070  0.1163  0.0923
  220MPD1    H6 3404   4.223   0.970  10.156  1.3220  1.2813  1.0933
  220MPD1    H7 3405   4.296   0.888  10.291  1.2980  0.2224 -0.2902
  221MPD1     C 3406   1.923   3.300  16.832  1.0810  0.1280 -0.3279
  221MPD1    C1 3407   1.846   3.243  16.734  0.0132 -0.2440  0.0316
  221MPD1    C2 3408   1.916   3.160  16.648 -0.2470  0.1159  0.6623
  221MPD1    C3 3409   2.056   3.145  16.647 -0.3282 -0.0996 -0.9380
  221MPD1    C4 3410   2.124   3.220  16.742 -0.2746  0.4007 -0.0119
  221MPD1    C5 3411   2.057   3.283  16.833 -0.5326 -0.5051  1.1090
  221MPD1     H 3412   1.857   3.105  16.575  0.8950  0.1692 -0.3022
  221MPD1    H1 3413   2.231   3.207  16.757 -0.2241  1.3056  0.4508
  221MPD1    H2 3414   1.889   3.362  16.914 -0.0125 -0.4088 -0.3804
  221MPD1    H3 3415   2.111   3.320  16.919 -1.3682 -0.3323  1.5642
  221MPD1     N 3416   2.131   3.064  16.561  0.3660  0.4494  0.0399
  221MPD1    H5 3417   2.231   3.079  16.571  0.7122 -2.4722  0.8280
  221MPD1    N1 3418   1.704   3.223  16.752  0.1663 -0.0562 -0.0812
  221MPD1    H6 3419   1.669   3.303  16.806  1.2935  0.5535 -0.2622
  221MPD1    H7 3420   1.658   3.216  16.662 -0.1722  0.6032  0.0353
  222MPD1     C 3421   0.680   1.793   1.031  0.7821 -0.2002  0.4262
  222MPD1    C1 3422   0.642   1.842   0.912 -0.2299 -0.2566 -0.2650
  222MPD1    C2 3423   0.611   1.979   0.902  0.5688  0.3997 -0.3249
  222MPD1    C3 3424   0.625   2.059   1.014 -0.2514  0.3404  0.1752
  222MPD1    C4 3425   0.669   2.003   1.130  0.1035 -0.3486 -0.1956
  222MPD1    C5 3426   0.697   1.872   1.137 -0.0013 -0.3307 -0.1543
  222MPD1     H 3427   0.570   2.010   0.807  0.5181 -0.1230 -0.4757
  222MPD1    H1 3428   0.663   2.058   1.224  1.2222 -0.3873 -0.1021
  222MPD1    H2 3429   0.711   1.690   1.039 -0.3462 -0.6846 -1.5964
  222MPD1    H3 3430   0.747   1.833   1.225 -0.3715  1.7502  0.9725
  222MPD1     N 3431   0.589   2.194   1.014  1.1977  0.2848 -0.0544
  222MPD1    H5 3432   0.591   2.241   1.104  1.3848  1.0959 -0.4854
  222MPD1    N1 3433   0.628   1.762   0.800  0.4314  0.1019 -0.1157
  222MPD1    H6 3434   0.573   1.804   0.725  0.5905 -1.0981 -0.8921
  222MPD1    H7 3435   0.576   1.679   0.825 -0.2405  0.1575 -1.3053
  223MPD1     C 3436   0.040   2.784   1.578  0.4129 -0.5831  0.1519
  223MPD1    C1 3437   0.072   2.877   1.482 -0.3007 -0.3474 -0.0278
  223MPD1    C2 3438   0.142   2.831   1.371 -0.5040  0.7774  0.2486
  223MPD1    C3 3439   0.175   2.695   1.353 -0.5406 -0.1351 -0.2323
  223MPD1    C4 3440   0.136   2.605   1.451  0.1864  0.8771 -0.4535
  223MPD1    C5 3441   0.071   2.649   1.563  0.5348  0.5237 -0.2045
  223MPD1     H 3442   0.163   2.903   1.293 -0.9367 -0.6375 -1.1604
  223MPD1    H1 3443   0.160   2.499   1.451  1.3989  1.1522  2.1414
  223MPD1    H2 3444   4.722   2.806   1.671  2.2173 -0.3347  1.1204
  223MPD1    H3 3445   0.044   2.581   1.643  2.1390 -1.3431 -1.2684
  223MPD1     N 3446   0.247   2.659   1.237 -1.0271  0.0304  0.5143
  223MPD1    H5 3447   0.293   2.730   1.181 -0.0357 -0.5362  0.6126
  223MPD1    N1 3448   0.065   3.014   1.506 -0.1553  0.6196 -0.2360
  223MPD1    H6 3449   0.039   3.054   1.415  0.6519 -0.0978 -0.7873
  223MPD1    H7 3450   4.725   3.031   1.572 -0.0093 -1.5563  0.4695
  224MPD1     C 3451   3.467   4.282   9.434 -0.1426 -0.1960 -0.0481
  224MPD1    C1 3452   3.397   4.405   9.440 -0.0367  0.3748  0.7924
  224MPD1    C2 3453   3.302   4.427   9.540 -0.1651  0.3972 -0.3694
  224MPD1    C3 3454   3.266   4.332   9.632 -0.2886 -0.2784  0.1891
  224MPD1    C4 3455   3.338   4.210   9.623  0.6285 -0.4331  0.2696
  224MPD1    C5 3456   3.435   4.185   9.522  0.4738 -0.0615 -0.7971
  224MPD1     H 3457   3.250   4.521   9.531 -1.9534 -0.4148  1.3524
  224MPD1    H1 3458   3.318   4.135   9.698  0.8025 -1.1845 -0.4309
  224MPD1    H2 3459   3.535   4.256   9.354 -0.4217 -2.6144  0.5021
  224MPD1    H3 3460   3.484   4.088   9.521  1.7280  0.5604 -0.0565
  224MPD1     N 3461   3.154   4.340   9.715 -0.3749  0.2233 -0.5756
  224MPD1    H5 3462   3.133   4.256   9.767 -0.3642 -1.7967 -3.8426
  224MPD1    N1 3463   3.444   4.507   9.359  0.1617  0.3260  0.2057
  224MPD1    H6 3464   3.365   4.569   9.344  0.2459  0.1779 -0.8556
  224MPD1    H7 3465   3.460   4.470   9.265 -0.7638  0.1448  0.1263
  225MPD1     C 3466   3.455   3.926  13.538  0.1034 -0.2118  0.3962
  225MPD1    C1 3467   3.461   4.061  13.532  0.0657  0.6033 -0.7642
  225MPD1    C2 3468   3.524   4.119  13.423 -0.6518 -0.3538  0.1589
  225MPD1    C3 3469   3.592   4.039  13.329  0.3520 -0.4653 -0.1796
  225MPD1    C4 3470   3.592   3.903  13.349  0.2174  0.3003 -0.5484
  225MPD1    C5 3471   3.522   3.850  13.447 -0.0789 -0.5521 -0.1847
  225MPD1     H 3472   3.526   4.227  13.423  0.5110 -0.3669  0.7187
  225MPD1    H1 3473   3.645   3.836  13.283  0.3915 -1.1681  1.1025
  225MPD1    H2 3474   3.402   3.872  13.616  0.5964 -0.5530  0.5004
  225MPD1    H3 3475   3.522   3.742  13.456  2.2082 -0.6258 -1.1475
  225MPD1     N 3476   3.649   4.107  13.212 -0.2648  0.8550  0.3576
  225MPD1    H5 3477   3.681   4.044  13.139  0.0638  1.9388 -0.4298
  225MPD1    N1 3478   3.387   4.145  13.615  0.2067 -0.0134 -0.5022
  225MPD1    H6 3479   3.430   4.237  13.615 -1.1905  0.6474 -0.1234
  225MPD1    H7 3480   3.396   4.118  13.713  1.3354  0.3752 -0.5024
  226MPD1     C 3481   2.014   1.044   9.259  0.2676  0.5627 -0.5058
  226MPD1    C1 3482   2.022   0.922   9.332 -0.5606 -0.5315 -0.0201
  226MPD1    C2 3483   2.154   0.878   9.353 -0.3100  0.2711  0.3817
  226MPD1    C3 3484   2.262   0.951   9.306  0.0761 -0.3748  0.3286
  226MPD1    C4 3485   2.247   1.058   9.231 -0.5183  0.3047  0.5967
  226MPD1    C5 3486   2.125   1.111   9.208 -0.4547 -0.0556  0.7288
  226MPD1     H 3487   2.184   0.800   9.422 -1.3867  1.7228  2.4904
  226MPD1    H1 3488   2.334   1.115   9.198 -0.8719 -1.3224 -3.1912
  226MPD1    H2 3489   1.915   1.078   9.230 -0.7724 -1.8785  0.2098
  226MPD1    H3 3490   2.109   1.195   9.141 -0.7717 -0.1930  0.6273
  226MPD1     N 3491   2.388   0.915   9.362 -0.3428  0.2265  0.4469
  226MPD1    H5 3492   2.389   0.839   9.429  2.1644 -1.8178 -1.9728
  226MPD1    N1 3493   1.904   0.876   9.395 -0.0156  0.2639 -0.0803
  226MPD1    H6 3494   1.901   0.774   9.399  2.3049  0.0838 -2.6631
  226MPD1    H7 3495   1.829   0.897   9.330 -0.7826 -0.5461  0.5519
  227MPD1     C 3496   3.356   1.174   9.175 -0.5930 -0.2110 -0.3002
  227MPD1    C1 3497   3.250   1.161   9.084 -0.7623  0.7122 -0.5044
  227MPD1    C2 3498   3.131   1.106   9.131  0.8764 -0.2388 -0.4708
  227MPD1    C3 3499   3.124   1.057   9.262  0.1415 -0.1539  0.1929
  227MPD1    C4 3500   3.231   1.070   9.349 -0.3326  0.4778  0.3525
  227MPD1    C5 3501   3.344   1.111   9.294 -0.8060  0.5877  0.3065
  227MPD1     H 3502   3.058   1.098   9.051  0.2839  2.4122 -0.2003
  227MPD1    H1 3503   3.219   1.043   9.453  0.7977  0.1996  0.4196
  227MPD1    H2 3504   3.456   1.211   9.152 -0.0008 -2.2289 -1.0256
  227MPD1    H3 3505   3.434   1.111   9.354 -0.2994  0.5449 -0.4534
  227MPD1     N 3506   3.003   0.993   9.304  0.3439 -0.0063  0.1198
  227MPD1    H5 3507   2.929   0.993   9.235  1.3902  0.1412 -1.0203
  227MPD1    N1 3508   3.258   1.230   8.961 -0.1886  0.0813 -0.1572
  227MPD1    H6 3509   3.185   1.186   8.905 -2.2973  0.3084  2.4730
  227MPD1    H7 3510   3.351   1.216   8.922  0.5635  1.1255  1.2948
  228MPD1     C 3511   0.460   2.324  12.083 -0.1402 -0.5044 -0.1908
  228MPD1    C1 3512   0.515   2.451  12.072 -0.0898  0.3956 -0.0536
  228MPD1    C2 3513   0.548   2.519  12.191 -0.7552 -0.1323  0.3590
  228MPD1    C3 3514   0.534   2.448  12.316 -0.1597  0.4603  1.0755
  228MPD1    C4 3515   0.461   2.332  12.316  0.8148  0.3262  0.0509
  228MPD1    C5 3516   0.421   2.278  12.201 -0.3880  0.6036  0.1645
  228MPD1     H 3517   0.599   2.615  12.193  0.6847 -0.8896  0.3840
  228MPD1    H1 3518   0.454   2.261  12.397 -1.3305 -1.2828 -1.5518
  228MPD1    H2 3519   0.448   2.266  11.992  1.2685  1.1310 -1.4272
  228MPD1    H3 3520   0.378   2.178  12.207 -1.1457  0.9060 -0.2397
  228MPD1     N 3521   0.613   2.489  12.422  0.3751 -0.1367 -0.3441
  228MPD1    H5 3522   0.657   2.579  12.409 -2.1284  1.5040  2.4931
  228MPD1    N1 3523   0.524   2.520  11.950  0.4286  0.3543  0.1914
  228MPD1    H6 3524   0.563   2.466  11.873 -0.1157 -1.3080  1.0767
  228MPD1    H7 3525   0.598   2.588  11.966  0.9990 -0.1717 -0.1697
  229MPD1     C 3526   0.268   1.585  14.279  0.2584 -0.0189 -0.0783
  229MPD1    C1 3527   0.288   1.447  14.269 -0.4980  0.0583  0.6402
  229MPD1    C2 3528   0.363   1.388  14.370 -0.2563  0.3331 -0.1393
  229MPD1    C3 3529   0.394   1.462  14.485 -0.0649 -0.1776  0.4138
  229MPD1    C4 3530   0.352   1.595  14.495  0.3844  0.4277  0.0999
  229MPD1    C5 3531   0.299   1.658  14.388 -0.1953 -0.4657 -0.3115
  229MPD1     H 3532   0.391   1.284  14.367 -1.4281  0.0205 -0.0559
  229MPD1    H1 3533   0.401   1.658  14.568  1.4407  0.5784 -0.7332
  229MPD1    H2 3534   0.222   1.639  14.197 -1.6879 -0.9268  0.3973
  229MPD1    H3 3535   0.276   1.762  14.405 -1.5559 -0.4107 -2.4656
  229MPD1     N 3536   0.483   1.408  14.581 -0.3274 -0.1939  0.0991
  229MPD1    H5 3537   0.511   1.470  14.657 -0.9562  0.9547 -0.6120
  229MPD1    N1 3538   0.256   1.371  14.155 -0.8210  0.4182 -0.3186
  229MPD1    H6 3539   0.244   1.273  14.182  2.6655  0.5089  1.5158
  229MPD1    H7 3540   0.181   1.417  14.104  0.1423  0.3693 -1.7786
  230MPD1     C 3541   0.555   1.144  15.505 -0.0024 -0.4429 -0.6104
  230MPD1    C1 3542   0.621   1.042  15.444  0.3662  0.1815 -1.0892
  230MPD1    C2 3543   0.689   1.081  15.332  0.0924  0.5427  0.2709
  230MPD1    C3 3544   0.663   1.198  15.257  0.2614 -0.5517  0.0626
  230MPD1    C4 3545   0.571   1.281  15.311  0.2415  0.1159  0.1030
  230MPD1    C5 3546   0.526   1.258  15.437 -0.7667 -0.0362 -0.1302
  230MPD1     H 3547   0.753   1.006  15.287  0.4336  1.5970 -0.9737
  230MPD1    H1 3548   0.539   1.373  15.263  1.6282  0.7830  0.4418
  230MPD1    H2 3549   0.519   1.138  15.608  0.8995 -0.1127 -0.2727
  230MPD1    H3 3550   0.468   1.336  15.486 -0.9938 -1.4287  1.8245
  230MPD1     N 3551   0.719   1.215  15.127 -0.5002  0.0665 -0.3870
  230MPD1    H5 3552   0.782   1.144  15.091 -1.7739 -1.8061  1.0990
  230MPD1    N1 3553   0.649   0.916  15.500  0.3228 -0.5182 -0.5413
  230MPD1    H6 3554   0.661   0.838  15.436 -0.1894  0.5823 -1.9976
  230MPD1    H7 3555   0.576   0.885  15.564  0.8377  2.2039  1.4034
  231MPD1     C 3556   3.916   3.097  15.630 -1.1043 -0.5057 -0.0913
  231MPD1    C1 3557   3.794   3.147  15.590 -0.2329 -0.1379 -0.4534
  231MPD1    C2 3558   3.795   3.219  15.475  0.0091 -0.7916  0.1006
  231MPD1    C3 3559   3.916   3.243  15.409  0.1441 -0.0620 -0.2947
  231MPD1    C4 3560   4.037   3.205  15.465  0.9230  0.4666  0.4356
  231MPD1    C5 3561   4.032   3.134  15.581 -0.4873 -0.2730  0.5461
  231MPD1     H 3562   3.700   3.242  15.428  0.5716 -0.8345 -1.0358
  231MPD1    H1 3563   4.133   3.241  15.431  1.2075  1.3395  2.1916
  231MPD1    H2 3564   3.920   3.020  15.706  0.6331  0.0600  0.3950
  231MPD1    H3 3565   4.122   3.099  15.629  0.0989 -0.2110 -0.5036
  231MPD1     N 3566   3.905   3.314  15.292 -0.2201 -0.4756  0.2441
  231MPD1    H5 3567   3.814   3.317  15.245  0.3897  2.1316 -0.7927
  231MPD1    N1 3568   3.671   3.114  15.650 -0.0990 -0.4298 -0.0376
  231MPD1    H6 3569   3.691   3.103  15.749 -3.0036  0.8590  0.6975
  231MPD1    H7 3570   3.597   3.183  15.638 -0.2406 -0.2795  1.7194
  232MPD1     C 3571   0.593   0.890  17.461 -0.4571  0.7810 -0.3951
  232MPD1    C1 3572   0.528   0.766  17.440 -0.7129  0.0109  0.6281
  232MPD1    C2 3573   0.386   0.761  17.435 -0.2455  0.2568 -0.2338
  232MPD1    C3 3574   0.307   0.874  17.460 -0.1088 -0.2299 -0.3819
  232MPD1    C4 3575   0.376   0.986  17.501  0.3721 -0.1019 -0.1908
  232MPD1    C5 3576   0.519   0.989  17.507 -0.5509  0.4450  0.1508
  232MPD1     H 3577   0.342   0.670  17.397 -2.0139  1.5256 -1.1968
  232MPD1    H1 3578   0.326   1.080  17.521  0.7141  0.3264 -1.2978
  232MPD1    H2 3579   0.701   0.901  17.455 -0.4484  1.0116  0.1973
  232MPD1    H3 3580   0.566   1.081  17.539 -0.0632  0.9490 -2.0177
  232MPD1     N 3581   0.170   0.858  17.457 -0.1551  0.2540 -0.0604
  232MPD1    H5 3582   0.139   0.764  17.434 -0.7059  0.9139 -1.9877
  232MPD1    N1 3583   0.602   0.656  17.394 -0.1597  0.2400  0.3215
  232MPD1    H6 3584   0.547   0.571  17.407 -0.0173 -0.2393 -2.1355
  232MPD1    H7 3585   0.683   0.650  17.456 -0.2893  0.9688  0.5541
  233MPD1     C 3586   0.855   3.197   1.308 -0.5747 -0.6610  0.0166
  233MPD1    C1 3587   0.788   3.079   1.349 -0.7378 -0.0405 -0.4802
  233MPD1    C2 3588   0.848   2.956   1.314  0.3190  0.0583  0.3030
  233MPD1    C3 3589   0.977   2.949   1.261  0.7184  0.0284 -0.1502
  233MPD1    C4 3590   1.044   3.065   1.234 -0.1643 -0.3772 -0.5146
  233MPD1    C5 3591   0.985   3.191   1.259  0.3817 -0.3454 -0.9191
  233MPD1     H 3592   0.785   2.869   1.334 -1.2577  0.8349 -1.2826
  233MPD1    H1 3593   1.150   3.064   1.211 -0.1515 -1.0321 -0.4125
  233MPD1    H2 3594   0.814   3.296   1.326  0.4349  0.1861 -2.3589
  233MPD1    H3 3595   1.034   3.287   1.246  0.2306 -0.1258  0.1665
  233MPD1     N 3596   1.045   2.832   1.221  0.1892  0.2792  0.3848
  233MPD1    H5 3597   1.123   2.838   1.156 -1.0989  1.2885 -1.0453
  233MPD1    N1 3598   0.658   3.087   1.400 -1.1861 -0.0094 -0.4103
  233MPD1    H6 3599   0.632   3.177   1.441 -0.4158  0.9448 -2.0470
  233MPD1    H7 3600   0.642   3.016   1.472 -0.9497 -2.0439 -2.3664
  234MPD1     C 3601   3.312   2.754   9.978 -0.4155  0.1384 -0.1815
  234MPD1    C1 3602   3.187   2.754   9.926 -1.0993  0.0763 -0.6679
  234MPD1    C2 3603   3.102   2.852   9.955 -0.5046  0.5929  0.8812
  234MPD1    C3 3604   3.145   2.968  10.022 -0.7809 -0.2411  0.3424
  234MPD1    C4 3605   3.275   2.974  10.070 -0.3019 -0.0914 -0.1802
  234MPD1    C5 3606   3.361   2.866  10.041  0.6279 -0.1151 -0.8243
  234MPD1     H 3607   2.998   2.848   9.925 -0.2428 -2.9730  0.3968
  234MPD1    H1 3608   3.320   3.061  10.116 -1.4474 -0.1605  1.0881
  234MPD1    H2 3609   3.379   2.670   9.962  0.2870  0.7784 -0.5738
  234MPD1    H3 3610   3.465   2.868  10.071 -0.2023 -0.6984  2.0837
  234MPD1     N 3611   3.041   3.060  10.051 -0.1431  0.5094 -0.5459
  234MPD1    H5 3612   2.956   3.038  10.001 -2.0123  2.9174  1.5983
  234MPD1    N1 3613   3.132   2.642   9.867 -0.4117 -0.2347  0.0638
  234MPD1    H6 3614   3.203   2.575   9.838 -1.6184 -1.0723 -0.9507
  234MPD1    H7 3615   3.078   2.664   9.784  0.8592  0.8335 -0.4738
  235MPD1     C 3616   4.655   0.629  10.755 -0.0812 -0.2585 -0.3164
  235MPD1    C1 3617   4.625   0.752  10.697  0.2382  0.6314 -0.2118
  235MPD1    C2 3618   4.723   0.849  10.709  0.4690  0.0059  0.2776
  235MPD1    C3 3619   0.101   0.832  10.789  0.2551 -0.1843 -0.0015
  235MPD1    C4 3620   0.125   0.704  10.837  0.3786  0.0946 -0.4826
  235MPD1    C5 3621   0.042   0.604  10.817 -0.7724  0.3949  0.7855
  235MPD1     H 3622   4.713   0.941  10.652 -0.7788 -0.3187 -0.0292
  235MPD1    H1 3623   0.220   0.676  10.880  0.5016 -1.4107 -1.7245
  235MPD1    H2 3624   4.582   0.549  10.750 -0.7757  0.4396 -1.2584
  235MPD1    H3 3625   0.054   0.502  10.854 -0.8731  0.4054  0.8476
  235MPD1     N 3626   0.195   0.937  10.802  0.0699 -0.5285 -0.2745
  235MPD1    H5 3627   0.183   1.016  10.740 -1.7018  1.1983  2.2953
  235MPD1    N1 3628   4.495   0.775  10.661 -0.0842  0.1750  0.5095
  235MPD1    H6 3629   4.484   0.853  10.596  0.8159 -0.2950 -0.2044
  235MPD1    H7 3630   4.447   0.697  10.617  0.9102  0.5615 -1.2675
  236MPD1     C 3631   4.594   1.603   9.585 -0.4042 -0.5287 -0.2810
  236MPD1    C1 3632   4.516   1.713   9.604  0.9478 -0.0431 -0.7499
  236MPD1    C2 3633   4.489   1.756   9.734 -0.2331 -0.0576  0.2651
  236MPD1    C3 3634   4.534   1.674   9.836 -0.1855 -0.1095  0.3803
  236MPD1    C4 3635   4.599   1.551   9.807  0.4888  0.5296  0.2432
  236MPD1    C5 3636   4.634   1.511   9.679  0.0578  0.5483 -0.4681
  236MPD1     H 3637   4.440   1.851   9.750  0.2298  0.2864 -0.3519
  236MPD1    H1 3638   4.618   1.478   9.885 -0.0071 -2.6961 -2.6492
  236MPD1    H2 3639   4.625   1.569   9.487  0.4063  0.9856 -0.5438
  236MPD1    H3 3640   4.692   1.424   9.652  0.2285  0.9743 -1.4777
  236MPD1     N 3641   4.508   1.701   9.977 -0.4255  0.6599 -0.7721
  236MPD1    H5 3642   4.548   1.635  10.043 -0.5209 -0.6553 -2.0466
  236MPD1    N1 3643   4.477   1.793   9.493 -0.0849 -0.0165  0.1633
  236MPD1    H6 3644   4.465   1.735   9.410 -0.9839  0.3680  0.0233
  236MPD1    H7 3645   4.401   1.856   9.515 -0.0345  0.3952 -0.8863
  237MPD1     C 3646   4.279   4.525  14.794 -0.1090 -0.2204  0.1955
  237MPD1    C1 3647   4.296   4.435  14.903  0.2564  0.3645  0.7385
  237MPD1    C2 3648   4.178   4.391  14.969 -0.0613 -0.0547 -0.5094
  237MPD1    C3 3649   4.048   4.420  14.915  0.6528 -0.3672  0.4269
  237MPD1    C4 3650   4.039   4.494  14.795 -0.2615  0.5307 -0.0570
  237MPD1    C5 3651   4.157   4.547  14.741 -0.1178  0.1152  0.1415
  237MPD1     H 3652   4.193   4.341  15.064  1.7035  0.4368 -0.5247
  237MPD1    H1 3653   3.944   4.533  14.762 -1.7551 -1.6009  1.6451
  237MPD1    H2 3654   4.356   4.577  14.739 -0.3195 -0.4390 -0.2997
  237MPD1    H3 3655   4.158   4.612  14.654 -2.0394 -0.1768 -0.0976
  237MPD1     N 3656   3.927   4.390  14.981  0.1726  0.3513  0.2935
  237MPD1    H5 3657   3.845   4.415  14.925  0.3980 -0.0409 -0.2072
  237MPD1    N1 3658   4.422   4.419  14.957  0.1380 -0.8386 -0.3231
  237MPD1    H6 3659   4.433   4.335  15.013 -1.2390 -0.2045  0.8725
  237MPD1    H7 3660   4.498   4.416  14.889 -0.4967 -0.9181 -1.0289
  238MPD1     C 3661   0.170   3.821  14.788 -0.0195 -0.7260 -0.3375
  238MPD1    C1 3662   0.176   3.725  14.883  0.0471  0.5458 -0.5681
  238MPD1    C2 3663   0.245   3.601  14.854 -0.7184 -0.3883 -0.2684
  238MPD1    C3 3664   0.290   3.574  14.727  0.0141 -0.1839 -0.3038
  238MPD1    C4 3665   0.276   3.671  14.628  0.2668  0.2304  0.3836
  238MPD1    C5 3666   0.216   3.793  14.661 -0.2472 -0.4211 -0.5256
  238MPD1     H 3667   0.230   3.519  14.924 -1.2846  1.3506  1.6594
  238MPD1    H1 3668   0.305   3.660  14.524 -1.1073  1.0597 -0.0879
  238MPD1    H2 3669   0.110   3.911  14.795 -1.2293 -1.5787  0.2193
  238MPD1    H3 3670   0.198   3.865  14.582  0.5763  0.0776 -0.2605
  238MPD1     N 3671   0.354   3.449  14.687 -0.1146  0.2914  0.6636
  238MPD1    H5 3672   0.361   3.440  14.586  0.9196  0.9744  0.6782
  238MPD1    N1 3673   0.087   3.727  14.990  0.0883  0.4197 -0.1115
  238MPD1    H6 3674   0.123   3.672  15.068  2.0664 -0.7861 -1.9031
  238MPD1    H7 3675   0.069   3.819  15.029 -1.7791  0.0964 -0.1926
  239MPD1     C 3676   0.628   3.702  14.802 -0.0698  0.0263 -0.1427
  239MPD1    C1 3677   0.753   3.704  14.741  0.0390  0.8951 -1.4086
  239MPD1    C2 3678   0.775   3.789  14.634 -0.0881 -0.3558  1.1051
  239MPD1    C3 3679   0.689   3.894  14.612 -0.6026 -0.1971  0.1685
  239MPD1    C4 3680   0.583   3.917  14.700  0.6235 -0.4661  0.2360
  239MPD1    C5 3681   0.551   3.814  14.786  0.2016 -0.2427  0.0546
  239MPD1     H 3682   0.867   3.778  14.577 -1.0803  0.4121 -0.6272
  239MPD1    H1 3683   0.508   3.995  14.687  0.5186 -0.4688  0.8533
  239MPD1    H2 3684   0.605   3.625  14.876 -1.0836  0.1921 -0.2965
  239MPD1    H3 3685   0.460   3.820  14.843  0.3083 -1.3025  0.3345
  239MPD1     N 3686   0.701   3.987  14.510 -0.3269  0.1673  0.1759
  239MPD1    H5 3687   0.641   4.068  14.523 -2.0644 -1.1081  0.0522
  239MPD1    N1 3688   0.844   3.603  14.772 -0.3414  0.2762 -0.2729
  239MPD1    H6 3689   0.938   3.639  14.785 -0.8763  0.8756  1.8869
  239MPD1    H7 3690   0.819   3.556  14.858  2.6994  0.3337  0.6179
  240MPD1     C 3691   4.670   4.200  13.486 -0.4397 -0.3326  0.3515
  240MPD1    C1 3692   4.591   4.099  13.533 -0.4678 -0.3355 -0.1062
  240MPD1    C2 3693   4.652   3.989  13.595 -0.6438 -0.4116  0.2935
  240MPD1    C3 3694   0.053   3.989  13.618 -0.0245  0.1282 -0.1462
  240MPD1    C4 3695   0.128   4.098  13.584  0.1278  0.5749  0.1691
  240MPD1    C5 3696   0.066   4.200  13.519  0.7278 -0.2812  0.5685
  240MPD1     H 3697   4.596   3.904  13.631 -1.5404  0.8479  1.8973
  240MPD1    H1 3698   0.235   4.102  13.601  0.1547  0.6608 -0.0307
  240MPD1    H2 3699   4.632   4.284  13.429  1.9560  0.8897  0.5986
  240MPD1    H3 3700   0.132   4.282  13.493  2.5121 -1.2423  2.0664
  240MPD1     N 3701   0.102   3.879  13.684  0.1991 -0.0945  0.4024
  240MPD1    H5 3702   0.027   3.821  13.720  0.0414 -0.1981 -0.0961
  240MPD1    N1 3703   4.453   4.104  13.501 -0.0680  0.6528 -0.1756
  240MPD1    H6 3704   4.424   4.198  13.473 -0.2814  0.9786  1.1445
  240MPD1    H7 3705   4.395   4.075  13.579  0.0431  1.0614  0.0611
  241MPD1     C 3706   1.006   3.533  14.004 -0.5642 -0.3451  0.9179
  241MPD1    C1 3707   0.924   3.502  14.109 -0.2213 -0.2340  0.0821
  241MPD1    C2 3708   0.785   3.516  14.088  0.4370 -0.2221  1.0572
  241MPD1    C3 3709   0.739   3.592  13.984 -0.6263  0.2629 -0.2206
  241MPD1    C4 3710   0.837   3.623  13.891  0.2100  0.2382  0.0385
  241MPD1    C5 3711   0.969   3.595  13.895 -0.5699  0.9025 -1.1599
  241MPD1     H 3712   0.722   3.492  14.173 -0.1658 -0.4474  0.5375
  241MPD1    H1 3713   0.817   3.676  13.799 -0.3354  0.4094  0.2617
  241MPD1    H2 3714   1.104   3.488  14.015 -0.4603 -0.6450 -1.3308
  241MPD1    H3 3715   1.035   3.625  13.814  0.7015  0.9529 -0.1012
  241MPD1     N 3716   0.608   3.632  13.956  0.2687  0.5937  0.8757
  241MPD1    H5 3717   0.595   3.672  13.863  2.5283 -0.6509  0.0327
  241MPD1    N1 3718   0.968   3.414  14.211  0.3505 -0.0320 -0.2588
  241MPD1    H6 3719   0.931   3.425  14.305 -1.8336  1.6246 -1.3172
  241MPD1    H7 3720   1.069   3.416  14.225  0.5581  1.0771 -1.8253
  242MPD1     C 3721   4.242   1.659  15.704  0.1361  0.3916  0.7328
  242MPD1    C1 3722   4.380   1.631  15.725  0.3045  0.1390 -0.2967
  242MPD1    C2 3723   4.482   1.711  15.665  0.2715  0.1373  0.5924
  242MPD1    C3 3724   4.444   1.823  15.589 -0.4704  0.4573 -0.8259
  242MPD1    C4 3725   4.308   1.852  15.577 -0.2090  0.2936  0.0763
  242MPD1    C5 3726   4.208   1.771  15.631  0.3277  0.2406  0.3801
  242MPD1     H 3727   4.583   1.673  15.677 -0.0337 -0.2317  1.9509
  242MPD1    H1 3728   4.280   1.945  15.529  0.3637  0.5538  0.2390
  242MPD1    H2 3729   4.160   1.608  15.754 -0.8806  2.7830  1.5109
  242MPD1    H3 3730   4.108   1.800  15.603  0.3141  1.4088  1.6530
  242MPD1     N 3731   4.536   1.916  15.531  0.1943 -0.0094 -0.2252
  242MPD1    H5 3732   4.502   1.995  15.476 -0.3455  0.3666  0.6463
  242MPD1    N1 3733   4.412   1.519  15.808 -0.1755  0.2378 -0.4276
  242MPD1    H6 3734   4.495   1.469  15.776  0.2095 -1.1791  2.7833
  242MPD1    H7 3735   4.333   1.461  15.834 -0.9602  1.7086  0.5068
  243MPD1     C 3736   0.803   0.842  17.703  0.5703  1.0393  0.1891
  243MPD1    C1 3737   0.915   0.885  17.650 -0.1948  0.8209 -0.6611
  243MPD1    C2 3738   0.998   0.799  17.578 -0.7268  0.5841  0.7452
  243MPD1    C3 3739   0.971   0.663  17.566 -0.4438  0.2841 -0.0780
  243MPD1    C4 3740   0.849   0.619  17.610  0.1914  0.2874  0.4917
  243MPD1    C5 3741   0.767   0.708  17.674  0.0432  0.7412  0.3558
  243MPD1     H 3742   1.083   0.846  17.529 -1.5203  1.1890 -0.0455
  243MPD1    H1 3743   0.825   0.513  17.607 -0.6477  0.6435 -4.9140
  243MPD1    H2 3744   0.742   0.915   0.016 -1.2318 -0.7714  0.6222
  243MPD1    H3 3745   0.665   0.681  17.698 -0.0553 -0.8623 -1.8344
  243MPD1     N 3746   1.062   0.575  17.509  0.3227  0.6099  0.0639
  243MPD1    H5 3747   1.154   0.613  17.492  0.4346  1.0864  1.7571
  243MPD1    N1 3748   0.940   1.025  17.641 -0.6718  0.0930  0.0197
  243MPD1    H6 3749   1.040   1.042  17.651 -0.4580 -0.9143 -0.4270
  243MPD1    H7 3750   0.904   1.079  17.720 -1.3024 -0.0928 -0.1373
  244MPD1     C 3751   1.431   4.561   0.214 -0.3424 -0.3618  0.1561
  244MPD1    C1 3752   1.392   4.697   0.226 -0.1319 -0.1739 -0.0511
  244MPD1    C2 3753   1.339   0.029   0.118 -0.0472  0.3778 -0.0491
  244MPD1    C3 3754   1.343   4.700  17.730  0.2117 -0.8354 -0.2286
  244MPD1    C4 3755   1.392   4.569  17.714 -0.6217  0.7204 -0.1989
  244MPD1    C5 3756   1.427   4.501   0.092  0.6973  0.0204 -0.7299
  244MPD1     H 3757   1.326   0.137   0.124  1.0581  0.5236 -0.3475
  244MPD1    H1 3758   1.387   4.508  17.624  0.2414  1.5110 -0.7739
  244MPD1    H2 3759   1.462   4.505   0.302 -1.3170  0.7586  1.2141
  244MPD1    H3 3760   1.452   4.396   0.089 -0.7272 -0.3050 -1.3278
  244MPD1     N 3761   1.298   0.055  17.635 -0.2332  0.1366  0.2394
  244MPD1    H5 3762   1.270   0.147  17.668  1.4920 -0.3164  2.9130
  244MPD1    N1 3763   1.408   0.032   0.347  0.6674  0.4929 -0.3649
  244MPD1    H6 3764   1.453   0.121   0.329  2.3589  0.0616  1.8399
  244MPD1    H7 3765   1.468   4.714   0.410  0.0632  0.1914 -0.0425
  245MPD1     C 3766   3.405   1.012  12.755  0.7557 -0.3263  0.4008
  245MPD1    C1 3767   3.413   1.136  12.692 -0.7249  0.1216  0.0827
  245MPD1    C2 3768   3.452   1.243  12.773 -0.1271 -0.2605 -0.0889
  245MPD1    C3 3769   3.496   1.229  12.906  0.2916 -0.2898 -1.1859
  245MPD1    C4 3770   3.502   1.105  12.963  0.4798  0.5211 -0.1891
  245MPD1    C5 3771   3.450   1.004  12.885  0.3360 -0.1954  0.6789
  245MPD1     H 3772   3.444   1.342  12.730 -2.5036  0.0735  1.1183
  245MPD1    H1 3773   3.537   1.093  13.065  2.3465 -0.6109 -0.9547
  245MPD1    H2 3774   3.357   0.927  12.708  3.5495 -0.4095 -2.2629
  245MPD1    H3 3775   3.433   0.906  12.929 -0.4284  0.1930  1.2556
  245MPD1     N 3776   3.532   1.340  12.984  0.4163  0.4216 -0.4120
  245MPD1    H5 3777   3.587   1.314  13.065  1.0916  0.5951 -0.8156
  245MPD1    N1 3778   3.340   1.154  12.574 -0.1686 -0.0321  0.1200
  245MPD1    H6 3779   3.383   1.231  12.523 -0.0476 -0.5311 -0.5169
  245MPD1    H7 3780   3.350   1.078  12.508 -2.4816  0.3705 -0.6913
  246MPD1     C 3781   2.543   1.710  10.328 -0.1287 -0.2169  0.1415
  246MPD1    C1 3782   2.661   1.715  10.248 -0.1123 -0.0082 -0.7346
  246MPD1    C2 3783   2.671   1.817  10.155  1.1553 -0.1954  0.1351
  246MPD1    C3 3784   2.578   1.918  10.148 -0.3704  0.0867 -0.1089
  246MPD1    C4 3785   2.469   1.918  10.229  0.4963 -0.3876 -0.2686
  246MPD1    C5 3786   2.446   1.811  10.312 -0.0713  1.2244 -0.3016
  246MPD1     H 3787   2.754   1.823  10.085  0.7712  1.8970 -0.1190
  246MPD1    H1 3788   2.385   1.987  10.226 -0.1009 -1.0825  0.5650
  246MPD1    H2 3789   2.533   1.636  10.407 -1.1948  1.6680  1.7748
  246MPD1    H3 3790   2.354   1.803  10.370  0.1128 -0.0567 -0.2011
  246MPD1     N 3791   2.600   2.019  10.057  0.2607  0.3353 -0.2511
  246MPD1    H5 3792   2.681   2.004   9.997  0.1738  2.0697 -0.7938
  246MPD1    N1 3793   2.773   1.636  10.278  0.1782  0.2496  0.2930
  246MPD1    H6 3794   2.754   1.549  10.327 -0.0425 -0.0551 -0.3230
  246MPD1    H7 3795   2.825   1.607  10.195  0.1058 -1.3475  0.8020
  247MPD1     C 3796   2.083   0.744  15.984 -0.5325 -0.4621  0.2023
  247MPD1    C1 3797   2.215   0.707  15.958  0.1841  0.3456 -0.2887
  247MPD1    C2 3798   2.306   0.785  15.886 -0.7269 -0.4695  0.1978
  247MPD1    C3 3799   2.265   0.913  15.851  0.2629 -0.5069 -0.6207
  247MPD1    C4 3800   2.143   0.960  15.898 -0.0892 -0.5984  0.4535
  247MPD1    C5 3801   2.053   0.872  15.960  0.5658  0.0093  0.3470
  247MPD1     H 3802   2.402   0.743  15.858 -1.2855 -0.8435 -1.1620
  247MPD1    H1 3803   2.109   1.063  15.892 -0.3968 -0.7110  0.2108
  247MPD1    H2 3804   2.007   0.687  16.036 -0.2067 -0.9535  0.1398
  247MPD1    H3 3805   1.961   0.916  15.997 -0.0004 -0.0859 -0.9667
  247MPD1     N 3806   2.359   1.012  15.801  0.7308 -0.2296  0.2502
  247MPD1    H5 3807   2.333   1.108  15.822  0.7977 -0.2070  0.2306
  247MPD1    N1 3808   2.245   0.572  15.966  0.1334 -0.6081 -0.0963
  247MPD1    H6 3809   2.224   0.530  15.875  0.6333  0.7224 -0.8309
  247MPD1    H7 3810   2.346   0.569  15.981  0.1509 -0.4216 -0.1787
  248MPD1     C 3811   2.374   1.221  17.457 -0.6321 -0.2249 -0.2017
  248MPD1    C1 3812   2.388   1.233  17.597 -0.0193 -0.2475 -0.2540
  248MPD1    C2 3813   2.464   1.149  17.667 -0.0530 -0.2739 -0.0549
  248MPD1    C3 3814   2.501   1.031  17.614 -0.1736 -0.5386  0.7635
  248MPD1    C4 3815   2.476   1.006  17.480  0.2612 -0.4050  0.1859
  248MPD1    C5 3816   2.413   1.104  17.405  0.1753  0.2188 -0.5527
  248MPD1     H 3817   2.478   1.168   0.035 -1.1152  3.6852 -0.6522
  248MPD1    H1 3818   2.507   0.914  17.432  0.0754 -0.1939 -0.3377
  248MPD1    H2 3819   2.313   1.283  17.392  0.7275  1.1298 -0.1829
  248MPD1    H3 3820   2.389   1.072  17.305  0.6996  2.1903 -1.2930
  248MPD1     N 3821   2.575   0.943  17.702  0.3739 -0.4136 -0.0629
  248MPD1    H5 3822   2.576   0.976   0.061 -1.1001  0.1910 -0.2392
  248MPD1    N1 3823   2.351   1.355  17.663  0.5454  0.2656  0.0286
  248MPD1    H6 3824   2.260   1.386  17.630  1.0200  1.9283  0.2820
  248MPD1    H7 3825   2.343   1.348   0.027  2.7725 -2.0068  0.0669
  249MPD1     C 3826   0.128   0.881  10.066 -0.4402 -0.2748  0.5043
  249MPD1    C1 3827   0.190   0.987   9.998 -0.4655  0.2946  0.5041
  249MPD1    C2 3828   0.333   0.988   9.984  0.2842  0.2781 -0.1571
  249MPD1    C3 3829   0.411   0.891  10.048  0.4443 -0.5719 -0.1477
  249MPD1    C4 3830   0.342   0.803  10.127  0.1061  0.8012  1.2084
  249MPD1    C5 3831   0.209   0.803  10.143  0.0326 -0.1871 -0.3857
  249MPD1     H 3832   0.372   1.051   9.905  1.3584 -2.0817 -1.5406
  249MPD1    H1 3833   0.387   0.747  10.209 -0.8392 -1.1475  0.4181
  249MPD1    H2 3834   0.021   0.887  10.080 -0.5614 -3.6891  0.8962
  249MPD1    H3 3835   0.168   0.736  10.217  0.1199 -0.2839 -0.4258
  249MPD1     N 3836   0.553   0.898  10.036  0.5722 -0.0418  0.0551
  249MPD1    H5 3837   0.587   0.972   9.976 -1.3854  1.1039  0.3437
  249MPD1    N1 3838   0.111   1.059   9.912 -0.2640 -0.1190 -0.2185
  249MPD1    H6 3839   0.155   1.147   9.886 -0.3997 -0.3650 -1.2962
  249MPD1    H7 3840   0.024   1.091   9.953  1.6357 -0.7372  4.3121
  250MPD2     C 3841   2.495   4.116  13.026  0.1433 -0.0285 -0.3181
  250MPD2    C1 3842   2.387   4.208  13.027 -0.1198 -0.0364 -1.0607
  250MPD2    C2 3843   2.267   4.165  12.977 -0.1132 -0.4824 -0.1616
  250MPD2    C3 3844   2.248   4.029  12.939 -0.5131  0.3204  0.3914
  250MPD2    C4 3845   2.355   3.941  12.945  0.0235 -0.5394 -0.6076
  250MPD2    C5 3846   2.474   3.987  12.982  0.4793 -0.1239  0.0228
  250MPD2     H 3847   2.181   4.231  12.983  1.3978  1.1095  3.9204
  250MPD2    H1 3848   2.346   3.834  12.928 -0.7083 -0.7538  1.1325
  250MPD2    H2 3849   2.585   4.149  13.074  0.6857 -1.7751 -0.1155
  250MPD2    H3 3850   2.551   3.911  12.983  0.5962 -0.0103 -0.3960
  250MPD2     N 3851   2.117   3.976  12.906  0.6306  0.2869 -0.4472
  250MPD2    H5 3852   2.111   3.885  12.859  1.6108 -0.5712  1.0969
  250MPD2    N1 3853   2.422   4.339  13.064 -0.0859  0.0362 -0.6719
  250MPD2    H7 3854   2.519   4.365  13.079 -0.6815  1.3946  0.7676
  251TMC3    C1 3855   2.390   4.573  13.117 -0.5237  0.2970 -0.1036
  251TMC3    C2 3856   2.304   4.671  13.094  0.9626 -0.5015 -0.0712
  251TMC3    C3 3857   2.349   0.059  13.116  0.6813 -0.5404 -0.3194
  251TMC3    C4 3858   2.523   4.600  13.138  0.3048 -0.4138 -0.9940
  251TMC3    C5 3859   2.563   4.730  13.165 -0.3605  0.0549 -0.1776
  251TMC3    C6 3860   2.478   0.095  13.139  0.2817 -0.2813 -0.0473
  251TMC3     C 3861   2.328   4.439  13.093 -0.3472 -0.1896 -0.2073
  251TMC3     O 3862   2.206   4.435  13.083 -0.2930 -0.4446  0.0174
  251TMC3     H 3863   2.199   4.656  13.070  0.5944 -2.2272  2.7044
  251TMC3    H1 3864   2.598   4.524  13.155 -2.0203 -2.5644 -0.3725
  251TMC3    H2 3865   2.497   0.195  13.176 -1.0758  0.3669 -1.1023
  251TMC3    C7 3866   2.702   0.014  13.211  0.4964 -0.3314  0.1937
  251TMC3    C8 3867   2.248   0.139  13.179 -0.5677 -0.9036  0.3324
  251TMC3    O1 3868   2.758   4.647  13.257 -0.7669  0.7396 -0.1905
  251TMC3    O2 3869   2.168   0.072  13.243  0.1358 -0.0454  0.4360
  252TMC3    C1 3870   1.890   2.218   9.172 -0.0323 -0.9135 -0.4899
  252TMC3    C2 3871   1.980   2.255   9.270 -0.6572  0.9561 -0.6533
  252TMC3    C3 3872   2.044   2.157   9.342 -0.3711 -0.9180 -0.1283
  252TMC3    C4 3873   1.857   2.087   9.147  0.1070 -0.5913 -0.3852
  252TMC3    C5 3874   1.906   1.989   9.229 -0.1444 -0.4105 -0.5842
  252TMC3    C6 3875   2.008   2.019   9.319 -0.8434 -0.2783  0.0018
  252TMC3     C 3876   1.834   2.331   9.091 -0.0860 -0.2832 -0.6673
  252TMC3     O 3877   1.910   2.427   9.073 -0.1350  0.2040  0.3072
  252TMC3     H 3878   2.011   2.358   9.278 -1.2238  1.0023  0.9070
  252TMC3    H1 3879   1.789   2.064   9.066  0.9195  0.4559 -1.3536
  252TMC3    H2 3880   2.056   1.937   9.372 -0.3083  0.5047  0.7350
  252TMC3    C7 3881   1.860   1.854   9.210  0.3512 -0.2344 -0.3881
  252TMC3    C8 3882   2.180   2.179   9.369 -0.5951 -0.6230 -0.0140
  252TMC3    O1 3883   1.764   1.825   9.139 -0.3660  0.5286 -0.0032
  252TMC3    O2 3884   2.241   2.250   9.292 -0.2257  0.0921 -0.4066
  253MPD2     C 3885   3.569   4.636  15.579 -0.2352 -0.6335 -0.1056
  253MPD2    C1 3886   3.436   4.656  15.573  0.1562  0.1024  0.1676
  253MPD2    C2 3887   3.355   4.670  15.683 -0.5882 -0.0274  0.4980
  253MPD2    C3 3888   3.414   4.681  15.809  0.1420 -0.1574  0.2488
  253MPD2    C4 3889   3.549   4.663  15.820  1.0037  0.4086 -0.4209
  253MPD2    C5 3890   3.626   4.646  15.706  0.5344  0.2287  0.6054
  253MPD2     H 3891   3.248   4.683  15.682 -0.5329  0.6182  1.7656
  253MPD2    H1 3892   3.596   4.647  15.917  1.1949  2.4153 -0.1942
  253MPD2    H2 3893   3.631   4.640  15.490  0.3458  0.8040  0.3749
  253MPD2    H3 3894   3.733   4.628  15.706  0.6893  1.0703 -2.2912
  253MPD2     N 3895   3.342   4.701  15.930 -0.0895  0.0822 -0.0366
  253MPD2    H5 3896   3.397   4.700  16.016  0.8954 -0.1500 -0.6648
  253MPD2    N1 3897   3.372   4.669  15.443  0.4000 -0.2139 -0.4422
  253MPD2    H7 3898   3.275   4.698  15.449  1.1533  2.1126  0.6245
  254TMC3    C1 3899   3.155   4.731  16.068 -0.1515  0.4393 -0.6135
  254TMC3    C2 3900   3.040   0.068  16.078 -0.3318  0.1807 -0.0541
  254TMC3    C3 3901   2.955   0.030  16.175 -0.0787  0.1760  0.0081
  254TMC3    C4 3902   3.180   4.620  16.143  0.0516 -0.7152 -0.4104
  254TMC3    C5 3903   3.090   4.588  16.237 -0.3108  0.4283 -1.2145
  254TMC3    C6 3904   2.970   4.651  16.245 -0.8564 -0.1349  0.0787
  254TMC3     C 3905   3.206   4.729  15.933 -0.5046 -0.2016  0.0096
  254TMC3     O 3906   3.131   0.038  15.847  0.0451  0.0839  0.0313
  254TMC3     H 3907   3.011   0.147  16.010  0.2958 -0.6760 -1.3337
  254TMC3    H1 3908   3.273   4.567  16.123 -0.1780 -1.2378 -0.0996
  254TMC3    H2 3909   2.893   4.627  16.317 -1.3314  1.0810 -0.0188
  254TMC3    C7 3910   3.079   4.451  16.274 -0.1504  0.7207 -0.2645
  254TMC3    C8 3911   2.813   0.041  16.141 -0.6520  0.2107 -0.1702
  254TMC3    O1 3912   3.139   4.420  16.375  0.2814 -0.0660  0.1822
  254TMC3    O2 3913   2.745   0.143  16.155 -0.5212 -0.2633 -0.3626
  255MPD2     C 3914   1.037   2.251  10.809 -0.2586 -0.2900 -0.1053
  255MPD2    C1 3915   1.098   2.369  10.767  0.5267  0.7864  0.3682
  255MPD2    C2 3916   1.221   2.360  10.700 -0.2354  0.7307  0.4347
  255MPD2    C3 3917   1.272   2.240  10.654  0.5447 -0.5360 -0.4947
  255MPD2    C4 3918   1.202   2.127  10.691  0.1916  0.5360  0.3641
  255MPD2    C5 3919   1.090   2.129  10.768 -0.2907 -0.4104 -0.0494
  255MPD2     H 3920   1.271   2.453  10.674  2.3590 -0.5430  0.7960
  255MPD2    H1 3921   1.221   2.029  10.651 -0.7841  0.1173  0.9319
  255MPD2    H2 3922   0.950   2.258  10.874 -1.3431  3.3456 -1.9628
  255MPD2    H3 3923   1.037   2.037  10.788  0.5514 -0.8391  0.2192
  255MPD2     N 3924   1.391   2.227  10.571 -0.1140  0.8634 -0.1928
  255MPD2    H5 3925   1.455   2.306  10.576  0.4470  0.3822  0.2177
  255MPD2    N1 3926   1.043   2.493  10.821  0.0195  0.1320 -0.5437
  255MPD2    H7 3927   0.964   2.480  10.883 -0.5092  0.2007 -1.2149
  256TMC3    C1 3928   0.992   2.716  10.835 -0.5061 -0.2264 -0.6178
  256TMC3    C2 3929   0.979   2.818  10.739  0.4180  0.0640  0.0116
  256TMC3    C3 3930   0.859   2.879  10.718  0.0932 -0.2229 -0.0772
  256TMC3    C4 3931   0.871   2.675  10.894  0.1562  0.6487  0.2258
  256TMC3    C5 3932   0.750   2.733  10.865 -0.4144 -0.7170  0.3140
  256TMC3    C6 3933   0.746   2.844  10.782  0.4808  0.1622 -1.0179
  256TMC3     C 3934   1.077   2.614  10.773  0.3198  0.8005 -0.3160
  256TMC3     O 3935   1.158   2.646  10.687 -0.6067  0.1502  0.3027
  256TMC3     H 3936   1.066   2.838  10.677  0.4883 -0.7665 -0.1642
  256TMC3    H1 3937   0.869   2.588  10.958 -1.9288  0.6591  0.1905
  256TMC3    H2 3938   0.657   2.907  10.780  0.6683  0.4168 -1.3727
  256TMC3    C7 3939   0.650   2.633  10.852 -0.1678  0.3924 -0.1543
  256TMC3    C8 3940   0.826   2.941  10.592  0.5188  0.2471  0.2839
  256TMC3    O1 3941   0.621   2.553  10.939 -0.1308 -0.0703  0.0608
  256TMC3    O2 3942   0.722   2.915  10.539 -0.8268  0.7406  0.0749
  257MPD2     C 3943   0.947   0.342  13.109  0.0161 -0.2915 -0.0867
  257MPD2    C1 3944   0.857   0.291  13.016  0.8787  0.2120  0.4910
  257MPD2    C2 3945   0.809   0.161  13.034  0.0511 -0.0611 -0.2815
  257MPD2    C3 3946   0.832   0.096  13.149  0.5003  0.4830 -0.6366
  257MPD2    C4 3947   0.903   0.162  13.245  0.3334 -0.2902  0.6321
  257MPD2    C5 3948   0.960   0.285  13.232 -0.2028  0.5362  0.2447
  257MPD2     H 3949   0.749   0.109  12.961 -0.4632 -2.6577  1.9989
  257MPD2    H1 3950   0.916   0.122  13.345 -0.1059  0.8616  1.1594
  257MPD2    H2 3951   0.979   0.445  13.100 -0.3603 -0.0909  0.8756
  257MPD2    H3 3952   1.024   0.332  13.307 -0.9385  2.0485 -0.0848
  257MPD2     N 3953   0.765   4.706  13.172 -0.2158 -0.1068  0.2026
  257MPD2    H5 3954   0.714   4.669  13.091 -0.1617 -1.7860  0.9303
  257MPD2    N1 3955   0.821   0.377  12.907 -0.1072  0.1612  1.1654
  257MPD2    H7 3956   0.878   0.461  12.898 -0.0416 -0.0671 -0.5717
  258TMC3    C1 3957   0.703   4.499  13.255  0.2931  0.3524 -0.0501
  258TMC3    C2 3958   0.628   4.477  13.146  0.2158  0.2927 -0.7612
  258TMC3    C3 3959   0.605   4.346  13.109 -0.7422  0.1516 -0.1477
  258TMC3    C4 3960   0.743   4.398  13.337  0.7576  0.4774 -0.4610
  258TMC3    C5 3961   0.726   4.261  13.305  0.7390  0.2746 -0.0259
  258TMC3    C6 3962   0.661   4.242  13.182  0.2432  0.4183 -0.6653
  258TMC3     C 3963   0.758   4.632  13.286  0.5763 -0.4947  0.3079
  258TMC3     O 3964   0.805   4.658  13.397 -0.4924  0.2197 -0.2524
  258TMC3     H 3965   0.575   4.556  13.094  0.4235  0.7195 -0.3264
  258TMC3    H1 3966   0.788   4.433  13.429 -3.5641  0.0170  1.8360
  258TMC3    H2 3967   0.670   4.145  13.134 -2.0674  0.3508 -0.9618
  258TMC3    C7 3968   0.792   4.146  13.363 -0.0848  0.2338  0.2711
  258TMC3    C8 3969   0.517   4.315  13.000 -0.5081  0.7851 -0.6074
  258TMC3    O1 3970   0.777   4.040  13.304  1.0047 -0.7869  0.6000
  258TMC3    O2 3971   0.483   4.198  12.990 -0.3644 -0.3178  0.4125
  259MPD2     C 3972   3.933   1.519   1.181  0.1868 -0.1575 -0.2136
  259MPD2    C1 3973   3.933   1.383   1.199 -0.1609 -0.0625  1.2121
  259MPD2    C2 3974   3.903   1.303   1.093  0.0058  0.2195 -0.6234
  259MPD2    C3 3975   3.891   1.350   0.961  0.3334 -0.0927  0.2479
  259MPD2    C4 3976   3.886   1.488   0.943  0.1940  0.6906 -0.0917
  259MPD2    C5 3977   3.910   1.570   1.049  0.5938  0.1963  0.5498
  259MPD2     H 3978   3.905   1.195   1.103 -0.2774  0.3514  0.8910
  259MPD2    H1 3979   3.868   1.538   0.849  1.1239  2.5254  0.7144
  259MPD2    H2 3980   3.963   1.586   1.261 -0.8794  1.1073 -0.8786
  259MPD2    H3 3981   3.913   1.678   1.042 -0.2804  0.3030  1.6907
  259MPD2     N 3982   3.878   1.261   0.860  0.1954 -0.2180 -0.1399
  259MPD2    H5 3983   3.878   1.164   0.889 -1.5545 -1.0202 -2.7692
  259MPD2    N1 3984   3.949   1.330   1.326 -0.6065 -0.4963 -0.4946
  259MPD2    H7 3985   3.970   1.391   1.405 -1.2550 -3.7450  2.1500
  260TMC3    C1 3986   3.861   1.175   0.642  0.0426 -0.2335  0.0100
  260TMC3    C2 3987   3.862   1.202   0.500  0.1211 -0.1007  0.1650
  260TMC3    C3 3988   3.830   1.104   0.408  0.7874  0.2887  0.0362
  260TMC3    C4 3989   3.817   1.052   0.686  0.0384 -0.2597 -0.3026
  260TMC3    C5 3990   3.813   0.959   0.591 -0.6026 -0.3200 -0.2156
  260TMC3    C6 3991   3.804   0.979   0.459  0.3393  0.0150 -0.4768
  260TMC3     C 3992   3.869   1.297   0.728 -0.3525 -0.3694 -0.5921
  260TMC3     O 3993   3.866   1.413   0.678 -0.1974 -0.0764  0.5833
  260TMC3     H 3994   3.886   1.299   0.459  0.0261 -0.1500 -0.0079
  260TMC3    H1 3995   3.809   1.025   0.791  0.4546  0.2162 -0.1482
  260TMC3    H2 3996   3.803   0.893   0.393 -1.0829  0.5073 -1.1003
  260TMC3    C7 3997   3.802   0.820   0.635 -0.3490 -0.1610 -0.3454
  260TMC3    C8 3998   3.906   1.108   0.282 -0.8557  0.5036  0.2298
  260TMC3    O1 3999   3.732   0.751   0.559  0.0473  0.1171 -0.0223
  260TMC3    O2 4000   3.917   1.004   0.219 -0.2784 -0.8556  0.1215
  261MPD2     C 4001   1.430   4.336  12.652 -0.0915  0.2882 -0.2182
  261MPD2    C1 4002   1.550   4.305  12.601 -0.4569  0.2582 -0.4437
  261MPD2    C2 4003   1.607   4.390  12.503 -0.1735 -0.2855  0.3592
  261MPD2    C3 4004   1.540   4.501  12.452  0.1168 -0.0123  0.7131
  261MPD2    C4 4005   1.414   4.528  12.506  0.7646  0.5380  0.1925
  261MPD2    C5 4006   1.366   4.449  12.604 -0.2271 -0.4357  0.0607
  261MPD2     H 4007   1.700   4.356  12.460  0.5201  1.9910  0.1166
  261MPD2    H1 4008   1.348   4.610  12.480 -0.8459 -0.1300  2.1406
  261MPD2    H2 4009   1.396   4.280  12.738  1.7585 -0.6274 -0.0856
  261MPD2    H3 4010   1.273   4.472  12.654 -0.5961 -0.3553 -0.6659
  261MPD2     N 4011   1.600   4.579  12.351  1.1154  0.2409  0.0233
  261MPD2    H5 4012   1.690   4.549  12.314  1.1599  0.8291 -0.3372
  261MPD2    N1 4013   1.627   4.193  12.651 -0.0065  0.4514 -0.3666
  261MPD2    H7 4014   1.723   4.184  12.620  0.3755  1.9164  0.3894
  262TMC3    C1 4015   1.634   0.017  12.200 -0.4776  0.7094  0.2676
  262TMC3    C2 4016   1.609   0.153  12.176  0.9628  0.5582  0.0068
  262TMC3    C3 4017   1.663   0.199  12.062  0.1067 -0.0861  0.3105
  262TMC3    C4 4018   1.704   4.675  12.119  0.8986 -0.7241  0.4076
  262TMC3    C5 4019   1.766   4.728  12.011  0.6647 -0.1523  0.2570
  262TMC3    C6 4020   1.748   0.126  11.974  0.0550  0.6280 -0.6514
  262TMC3     C 4021   1.553   4.703  12.312 -0.5898  0.2109  1.1024
  262TMC3     O 4022   1.451   0.027  12.353  0.5717 -0.1919 -0.2858
  262TMC3     H 4023   1.557   0.221  12.242  1.1020  1.3076 -0.6505
  262TMC3    H1 4024   1.697   4.566  12.119  0.7386 -0.7150  0.1100
  262TMC3    H2 4025   1.781   0.178  11.885 -0.0892 -2.7698 -2.6659
  262TMC3    C7 4026   1.823   4.641  11.914 -0.1153  0.4723 -0.6773
  262TMC3    C8 4027   1.639   0.333  12.012  0.8047  0.4271 -0.6840
  262TMC3    O1 4028   1.810   4.522  11.929 -0.3254 -0.2103  0.5132
  262TMC3    O2 4029   1.719   0.371  11.928 -0.4331 -0.6973 -1.1838
  263MPD2     C 4030   2.436   4.091  11.759 -0.0091  0.7218  0.5900
  263MPD2    C1 4031   2.468   4.013  11.651  0.2748 -0.5377 -1.0519
  263MPD2    C2 4032   2.448   4.055  11.525  0.4224 -1.0364  0.8916
  263MPD2    C3 4033   2.401   4.184  11.501 -0.2953 -0.2763 -0.0386
  263MPD2    C4 4034   2.372   4.268  11.608  0.2948 -0.3034 -0.1515
  263MPD2    C5 4035   2.381   4.217  11.735 -0.1441  0.5167  0.3745
  263MPD2     H 4036   2.464   3.989  11.440  2.6052 -0.3494  0.7730
  263MPD2    H1 4037   2.331   4.365  11.586 -0.9181 -0.8076 -0.1113
  263MPD2    H2 4038   2.453   4.062  11.862  2.9188 -0.1288 -0.1378
  263MPD2    H3 4039   2.355   4.277  11.822 -0.7004 -0.7792  1.0966
  263MPD2     N 4040   2.403   4.221  11.367 -0.4286 -0.2975 -0.2106
  263MPD2    H5 4041   2.437   4.154  11.299 -1.2366 -0.7095 -0.2065
  263MPD2    N1 4042   2.521   3.887  11.686 -0.1087  0.1660  0.2015
  263MPD2    H7 4043   2.530   3.868  11.785  0.2226 -1.1648 -0.0723
  264TMC3    C1 4044   2.397   4.348  11.179 -0.4576 -0.2346 -0.0352
  264TMC3    C2 4045   2.343   4.458  11.124  0.1710  0.2847 -0.7098
  264TMC3    C3 4046   2.350   4.457  10.986 -0.5981 -0.4076 -0.1433
  264TMC3    C4 4047   2.489   4.271  11.120  0.4100 -0.3566 -0.0031
  264TMC3    C5 4048   2.513   4.301  10.989 -0.6253  0.2670 -0.4844
  264TMC3    C6 4049   2.432   4.376  10.915 -0.2570  0.0299  0.4006
  264TMC3     C 4050   2.369   4.343  11.322 -0.7414 -0.3935  0.0242
  264TMC3     O 4051   2.347   4.445  11.382 -0.5938  0.1682  0.0223
  264TMC3     H 4052   2.283   4.524  11.185 -0.6795 -0.3805 -0.8208
  264TMC3    H1 4053   2.560   4.208  11.172 -0.7536  0.3057  2.3983
  264TMC3    H2 4054   2.441   4.395  10.808 -0.8040 -0.2035  0.3136
  264TMC3    C7 4055   2.653   4.304  10.946 -0.3639  0.3284  0.2642
  264TMC3    C8 4056   2.352   4.587  10.928  0.2626  0.4001 -0.0075
  264TMC3    O1 4057   2.685   4.268  10.832 -0.2038 -0.3923  0.3008
  264TMC3    O2 4058   2.441   4.613  10.851  0.1256  0.3979 -0.3220
  265MPD2     C 4059   4.245   3.950  15.468  0.2343  1.0676  0.8703
  265MPD2    C1 4060   4.263   4.072  15.402  0.2102 -0.6621  1.1208
  265MPD2    C2 4061   4.316   4.068  15.273  0.0459 -0.8768 -1.1004
  265MPD2    C3 4062   4.367   3.948  15.214  0.2389 -0.0996  0.3494
  265MPD2    C4 4063   4.341   3.833  15.281  0.4530  0.2813 -0.2097
  265MPD2    C5 4064   4.282   3.828  15.403  1.1761  0.1901  0.6970
  265MPD2     H 4065   4.341   4.156  15.215  0.4475  0.7619  1.5609
  265MPD2    H1 4066   4.366   3.735  15.243 -3.0082 -0.3550 -0.8352
  265MPD2    H2 4067   4.224   3.948  15.575 -1.8752 -0.3515  0.4242
  265MPD2    H3 4068   4.264   3.736  15.459  0.0050  1.2714  2.1159
  265MPD2     N 4069   4.433   3.938  15.084 -0.4270 -0.1941 -0.7748
  265MPD2    H5 4070   4.467   3.846  15.057 -0.5486 -0.4465 -0.0797
  265MPD2    N1 4071   4.230   4.198  15.455  0.2714  0.2347 -0.0635
  265MPD2    H7 4072   4.248   4.272  15.387 -0.3465  0.3485 -0.1048
  266TMC3    C1 4073   4.149   4.360  15.602  0.7238 -0.2101 -0.0318
  266TMC3    C2 4074   4.146   4.384  15.737  0.5180  0.3074 -0.1869
  266TMC3    C3 4075   4.108   4.504  15.786  0.5225  0.3007  0.1066
  266TMC3    C4 4076   4.109   4.450  15.515 -0.0860  0.0031  0.2857
  266TMC3    C5 4077   4.063   4.574  15.559 -0.2631  0.6751  0.7060
  266TMC3    C6 4078   4.068   4.604  15.695  0.6869  0.4922  0.0965
  266TMC3     C 4079   4.161   4.226  15.569  0.0114 -0.2306  0.9210
  266TMC3     O 4080   4.120   4.145  15.652  0.2014 -0.8704 -0.4804
  266TMC3     H 4081   4.162   4.303  15.807 -2.5200  0.9342  1.2273
  266TMC3    H1 4082   4.095   4.423  15.411 -0.5155  1.4376 -0.0443
  266TMC3    H2 4083   4.034   4.701  15.727 -1.7818  0.2566 -1.7713
  266TMC3    C7 4084   3.998   4.653  15.461  0.0901  0.9164  0.2831
  266TMC3    C8 4085   4.170   4.540  15.907  0.2293 -0.1093  0.5523
  266TMC3    O1 4086   3.938   0.014  15.505  0.3719  0.0148 -0.3666
  266TMC3    O2 4087   4.216   4.436  15.965  0.2357  0.3940  0.3298
  267MPD2     C 4088   1.720   1.091   0.234 -0.2330 -0.1398  0.0252
  267MPD2    C1 4089   1.768   1.219   0.241 -0.2868 -0.2748  0.0571
  267MPD2    C2 4090   1.789   1.297   0.122  0.6688  0.0208  0.1841
  267MPD2    C3 4091   1.746   1.243  17.736 -0.0021  0.3148 -0.4607
  267MPD2    C4 4092   1.704   1.110  17.735  0.0874 -0.6182  0.3264
  267MPD2    C5 4093   1.687   1.038   0.109  0.9367 -0.4875  0.0513
  267MPD2     H 4094   1.842   1.390   0.136 -0.3270  0.9362 -2.1258
  267MPD2    H1 4095   1.662   1.076  17.642 -0.2946  0.9002 -0.0553
  267MPD2    H2 4096   1.710   1.036   0.327  1.4163 -0.1985  0.1595
  267MPD2    H3 4097   1.652   0.936   0.101 -0.6106  0.0748 -0.3420
  267MPD2     N 4098   1.734   1.324  17.624 -0.0042  0.1714  0.3298
  267MPD2    H5 4099   1.711   1.280  17.536  1.4929 -1.9388  0.9944
  267MPD2    N1 4100   1.808   1.260   0.369  0.1243 -0.4900 -0.6125
  267MPD2    H7 4101   1.794   1.195   0.446  0.0687 -1.1818 -1.2084
  268TMC3    C1 4102   1.929   1.396   0.528  1.1592 -0.2839  0.4348
  268TMC3    C2 4103   2.024   1.493   0.527  0.3792 -0.3142 -0.7700
  268TMC3    C3 4104   2.150   1.450   0.568 -0.2812 -0.9199 -0.1107
  268TMC3    C4 4105   1.944   1.280   0.595  0.3937  0.0491  0.0439
  268TMC3    C5 4106   2.067   1.249   0.651 -0.0208 -0.0284  0.6727
  268TMC3    C6 4107   2.171   1.331   0.629 -0.3161  0.8304  0.0005
  268TMC3     C 4108   1.858   1.389   0.397 -0.2028 -0.6361  0.2678
  268TMC3     O 4109   1.871   1.488   0.326 -0.3980 -0.0101 -0.3652
  268TMC3     H 4110   2.011   1.590   0.480  1.5757 -0.1950 -0.8590
  268TMC3    H1 4111   1.854   1.225   0.620  0.2664  0.9702  1.6303
  268TMC3    H2 4112   2.270   1.306   0.665  0.2416 -0.7907 -2.7348
  268TMC3    C7 4113   2.069   1.128   0.746  0.0321  0.7008 -0.3033
  268TMC3    C8 4114   2.270   1.537   0.541 -0.1556 -0.3504 -0.5326
  268TMC3    O1 4115   2.163   1.052   0.731  0.5122  0.0542 -0.2082
  268TMC3    O2 4116   2.363   1.510   0.611  0.0074  0.0892  0.0151
  269MPD2     C 4117   2.346   0.060  15.821  0.0484 -0.7572  0.6869
  269MPD2    C1 4118   2.215   0.083  15.833  0.0616  0.2251 -0.4610
  269MPD2    C2 4119   2.162   0.206  15.786  0.3398  0.4502  0.0596
  269MPD2    C3 4120   2.239   0.306  15.735 -0.1353 -0.1685 -0.3389
  269MPD2    C4 4121   2.381   0.289  15.736 -0.6011 -0.3474  0.9182
  269MPD2    C5 4122   2.431   0.165  15.782 -0.0342  0.5095 -0.0248
  269MPD2     H 4123   2.054   0.217  15.784  0.2480 -0.2702  1.0618
  269MPD2    H1 4124   2.455   0.366  15.712 -0.5173 -0.7973 -0.2730
  269MPD2    H2 4125   2.381   4.701  15.862  0.0375 -0.7442  0.7258
  269MPD2    H3 4126   2.540   0.164  15.784  0.0239  2.9632 -1.3273
  269MPD2     N 4127   2.175   0.427  15.696 -0.2291 -0.1487 -0.1310
  269MPD2    H5 4128   2.076   0.434  15.716 -0.4178 -0.5170 -0.9588
  269MPD2    N1 4129   2.134   4.703  15.871  0.1864  0.6906  0.0171
  269MPD2    H7 4130   2.174   4.612  15.892 -1.7929 -0.1783 -0.0083
  270TMC3    C1 4131   1.931   4.577  15.916 -0.9793  0.5238  0.6898
  270TMC3    C2 4132   1.812   4.548  15.854 -0.2862 -0.0545 -0.3810
  270TMC3    C3 4133   1.771   4.418  15.840  0.4681  0.4778 -0.2359
  270TMC3    C4 4134   2.009   4.471  15.952 -0.2233  0.2392  0.2690
  270TMC3    C5 4135   1.959   4.338  15.938  0.0176 -0.5600  0.5131
  270TMC3    C6 4136   1.845   4.313  15.869  0.5548  0.9481 -0.0480
  270TMC3     C 4137   1.993   4.706  15.877  1.0738  0.4000 -0.1406
  270TMC3     O 4138   1.915   0.063  15.839  0.7949 -0.0590  0.2825
  270TMC3     H 4139   1.757   4.626  15.803 -0.3876 -0.8776 -1.5137
  270TMC3    H1 4140   2.091   4.489  16.020  0.1453 -0.7119  0.0861
  270TMC3    H2 4141   1.813   4.216  15.832 -0.5815  0.4447  2.2719
  270TMC3    C7 4142   2.067   4.244  15.916 -0.9877 -0.2748 -0.8269
  270TMC3    C8 4143   1.674   4.402  15.736 -0.0293 -0.0592 -0.0550
  270TMC3    O1 4144   2.180   4.289  15.939 -0.6480 -0.4119 -0.2328
  270TMC3    O2 4145   1.554   4.433  15.754 -0.2492  0.1550  0.2300
  271MPD2     C 4146   1.398   4.616  14.124  0.4850  0.4158 -0.0716
  271MPD2    C1 4147   1.317   4.575  14.224 -0.3223 -0.4052  0.5921
  271MPD2    C2 4148   1.188   4.603  14.212  0.4346 -0.4060 -0.6846
  271MPD2    C3 4149   1.142   4.676  14.108  0.6251  0.1212  0.1815
  271MPD2    C4 4150   1.229   4.730  14.014  0.8251  0.1751 -0.7037
  271MPD2    C5 4151   1.360   4.695  14.014  0.1830  0.2677  0.6340
  271MPD2     H 4152   1.119   4.549  14.276 -1.6651 -0.1085 -2.7208
  271MPD2    H1 4153   1.194   0.062  13.935 -0.9678  1.5899  1.2851
  271MPD2    H2 4154   1.503   4.590  14.123 -0.0570 -1.8942  2.3650
  271MPD2    H3 4155   1.438   4.715  13.940  1.2483 -1.0033  1.4031
  271MPD2     N 4156   1.008   4.706  14.089 -0.5453 -0.0994 -0.0263
  271MPD2    H5 4157   0.983   0.031  14.010 -0.4915 -1.5507 -1.1479
  271MPD2    N1 4158   1.361   4.497  14.334  0.9498  0.4732  0.4688
  271MPD2    H7 4159   1.294   4.486  14.409  0.1944  1.6301 -0.0363
  272TMC3    C1 4160   1.488   4.333  14.448  0.5790  0.0353 -0.4692
  272TMC3    C2 4161   1.588   4.243  14.441 -0.2465 -0.3314  0.1088
  272TMC3    C3 4162   1.640   4.197  14.560  1.1792  0.6492  0.0149
  272TMC3    C4 4163   1.447   4.391  14.566 -0.4900  0.2534 -0.2087
  272TMC3    C5 4164   1.519   4.357  14.679 -0.3429  0.0355  0.1710
  272TMC3    C6 4165   1.609   4.257  14.678  0.2172 -0.1935 -0.1001
  272TMC3     C 4166   1.478   4.420  14.331  0.0069  0.3300 -0.1836
  272TMC3     O 4167   1.555   4.402  14.238  0.2010  0.7341  0.1452
  272TMC3     H 4168   1.617   4.201  14.346  1.9179  0.0880  0.5658
  272TMC3    H1 4169   1.383   4.478  14.564 -0.8330  0.0079  0.1590
  272TMC3    H2 4170   1.668   4.239  14.768 -2.1634  3.6722  2.2028
  272TMC3    C7 4171   1.488   4.437  14.792 -0.2564  0.1195 -0.0872
  272TMC3    C8 4172   1.750   4.111  14.543 -0.8703 -0.2168 -0.1937
  272TMC3    O1 4173   1.372   4.483  14.794 -0.2402 -0.0304 -0.4064
  272TMC3    O2 4174   1.801   4.112  14.432  0.8362 -0.1497  0.2915
  273MPD2     C 4175   2.748   2.532  11.871 -0.1537  0.0149  0.0573
  273MPD2    C1 4176   2.872   2.597  11.887 -0.1526 -0.4156 -0.4902
  273MPD2    C2 4177   2.942   2.628  11.768  0.5457 -0.0240  0.2305
  273MPD2    C3 4178   2.888   2.609  11.639  0.4902 -0.3819 -0.0519
  273MPD2    C4 4179   2.762   2.556  11.628  0.0062 -0.7523  0.6139
  273MPD2    C5 4180   2.691   2.518  11.738  0.2129  0.1697 -0.1832
  273MPD2     H 4181   3.039   2.676  11.777  1.1658 -1.4466  1.2377
  273MPD2    H1 4182   2.722   2.539  11.529 -0.3534 -1.0897  0.8136
  273MPD2    H2 4183   2.691   2.493  11.954 -0.2751  1.2996  0.5791
  273MPD2    H3 4184   2.588   2.487  11.730  0.3026  0.0197 -0.7063
  273MPD2     N 4185   2.955   2.641  11.521 -0.9530  0.3116  0.3658
  273MPD2    H5 4186   2.901   2.618  11.439  0.0766  1.2890 -0.5988
  273MPD2    N1 4187   2.915   2.629  12.018 -0.6193 -0.3169  0.0781
  273MPD2    H7 4188   2.847   2.611  12.091  1.5885 -0.8877  2.0051
  274TMC3    C1 4189   3.096   2.780  11.381  0.0055  0.6800 -0.4013
  274TMC3    C2 4190   3.015   2.762  11.272 -0.2472 -0.1836  0.4406
  274TMC3    C3 4191   3.029   2.835  11.164 -0.3920 -0.2705  0.0074
  274TMC3    C4 4192   3.198   2.876  11.382 -1.2386 -0.0808 -0.0294
  274TMC3    C5 4193   3.211   2.947  11.268  0.5008  0.0697  0.2492
  274TMC3    C6 4194   3.125   2.934  11.167 -0.6369  0.0880  0.3728
  274TMC3     C 4195   3.074   2.714  11.511 -0.0454  0.2854 -0.5171
  274TMC3     O 4196   3.147   2.751  11.604  0.5426  0.2663 -0.0853
  274TMC3     H 4197   2.925   2.705  11.292 -1.3835  1.8834  1.1894
  274TMC3    H1 4198   3.243   2.918  11.471 -3.9439 -2.6511  2.5518
  274TMC3    H2 4199   3.146   2.986  11.074 -2.5885  0.6150  0.2374
  274TMC3    C7 4200   3.201   3.092  11.287  0.0579  0.1792  0.5605
  274TMC3    C8 4201   2.941   2.830  11.052  0.3864  0.1767  0.4089
  274TMC3    O1 4202   3.084   3.126  11.276  0.0706  0.5066  0.3510
  274TMC3    O2 4203   2.945   2.913  10.964  0.0187 -0.5545 -0.3262
  275MPD2     C 4204   2.954   0.767  14.289  0.5059 -0.0697 -0.5553
  275MPD2    C1 4205   3.028   0.701  14.382  0.3644  0.4141 -0.1804
  275MPD2    C2 4206   2.965   0.598  14.446  0.0488 -0.3489  0.2245
  275MPD2    C3 4207   2.830   0.572  14.424 -0.0358  0.6565 -0.4278
  275MPD2    C4 4208   2.761   0.635  14.324 -0.0981 -0.6121 -0.0587
  275MPD2    C5 4209   2.822   0.737  14.258  0.3433  0.4323  0.1480
  275MPD2     H 4210   3.029   0.537  14.509  0.0180 -2.4824 -1.8070
  275MPD2    H1 4211   2.659   0.613  14.293  1.0043 -1.5570 -3.0095
  275MPD2    H2 4212   3.004   0.848  14.238  0.5139  2.1002  2.9290
  275MPD2    H3 4213   2.774   0.799  14.182 -0.0744  0.6708  0.6047
  275MPD2     N 4214   2.751   0.484  14.498 -0.5068 -0.0153 -0.0077
  275MPD2    H5 4215   2.656   0.463  14.470 -0.1311  0.0942 -1.3435
  275MPD2    N1 4216   3.170   0.727  14.408  1.3361  0.3469  0.8124
  275MPD2    H7 4217   3.220   0.671  14.477  1.0052  1.8306  2.2644
  276TMC3    C1 4218   3.373   0.830  14.427 -0.3351  0.0566 -0.5610
  276TMC3    C2 4219   3.433   0.710  14.439  0.2002  0.9764 -0.2671
  276TMC3    C3 4220   3.561   0.715  14.485 -0.4453 -0.4236  0.3177
  276TMC3    C4 4221   3.436   0.957  14.447  0.4572  0.3661  0.8179
  276TMC3    C5 4222   3.564   0.956  14.484  1.2448 -0.6266 -0.2481
  276TMC3    C6 4223   3.630   0.834  14.492  0.5409  0.1369 -0.2432
  276TMC3     C 4224   3.233   0.838  14.377 -0.7537  0.3871 -0.5686
  276TMC3     O 4225   3.193   0.950  14.353  0.1070  0.0126  0.2448
  276TMC3     H 4226   3.391   0.619  14.397 -2.3669  2.2659 -0.4184
  276TMC3    H1 4227   3.383   1.052  14.437 -0.4212  0.0307  2.2803
  276TMC3    H2 4228   3.731   0.825  14.530 -0.0558 -0.5435  1.2139
  276TMC3    C7 4229   3.611   1.057  14.583 -0.1578  0.1560 -0.4446
  276TMC3    C8 4230   3.634   0.594  14.517  0.2385  0.5417  0.2646
  276TMC3    O1 4231   3.521   1.121  14.626 -0.2196 -0.4170 -0.1143
  276TMC3    O2 4232   3.754   0.594  14.489  0.1671 -0.5274 -0.0394
  277MPD2     C 4233   0.214   0.006  13.327  0.0597 -0.4046 -0.3693
  277MPD2    C1 4234   0.076   0.008  13.330  0.3210  0.7120  0.0685
  277MPD2    C2 4235   4.734   4.678  13.428  0.1685  0.0702 -0.0387
  277MPD2    C3 4236   0.068   4.625  13.534 -0.2288  0.0210  0.7372
  277MPD2    C4 4237   0.206   4.620  13.539 -0.4345 -0.2897  0.6981
  277MPD2    C5 4238   0.276   4.680  13.436 -0.6760 -0.4876 -0.0358
  277MPD2     H 4239   4.626   4.676  13.433  0.1811  3.1395  1.2518
  277MPD2    H1 4240   0.262   4.570  13.616 -0.8712 -0.3182  0.9979
  277MPD2    H2 4241   0.281   0.052  13.255  0.3826 -0.9956 -0.4474
  277MPD2    H3 4242   0.383   4.690  13.444 -0.6725 -1.9551  1.9388
  277MPD2     N 4243   4.733   4.555  13.626  0.2291  0.3292 -0.5374
  277MPD2    H5 4244   4.634   4.541  13.607  0.8236 -1.4038 -2.3917
  277MPD2    N1 4245   0.022   0.085  13.230 -0.3743 -0.0193 -0.6525
  277MPD2    H7 4246   0.087   0.143  13.178 -2.1737  1.2792 -1.5021
  278TMC3    C1 4247   4.667   4.459  13.819  0.2648 -0.3710 -0.6623
  278TMC3    C2 4248   4.668   4.334  13.874 -0.0607 -0.4205  0.0983
  278TMC3    C3 4249   4.547   4.279  13.905 -0.1467  0.3913 -0.0383
  278TMC3    C4 4250   4.556   4.537  13.831  0.6231  0.1672 -0.3267
  278TMC3    C5 4251   4.436   4.481  13.860 -0.6757  0.4221  0.1413
  278TMC3    C6 4252   4.429   4.349  13.891  0.7341  0.6273  0.2980
  278TMC3     C 4253   0.042   4.495  13.743 -0.1075  0.5358 -0.4065
  278TMC3     O 4254   0.153   4.470  13.783 -0.0281 -0.5749 -0.4390
  278TMC3     H 4255   0.018   4.267  13.872 -0.2101 -0.6435  1.7312
  278TMC3    H1 4256   4.560   4.637  13.790  0.6227  0.7006  0.9913
  278TMC3    H2 4257   4.337   4.306  13.928  0.0619  0.9849 -0.9672
  278TMC3    C7 4258   4.320   4.557  13.811  0.1451  0.4745 -0.3498
  278TMC3    C8 4259   4.541   4.135  13.913 -0.6119  0.1762  0.0594
  278TMC3    O1 4260   4.333   4.648  13.730  0.1521  0.4649  0.6093
  278TMC3    O2 4261   4.638   4.073  13.956 -0.6083  0.2306 -0.7108
  279MPD2     C 4262   3.607   4.230   0.407  0.0532  0.3179 -0.8737
  279MPD2    C1 4263   3.499   4.253   0.329  0.4552 -0.7048 -0.7685
  279MPD2    C2 4264   3.512   4.252   0.194  0.8904 -0.3852  0.4903
  279MPD2    C3 4265   3.632   4.261   0.139 -0.2932 -0.5597 -0.4629
  279MPD2    C4 4266   3.744   4.249   0.219  0.5276 -0.2457 -0.5142
  279MPD2    C5 4267   3.732   4.219   0.348  0.2040 -0.2635  0.5402
  279MPD2     H 4268   3.422   4.238   0.135  0.2044 -0.8681  1.6538
  279MPD2    H1 4269   3.848   4.256   0.189  0.4657  0.3533 -0.5782
  279MPD2    H2 4270   3.595   4.219   0.514  0.4142  0.6412 -0.7988
  279MPD2    H3 4271   3.823   4.213   0.406 -0.1343  2.6461  1.3603
  279MPD2     N 4272   3.657   4.280   0.002  0.2887  0.0038  0.3135
  279MPD2    H5 4273   3.752   4.268  17.707 -0.1513 -2.2851 -0.0913
  279MPD2    N1 4274   3.368   4.258   0.367  0.5426 -0.1127 -0.2786
  279MPD2    H7 4275   3.298   4.267   0.294  0.7882  1.5163 -0.3123
  280TMC3    C1 4276   3.181   4.303   0.505  0.2755  0.2745  0.1745
  280TMC3    C2 4277   3.102   4.282   0.397 -0.2159 -0.9285  0.2722
  280TMC3    C3 4278   2.971   4.317   0.417 -0.6272 -0.5099 -0.2267
  280TMC3    C4 4279   3.139   4.355   0.624 -0.7707 -0.8279 -0.4530
  280TMC3    C5 4280   3.011   4.393   0.637  0.3034 -0.2090 -0.3909
  280TMC3    C6 4281   2.924   4.370   0.529 -0.2837  0.4854  0.7974
  280TMC3     C 4282   3.324   4.266   0.495  0.3527 -0.2482 -0.2862
  280TMC3     O 4283   3.391   4.243   0.596  0.1190  0.2490 -0.1284
  280TMC3     H 4284   3.136   4.223   0.312  0.3714 -0.9741  0.5417
  280TMC3    H1 4285   3.208   4.368   0.706 -1.1089  0.1678 -0.3167
  280TMC3    H2 4286   2.816   4.385   0.528 -0.3406 -0.0611 -0.8176
  280TMC3    C7 4287   2.994   4.518   0.699 -0.3034 -0.1664 -0.5572
  280TMC3    C8 4288   2.899   4.378   0.306  0.5503 -0.1363  0.6804
  280TMC3    O1 4289   3.058   4.546   0.796  0.2478  0.2982 -0.4786
  280TMC3    O2 4290   2.852   4.488   0.331 -0.2604 -0.2678  0.1964
  281TMC3    C1 4291   3.050   4.583  13.546  0.0430  0.2832 -0.4727
  281TMC3    C2 4292   3.101   4.655  13.441  0.8113  0.3100  0.0922
  281TMC3    C3 4293   3.130   4.592  13.316 -0.2252 -0.0755  0.5835
  281TMC3    C4 4294   3.037   4.450  13.533  1.1750  0.0366  0.2913
  281TMC3    C5 4295   3.056   4.387  13.411 -0.2312  0.7786 -0.3442
  281TMC3    C6 4296   3.102   4.459  13.302 -0.8191 -0.0661  0.2850
  281TMC3     C 4297   2.945   4.638  13.631 -0.0729  0.7557 -0.4544
  281TMC3     O 4298   2.926   4.586  13.740  0.5677  0.4870 -0.0851
  281TMC3     H 4299   3.139   0.021  13.454  1.4066 -0.0464  1.1368
  281TMC3    H1 4300   2.996   4.395  13.618  1.2635  0.5726  0.6824
  281TMC3    H2 4301   3.121   4.413  13.206 -1.1689  0.5686 -0.0881
  281TMC3    C7 4302   2.965   4.281  13.379 -0.6189  0.4197 -0.2761
  281TMC3    C8 4303   3.226   4.636  13.218 -0.0936 -0.3735  0.1607
  281TMC3    O1 4304   2.963   4.245  13.261  0.0311 -0.4736 -0.2120
  281TMC3    O2 4305   3.322   4.566  13.186  0.2247  0.3318 -0.2340
  282MPD2     C 4306   4.509   1.233  14.954 -0.0404  0.1064  0.2565
  282MPD2    C1 4307   4.391   1.305  14.959 -0.3038  0.3542 -0.4858
  282MPD2    C2 4308   4.314   1.316  14.845 -0.7943  0.5380 -0.2224
  282MPD2    C3 4309   4.351   1.252  14.730  0.5400  0.0320  0.5495
  282MPD2    C4 4310   4.465   1.183  14.726  0.2582  0.2570 -0.3843
  282MPD2    C5 4311   4.544   1.173  14.833  0.1371 -0.2017 -0.0538
  282MPD2     H 4312   4.222   1.372  14.856  0.6758  2.8099  0.5001
  282MPD2    H1 4313   4.500   1.126  14.641  0.1059  0.8078 -0.8087
  282MPD2    H2 4314   4.571   1.219  15.042  1.2664 -1.4049 -0.9033
  282MPD2    H3 4315   4.626   1.102  14.836 -0.0166 -0.3873 -0.2191
  282MPD2     N 4316   4.255   1.258  14.625 -0.9668 -0.7885  0.3388
  282MPD2    H5 4317   4.175   1.317  14.649  1.2638  2.2441  0.2911
  282MPD2    N1 4318   4.348   1.378  15.068 -0.4511 -0.2590 -0.2134
  282MPD2    H7 4319   4.266   1.435  15.053  0.2645  0.9233  0.3015
  283TMC3    C1 4320   4.305   1.439  15.286 -1.0841 -0.1300  0.1464
  283TMC3    C2 4321   4.279   1.564  15.258  0.1474  0.3618  0.1983
  283TMC3    C3 4322   4.171   1.625  15.314  0.3619 -0.0114  0.0913
  283TMC3    C4 4323   4.226   1.360  15.364 -0.4873 -0.0355  0.4909
  283TMC3    C5 4324   4.124   1.422  15.426  0.5472 -0.1443  0.1448
  283TMC3    C6 4325   4.090   1.550  15.398 -0.0385  0.5717 -0.9396
  283TMC3     C 4326   4.391   1.365  15.200  0.2444 -0.0131 -0.2174
  283TMC3     O 4327   4.473   1.286  15.245 -0.1651 -0.0264  0.0884
  283TMC3     H 4328   4.340   1.613  15.184  1.0894  0.1153  0.8132
  283TMC3    H1 4329   4.258   1.257  15.368 -0.2032  0.0154 -0.3335
  283TMC3    H2 4330   4.015   1.598  15.460  0.6657  1.7580 -1.0294
  283TMC3    C7 4331   4.013   1.338  15.470  0.4677  0.4279 -0.8394
  283TMC3    C8 4332   4.139   1.762  15.277 -0.0241  0.3234 -1.2472
  283TMC3    O1 4333   3.936   1.401  15.540 -0.5767  0.5649  0.3590
  283TMC3    O2 4334   4.226   1.818  15.215  0.0101 -0.1293 -0.4468
  284MPD2     C 4335   3.240   0.649  12.150  0.0154  0.0238 -0.7166
  284MPD2    C1 4336   3.161   0.647  12.042  0.0835  0.0489 -0.3944
  284MPD2    C2 4337   3.067   0.548  12.043 -0.2084  1.1634 -0.0042
  284MPD2    C3 4338   3.048   0.456  12.150  0.0122  0.5208  0.1778
  284MPD2    C4 4339   3.129   0.469  12.260  0.5558  0.3762 -0.2335
  284MPD2    C5 4340   3.236   0.558  12.250 -0.4891  0.0211 -0.5271
  284MPD2     H 4341   3.016   0.539  11.948  0.4963 -1.4787 -0.1266
  284MPD2    H1 4342   3.121   0.404  12.346 -1.6520 -2.3288 -2.4674
  284MPD2    H2 4343   3.315   0.726  12.162 -0.3255  0.6083 -2.3417
  284MPD2    H3 4344   3.302   0.558  12.336  0.5631 -1.6780 -1.3343
  284MPD2     N 4345   2.966   0.334  12.135 -0.4836 -0.4626  0.5470
  284MPD2    H5 4346   2.958   0.265  12.209  0.0017 -0.0802  0.9583
  284MPD2    N1 4347   3.164   0.733  11.928 -0.3970  0.5028  0.2280
  284MPD2    H7 4348   3.081   0.732  11.870  0.0892 -0.7939 -0.4300
  285TMC3    C1 4349   3.235   0.906  11.796 -0.7345 -0.2298 -0.3057
  285TMC3    C2 4350   3.212   0.838  11.678 -0.3144  0.1142 -0.1056
  285TMC3    C3 4351   3.188   0.923  11.573 -0.0044  0.0206 -0.1762
  285TMC3    C4 4352   3.265   1.043  11.817 -0.1064  0.8991  0.1832
  285TMC3    C5 4353   3.238   1.119  11.704  0.7282  0.3269  0.2551
  285TMC3    C6 4354   3.205   1.063  11.585  0.9231  0.0162  0.3830
  285TMC3     C 4355   3.267   0.824  11.910  0.4004 -0.3917 -0.2022
  285TMC3     O 4356   3.357   0.859  11.988 -0.0973  0.3096 -0.1938
  285TMC3     H 4357   3.200   0.731  11.670 -2.7945  0.5311 -1.7749
  285TMC3    H1 4358   3.294   1.080  11.914  1.2334  1.5416 -0.4524
  285TMC3    H2 4359   3.167   1.131  11.510  2.8745  0.6851  0.0079
  285TMC3    C7 4360   3.287   1.261  11.695 -0.4040  1.0836  0.0555
  285TMC3    C8 4361   3.160   0.870  11.449 -0.5817  0.1097  0.5672
  285TMC3    O1 4362   3.275   1.319  11.584 -0.1034  0.0014 -0.1529
  285TMC3    O2 4363   3.100   0.765  11.450 -0.6378  0.2693 -0.7495
  286MPD2     C 4364   2.639   3.774   1.442 -0.8478  0.1666  0.1702
  286MPD2    C1 4365   2.555   3.722   1.339  0.8599 -0.0584  0.4370
  286MPD2    C2 4366   2.606   3.622   1.254 -0.3159  0.4076  0.5879
  286MPD2    C3 4367   2.742   3.586   1.255  0.4923  0.0759 -0.4423
  286MPD2    C4 4368   2.818   3.640   1.357 -0.1489  0.3413 -0.1133
  286MPD2    C5 4369   2.772   3.730   1.444 -0.1916  0.5024 -0.9189
  286MPD2     H 4370   2.545   3.593   1.169  1.6691 -0.0729 -0.6573
  286MPD2    H1 4371   2.923   3.616   1.367 -0.4445 -1.0276 -0.4071
  286MPD2    H2 4372   2.609   3.854   1.508 -0.6923  0.8129 -0.5495
  286MPD2    H3 4373   2.833   3.767   1.525  0.6246 -0.3423 -1.1404
  286MPD2     N 4374   2.801   3.502   1.160  0.9006 -0.1207  0.3510
  286MPD2    H5 4375   2.900   3.479   1.164  0.7815 -0.8861 -1.0923
  286MPD2    N1 4376   2.426   3.781   1.319 -0.1088 -0.2004 -0.0476
  286MPD2    H7 4377   2.378   3.751   1.234 -1.0939  1.8984 -0.2291
  287TMC3    C1 4378   2.805   3.352   0.971  0.5064  0.0801 -0.2889
  287TMC3    C2 4379   2.727   3.257   0.895  0.0307  0.5189 -0.2451
  287TMC3    C3 4380   2.793   3.173   0.810  0.2990  0.1604  0.7294
  287TMC3    C4 4381   2.937   3.366   0.964 -0.0648 -0.3358  0.2647
  287TMC3    C5 4382   3.001   3.291   0.875 -0.3707 -0.0360 -0.4240
  287TMC3    C6 4383   2.929   3.199   0.795 -0.2376  0.1498  0.4114
  287TMC3     C 4384   2.729   3.439   1.058  0.4687 -0.1677 -0.6114
  287TMC3     O 4385   2.607   3.442   1.035 -0.0782 -0.6175  0.3621
  287TMC3     H 4386   2.629   3.229   0.931  0.0232 -0.4203 -0.9922
  287TMC3    H1 4387   2.989   3.440   1.025  0.8274 -1.9565  1.4593
  287TMC3    H2 4388   2.984   3.149   0.715 -1.9162 -1.2572  0.1423
  287TMC3    C7 4389   3.146   3.307   0.876 -0.0561  0.5245  0.6914
  287TMC3    C8 4390   2.718   3.083   0.733 -0.0818  0.6691 -0.1325
  287TMC3    O1 4391   3.195   3.394   0.946  0.3485  0.1208 -0.0952
  287TMC3    O2 4392   2.781   2.998   0.677 -0.1067 -0.7495 -0.8627
  288TMC3    C1 4393   4.394   3.679  14.170 -0.2265  0.2494 -0.2547
  288TMC3    C2 4394   4.337   3.791  14.212 -0.4209  0.2096  0.2756
  288TMC3    C3 4395   4.423   3.899  14.245 -0.2658  0.2221  0.2279
  288TMC3    C4 4396   4.529   3.667  14.165 -0.1601  0.3133 -0.2887
  288TMC3    C5 4397   4.604   3.777  14.197 -0.6496  0.8560 -0.0813
  288TMC3    C6 4398   4.556   3.900  14.219 -0.3881  0.0765  0.2732
  288TMC3     C 4399   4.316   3.557  14.156  0.3569  0.1709 -0.1463
  288TMC3     O 4400   4.198   3.577  14.132 -0.5218 -0.5392  0.1855
  288TMC3     H 4401   4.230   3.805  14.196 -0.4795  2.0657  2.3914
  288TMC3    H1 4402   4.583   3.580  14.128  0.6176  0.6837 -0.0170
  288TMC3    H2 4403   4.623   3.974  14.261  0.8717 -1.8471  1.6108
  288TMC3    C7 4404   0.016   3.778  14.181 -0.7638  0.0426  0.1663
  288TMC3    C8 4405   4.374   3.993  14.339  0.1853 -0.0810  0.3328
  288TMC3    O1 4406   0.067   3.673  14.229 -0.6475 -0.3561 -0.2221
  288TMC3    O2 4407   4.447   4.086  14.373 -0.5108 -0.0419  0.6345
  289MPD2     C 4408   4.712   3.144  14.057  0.4009 -0.2992  0.4424
  289MPD2    C1 4409   4.681   3.268  14.012 -0.2343 -0.2193  0.2409
  289MPD2    C2 4410   4.557   3.279  13.952  0.3613  0.4706 -0.4866
  289MPD2    C3 4411   4.461   3.178  13.942 -0.3372  0.4293 -0.6052
  289MPD2    C4 4412   4.494   3.052  13.989 -0.2660  0.2760  0.7215
  289MPD2    C5 4413   4.615   3.041  14.053  0.6330 -0.3220  0.2787
  289MPD2     H 4414   4.530   3.368  13.897  1.1416  0.6762 -0.5398
  289MPD2    H1 4415   4.421   2.973  14.000  0.0573 -0.0923  0.2278
  289MPD2    H2 4416   0.074   3.119  14.099  0.5497  1.9173  1.4073
  289MPD2    H3 4417   4.647   2.945  14.091 -0.5902 -1.6015 -1.9177
  289MPD2     N 4418   4.327   3.192  13.893 -0.1920  0.1895 -0.1524
  289MPD2    H5 4419   4.277   3.104  13.905 -2.9677  1.7037 -0.5567
  289MPD2    N1 4420   0.046   3.367  14.003  0.3276 -0.6138  0.4466
  289MPD2    H7 4421   0.138   3.336  14.030 -0.5503 -2.6550  1.1783
  290TMC3    C1 4422   4.120   3.295  13.826  0.2726 -0.3974 -0.9825
  290TMC3    C2 4423   4.035   3.400  13.848  1.0316 -0.4738  0.0101
  290TMC3    C3 4424   3.907   3.390  13.798  1.2389  0.1212  0.4795
  290TMC3    C4 4425   4.070   3.174  13.772  0.3509 -0.5329  0.2755
  290TMC3    C5 4426   3.944   3.173  13.731 -0.1486 -0.9953  0.3135
  290TMC3    C6 4427   3.854   3.283  13.731  0.1035 -0.3954 -0.1969
  290TMC3     C 4428   4.266   3.312  13.850  0.3738  0.2296  0.8193
  290TMC3     O 4429   4.316   3.422  13.841  0.0526 -0.2215 -0.7896
  290TMC3     H 4430   4.070   3.482  13.908 -1.1129 -0.3365  1.0617
  290TMC3    H1 4431   4.133   3.093  13.738  1.2974  0.8086 -1.1270
  290TMC3    H2 4432   3.757   3.280  13.682 -0.7708  0.6785  1.4406
  290TMC3    C7 4433   3.886   3.050  13.666  0.2223  0.1656  0.0550
  290TMC3    C8 4434   3.822   3.513  13.810 -0.2691 -0.5014 -0.0850
  290TMC3    O1 4435   3.786   3.073  13.600 -0.6546 -0.1750 -1.2131
  290TMC3    O2 4436   3.713   3.509  13.758 -0.0432  0.4785  0.5372
  291MPD2     C 4437   3.335   3.125   0.234  1.0253 -0.0661  0.2521
  291MPD2    C1 4438   3.416   3.023   0.292  0.4799  0.3520 -0.1613
  291MPD2    C2 4439   3.542   3.063   0.304 -0.0724  0.0125 -0.1580
  291MPD2    C3 4440   3.596   3.187   0.275  0.2591 -0.5413  0.0090
  291MPD2    C4 4441   3.511   3.283   0.235  0.1425  0.1971  0.5010
  291MPD2    C5 4442   3.384   3.252   0.210  0.0723  1.0907  0.3980
  291MPD2     H 4443   3.610   2.989   0.345 -0.2821  0.0240  0.2152
  291MPD2    H1 4444   3.550   3.379   0.205 -0.4689  0.7227  1.3837
  291MPD2    H2 4445   3.229   3.114   0.216  1.0521  1.0500 -0.5764
  291MPD2    H3 4446   3.325   3.333   0.169 -2.1438 -0.7918 -0.1506
  291MPD2     N 4447   3.729   3.217   0.287 -0.7444 -0.0846 -0.0505
  291MPD2    H5 4448   3.763   3.313   0.279  0.1528 -0.4906 -1.1062
  291MPD2    N1 4449   3.375   2.896   0.331 -0.1489  0.2957 -0.4386
  291MPD2    H7 4450   3.452   2.842   0.370 -1.7697 -2.7133 -1.4381
  292TMC3    C1 4451   3.272   2.699   0.352  0.4796 -0.2941 -0.1576
  292TMC3    C2 4452   3.268   2.678   0.487  0.0469 -0.5647  0.2860
  292TMC3    C3 4453   3.281   2.545   0.528  0.5278 -0.5559 -0.6635
  292TMC3    C4 4454   3.252   2.607   0.252  0.2826  0.1940  0.4187
  292TMC3    C5 4455   3.252   2.479   0.302  0.3913 -0.2829  0.7129
  292TMC3    C6 4456   3.280   2.445   0.433 -0.2838  0.2875 -0.2247
  292TMC3     C 4457   3.251   2.837   0.312  0.6141 -0.3642 -0.7924
  292TMC3     O 4458   3.155   2.878   0.245 -0.2506  0.8539  0.5098
  292TMC3     H 4459   3.269   2.756   0.562 -0.1813 -2.6600  2.4281
  292TMC3    H1 4460   3.244   2.634   0.148 -0.6377 -0.2955  0.3569
  292TMC3    H2 4461   3.288   2.342   0.465 -2.0415  0.6680  1.4544
  292TMC3    C7 4462   3.223   2.369   0.214  0.7726  0.9524 -0.7051
  292TMC3    C8 4463   3.291   2.521   0.664 -0.1813  0.2745  0.7283
  292TMC3    O1 4464   3.260   2.261   0.255  0.0916  0.6120  0.3559
  292TMC3    O2 4465   3.335   2.610   0.733  0.2571  0.5595 -0.0701
  293MPD2     C 4466   0.740   4.612  12.632 -0.2726 -0.0532 -0.3838
  293MPD2    C1 4467   0.829   4.710  12.654 -0.0541 -0.2330 -0.1211
  293MPD2    C2 4468   0.928   4.681  12.749 -0.0328 -0.4568  0.5281
  293MPD2    C3 4469   0.918   4.572  12.830  0.2576 -0.5285 -0.3765
  293MPD2    C4 4470   0.823   4.473  12.797 -0.4266 -0.1860  0.2940
  293MPD2    C5 4471   0.741   4.491  12.689  1.0289  0.3150 -0.4743
  293MPD2     H 4472   1.000   0.024  12.767  1.3509 -1.6671  0.1844
  293MPD2    H1 4473   0.810   4.377  12.845  0.4409  0.1210  1.1249
  293MPD2    H2 4474   0.670   4.618  12.549 -1.2162 -0.9693  0.3309
  293MPD2    H3 4475   0.673   4.413  12.656 -1.4126  1.6405  1.4185
  293MPD2     N 4476   1.007   4.565  12.943 -0.3395 -0.0879  0.4530
  293MPD2    H5 4477   1.073   4.642  12.952 -0.7681  0.5123 -1.4512
  293MPD2    N1 4478   0.830   0.098  12.585  0.5907  0.3971 -0.6568
  293MPD2    H7 4479   0.910   0.156  12.606 -0.0511  1.5912 -1.4968
  294TMC3    C1 4480   0.755   0.276  12.457 -0.7550  0.2185 -0.1216
  294TMC3    C2 4481   0.637   0.322  12.393  0.0726 -0.0056  0.2003
  294TMC3    C3 4482   0.643   0.351  12.262  0.3303  0.3783 -0.2018
  294TMC3    C4 4483   0.871   0.286  12.388  0.0879  0.4611  0.4470
  294TMC3    C5 4484   0.877   0.331  12.259  0.0971  0.8185 -0.0334
  294TMC3    C6 4485   0.761   0.364  12.193  0.1262  0.1131  0.0056
  294TMC3     C 4486   0.731   0.139  12.501 -0.2773 -0.5214  0.3955
  294TMC3     O 4487   0.619   0.093  12.482 -0.6308  0.1562 -0.1515
  294TMC3     H 4488   0.545   0.317  12.449  0.5194  1.5688  1.0741
  294TMC3    H1 4489   0.966   0.262  12.435 -0.3187  0.5539  1.3073
  294TMC3    H2 4490   0.756   0.360  12.085  0.3300 -1.7778  0.0515
  294TMC3    C7 4491   0.993   0.309  12.180  0.4521 -0.2421 -0.4094
  294TMC3    C8 4492   0.528   0.305  12.193 -0.3693  0.5443  0.0442
  294TMC3    O1 4493   1.058   0.205  12.210  0.0725 -0.4465  0.6291
  294TMC3    O2 4494   0.489   0.354  12.087  0.1993 -0.0017 -0.0454
  295MPD2     C 4495   1.610   2.582   0.598  0.1745  0.0006 -0.2309
  295MPD2    C1 4496   1.477   2.583   0.627  0.3485 -0.3370 -0.1690
  295MPD2    C2 4497   1.416   2.466   0.663 -0.7334  0.1188  0.5605
  295MPD2    C3 4498   1.491   2.350   0.661  0.1828  0.0135 -0.6927
  295MPD2    C4 4499   1.625   2.347   0.618 -0.1660  0.1456 -0.0058
  295MPD2    C5 4500   1.680   2.464   0.587  0.6551 -0.0916 -0.1080
  295MPD2     H 4501   1.308   2.464   0.667 -0.8470  1.6304 -1.6645
  295MPD2    H1 4502   1.673   2.253   0.592  1.1908  1.8152 -3.5786
  295MPD2    H2 4503   1.662   2.676   0.582 -1.2946  0.7648 -0.4342
  295MPD2    H3 4504   1.785   2.474   0.561  0.4695  0.0353 -0.7983
  295MPD2     N 4505   1.436   2.216   0.671  0.1407 -0.1550 -0.0680
  295MPD2    H5 4506   1.500   2.138   0.664  2.6242  1.9020 -0.3039
  295MPD2    N1 4507   1.396   2.702   0.632  0.1741  0.4592 -0.2292
  295MPD2    H7 4508   1.301   2.688   0.662  0.6653 -0.5001  0.8655
  296TMC3    C1 4509   1.285   2.043   0.756  0.0498  0.1088 -0.1544
  296TMC3    C2 4510   1.169   2.052   0.826 -0.4540  0.1541  0.6214
  296TMC3    C3 4511   1.161   1.991   0.940 -0.0546 -0.7109 -0.0597
  296TMC3    C4 4512   1.388   1.959   0.790 -0.3351 -0.0427 -0.3344
  296TMC3    C5 4513   1.352   1.868   0.888 -0.0488 -0.3705  0.3443
  296TMC3    C6 4514   1.253   1.891   0.980 -0.6705  0.1095 -0.1357
  296TMC3     C 4515   1.313   2.186   0.717  0.1526  0.1437 -0.4327
  296TMC3     O 4516   1.237   2.270   0.765 -0.2933  0.3197 -0.2652
  296TMC3     H 4517   1.085   2.102   0.779 -0.1242  1.4914  1.4562
  296TMC3    H1 4518   1.469   1.937   0.722  0.6893 -1.1819  1.2465
  296TMC3    H2 4519   1.243   1.834   1.072  1.2225 -1.2576 -0.7838
  296TMC3    C7 4520   1.449   1.763   0.917  0.0001 -0.0450  0.5575
  296TMC3    C8 4521   1.077   2.039   1.043  0.5450  0.0635 -0.6236
  296TMC3    O1 4522   1.563   1.767   0.869  0.7793  0.7730  0.6146
  296TMC3    O2 4523   1.084   1.968   1.144  0.1321  0.4067 -0.9208
  297MPD2     C 4524   2.969   0.105  16.531 -0.0366  0.2210  0.1599
  297MPD2    C1 4525   2.963   0.231  16.481 -0.1883 -0.0678 -0.0509
  297MPD2    C2 4526   3.081   0.288  16.431 -0.4999 -0.1268  0.3411
  297MPD2    C3 4527   3.197   0.213  16.419 -1.2721  0.2386 -0.3182
  297MPD2    C4 4528   3.204   0.087  16.475  0.0041  0.4821 -0.7333
  297MPD2    C5 4529   3.090   0.036  16.532  0.6729 -0.8008  0.0318
  297MPD2     H 4530   3.067   0.388  16.390 -1.6297  0.2293  1.5934
  297MPD2    H1 4531   3.300   0.040  16.492 -1.4943 -2.5237 -0.7371
  297MPD2    H2 4532   2.890   0.042  16.570  0.8690 -0.6182  0.6279
  297MPD2    H3 4533   3.099   4.673  16.578  0.8786 -0.0208  1.6558
  297MPD2     N 4534   3.310   0.277  16.363  0.0020  0.2496 -0.4136
  297MPD2    H5 4535   3.290   0.374  16.343  0.6518  0.5061  0.2098
  297MPD2    N1 4536   2.834   0.296  16.465 -0.0377 -0.0641  0.3725
  297MPD2    H7 4537   2.837   0.388  16.422 -1.5223 -0.5721 -0.8117
  298TMC3    C1 4538   2.602   0.343  16.454  0.1816  0.0923  0.2286
  298TMC3    C2 4539   2.622   0.385  16.328 -0.1599 -0.5334  0.2854
  298TMC3    C3 4540   2.539   0.472  16.275 -0.1730 -0.1287 -0.5681
  298TMC3    C4 4541   2.508   0.386  16.537  0.1743 -0.6331  0.3932
  298TMC3    C5 4542   2.432   0.481  16.480  0.9433 -0.1445  0.6498
  298TMC3    C6 4543   2.441   0.522  16.348 -0.3654  0.2782  0.6810
  298TMC3     C 4544   2.704   0.252  16.503 -0.1381  0.4193 -0.5855
  298TMC3     O 4545   2.671   0.161  16.582 -0.4262 -0.3885  0.0438
  298TMC3     H 4546   2.701   0.339  16.270  1.1596  0.8425  0.9800
  298TMC3    H1 4547   2.505   0.354  16.641  1.4377  1.4002  1.0521
  298TMC3    H2 4548   2.377   0.600  16.309 -1.2688  0.0343  1.6520
  298TMC3    C7 4549   2.333   0.544  16.565  0.4315 -0.4316  0.2485
  298TMC3    C8 4550   2.558   0.522  16.142 -0.4849 -0.4608  0.3891
  298TMC3    O1 4551   2.372   0.567  16.677 -0.0890 -0.2231 -0.0331
  298TMC3    O2 4552   2.515   0.637  16.117  0.1529  0.1542 -0.7068
  299MPD2     C 4553   4.063   0.065  10.986  0.2883  0.7584  0.2715
  299MPD2    C1 4554   4.099   0.149  10.884 -0.3758 -0.3075  0.1995
  299MPD2    C2 4555   4.045   0.122  10.758  0.4910 -0.6962  0.5796
  299MPD2    C3 4556   3.946   0.023  10.743  0.1966  0.1379  0.9231
  299MPD2    C4 4557   3.908   4.682  10.849  0.6659  0.0849  0.1257
  299MPD2    C5 4558   3.971   4.695  10.972  0.3259 -0.8382  0.0449
  299MPD2     H 4559   4.072   0.193  10.681 -0.5404 -0.4228  0.4754
  299MPD2    H1 4560   3.822   4.616  10.840  1.2278 -0.5331 -0.6431
  299MPD2    H2 4561   4.109   0.074  11.084  1.2467 -1.2726  0.0263
  299MPD2    H3 4562   3.934   4.639  11.057 -1.0539  0.5841  0.3836
  299MPD2     N 4563   3.878   4.725  10.626 -0.2666 -0.1114 -0.5243
  299MPD2    H5 4564   3.811   4.649  10.632  0.2422 -0.3996  1.4447
  299MPD2    N1 4565   4.196   0.248  10.906  0.7233 -0.0199 -0.3108
  299MPD2    H7 4566   4.226   0.246  11.003 -0.8536 -2.0020  0.1203
  300TMC3    C1 4567   3.797   0.007  10.404 -0.4938 -0.9284 -1.1914
  300TMC3    C2 4568   3.821   0.033  10.277  0.3185  0.1899  0.1405
  300TMC3    C3 4569   3.737   4.733  10.177 -0.0451 -0.4016  0.3215
  300TMC3    C4 4570   3.675   4.687  10.438 -0.5504  0.0983  0.1597
  300TMC3    C5 4571   3.597   4.636  10.335 -0.2347  0.3965 -0.4026
  300TMC3    C6 4572   3.630   4.649  10.206  0.7989 -0.1202  0.7761
  300TMC3     C 4573   3.894   0.054  10.501 -0.0508  0.4526 -0.1852
  300TMC3     O 4574   3.962   0.146  10.471  0.5267 -0.1969  0.0809
  300TMC3     H 4575   3.911   0.087  10.252  0.8204  0.2012  1.9454
  300TMC3    H1 4576   3.649   4.683  10.543 -1.0114 -0.4323  0.0251
  300TMC3    H2 4577   3.550   4.634  10.134  0.6168 -0.2562  1.0100
  300TMC3    C7 4578   3.459   4.594  10.368 -0.0568  0.3632 -0.2896
  300TMC3    C8 4579   3.719   0.087  10.066 -1.0186  0.3027 -0.1401
  300TMC3    O1 4580   3.405   4.512  10.294 -0.4380  0.3408  0.3217
  300TMC3    O2 4581   3.688   0.038   9.962 -0.2797 -0.3658 -0.0918
  301MPD2     C 4582   1.043   1.316   1.067  0.0627  0.4591  0.2629
  301MPD2    C1 4583   0.955   1.226   1.127 -0.1057  0.0726 -0.5980
  301MPD2    C2 4584   0.967   1.094   1.104  0.2870 -0.7325  0.3148
  301MPD2    C3 4585   1.061   1.041   1.020  0.3439 -1.2233 -0.0549
  301MPD2    C4 4586   1.144   1.127   0.954 -0.1417  0.1980  0.5000
  301MPD2    C5 4587   1.136   1.260   0.986 -0.4675  0.0126 -0.4908
  301MPD2     H 4588   0.883   1.031   1.131 -1.7274  1.9621  0.3433
  301MPD2    H1 4589   1.228   1.088   0.897 -1.5772 -1.8582 -0.2163
  301MPD2    H2 4590   1.041   1.423   1.085  0.0106  0.0119  2.9335
  301MPD2    H3 4591   1.220   1.318   0.951 -0.9087  1.2310  0.4903
  301MPD2     N 4592   1.058   0.903   0.995  0.4030 -0.3233 -0.2631
  301MPD2    H5 4593   1.120   0.874   0.920  0.8707 -2.9821  1.1674
  301MPD2    N1 4594   0.840   1.265   1.210  0.1708  0.2414  0.1982
  301MPD2    H7 4595   0.789   1.186   1.247  0.5780 -0.5735 -0.9799
  302TMC3    C1 4596   0.995   0.672   0.992 -0.3093 -0.1002 -0.1603
  302TMC3    C2 4597   0.979   0.564   1.073  0.9650  0.6445  0.2551
  302TMC3    C3 4598   0.942   0.442   1.025 -0.2699  0.1372 -0.4358
  302TMC3    C4 4599   0.963   0.658   0.856  0.0115 -0.8914  0.1101
  302TMC3    C5 4600   0.924   0.535   0.806 -0.3022  0.2457  0.1822
  302TMC3    C6 4601   0.923   0.427   0.891 -1.1736 -0.2433 -0.2425
  302TMC3     C 4602   0.988   0.804   1.059  0.1692 -0.1367 -0.3558
  302TMC3     O 4603   0.919   0.816   1.162 -0.1766  0.0469 -0.0446
  302TMC3     H 4604   0.982   0.582   1.180  1.7234  0.9744  0.1795
  302TMC3    H1 4605   0.969   0.743   0.788  1.8632 -1.3721 -0.3221
  302TMC3    H2 4606   0.884   0.335   0.848  2.9390 -1.3539 -1.6308
  302TMC3    C7 4607   0.864   0.522   0.673 -0.2315  0.4839 -0.5235
  302TMC3    C8 4608   0.978   0.325   1.106 -0.1638 -0.0973 -0.6959
  302TMC3    O1 4609   0.875   0.409   0.627 -0.1968 -0.3739  0.4391
  302TMC3    O2 4610   1.025   0.340   1.218  0.2574 -0.0847 -0.0799
  303MPD2     C 4611   1.475   0.044  10.552  0.0338  0.0295  0.0850
  303MPD2    C1 4612   1.369   0.026  10.464 -0.0231  0.0266  0.4203
  303MPD2    C2 4613   1.367   0.095  10.345 -0.2330  0.4034  0.1987
  303MPD2    C3 4614   1.476   0.171  10.309 -0.4331  0.4889  0.8136
  303MPD2    C4 4615   1.583   0.178  10.392  0.4825 -0.1358  0.0200
  303MPD2    C5 4616   1.588   0.111  10.509 -0.1010 -0.6597  0.4764
  303MPD2     H 4617   1.283   0.091  10.278  1.0015  1.9723 -1.4251
  303MPD2    H1 4618   1.680   0.222  10.370  0.3743  0.1408  0.0915
  303MPD2    H2 4619   1.469   4.730  10.649  1.1891  1.9227  1.1006
  303MPD2    H3 4620   1.677   0.114  10.571 -0.5309 -3.3517  1.2152
  303MPD2     N 4621   1.488   0.239  10.185 -0.1476 -0.6576  0.2786
  303MPD2    H5 4622   1.578   0.285  10.175 -0.9175  0.6821 -0.5041
  303MPD2    N1 4623   1.252   4.693  10.504 -0.2392  0.2730  0.2020
  303MPD2    H7 4624   1.235   4.662  10.599 -1.0579  2.7073  0.8562
  304TMC3    C1 4625   1.024   4.636  10.504 -0.4972  0.6146  0.7490
  304TMC3    C2 4626   1.021   4.678  10.629 -0.4962 -0.8296 -0.2467
  304TMC3    C3 4627   0.899   4.704  10.681  0.1534  0.6041  0.5541
  304TMC3    C4 4628   0.917   4.593  10.432 -0.7279  0.3834 -0.2133
  304TMC3    C5 4629   0.793   4.597  10.491  0.4600 -0.2872  0.2075
  304TMC3    C6 4630   0.791   4.647  10.617  0.3826 -0.0267  0.6698
  304TMC3     C 4631   1.148   4.653  10.428 -0.0324  0.0170 -0.1242
  304TMC3     O 4632   1.146   4.648  10.303 -0.0182  0.1716  0.0457
  304TMC3     H 4633   1.104   4.718  10.686 -0.1169 -0.9002 -0.7446
  304TMC3    H1 4634   0.931   4.563  10.329 -1.6312 -0.2472 -0.1540
  304TMC3    H2 4635   0.696   4.646  10.669  1.3992 -0.1792  2.5169
  304TMC3    C7 4636   0.681   4.638  10.412 -0.2305 -0.4718  0.6976
  304TMC3    C8 4637   0.890   0.112  10.698  0.5937  0.0055  0.8809
  304TMC3    O1 4638   0.609   4.723  10.469 -0.1141  0.6234  0.3404
  304TMC3    O2 4639   0.992   0.174  10.725  0.3373  0.4054 -0.2763
  305MPD2     C 4640   4.234   1.536  14.029  0.0627  0.2516  0.4827
  305MPD2    C1 4641   4.348   1.458  14.057 -1.1998 -0.5023 -0.0560
  305MPD2    C2 4642   4.399   1.375  13.954  0.3227 -0.3184 -0.0403
  305MPD2    C3 4643   4.341   1.377  13.825 -0.4683 -0.3743 -0.1010
  305MPD2    C4 4644   4.227   1.453  13.804 -0.0317  0.8614 -0.9640
  305MPD2    C5 4645   4.177   1.538  13.903 -0.1808 -0.2728  0.4326
  305MPD2     H 4646   4.494   1.324  13.967  0.8497  0.4462 -0.9117
  305MPD2    H1 4647   4.187   1.449  13.704  0.8338  1.4627 -1.3355
  305MPD2    H2 4648   4.201   1.604  14.107  1.8780 -0.3669  1.7978
  305MPD2    H3 4649   4.098   1.611  13.886 -0.4371 -0.9087 -1.0545
  305MPD2     N 4650   4.397   1.308  13.711 -0.0381  0.1394 -0.1477
  305MPD2    H5 4651   4.335   1.326  13.633 -1.8634 -2.8538  0.6108
  305MPD2    N1 4652   4.405   1.476  14.189  0.0748 -0.7061 -1.0105
  305MPD2    H7 4653   4.356   1.538  14.253  1.6775 -0.6383  0.1576
  306TMC3    C1 4654   4.544   1.449  14.371 -0.8711 -0.1957  0.7191
  306TMC3    C2 4655   4.607   1.352  14.448 -0.1147 -0.0046 -0.0457
  306TMC3    C3 4656   4.696   1.398  14.543 -0.1742  0.1902 -0.0143
  306TMC3    C4 4657   4.546   1.586  14.397 -0.2801 -0.2030  0.3340
  306TMC3    C5 4658   4.643   1.631  14.491  0.3884 -0.0283  0.3032
  306TMC3    C6 4659   4.710   1.532  14.565 -0.5186 -0.4988  0.4606
  306TMC3     C 4660   4.508   1.405  14.240 -1.2784 -0.1317 -0.1776
  306TMC3     O 4661   4.548   1.300  14.198  0.8173  0.1295 -0.1944
  306TMC3     H 4662   4.579   1.250  14.423 -1.8376  0.4013  0.2275
  306TMC3    H1 4663   4.500   1.656  14.328 -2.0269 -2.1651 -0.4947
  306TMC3    H2 4664   0.042   1.576  14.638  0.4212 -2.8075  0.9729
  306TMC3    C7 4665   4.687   1.768  14.492  0.0178  0.3256  0.3703
  306TMC3    C8 4666   0.059   1.302  14.598  0.0025 -0.1725  0.0480
  306TMC3    O1 4667   4.707   1.823  14.386  0.2410 -0.1838 -0.5342
  306TMC3    O2 4668   0.048   1.191  14.550 -0.3279  0.1133 -0.0486
  307MPD2     C 4669   2.041   4.171   0.582  0.0742 -0.8458  0.7955
  307MPD2    C1 4670   2.025   4.309   0.556 -0.5854  0.1943  0.0275
  307MPD2    C2 4671   1.954   4.394   0.645 -0.1054  0.3544  0.2929
  307MPD2    C3 4672   1.917   4.340   0.771 -0.5430  0.0779  0.2490
  307MPD2    C4 4673   1.939   4.205   0.794  0.0709 -0.4281  0.3177
  307MPD2    C5 4674   2.004   4.124   0.707 -0.4617  0.4781 -0.5617
  307MPD2     H 4675   1.933   4.496   0.617  2.1899  0.3735 -1.3453
  307MPD2    H1 4676   1.908   4.165   0.890  0.3244 -0.0477  0.5604
  307MPD2    H2 4677   2.086   4.095   0.519 -0.5619 -0.9031  0.4091
  307MPD2    H3 4678   2.023   4.019   0.728  1.2336  0.4005 -2.3869
  307MPD2     N 4679   1.846   4.429   0.853  0.3427 -0.4257  0.3878
  307MPD2    H5 4680   1.816   4.519   0.815 -1.2700 -1.0660  0.1360
  307MPD2    N1 4681   2.063   4.360   0.429 -0.0257  0.0591 -0.4509
  307MPD2    H7 4682   2.046   4.459   0.412 -2.2424 -0.2413 -0.0393
  308TMC3    C1 4683   1.455   4.507   1.015  0.4989  0.2645 -0.3088
  308TMC3    C2 4684   1.463   4.644   0.983 -0.3696  0.4833  0.6356
  308TMC3    C3 4685   1.588   4.695   0.965 -0.2509 -0.7604  1.3232
  308TMC3    C4 4686   1.564   4.425   1.033  0.5155  0.2716 -1.0614
  308TMC3    C5 4687   1.684   4.485   1.025 -0.0952  0.5752  0.3248
  308TMC3    C6 4688   1.697   4.614   0.987 -0.7204  1.0241 -0.0539
  308TMC3     C 4689   1.329   4.438   0.992  0.1969  0.0166 -0.0112
  308TMC3     O 4690   1.344   4.317   0.987 -0.6404 -0.3491 -0.3988
  308TMC3     H 4691   1.377   4.709   0.981 -1.8164 -1.3755  1.4308
  308TMC3    H1 4692   1.561   4.321   1.064 -1.9455  0.1754 -1.6189
  308TMC3    H2 4693   1.799   4.651   0.994 -1.3315  2.6802  0.1388
  308TMC3    C7 4694   1.794   4.398   0.977  0.1416 -0.1894 -0.2212
  308TMC3    C8 4695   1.601   0.105   0.990 -0.3381 -0.9303  0.6883
  308TMC3    O1 4696   1.807   4.291   1.036  0.0160 -0.2572 -0.8227
  308TMC3    O2 4697   1.503   0.161   1.035  0.9275  0.7790 -0.1877
  309MPD2     C 4698   1.182   4.685  17.183  0.0801 -0.2960  0.0254
  309MPD2    C1 4699   1.138   0.046  17.094 -0.0004 -0.2797 -0.0054
  309MPD2    C2 4700   1.001   0.091  17.090  0.1326  0.0311  0.3558
  309MPD2    C3 4701   0.918   0.055  17.190 -0.2061  0.5313  0.0960
  309MPD2    C4 4702   0.966   4.702  17.284  0.6668  0.5670 -0.7510
  309MPD2    C5 4703   1.093   4.650  17.275  0.5822 -0.2593 -0.5663
  309MPD2     H 4704   0.956   0.154  17.014 -0.3289 -1.5947 -0.7158
  309MPD2    H1 4705   0.906   4.648  17.356  1.4337  0.1309 -0.4323
  309MPD2    H2 4706   1.281   4.646  17.199 -0.3031 -1.0962  0.4601
  309MPD2    H3 4707   1.125   4.566  17.335  0.6706 -0.5610 -1.0334
  309MPD2     N 4708   0.784   0.095  17.196  0.5311 -0.4521  0.3558
  309MPD2    H5 4709   0.735   0.064  17.279 -3.7398  1.0735 -1.5819
  309MPD2    N1 4710   1.223   0.108  17.004  0.4234  1.0787 -0.4612
  309MPD2    H7 4711   1.174   0.184  16.959 -2.4659 -0.7523 -0.4079
  310TMC3    C1 4712   1.431   0.176  16.897 -0.0958 -0.3289 -0.4584
  310TMC3    C2 4713   1.362   0.280  16.831  0.7336  0.6515 -0.8363
  310TMC3    C3 4714   1.433   0.343  16.731  0.1418  0.2548  0.1008
  310TMC3    C4 4715   1.555   0.137  16.861  0.3494  0.1373  0.3712
  310TMC3    C5 4716   1.620   0.199  16.758  0.0605 -0.4305 -0.5267
  310TMC3    C6 4717   1.565   0.304  16.695 -0.3470  0.0670 -0.7633
  310TMC3     C 4718   1.364   0.087  16.993  0.8008  0.6379  0.2542
  310TMC3     O 4719   1.434   0.007  17.054 -0.5112  0.5411 -0.0675
  310TMC3     H 4720   1.264   0.321  16.858  0.6778 -0.6716  0.9652
  310TMC3    H1 4721   1.605   0.057  16.916 -0.3455 -0.1186  0.6336
  310TMC3    H2 4722   1.611   0.350  16.609 -0.3640 -1.2233 -1.4491
  310TMC3    C7 4723   1.696   0.101  16.681  0.6151 -0.6854 -0.4126
  310TMC3    C8 4724   1.352   0.404  16.630 -0.5622 -0.0313  0.4802
  310TMC3    O1 4725   1.701   4.724  16.727  0.2319  0.1573 -0.1880
  310TMC3    O2 4726   1.230   0.392  16.638 -0.2804  0.2659  0.3625
  311MPD2     C 4727   3.055   1.647  12.541 -0.3709 -0.3388 -0.4216
  311MPD2    C1 4728   3.164   1.586  12.599 -0.1346  0.6237  0.2936
  311MPD2    C2 4729   3.166   1.448  12.601 -0.5278  0.2468  0.0214
  311MPD2    C3 4730   3.055   1.371  12.556  0.2533  0.2814  0.1234
  311MPD2    C4 4731   2.957   1.437  12.495  0.3297 -0.0298  0.0128
  311MPD2    C5 4732   2.953   1.570  12.494  0.9101 -0.1688  0.0961
  311MPD2     H 4733   3.243   1.395  12.656 -0.7946  0.5871  0.7270
  311MPD2    H1 4734   2.878   1.380  12.446  0.4368  0.0257 -0.2264
  311MPD2    H2 4735   3.054   1.755  12.531 -0.9122 -0.1341  1.8531
  311MPD2    H3 4736   2.868   1.620  12.450  1.6503  0.6743 -0.3904
  311MPD2     N 4737   3.055   1.232  12.573  0.1595  0.0463 -0.7166
  311MPD2    H5 4738   3.146   1.199  12.602  0.0045  0.1574 -0.1053
  311MPD2    N1 4739   3.275   1.665  12.656  0.2302  0.8388 -0.3258
  311MPD2    H7 4740   3.348   1.602  12.687 -1.2136  0.1572  1.7644
  312TMC3    C1 4741   2.976   1.009  12.585 -0.5994  0.2645 -0.6901
  312TMC3    C2 4742   2.886   0.921  12.542  0.4791 -0.7302  0.2933
  312TMC3    C3 4743   2.836   0.823  12.630 -0.3079 -0.7137 -0.0215
  312TMC3    C4 4744   3.028   0.990  12.710  0.4705 -0.3177  0.3385
  312TMC3    C5 4745   2.980   0.892  12.797  0.2272 -0.6905 -0.5627
  312TMC3    C6 4746   2.889   0.802  12.755  0.3585 -0.7782 -0.6802
  312TMC3     C 4747   2.948   1.147  12.555  0.6011 -0.0506  0.2537
  312TMC3     O 4748   2.843   1.165  12.498  0.4241 -0.1215 -0.1459
  312TMC3     H 4749   2.837   0.931  12.446 -0.7868 -2.9313  0.7177
  312TMC3    H1 4750   3.113   1.047  12.746 -1.2211  0.4727  3.1692
  312TMC3    H2 4751   2.857   0.712  12.806 -1.9562  0.9068  0.8444
  312TMC3    C7 4752   3.052   0.858  12.920 -0.5339 -0.2484  0.5893
  312TMC3    C8 4753   2.741   0.726  12.586 -0.3437 -0.2329 -0.2363
  312TMC3    O1 4754   3.023   0.749  12.966 -1.1056 -0.5060  0.4764
  312TMC3    O2 4755   2.689   0.659  12.670  0.3998 -0.6995  0.5612
  313MPD2     C 4756   2.836   0.358  10.445 -0.0193 -0.1880  0.3382
  313MPD2    C1 4757   2.896   0.483  10.443 -0.0985 -0.0914 -0.0103
  313MPD2    C2 4758   3.019   0.493  10.388  0.7763 -0.3318 -0.1298
  313MPD2    C3 4759   3.092   0.385  10.348 -0.2460  0.1545 -0.0733
  313MPD2    C4 4760   3.045   0.252  10.375  0.3750  0.4282 -0.0788
  313MPD2    C5 4761   2.910   0.241  10.411  0.0968 -0.9886  0.0374
  313MPD2     H 4762   3.061   0.592  10.378  0.9859 -0.2668  1.3205
  313MPD2    H1 4763   3.098   0.161  10.346  0.1928  0.0406  0.8049
  313MPD2    H2 4764   2.737   0.349  10.489 -0.0285  1.0886  0.5856
  313MPD2    H3 4765   2.865   0.144  10.429  0.6894 -0.7995  2.4612
  313MPD2     N 4766   3.203   0.417  10.278 -0.7449 -0.4763  0.5655
  313MPD2    H5 4767   3.208   0.506  10.229 -1.6935 -0.3998  0.6126
  313MPD2    N1 4768   2.838   0.602  10.500 -0.2698  0.0020 -0.2769
  313MPD2    H7 4769   2.883   0.690  10.475 -3.3760  2.0873  1.4273
  314TMC3    C1 4770   2.706   0.755  10.619  0.1738 -0.2106 -0.5830
  314TMC3    C2 4771   2.813   0.840  10.646 -0.9416  0.2956  0.1951
  314TMC3    C3 4772   2.776   0.959  10.718 -0.1293 -0.5710 -0.1567
  314TMC3    C4 4773   2.575   0.790  10.625 -0.9072  0.4774 -0.0324
  314TMC3    C5 4774   2.545   0.912  10.687  0.0486 -0.3354  0.0847
  314TMC3    C6 4775   2.647   0.997  10.728 -0.0958  0.3027 -0.6038
  314TMC3     C 4776   2.729   0.614  10.575  0.4121 -0.5351  0.9696
  314TMC3     O 4777   2.650   0.530  10.618  0.1772 -0.0896 -0.0167
  314TMC3     H 4778   2.918   0.812  10.649 -0.2506  2.7821 -1.3006
  314TMC3    H1 4779   2.491   0.729  10.594 -1.3398  1.8051 -1.4956
  314TMC3    H2 4780   2.612   1.092  10.766  0.6485  1.1417 -2.0189
  314TMC3    C7 4781   2.420   0.978  10.653 -0.6591  0.1807  0.7566
  314TMC3    C8 4782   2.879   1.029  10.789  0.3210 -0.2066 -0.0048
  314TMC3    O1 4783   2.311   0.938  10.688 -0.6953 -0.2964 -0.4292
  314TMC3    O2 4784   2.982   1.058  10.729  0.3625  0.1531  0.1276
  315MPD2     C 4785   2.374   4.429  17.584 -0.1986 -0.1172 -0.2400
  315MPD2    C1 4786   2.411   4.430  17.718  0.4592  0.1124  0.2002
  315MPD2    C2 4787   2.430   4.546   0.042  0.6186 -0.1143 -0.5127
  315MPD2    C3 4788   2.410   4.669  17.717 -0.2947 -0.7351  0.7737
  315MPD2    C4 4789   2.360   4.672  17.585 -0.0254 -0.2812 -0.3058
  315MPD2    C5 4790   2.355   4.554  17.520  0.8270  0.4352 -0.4437
  315MPD2     H 4791   2.470   4.538   0.143  2.8305 -0.1620 -1.3891
  315MPD2    H1 4792   2.351   0.026  17.525 -2.4740  1.1409  2.1384
  315MPD2    H2 4793   2.365   4.345  17.517 -0.3061 -1.0982  0.9937
  315MPD2    H3 4794   2.339   4.550  17.413 -0.6368 -0.1376 -0.1993
  315MPD2     N 4795   2.421   0.050   0.062 -0.1781 -0.2661 -0.6279
  315MPD2    H5 4796   2.444   0.033   0.159 -2.2682  1.5662  0.2097
  315MPD2    N1 4797   2.441   4.307   0.052 -0.4556 -0.3275  0.4327
  315MPD2    H7 4798   2.481   4.314   0.145  1.8880 -1.2613 -0.4958
  316TMC3    C1 4799   2.412   0.279   0.122 -0.2342 -0.3249 -0.0363
  316TMC3    C2 4800   2.489   0.251   0.229  0.3319  0.0209 -0.5679
  316TMC3    C3 4801   2.507   0.360   0.314  0.1769  0.3751  0.6914
  316TMC3    C4 4802   2.354   0.403   0.092  0.1317  0.5251 -0.5385
  316TMC3    C5 4803   2.372   0.504   0.183  0.2613 -0.0358 -0.7599
  316TMC3    C6 4804   2.445   0.479   0.293  0.2047  0.3752 -0.5343
  316TMC3     C 4805   2.393   0.183   0.019  0.2780  0.2571  0.2146
  316TMC3     O 4806   2.371   0.220  17.642  0.1668 -0.7262  0.4150
  316TMC3     H 4807   2.512   0.149   0.256  0.3439 -0.0985 -1.0261
  316TMC3    H1 4808   2.302   0.415  17.735 -0.6115  1.6768  0.0234
  316TMC3    H2 4809   2.451   0.567   0.357 -1.7390  1.4931 -1.8809
  316TMC3    C7 4810   2.285   0.618   0.172 -0.1667  0.9459  0.6260
  316TMC3    C8 4811   2.590   0.343   0.430 -0.4239  0.1325  0.4554
  316TMC3    O1 4812   2.267   0.672   0.282 -0.1752 -0.0736 -0.1263
  316TMC3    O2 4813   2.587   0.435   0.510  0.0987  0.1930 -0.0437
  317MPD2     C 4814   0.024   3.376  13.164  1.3791  0.0181  0.2312
  317MPD2    C1 4815   0.140   3.338  13.096  0.4623 -0.6823 -0.2084
  317MPD2    C2 4816   0.192   3.215  13.126  0.2459 -0.1708 -0.5598
  317MPD2    C3 4817   0.143   3.144  13.236  0.0542 -0.0867 -0.6105
  317MPD2    C4 4818   0.035   3.189  13.309 -0.0987  0.0023 -0.1508
  317MPD2    C5 4819   4.708   3.304  13.268 -0.6903  0.2830  0.0438
  317MPD2     H 4820   0.263   3.171  13.058  0.9952 -0.2843  0.2845
  317MPD2    H1 4821   4.734   3.138  13.397 -0.3616 -0.5419 -0.5759
  317MPD2    H2 4822   4.726   3.477  13.143 -1.1542 -1.1719 -1.4825
  317MPD2    H3 4823   4.616   3.335  13.316 -0.1075  2.6343 -0.3801
  317MPD2     N 4824   0.205   3.012  13.255 -0.7630 -0.4417 -0.2296
  317MPD2    H5 4825   0.268   2.968  13.189 -0.0934 -0.6880  0.5683
  317MPD2    N1 4826   0.189   3.401  12.984 -0.2503 -0.1942  0.4780
  317MPD2    H7 4827   0.275   3.367  12.944 -0.5424 -1.7375  1.1444
  318TMC3    C1 4828   0.253   2.816  13.396  0.6734 -0.5649  0.0844
  318TMC3    C2 4829   0.219   2.730  13.300  0.0465 -0.1511  0.2435
  318TMC3    C3 4830   0.233   2.597  13.325  0.3374  0.2762  0.4394
  318TMC3    C4 4831   0.305   2.777  13.518  0.2904  0.1226 -0.8021
  318TMC3    C5 4832   0.329   2.647  13.540 -0.1703  0.2845  0.0153
  318TMC3    C6 4833   0.294   2.557  13.443  0.3091  0.6106 -0.0587
  318TMC3     C 4834   0.212   2.956  13.382  0.5039 -0.3522 -0.2901
  318TMC3     O 4835   0.185   3.015  13.488 -0.5515  0.1538  0.4945
  318TMC3     H 4836   0.183   2.768  13.204 -1.6150 -0.6764  0.6597
  318TMC3    H1 4837   0.323   2.854  13.592  2.2366 -1.0020 -0.0917
  318TMC3    H2 4838   0.321   2.453  13.452  1.4309  1.0850  2.0667
  318TMC3    C7 4839   0.425   2.611  13.646  0.3987 -0.1617  0.7086
  318TMC3    C8 4840   0.153   2.504  13.252 -0.3625  0.0901  0.8395
  318TMC3    O1 4841   0.459   2.488  13.641 -0.2062  0.2771  0.2461
  318TMC3    O2 4842   0.178   2.384  13.271 -0.0784  0.2746  0.2554
  319MPD2     C 4843   0.651   4.328  16.696 -0.2519 -0.2250 -0.7694
  319MPD2    C1 4844   0.564   4.255  16.779  0.1579 -0.0263  0.3181
  319MPD2    C2 4845   0.476   4.175  16.706  0.2685 -0.7564  0.4119
  319MPD2    C3 4846   0.461   4.187  16.568 -0.6280 -1.5772 -0.8394
  319MPD2    C4 4847   0.553   4.253  16.497  0.3622  0.3302  0.3161
  319MPD2    C5 4848   0.648   4.325  16.561 -0.3970 -0.2952  0.7984
  319MPD2     H 4849   0.393   4.135  16.764 -0.4506  1.4770  0.9283
  319MPD2    H1 4850   0.553   4.253  16.389 -0.7241 -1.6569  0.3118
  319MPD2    H2 4851   0.718   4.405  16.734  1.2593 -2.1343  0.4155
  319MPD2    H3 4852   0.711   4.399  16.514  0.5651 -1.0056  0.9879
  319MPD2     N 4853   0.349   4.146  16.488  0.0489 -0.6624 -0.3272
  319MPD2    H5 4854   0.350   4.186  16.394 -0.0107 -0.3467 -0.1934
  319MPD2    N1 4855   0.558   4.265  16.916  0.7796  0.0746  1.1551
  319MPD2    H7 4856   0.481   4.219  16.963  0.5767  0.4974  1.2329
  320TMC3    C1 4857   0.148   4.037  16.433 -0.3496 -0.6148  0.4104
  320TMC3    C2 4858   0.142   4.111  16.313 -0.0109 -0.3869  0.1147
  320TMC3    C3 4859   0.037   4.073  16.231  0.1896  0.3054  0.6521
  320TMC3    C4 4860   0.070   3.922  16.457 -0.5209 -0.2671  0.7022
  320TMC3    C5 4861   4.703   3.886  16.368 -0.0353 -0.1847 -0.7324
  320TMC3    C6 4862   4.693   3.962  16.251 -0.3086 -0.3988  0.0559
  320TMC3     C 4863   0.248   4.064  16.529  0.2926 -0.3611 -1.0681
  320TMC3     O 4864   0.255   4.005  16.635 -0.5407 -0.3265  0.0439
  320TMC3     H 4865   0.184   4.211  16.309 -1.7936  0.3834  0.5795
  320TMC3    H1 4866   0.082   3.874  16.553 -2.3941  1.8384  1.9876
  320TMC3    H2 4867   4.619   3.935  16.176 -0.9293  0.5763  0.3291
  320TMC3    C7 4868   4.702   3.746  16.333  0.3743  0.1318  0.0396
  320TMC3    C8 4869   0.010   4.169  16.125  0.5047 -0.1317  0.3857
  320TMC3    O1 4870   4.705   3.723  16.212 -0.3880 -0.1767  0.9150
  320TMC3    O2 4871   0.063   4.279  16.136 -0.0260  0.0421  0.4308
  321TMC3    C1 4872   0.589   4.370  17.134  0.0951  0.6117 -0.2501
  321TMC3    C2 4873   0.546   4.247  17.181  0.4269  0.0627  0.0040
  321TMC3    C3 4874   0.509   4.249  17.311 -0.3960 -0.3452  0.6947
  321TMC3    C4 4875   0.597   4.488  17.198 -0.3667  0.1029  0.0399
  321TMC3    C5 4876   0.555   4.488  17.329  0.4570 -0.1218  0.1398
  321TMC3    C6 4877   0.514   4.367  17.381  0.5653 -0.0174 -0.0078
  321TMC3     C 4878   0.635   4.361  16.990 -0.3777 -1.0635 -0.5866
  321TMC3     O 4879   0.714   4.443  16.949  0.2666 -0.4586 -0.2901
  321TMC3     H 4880   0.573   4.153  17.136 -0.3032  0.3625 -1.0593
  321TMC3    H1 4881   0.624   4.578  17.145  1.6062 -1.3678 -1.4311
  321TMC3    H2 4882   0.479   4.367  17.483 -0.7545 -1.7734 -0.4560
  321TMC3    C7 4883   0.639   4.565  17.419 -0.0133 -0.1244  0.1660
  321TMC3    C8 4884   0.559   4.140  17.395  0.4518 -0.5479  0.0403
  321TMC3    O1 4885   0.651   4.682  17.407 -0.0996  0.1231 -0.1345
  321TMC3    O2 4886   0.615   4.189  17.489  0.4098  0.3034 -0.6342
  322MPD2     C 4887   4.257   0.968  13.709 -1.1276  0.3456  0.7469
  322MPD2    C1 4888   4.344   0.895  13.784 -0.2268  0.3015  0.4272
  322MPD2    C2 4889   4.391   0.772  13.736 -0.1938  0.2964  0.4340
  322MPD2    C3 4890   4.369   0.745  13.599  0.0575  0.4079  0.1789
  322MPD2    C4 4891   4.297   0.837  13.515  0.0752 -0.8159  0.1098
  322MPD2    C5 4892   4.243   0.943  13.578 -0.5124  0.4404 -0.4706
  322MPD2     H 4893   4.443   0.704  13.803 -0.0767 -1.1409 -1.1088
  322MPD2    H1 4894   4.287   0.818  13.409  0.7333  1.9652 -0.4451
  322MPD2    H2 4895   4.217   1.059  13.753 -2.4054  0.7142 -1.1614
  322MPD2    H3 4896   4.183   1.014  13.522  0.7571  1.2737 -0.7757
  322MPD2     N 4897   4.414   0.623  13.553  0.3644 -0.4004  0.5012
  322MPD2    H5 4898   4.489   0.581  13.606  1.9224  0.7983 -0.7709
  322MPD2    N1 4899   4.373   0.949  13.917 -0.0055 -0.2519 -0.1061
  322MPD2    H7 4900   4.348   1.047  13.931 -0.7603 -0.5603  0.7687
  323TMC3    C1 4901   4.485   0.959  14.127  0.2438  0.1578  0.0383
  323TMC3    C2 4902   4.596   1.020  14.090 -0.6194  0.3852  0.6442
  323TMC3    C3 4903   4.704   1.046  14.177  0.8109  0.5689  0.5666
  323TMC3    C4 4904   4.480   0.903  14.253  0.1781  0.7904 -0.1797
  323TMC3    C5 4905   4.576   0.941  14.344  0.3322  0.0376  0.8089
  323TMC3    C6 4906   4.691   1.011  14.309 -0.0226  0.3307  0.5016
  323TMC3     C 4907   4.421   0.879  14.025  0.9315 -0.7369 -0.2697
  323TMC3     O 4908   4.436   0.757  14.029  0.2155 -0.0547 -0.5050
  323TMC3     H 4909   4.610   1.056  13.988  1.1711 -2.4261 -0.0782
  323TMC3    H1 4910   4.407   0.823  14.265  2.7566 -1.5011  0.2144
  323TMC3    H2 4911   0.045   1.010  14.371  1.4785  1.0650 -1.6231
  323TMC3    C7 4912   4.586   0.858  14.458 -0.0777  0.2341 -0.0927
  323TMC3    C8 4913   0.100   1.073  14.125  0.2075 -0.2974  0.6892
  323TMC3    O1 4914   4.516   0.757  14.476 -0.6251  0.3535 -0.2082
  323TMC3    O2 4915   0.202   1.048  14.189 -0.4762  1.1220  0.2877
  324MPD2     C 4916   1.382   1.618  14.647  0.7285 -0.2242 -0.0465
  324MPD2    C1 4917   1.436   1.724  14.573 -0.1684  0.4954 -0.2909
  324MPD2    C2 4918   1.345   1.808  14.511  0.0084  0.0803 -0.7851
  324MPD2    C3 4919   1.206   1.789  14.520 -0.0386  0.2400 -0.3030
  324MPD2    C4 4920   1.164   1.685  14.599  0.2483 -0.4005 -0.2781
  324MPD2    C5 4921   1.252   1.596  14.661 -0.2825 -0.0392  0.3757
  324MPD2     H 4922   1.390   1.890  14.455  2.4535 -0.0029  1.0601
  324MPD2    H1 4923   1.065   1.655  14.631  0.9681 -1.1036  1.3148
  324MPD2    H2 4924   1.443   1.549  14.704 -0.2501 -0.0019  1.2696
  324MPD2    H3 4925   1.211   1.513  14.716 -1.0928  1.5921  2.2166
  324MPD2     N 4926   1.111   1.877  14.460  0.4217  0.0089 -0.1696
  324MPD2    H5 4927   1.017   1.880  14.497  0.9758 -1.8762  1.4243
  324MPD2    N1 4928   1.573   1.756  14.555  0.4650 -0.1579  0.2879
  324MPD2    H7 4929   1.601   1.831  14.493  1.4237 -1.6522 -1.0971
  325TMC3    C1 4930   1.011   2.055  14.355  0.3261 -0.7038 -0.3653
  325TMC3    C2 4931   0.901   1.978  14.342 -0.4185 -0.2910 -0.0509
  325TMC3    C3 4932   0.775   2.032  14.345 -0.3391 -0.5201  1.3333
  325TMC3    C4 4933   1.003   2.193  14.370 -0.2855  0.1070  0.4115
  325TMC3    C5 4934   0.876   2.247  14.374 -0.7398 -0.7532 -0.6290
  325TMC3    C6 4935   0.766   2.169  14.356 -0.1768  0.7748  0.8331
  325TMC3     C 4936   1.134   1.987  14.382  0.3375  0.0748 -0.2954
  325TMC3     O 4937   1.239   2.046  14.356 -0.4044  0.3043 -0.9462
  325TMC3     H 4938   0.909   1.870  14.342  2.1144 -0.1091 -0.0077
  325TMC3    H1 4939   1.095   2.249  14.374  0.2792 -0.9485  2.2508
  325TMC3    H2 4940   0.671   2.213  14.386  0.7276  2.1463  1.6832
  325TMC3    C7 4941   0.879   2.393  14.386  0.3294  0.5670 -0.6052
  325TMC3    C8 4942   0.694   1.975  14.246  0.4669 -0.1913  0.2680
  325TMC3    O1 4943   0.972   2.456  14.442  0.2498  0.0185 -0.0754
  325TMC3    O2 4944   0.750   1.896  14.175 -0.1264 -0.3750  0.1495
  326MPD2     C 4945   2.569   3.597  11.056  0.2247 -0.3708 -0.3894
  326MPD2    C1 4946   2.620   3.478  10.998 -0.3123 -0.3994  0.6406
  326MPD2    C2 4947   2.746   3.428  11.034 -0.1665 -0.2793 -0.1057
  326MPD2    C3 4948   2.832   3.508  11.109 -0.2169 -0.0271  0.3826
  326MPD2    C4 4949   2.787   3.629  11.159  0.9122  0.0091  0.2449
  326MPD2    C5 4950   2.653   3.662  11.139 -0.4079  0.6031 -0.5620
  326MPD2     H 4951   2.778   3.339  10.982 -1.3066 -0.8928  0.2469
  326MPD2    H1 4952   2.841   3.689  11.231 -1.7457  1.5241  0.9618
  326MPD2    H2 4953   2.473   3.646  11.046 -0.3450 -1.0928  1.3981
  326MPD2    H3 4954   2.609   3.743  11.197 -0.4868  0.7578 -0.8383
  326MPD2     N 4955   2.972   3.485  11.118 -0.5168 -0.0925  0.1049
  326MPD2    H5 4956   3.025   3.553  11.171 -0.2950  0.5302 -0.9198
  326MPD2    N1 4957   2.541   3.396  10.916 -0.0194  0.6825 -0.1518
  326MPD2    H7 4958   2.575   3.301  10.909 -2.2358  0.0175 -1.6558
  327TMC3    C1 4959   2.325   3.317  10.872 -0.1821  0.5302  0.6253
  327TMC3    C2 4960   2.197   3.343  10.913 -0.4268  0.4669 -0.5191
  327TMC3    C3 4961   2.110   3.235  10.922  0.7895 -0.1722  0.4713
  327TMC3    C4 4962   2.376   3.194  10.854 -0.5419 -0.1902  0.2960
  327TMC3    C5 4963   2.287   3.092  10.869  0.1132  0.1367 -0.4607
  327TMC3    C6 4964   2.157   3.107  10.911  0.0127 -0.2160 -0.1807
  327TMC3     C 4965   2.415   3.432  10.872  0.1965 -0.3452  0.2073
  327TMC3     O 4966   2.365   3.543  10.872 -0.3142  0.2593  0.3326
  327TMC3     H 4967   2.167   3.446  10.931  1.8813  1.2505 -1.0937
  327TMC3    H1 4968   2.468   3.178  10.798  0.0550 -1.0868  1.5115
  327TMC3    H2 4969   2.088   3.028  10.937  0.1732  0.3467  1.8873
  327TMC3    C7 4970   2.338   2.953  10.872  0.0445 -0.0353 -0.6241
  327TMC3    C8 4971   1.978   3.271  10.873  0.1091 -0.5824 -0.3570
  327TMC3    O1 4972   2.257   2.861  10.856 -0.4799  0.1206  0.3652
  327TMC3    O2 4973   1.951   3.393  10.878 -0.0624 -0.1090  0.5562
  328MPD2     C 4974   0.111   3.037  17.391 -0.6732  1.3165 -0.0544
  328MPD2    C1 4975   0.083   2.992  17.264  0.0474 -0.5628 -0.3297
  328MPD2    C2 4976   0.069   3.083  17.158 -0.1632  0.6387  0.5861
  328MPD2    C3 4977   0.094   3.218  17.177  0.4630  0.5416 -0.3590
  328MPD2    C4 4978   0.126   3.257  17.303 -0.8901  0.5882 -0.3040
  328MPD2    C5 4979   0.129   3.172  17.407 -0.9436  0.1357  0.1296
  328MPD2     H 4980   0.037   3.043  17.063  0.0261 -1.2232  1.2980
  328MPD2    H1 4981   0.159   3.357  17.328  0.3727  0.0329  0.2281
  328MPD2    H2 4982   0.098   2.984  17.484  0.4854  0.3975 -0.4175
  328MPD2    H3 4983   0.162   3.212  17.502  0.3628  2.0031 -1.1091
  328MPD2     N 4984   0.058   3.317  17.083 -0.1309 -0.6405  0.2060
  328MPD2    H5 4985   0.047   3.414  17.110  2.2937 -0.2477 -0.2116
  328MPD2    N1 4986   0.044   2.857  17.257  0.3158  0.2268  0.4159
  328MPD2    H7 4987   0.034   2.808  17.345  0.6323 -0.1409  0.2459
  329TMC3    C1 4988   4.674   2.669  17.144 -1.1458  0.1230  0.0724
  329TMC3    C2 4989   4.571   2.655  17.241  0.2986 -0.1410 -0.2927
  329TMC3    C3 4990   4.476   2.561  17.227 -0.7279 -0.1768 -0.0383
  329TMC3    C4 4991   4.678   2.588  17.033  0.3072 -0.2975  0.1732
  329TMC3    C5 4992   4.575   2.500  17.020  0.5479  0.6285 -0.1560
  329TMC3    C6 4993   4.471   2.491  17.114 -0.0808  0.5159  1.6068
  329TMC3     C 4994   0.017   2.796  17.131  0.0281 -0.3663 -0.3910
  329TMC3     O 4995   0.060   2.822  17.018  0.2926 -0.5332  0.5198
  329TMC3     H 4996   4.569   2.722  17.326 -1.8306 -0.8172  0.1784
  329TMC3    H1 4997   0.022   2.608  16.961 -0.3725  0.2480 -0.4156
  329TMC3    H2 4998   4.392   2.418  17.100  2.1136 -1.6515  0.5766
  329TMC3    C7 4999   4.572   2.399  16.915  0.0378  0.3767  0.3330
  329TMC3    C8 5000   4.357   2.555  17.320  0.5685  0.2457  0.4376
  329TMC3    O1 5001   4.496   2.304  16.927 -0.3043 -0.2381 -0.1348
  329TMC3    O2 5002   4.285   2.459  17.296 -0.5551  0.8099  0.2478
  330TMC3    C1 5003   1.545   2.870   9.687  0.5584  0.6975 -0.4197
  330TMC3    C2 5004   1.522   2.765   9.601  0.1539  0.5727 -0.6402
  330TMC3    C3 5005   1.622   2.671   9.582  0.5275  0.0821 -0.2838
  330TMC3    C4 5006   1.669   2.895   9.738  0.5234 -0.0120  0.0432
  330TMC3    C5 5007   1.768   2.798   9.709  0.0983 -0.4589  0.1275
  330TMC3    C6 5008   1.748   2.691   9.626 -0.1739 -0.6324  0.7658
  330TMC3     C 5009   1.452   2.980   9.695  0.5874 -0.1850  0.5761
  330TMC3     O 5010   1.471   3.068   9.777  0.3543  0.4522  0.0792
  330TMC3     H 5011   1.423   2.739   9.566  1.5246 -4.0989 -1.0869
  330TMC3    H1 5012   1.686   2.991   9.784  1.4499 -0.3705  0.4692
  330TMC3    H2 5013   1.823   2.613   9.620 -0.3424 -0.5515 -2.2963
  330TMC3    C7 5014   1.899   2.836   9.761 -0.1106 -0.2303 -0.1550
  330TMC3    C8 5015   1.591   2.547   9.512  0.2363  0.6742 -0.4238
  330TMC3    O1 5016   1.896   2.935   9.833  0.0152 -0.2146  0.0700
  330TMC3    O2 5017   1.483   2.547   9.455 -0.4259  0.1009  0.4864
  331MPD2     C 5018   1.670   1.373  11.979 -0.1870  0.1120 -0.3389
  331MPD2    C1 5019   1.570   1.447  12.034  0.0636  0.0031 -0.5121
  331MPD2    C2 5020   1.514   1.396  12.150  0.1747 -0.1453  0.7313
  331MPD2    C3 5021   1.554   1.274  12.206  0.1537 -0.0803 -0.1877
  331MPD2    C4 5022   1.658   1.205  12.145  0.2046  0.4432 -0.2735
  331MPD2    C5 5023   1.721   1.269  12.042  0.6306  0.1244  0.4925
  331MPD2     H 5024   1.425   1.448  12.185  0.3608  0.6881 -0.0341
  331MPD2    H1 5025   1.697   1.108  12.175  0.7458 -0.2294 -3.1354
  331MPD2    H2 5026   1.717   1.405  11.886 -1.3669  3.6047  0.2423
  331MPD2    H3 5027   1.796   1.211  11.990  0.7168  0.6438  0.0410
  331MPD2     N 5028   1.478   1.229  12.313 -0.4845 -0.7629 -0.2286
  331MPD2    H5 5029   1.414   1.296  12.354  2.8807  1.2921  1.7446
  331MPD2    N1 5030   1.525   1.553  11.963 -0.4619  0.2288  0.3023
  331MPD2    H7 5031   1.561   1.567  11.870 -2.3547 -0.6473 -0.5569
  332TMC3    C1 5032   1.407   1.093  12.498  0.0340 -0.1228  0.3585
  332TMC3    C2 5033   1.293   1.164  12.510 -0.2858 -0.6891  0.2196
  332TMC3    C3 5034   1.202   1.134  12.608 -0.4284 -0.2735 -0.3917
  332TMC3    C4 5035   1.425   0.977  12.577  0.6521  0.9912  0.0554
  332TMC3    C5 5036   1.337   0.947  12.679  0.1981  0.1020 -0.0717
  332TMC3    C6 5037   1.222   1.021  12.691 -0.2450 -0.1675 -0.2557
  332TMC3     C 5038   1.490   1.102  12.372 -1.0878  0.3799 -0.4011
  332TMC3     O 5039   1.562   1.009  12.346  0.2641 -0.5748  0.0824
  332TMC3     H 5040   1.283   1.257  12.455  2.3622  1.6214  3.6335
  332TMC3    H1 5041   1.512   0.918  12.549 -0.4310 -1.1063  1.1842
  332TMC3    H2 5042   1.153   1.006  12.773  1.1609  0.6357  1.0894
  332TMC3    C7 5043   1.361   0.846  12.781 -0.4353 -0.7327  0.2476
  332TMC3    C8 5044   1.079   1.201  12.590  0.2228  0.3739 -0.0134
  332TMC3    O1 5045   1.274   0.845  12.870 -0.2256 -0.1636 -0.1797
  332TMC3    O2 5046   1.076   1.287  12.503  0.4666  0.6562 -0.3176
  333MPD2     C 5047   1.211   1.940  11.411 -0.2772  0.7005  0.1244
  333MPD2    C1 5048   1.258   1.824  11.361  1.2063  0.2909  0.5458
  333MPD2    C2 5049   1.169   1.719  11.340  0.2104 -0.5703 -0.0069
  333MPD2    C3 5050   1.038   1.739  11.360  0.1070 -0.1884  0.1226
  333MPD2    C4 5051   0.988   1.853  11.417  0.4593 -0.3724  0.3349
  333MPD2    C5 5052   1.075   1.955  11.441 -0.6214 -0.1614  0.2633
  333MPD2     H 5053   1.194   1.623  11.296 -1.2729  0.2716 -2.7395
  333MPD2    H1 5054   0.882   1.870  11.428  0.9763  0.6701  3.7331
  333MPD2    H2 5055   1.267   2.031  11.423  1.1980  0.1219 -2.4388
  333MPD2    H3 5056   1.031   2.047  11.476  1.1129  0.7061  0.1248
  333MPD2     N 5057   0.950   1.651  11.297 -0.4751 -0.1936 -0.2491
  333MPD2    H5 5058   0.999   1.585  11.237  0.0192 -1.4784  1.5723
  333MPD2    N1 5059   1.394   1.810  11.327 -0.0112 -0.1010 -0.4447
  333MPD2    H7 5060   1.445   1.897  11.333 -0.3280 -0.0112  1.1076
  334TMC3    C1 5061   1.579   1.721  11.233 -0.1201 -0.0935  0.3867
  334TMC3    C2 5062   1.669   1.622  11.207  0.3933 -0.3344  0.3911
  334TMC3    C3 5063   1.787   1.646  11.140 -0.8997  0.2226  0.7515
  334TMC3    C4 5064   1.611   1.850  11.188  0.5000  0.5248 -1.4218
  334TMC3    C5 5065   1.734   1.872  11.132  0.2567  0.3132 -0.2907
  334TMC3    C6 5066   1.813   1.772  11.085 -0.3378  0.3212 -0.1654
  334TMC3     C 5067   1.453   1.692  11.295  0.2684  0.4549  0.6357
  334TMC3     O 5068   1.414   1.575  11.314 -0.7886 -0.1553 -0.0518
  334TMC3     H 5069   1.643   1.527  11.253 -1.9075  0.4710  0.7243
  334TMC3    H1 5070   1.550   1.935  11.216  0.8380  0.7729 -1.4368
  334TMC3    H2 5071   1.895   1.787  11.016 -0.2128  0.1652 -0.0494
  334TMC3    C7 5072   1.786   2.006  11.115  0.0965  0.3472 -0.0877
  334TMC3    C8 5073   1.852   1.529  11.103 -0.5543  0.2511 -1.0660
  334TMC3    O1 5074   1.907   2.016  11.109 -0.4464 -0.0373 -0.6587
  334TMC3    O2 5075   1.811   1.421  11.153 -0.3228  0.2418 -0.0176
  335TMC3    C1 5076   0.968   3.049  17.544 -0.3163 -0.1258  0.5670
  335TMC3    C2 5077   0.868   2.984  17.478 -0.1513 -0.0211  0.0442
  335TMC3    C3 5078   0.907   2.943  17.353  0.3819  1.0393 -0.2871
  335TMC3    C4 5079   1.097   3.056  17.510 -0.0967 -0.0833  0.2748
  335TMC3    C5 5080   1.137   2.990  17.396 -0.0060 -0.1838  0.1247
  335TMC3    C6 5081   1.039   2.934  17.313  0.2640  0.2661 -0.0424
  335TMC3     C 5082   0.932   3.151  17.639  0.3924 -0.4941  0.0368
  335TMC3     O 5083   1.010   3.245  17.645 -0.2180 -0.4970  0.2224
  335TMC3     H 5084   0.763   3.008  17.492 -0.4429 -1.4633  0.2886
  335TMC3    H1 5085   1.172   3.087  17.582 -0.0722  1.5261 -0.4399
  335TMC3    H2 5086   1.070   2.907  17.213 -1.9826  1.3590 -1.0214
  335TMC3    C7 5087   1.269   3.002  17.345  1.2676  0.2922  0.5374
  335TMC3    C8 5088   0.806   2.904  17.252 -0.1937 -0.6137 -0.3604
  335TMC3    O1 5089   1.287   2.942  17.239 -0.6541 -0.5449 -0.8314
  335TMC3    O2 5090   0.840   2.918  17.137 -0.6377  0.1025 -0.0184
  336MPD2     C 5091   0.522   0.733  16.315 -0.6330  0.0951 -0.7116
  336MPD2    C1 5092   0.427   0.651  16.257  0.0840  0.2873 -0.1865
  336MPD2    C2 5093   0.420   0.517  16.280  0.5216  0.0213  0.3484
  336MPD2    C3 5094   0.510   0.468  16.371 -0.2121  0.1428 -0.4029
  336MPD2    C4 5095   0.610   0.540  16.429  0.1220  0.0391 -0.2162
  336MPD2    C5 5096   0.621   0.670  16.388  0.1575 -0.6188 -0.0991
  336MPD2     H 5097   0.349   0.456  16.227 -0.7389  0.2941  1.7013
  336MPD2    H1 5098   0.685   0.506  16.500  0.4734 -0.8160 -1.0092
  336MPD2    H2 5099   0.530   0.835  16.281 -2.2340 -0.5451 -2.9590
  336MPD2    H3 5100   0.702   0.731  16.426 -0.9642  1.8322 -1.6758
  336MPD2     N 5101   0.510   0.332  16.403 -0.2574 -0.0023 -0.1609
  336MPD2    H5 5102   0.575   0.298  16.473  0.7356 -1.8998 -1.9985
  336MPD2    N1 5103   0.325   0.700  16.172 -0.4052 -1.2868 -0.3365
  336MPD2    H7 5104   0.263   0.628  16.136 -0.8822 -1.1910  0.2867
  337TMC3    C1 5105   0.183   0.824  16.047  0.7698 -0.2414 -0.7550
  337TMC3    C2 5106   0.164   0.708  15.968  0.1010 -0.4698  0.2287
  337TMC3    C3 5107   0.067   0.705  15.880  0.0801  0.3537 -0.1802
  337TMC3    C4 5108   0.097   0.929  16.043 -0.1110  0.2808 -0.7969
  337TMC3    C5 5109   4.731   0.915  15.951  0.6407  0.0637  0.1690
  337TMC3    C6 5110   4.721   0.808  15.867  0.5264 -0.5348  0.3102
  337TMC3     C 5111   0.294   0.827  16.135  0.0509 -0.4449 -0.8858
  337TMC3     O 5112   0.331   0.925  16.191  0.0819  0.2058 -1.2953
  337TMC3     H 5113   0.240   0.632  15.957  2.3375  1.7012  0.6443
  337TMC3    H1 5114   0.108   1.014  16.110 -2.0876 -0.0411 -0.0626
  337TMC3    H2 5115   4.628   0.795  15.813  0.3199  2.1497  0.0345
  337TMC3    C7 5116   4.623   1.026  15.940  0.1785  0.2342 -0.2110
  337TMC3    C8 5117   0.053   0.589  15.795  0.4556  0.0167  0.1937
  337TMC3    O1 5118   4.626   1.120  16.014 -0.4053 -0.3364 -0.4185
  337TMC3    O2 5119   0.138   0.505  15.815 -0.6295  0.7157 -0.0830
  338MPD2     C 5120   0.478   0.521   0.904  0.1248  0.2307 -0.9947
  338MPD2    C1 5121   0.406   0.460   0.805  0.2495 -0.1532  0.1701
  338MPD2    C2 5122   0.269   0.484   0.814 -0.3306 -0.0469  0.6609
  338MPD2    C3 5123   0.206   0.556   0.916  0.9805  0.4336 -0.6785
  338MPD2    C4 5124   0.292   0.605   1.015  0.5822 -0.0652  0.1584
  338MPD2    C5 5125   0.428   0.581   1.016  0.1738 -0.4535 -0.1345
  338MPD2     H 5126   0.200   0.451   0.736  0.3493 -0.6944  0.3377
  338MPD2    H1 5127   0.250   0.663   1.097  1.4008  1.7761 -0.7416
  338MPD2    H2 5128   0.585   0.522   0.886  0.2831 -1.7360 -0.1176
  338MPD2    H3 5129   0.492   0.617   1.095  0.5292  0.3865 -0.8152
  338MPD2     N 5130   0.065   0.578   0.913 -0.2246  0.0656  0.1356
  338MPD2    H5 5131   0.011   0.539   0.837  0.0858  2.1493 -1.1437
  338MPD2    N1 5132   0.457   0.379   0.707  0.2333 -0.5494  0.8589
  338MPD2    H7 5133   0.389   0.354   0.636  3.0476 -0.9227 -1.7062
  339TMC3    C1 5134   4.587   0.648   0.975 -0.1663 -0.2716  0.1734
  339TMC3    C2 5135   4.502   0.680   1.070  0.0705 -0.1987  0.0227
  339TMC3    C3 5136   4.379   0.732   1.037  0.3628  0.4216 -0.7379
  339TMC3    C4 5137   4.564   0.656   0.838  0.5065 -0.6570 -0.1186
  339TMC3    C5 5138   4.448   0.720   0.807 -0.1675  0.1230 -0.0196
  339TMC3    C6 5139   4.360   0.771   0.901  0.0029  0.1141  0.1897
  339TMC3     C 5140   4.728   0.629   1.014 -0.7311 -0.3717  0.2029
  339TMC3     O 5141   0.024   0.649   1.131 -0.3635  0.3855  0.2806
  339TMC3     H 5142   4.537   0.671   1.172 -0.7064  0.4834  0.3485
  339TMC3    H1 5143   4.631   0.646   0.753  0.2215 -2.8293 -0.0751
  339TMC3    H2 5144   4.263   0.809   0.872 -0.3540 -0.7038  0.2960
  339TMC3    C7 5145   4.412   0.714   0.664 -0.4412 -0.4701  0.6469
  339TMC3    C8 5146   4.273   0.682   1.111  1.1321 -0.3047 -0.5435
  339TMC3    O1 5147   4.401   0.820   0.610 -0.3564  0.1848 -0.3735
  339TMC3    O2 5148   4.175   0.755   1.121  0.1813 -0.2877  0.4774
  340MPD2     C 5149   0.362   2.361  10.530 -0.0603 -0.4301  0.1783
  340MPD2    C1 5150   0.401   2.473  10.461  0.2152  0.0404  0.5122
  340MPD2    C2 5151   0.480   2.569  10.527  0.7170  0.0432  0.5849
  340MPD2    C3 5152   0.509   2.548  10.663  0.2777 -0.4558  0.2047
  340MPD2    C4 5153   0.449   2.440  10.732  0.2360  0.5400  0.1211
  340MPD2    C5 5154   0.389   2.345  10.662  0.0180  0.4299 -0.0589
  340MPD2     H 5155   0.526   2.654  10.477  2.3857 -1.2668 -0.0949
  340MPD2    H1 5156   0.464   2.414  10.836 -0.6625  2.2352  0.6729
  340MPD2    H2 5157   0.308   2.281  10.481 -0.4912  0.6715 -1.1376
  340MPD2    H3 5158   0.374   2.249  10.710  0.6910 -1.0019 -2.7440
  340MPD2     N 5159   0.594   2.641  10.725 -0.5986  0.0762  0.2234
  340MPD2    H5 5160   0.632   2.712  10.663 -0.5721 -0.6140 -0.5422
  340MPD2    N1 5161   0.376   2.475  10.323  0.4454  0.3912 -0.4113
  340MPD2    H7 5162   0.327   2.400  10.275  1.7169 -0.2859 -0.6376
  341TMC3    C1 5163   0.415   2.558  10.100 -0.5657  0.0812 -0.0128
  341TMC3    C2 5164   0.477   2.443  10.060 -0.8711  0.5459 -0.8125
  341TMC3    C3 5165   0.551   2.441   9.947  0.5151 -0.2866  0.8388
  341TMC3    C4 5166   0.430   2.672  10.023  0.4647 -0.3970 -0.1107
  341TMC3    C5 5167   0.511   2.666   9.918  0.5084 -0.5494  0.7252
  341TMC3    C6 5168   0.557   2.550   9.866  0.6080 -0.2336 -0.2327
  341TMC3     C 5169   0.416   2.580  10.242  0.0030  0.6124  0.0221
  341TMC3     O 5170   0.469   2.687  10.268  0.2676  0.3501  0.1571
  341TMC3     H 5171   0.488   2.361  10.130 -0.2803  1.4804  0.1923
  341TMC3    H1 5172   0.382   2.762  10.059  0.9741 -0.0962 -0.1930
  341TMC3    H2 5173   0.610   2.545   9.772 -0.6855  0.6613 -0.9985
  341TMC3    C7 5174   0.562   2.786   9.853 -0.4989 -0.1034 -0.1152
  341TMC3    C8 5175   0.638   2.333   9.923  0.6168 -0.1378  0.2251
  341TMC3    O1 5176   0.671   2.762   9.795 -0.3213 -0.4511 -0.0510
  341TMC3    O2 5177   0.632   2.238  10.005  0.0704 -0.7979  0.2805
  342MPD2     C 5178   2.931   1.030  17.403  0.1180  0.0544 -0.2677
  342MPD2    C1 5179   3.060   1.043  17.351  0.4887 -0.1873 -0.2900
  342MPD2    C2 5180   3.116   1.166  17.350 -0.1916  0.4056 -0.1890
  342MPD2    C3 5181   3.049   1.288  17.374 -0.4620  0.3563  0.1674
  342MPD2    C4 5182   2.918   1.271  17.404 -0.2974 -0.0643  0.6213
  342MPD2    C5 5183   2.865   1.146  17.437  0.1005 -0.0191 -0.0667
  342MPD2     H 5184   3.222   1.163  17.326 -0.3274  0.7272 -0.8327
  342MPD2    H1 5185   2.854   1.358  17.403 -2.2949 -1.5249  0.6279
  342MPD2    H2 5186   2.888   0.933  17.423 -0.3347  0.9402  2.9911
  342MPD2    H3 5187   2.762   1.141  17.471  0.5574  0.1778  1.3330
  342MPD2     N 5188   3.105   1.417  17.373  0.1723 -0.1667 -0.2225
  342MPD2    H5 5189   3.040   1.494  17.376 -0.3445 -0.5315 -1.9809
  342MPD2    N1 5190   3.139   0.939  17.293 -0.6740  0.1019  0.3839
  342MPD2    H7 5191   3.233   0.971  17.271 -0.6378 -0.7367 -0.6846
  343TMC3    C1 5192   3.190   0.705  17.209 -0.6779 -0.0041 -0.1593
  343TMC3    C2 5193   3.320   0.741  17.188 -0.3657 -0.8312  0.1947
  343TMC3    C3 5194   3.397   0.645  17.135 -1.0121 -1.1097 -1.1716
  343TMC3    C4 5195   3.147   0.575  17.187 -0.7728  0.0672 -0.5202
  343TMC3    C5 5196   3.231   0.485  17.143 -0.7446 -0.6552 -0.1393
  343TMC3    C6 5197   3.362   0.513  17.116  0.4287  0.0043 -0.8928
  343TMC3     C 5198   3.098   0.805  17.263 -0.0638 -0.1188  0.2778
  343TMC3     O 5199   2.983   0.770  17.284  0.8354 -0.2470 -0.4839
  343TMC3     H 5200   3.346   0.846  17.200  1.1742 -0.9708 -1.8942
  343TMC3    H1 5201   3.050   0.534  17.212 -1.5767  2.8507  0.9030
  343TMC3    H2 5202   3.425   0.427  17.098  0.5952 -0.4308  1.7755
  343TMC3    C7 5203   3.205   0.347  17.190 -0.5922  0.3303 -0.3306
  343TMC3    C8 5204   3.537   0.664  17.146 -0.7970  0.2902 -0.3930
  343TMC3    O1 5205   3.104   0.293  17.144 -0.1137  0.0313 -0.2989
  343TMC3    O2 5206   3.574   0.756  17.215  0.0040 -0.1278 -0.0880
  344MPD2     C 5207   4.355   1.015  11.127 -0.0544 -0.0086  0.1770
  344MPD2    C1 5208   4.435   0.972  11.025  0.2732  0.5148 -0.3669
  344MPD2    C2 5209   4.522   1.063  10.960 -0.1476  0.2128 -0.0300
  344MPD2    C3 5210   4.496   1.196  10.989  0.5553 -0.4083 -0.0592
  344MPD2    C4 5211   4.407   1.237  11.085  0.0009  0.4143 -0.0817
  344MPD2    C5 5212   4.338   1.148  11.154 -0.6891 -0.3289  0.3533
  344MPD2     H 5213   4.585   1.017  10.885  0.3153  1.7628 -0.5910
  344MPD2    H1 5214   4.396   1.340  11.118  1.7026  0.9409 -1.1636
  344MPD2    H2 5215   4.293   0.949  11.187  0.8841 -1.2909 -0.2398
  344MPD2    H3 5216   4.282   1.181  11.241 -1.4291 -1.1669  0.1987
  344MPD2     N 5217   4.570   1.304  10.943 -0.0388  0.4364 -0.9536
  344MPD2    H5 5218   4.547   1.393  10.985 -2.8719 -0.9093  0.3217
  344MPD2    N1 5219   4.443   0.837  10.983 -0.4853 -0.1732 -0.0288
  344MPD2    H7 5220   4.497   0.821  10.898  0.7623 -0.1601  0.7595
  345TMC3    C1 5221   0.009   1.420  10.843 -0.0157 -0.3368 -0.0292
  345TMC3    C2 5222   0.024   1.484  10.966  0.3000 -0.2367  0.4059
  345TMC3    C3 5223   0.054   1.615  10.969 -0.0900  0.5074 -0.6829
  345TMC3    C4 5224   0.016   1.489  10.720 -0.2253  0.3829  0.1697
  345TMC3    C5 5225   0.052   1.624  10.734  0.6615 -0.4634 -0.0317
  345TMC3    C6 5226   0.068   1.683  10.856 -0.2374 -0.5602  0.7648
  345TMC3     C 5227   4.672   1.295  10.851 -0.5106 -0.5351 -0.4992
  345TMC3     O 5228   4.680   1.216  10.760 -0.0236  0.3109  0.0449
  345TMC3     H 5229   0.022   1.444  11.067  2.0018 -1.2720  0.0176
  345TMC3    H1 5230   4.717   1.451  10.624  0.0415 -0.6594  0.4974
  345TMC3    H2 5231   0.105   1.785  10.866  0.6175 -0.8058  0.1669
  345TMC3    C7 5232   0.040   1.710  10.622  0.2494 -0.6158 -0.2389
  345TMC3    C8 5233   0.004   1.692  11.079  0.2431 -0.1885 -0.6292
  345TMC3    O1 5234   0.019   1.824  10.658 -0.4020  0.5098 -0.1661
  345TMC3    O2 5235   4.719   1.640  11.186  0.3512  0.0699 -0.3313
  346MPD2     C 5236   4.563   2.140  13.684 -0.0751 -0.6138 -0.7256
  346MPD2    C1 5237   4.676   2.106  13.762 -0.2730  0.1060 -0.3268
  346MPD2    C2 5238   4.709   2.188  13.869  0.3209  0.6455  0.3061
  346MPD2    C3 5239   4.626   2.296  13.914  0.3633  0.0961 -0.3419
  346MPD2    C4 5240   4.512   2.320  13.837 -0.7880 -0.7776  0.7362
  346MPD2    C5 5241   4.480   2.232  13.731 -0.6214  0.2359 -0.6788
  346MPD2     H 5242   0.067   2.166  13.920 -0.5488  1.0563  2.0643
  346MPD2    H1 5243   4.435   2.393  13.857  1.0827  0.8154  2.0929
  346MPD2    H2 5244   4.551   2.104  13.583 -0.6286 -0.2993 -0.7759
  346MPD2    H3 5245   4.394   2.257  13.669 -0.1612  2.0095 -0.6014
  346MPD2     N 5246   4.677   2.390  14.006 -0.3726  0.3180 -0.5516
  346MPD2    H5 5247   0.031   2.376  14.054 -0.1414  1.7862 -0.5225
  346MPD2    N1 5248   0.025   2.000  13.713  0.0858  0.5604  0.2451
  346MPD2    H7 5249   0.123   2.008  13.738  0.0112  0.2259  0.6408
  347TMC3    C1 5250   4.688   2.594  14.133 -0.0254 -0.5080  0.1134
  347TMC3    C2 5251   0.092   2.584  14.137 -0.4555  0.0440  1.0452
  347TMC3    C3 5252   0.157   2.667  14.223  0.0795 -0.0221  0.0118
  347TMC3    C4 5253   4.623   2.687  14.206  0.6483  0.2534 -0.8648
  347TMC3    C5 5254   4.698   2.765  14.300  0.3412  1.0632  0.8720
  347TMC3    C6 5255   0.095   2.757  14.305  0.0789  0.7136 -0.1725
  347TMC3     C 5256   4.610   2.510  14.044 -0.6441  0.5068  0.5786
  347TMC3     O 5257   4.494   2.543  14.006  0.3135  0.0504  0.1655
  347TMC3     H 5258   0.159   2.532  14.069 -2.9541  1.3613 -2.4168
  347TMC3    H1 5259   4.515   2.684  14.215  0.4314 -0.8767 -3.6406
  347TMC3    H2 5260   0.161   2.803  14.378 -0.4068  1.0736  0.0364
  347TMC3    C7 5261   4.626   2.854  14.393  0.7367 -0.5613 -0.0724
  347TMC3    C8 5262   0.289   2.629  14.261 -0.1408 -0.2248  0.4106
  347TMC3    O1 5263   4.514   2.813  14.416  0.0639 -0.2358  0.6783
  347TMC3    O2 5264   0.310   2.509  14.286 -0.7864  0.1154  0.2655
  348MPD2     C 5265   2.984   2.179  11.881 -0.4351  0.7176  0.3961
  348MPD2    C1 5266   3.095   2.244  11.875 -0.2699 -0.1847  0.2991
  348MPD2    C2 5267   3.144   2.282  11.749  0.6661 -0.0555  0.4287
  348MPD2    C3 5268   3.078   2.266  11.632  0.4278  0.4832 -0.1484
  348MPD2    C4 5269   2.962   2.201  11.641  0.3359  0.1869  0.4160
  348MPD2    C5 5270   2.915   2.163  11.764  0.5889  0.0867  0.3921
  348MPD2     H 5271   3.240   2.332  11.749  0.0868  1.0440  0.0433
  348MPD2    H1 5272   2.904   2.183  11.551  0.1417  0.5533  0.4676
  348MPD2    H2 5273   2.937   2.145  11.973  2.1699  2.3769  2.3504
  348MPD2    H3 5274   2.816   2.119  11.772  1.5547 -2.4391 -1.4125
  348MPD2     N 5275   3.145   2.309  11.514  0.0793 -0.1371  0.2724
  348MPD2    H5 5276   3.226   2.368  11.526 -0.4906  0.8562 -0.8220
  348MPD2    N1 5277   3.168   2.280  11.989  0.6954 -0.4021  0.5535
  348MPD2    H7 5278   3.254   2.332  11.980 -0.0686  0.8782  0.6860
  349TMC3    C1 5279   3.259   2.239  12.202 -0.1748 -0.9191 -0.0982
  349TMC3    C2 5280   3.299   2.122  12.263  0.4527 -0.1071  0.5745
  349TMC3    C3 5281   3.435   2.112  12.297 -0.1655 -0.6859  0.3295
  349TMC3    C4 5282   3.358   2.332  12.178 -0.2802  0.2155 -0.1613
  349TMC3    C5 5283   3.489   2.318  12.196 -0.1674  0.7011 -0.8635
  349TMC3    C6 5284   3.528   2.209  12.271 -0.2684 -0.8179 -0.2616
  349TMC3     C 5285   3.141   2.230  12.123 -0.4779  0.2138  0.2008
  349TMC3     O 5286   3.062   2.146  12.156 -0.8992  0.1866 -0.0371
  349TMC3     H 5287   3.227   2.042  12.283  0.7822 -0.9856 -1.7569
  349TMC3    H1 5288   3.325   2.420  12.123  2.4814  2.1194  1.2146
  349TMC3    H2 5289   3.627   2.205  12.315 -0.3979 -0.8820  0.0253
  349TMC3    C7 5290   3.541   2.296  12.059 -0.7281 -0.6925  0.0707
  349TMC3    C8 5291   3.482   1.981  12.353 -0.3105  0.0718 -0.0361
  349TMC3    O1 5292   3.521   2.185  12.013  0.4000  0.2241  0.0612
  349TMC3    O2 5293   3.586   1.968  12.417 -0.2415  0.1616 -0.5016
  350MPD2     C 5294   2.801   0.815   9.826  0.7119  0.1681  0.5086
  350MPD2    C1 5295   2.763   0.688   9.833 -0.0087  0.5294 -0.1036
  350MPD2    C2 5296   2.851   0.580   9.836 -0.1986 -0.2680  0.4613
  350MPD2    C3 5297   2.988   0.602   9.825  0.1263  0.0634 -0.1739
  350MPD2    C4 5298   3.031   0.732   9.813 -0.3353 -0.3277  0.1096
  350MPD2    C5 5299   2.939   0.835   9.812 -0.3710  1.0023  0.3850
  350MPD2     H 5300   2.833   0.473   9.840  2.4781 -0.6968  1.5403
  350MPD2    H1 5301   3.132   0.770   9.808 -0.9613  1.5847  1.9035
  350MPD2    H2 5302   2.728   0.895   9.821 -0.0188 -0.4397  1.2928
  350MPD2    H3 5303   2.982   0.934   9.808  0.1757  0.6133 -3.2408
  350MPD2     N 5304   3.073   0.490   9.847  0.4755  0.1740  0.1088
  350MPD2    H5 5305   3.040   0.395   9.864  0.3730  0.1927  0.0083
  350MPD2    N1 5306   2.633   0.653   9.844 -0.0270 -0.4859 -0.2945
  350MPD2    H7 5307   2.617   0.553   9.850 -0.7006 -0.3705 -0.1708
  351TMC3    C1 5308   2.409   0.642   9.877  0.3584  0.2191 -0.9038
  351TMC3    C2 5309   2.413   0.508   9.832 -0.3586  0.0851  0.7234
  351TMC3    C3 5310   2.318   0.432   9.885 -0.0235 -0.2065 -0.0140
  351TMC3    C4 5311   2.303   0.696   9.943 -0.7189  0.1709 -0.2265
  351TMC3    C5 5312   2.208   0.608   9.981 -0.1845  0.3352 -0.1503
  351TMC3    C6 5313   2.215   0.477   9.966 -0.0582 -0.3683 -0.6224
  351TMC3     C 5314   2.523   0.733   9.862 -0.3736 -0.1962  0.0412
  351TMC3     O 5315   2.521   0.846   9.911  0.3395 -0.2578  0.1098
  351TMC3     H 5316   2.500   0.473   9.778 -1.7398  1.0976 -2.2091
  351TMC3    H1 5317   2.312   0.802   9.964 -0.2004  0.3614 -1.4002
  351TMC3    H2 5318   2.129   0.418   9.996 -0.8196  2.3366  2.4881
  351TMC3    C7 5319   2.095   0.669  10.052 -0.0376  0.2536 -0.6798
  351TMC3    C8 5320   2.359   0.295   9.892 -0.9209 -0.2083  0.0507
  351TMC3    O1 5321   2.098   0.796  10.056  0.4461 -0.4713  0.1028
  351TMC3    O2 5322   2.463   0.266   9.827 -0.0668  0.1185  0.1870
  352MPD2     C 5323   0.416   2.164   1.403 -0.1452  0.2825 -0.3287
  352MPD2    C1 5324   0.345   2.086   1.312  0.3085  0.8996 -0.3688
  352MPD2    C2 5325   0.362   1.950   1.310  0.1523 -0.4868  0.7291
  352MPD2    C3 5326   0.447   1.889   1.394 -0.6074 -1.3799 -0.1027
  352MPD2    C4 5327   0.514   1.965   1.485 -0.4419 -0.2512  0.4131
  352MPD2    C5 5328   0.502   2.101   1.490 -0.4851 -0.1231  0.0966
  352MPD2     H 5329   0.295   1.893   1.247  2.0237  0.8141 -2.4124
  352MPD2    H1 5330   0.578   1.918   1.560  0.2198  0.7114  0.4582
  352MPD2    H2 5331   0.401   2.270   1.416  1.1984  0.4942 -0.5168
  352MPD2    H3 5332   0.544   2.168   1.565 -1.1467  2.1939 -1.5902
  352MPD2     N 5333   0.473   1.751   1.394  0.2355 -0.1644  0.1152
  352MPD2    H5 5334   0.550   1.726   1.455  1.4114  4.1098  0.3316
  352MPD2    N1 5335   0.271   2.156   1.215 -0.3740  0.2521 -0.2165
  352MPD2    H7 5336   0.259   2.254   1.239 -0.2743  0.0443  0.6653
  353TMC3    C1 5337   0.472   1.532   1.356  0.1805 -0.3894 -0.1800
  353TMC3    C2 5338   0.602   1.517   1.321  0.3605 -0.4364 -0.5572
  353TMC3    C3 5339   0.652   1.392   1.289 -0.1105 -0.6115  0.5239
  353TMC3    C4 5340   0.394   1.417   1.363  0.2508  0.3407  0.0600
  353TMC3    C5 5341   0.446   1.292   1.331 -0.0745 -0.5812 -1.1963
  353TMC3    C6 5342   0.576   1.278   1.297 -0.5561  0.0629 -1.0278
  353TMC3     C 5343   0.399   1.653   1.338  0.0475  0.5148 -0.1008
  353TMC3     O 5344   0.290   1.648   1.285  0.3248 -0.3477 -0.1128
  353TMC3     H 5345   0.673   1.599   1.308 -0.4138  0.3335  0.0693
  353TMC3    H1 5346   0.286   1.429   1.368  0.3294  0.2102  2.1224
  353TMC3    H2 5347   0.611   1.178   1.274  1.0381  0.4279 -0.2024
  353TMC3    C7 5348   0.357   1.218   1.234 -0.4027 -0.9444  0.5982
  353TMC3    C8 5349   0.793   1.390   1.226 -0.4600  0.5351 -0.0126
  353TMC3    O1 5350   0.417   1.181   1.131 -0.6413 -0.3124  0.3080
  353TMC3    O2 5351   0.831   1.492   1.174 -0.6925  0.2786 -0.2710
  354TMC3    C1 5352   2.297   3.219  13.591  0.2433 -0.0560 -0.0500
  354TMC3    C2 5353   2.405   3.302  13.607  0.3009  0.8839  0.2530
  354TMC3    C3 5354   2.452   3.362  13.489 -0.0411 -0.1468 -0.6795
  354TMC3    C4 5355   2.214   3.222  13.480  0.8540 -0.2815 -0.3641
  354TMC3    C5 5356   2.265   3.287  13.370  0.0539  0.6481 -0.1550
  354TMC3    C6 5357   2.386   3.351  13.372 -0.1377 -0.1405 -0.3210
  354TMC3     C 5358   2.258   3.127  13.693 -0.7179 -0.2780  1.2825
  354TMC3     O 5359   2.199   3.024  13.664  0.2508 -0.6517  0.2779
  354TMC3     H 5360   2.459   3.302  13.701  0.9304  0.6081 -0.1144
  354TMC3    H1 5361   2.121   3.166  13.474  2.5279 -3.0438 -0.2902
  354TMC3    H2 5362   2.423   3.394  13.280  1.1491  0.1712  0.3482
  354TMC3    C7 5363   2.224   3.217  13.247 -0.6439 -0.4074  0.2752
  354TMC3    C8 5364   2.555   3.458  13.511  0.2385 -0.6042  0.2792
  354TMC3    O1 5365   2.111   3.169  13.244  0.4864  0.0574 -0.9193
  354TMC3    O2 5366   2.573   3.488  13.627 -0.2448 -0.3674 -0.4478
  355MPD2     C 5367   2.747   4.103  11.867  0.0575  0.1601  0.0537
  355MPD2    C1 5368   2.844   4.064  11.773  0.2779 -0.4828  0.1715
  355MPD2    C2 5369   2.930   3.967  11.802 -0.6221  0.4106 -0.7396
  355MPD2    C3 5370   2.927   3.905  11.932 -0.5242 -0.2573 -0.0231
  355MPD2    C4 5371   2.837   3.949  12.022  0.0115 -0.2551  0.3511
  355MPD2    C5 5372   2.746   4.051  11.991  0.0310  0.0369  0.2999
  355MPD2     H 5373   3.013   3.936  11.740 -0.7548  0.6315 -1.0302
  355MPD2    H1 5374   2.830   3.894  12.115 -0.9194 -1.4341 -0.4176
  355MPD2    H2 5375   2.684   4.190  11.854  0.0057 -0.2884 -2.7546
  355MPD2    H3 5376   2.669   4.087  12.058  1.4410 -0.9801  2.5047
  355MPD2     N 5377   3.039   3.823  11.969  0.4230  0.1993 -0.3278
  355MPD2    H5 5378   3.050   3.812  12.069 -1.9639  1.2495  0.0662
  355MPD2    N1 5379   2.856   4.131  11.649 -0.4372  0.1153  0.7275
  355MPD2    H7 5380   2.794   4.211  11.639 -1.8782 -0.9922  0.7933
  356TMC3    C1 5381   3.252   3.744  11.936 -0.3092  0.3996 -0.3404
  356TMC3    C2 5382   3.337   3.822  11.861  0.1406 -0.3747  0.1174
  356TMC3    C3 5383   3.428   3.901  11.928  0.0719  0.5192 -0.0297
  356TMC3    C4 5384   3.268   3.725  12.068  0.4536 -0.0532  0.3274
  356TMC3    C5 5385   3.361   3.799  12.133 -0.5067 -0.5204 -0.7180
  356TMC3    C6 5386   3.442   3.886  12.063 -0.3002 -0.5005 -0.0010
  356TMC3     C 5387   3.123   3.751  11.881 -0.5433 -0.0830  0.2148
  356TMC3     O 5388   3.115   3.723  11.765  0.6031 -0.6590 -0.3340
  356TMC3     H 5389   3.309   3.826  11.757 -0.4994  2.0222  0.3645
  356TMC3    H1 5390   3.190   3.680  12.128  1.1296 -1.4221  0.1684
  356TMC3    H2 5391   3.513   3.945  12.120  1.3762 -4.2638  1.8129
  356TMC3    C7 5392   3.401   3.746  12.260 -0.4868  1.0470 -0.3606
  356TMC3    C8 5393   3.471   4.023  11.860 -0.5278  0.7940  0.5332
  356TMC3    O1 5394   3.353   3.642  12.297 -0.0169 -0.0188  0.2607
  356TMC3    O2 5395   3.515   4.119  11.927 -0.0507  0.5277 -0.9454
  357MPD2     C 5396   1.808   3.107   1.320  0.2349  0.6507  0.0233
  357MPD2    C1 5397   1.826   3.001   1.237 -0.1735  0.1871 -0.6769
  357MPD2    C2 5398   1.732   2.895   1.237  0.2193  1.1203 -0.1273
  357MPD2    C3 5399   1.620   2.896   1.324  0.1591 -0.6519  1.1929
  357MPD2    C4 5400   1.597   3.011   1.400  0.5715  0.6173  0.2461
  357MPD2    C5 5401   1.698   3.109   1.407  0.1658 -0.4395 -0.0642
  357MPD2     H 5402   1.750   2.809   1.175  0.3830  0.4952  0.7820
  357MPD2    H1 5403   1.509   3.015   1.463 -0.6871 -2.1540 -1.3016
  357MPD2    H2 5404   1.868   3.198   1.314  0.4950  0.4585 -0.2711
  357MPD2    H3 5405   1.684   3.195   1.471 -2.0279  0.3750 -1.6366
  357MPD2     N 5406   1.519   2.799   1.329 -0.4842 -0.6705  0.1075
  357MPD2    H5 5407   1.436   2.815   1.385  0.4744 -3.8450  2.4072
  357MPD2    N1 5408   1.934   2.995   1.141 -0.4245 -0.8812  0.1624
  357MPD2    H7 5409   1.926   2.922   1.071  0.5841 -0.0680 -0.7748
  358TMC3    C1 5410   2.146   3.021   1.049 -0.9815  0.2202  0.0352
  358TMC3    C2 5411   2.088   2.977   0.929 -0.0022  0.1216 -0.0428
  358TMC3    C3 5412   2.172   2.924   0.838 -0.5106  0.0596 -0.4242
  358TMC3    C4 5413   2.281   3.011   1.070  0.2631  0.2894  0.4125
  358TMC3    C5 5414   2.360   2.947   0.976  0.3420  0.8871  0.3536
  358TMC3    C6 5415   2.304   2.890   0.865 -0.6136 -0.7697 -0.1048
  358TMC3     C 5416   2.055   3.064   1.155 -1.0200 -0.3735  0.2370
  358TMC3     O 5417   2.098   3.140   1.240  0.1485 -0.0361 -0.0412
  358TMC3     H 5418   1.992   3.024   0.911 -1.0779 -0.7740  3.3927
  358TMC3    H1 5419   2.331   3.055   1.156  1.9156  0.7477 -0.7737
  358TMC3    H2 5420   2.372   2.873   0.782  0.9586  1.8195  0.6509
  358TMC3    C7 5421   2.505   2.929   0.995 -0.5506 -0.4275 -1.5102
  358TMC3    C8 5422   2.111   2.879   0.712 -0.5022 -0.4943 -0.1847
  358TMC3    O1 5423   2.553   2.830   0.931 -0.6805 -0.7965  0.0961
  358TMC3    O2 5424   2.018   2.948   0.670 -0.1173 -0.0482 -0.1268
  359MPD2     C 5425   3.023   2.582  12.734  0.8950  0.2120  0.1448
  359MPD2    C1 5426   2.917   2.593  12.648 -0.0717  0.1964  0.2016
  359MPD2    C2 5427   2.800   2.530  12.678 -0.1320 -0.3725 -0.3081
  359MPD2    C3 5428   2.795   2.437  12.781  0.2866  0.0867  0.2349
  359MPD2    C4 5429   2.904   2.422  12.864 -0.0016 -0.7632 -0.0044
  359MPD2    C5 5430   3.017   2.499  12.846  0.4537 -0.4561 -0.2462
  359MPD2     H 5431   2.713   2.550  12.616  0.0831 -2.7897 -1.3912
  359MPD2    H1 5432   2.912   2.349  12.944 -0.7491  0.4507  1.1842
  359MPD2    H2 5433   3.113   2.638  12.711  2.6746 -2.0057  1.7377
  359MPD2    H3 5434   3.100   2.479  12.912 -0.2543 -2.7307 -0.0437
  359MPD2     N 5435   2.681   2.365  12.824 -0.1382 -0.0869  0.1861
  359MPD2    H5 5436   2.692   2.304  12.904  3.8589  1.7591  1.0243
  359MPD2    N1 5437   2.918   2.671  12.536  0.0026 -0.0881  0.0087
  359MPD2    H7 5438   2.832   2.681  12.482 -1.0463 -1.1625  1.4769
  360TMC3    C1 5439   2.996   2.829  12.379 -0.4243 -0.1748  0.2956
  360TMC3    C2 5440   3.076   2.943  12.368  0.4493 -0.3117  0.3810
  360TMC3    C3 5441   3.168   2.944  12.265  0.1586  0.4313 -0.4042
  360TMC3    C4 5442   2.979   2.742  12.273  0.0217  0.2836 -0.2748
  360TMC3    C5 5443   3.054   2.763  12.165 -0.5133  0.7773 -0.1558
  360TMC3    C6 5444   3.160   2.853  12.163 -0.2914 -0.3099 -0.0886
  360TMC3     C 5445   3.012   2.766  12.508 -0.2847 -0.6221  0.7665
  360TMC3     O 5446   3.116   2.797  12.558  0.5689  0.5424 -0.0309
  360TMC3     H 5447   3.103   2.997  12.458 -0.7212 -0.1214  0.6204
  360TMC3    H1 5448   2.922   2.650  12.275 -0.5404  0.6243 -0.9206
  360TMC3    H2 5449   3.213   2.872  12.070 -1.2945 -0.6879 -0.7311
  360TMC3    C7 5450   3.038   2.689  12.043 -0.0893  0.1316 -0.6289
  360TMC3    C8 5451   3.296   3.012  12.284 -0.4850 -0.6517 -0.2330
  360TMC3    O1 5452   3.140   2.701  11.970 -0.1964 -0.1975 -0.0962
  360TMC3    O2 5453   3.291   3.118  12.349  0.3198  0.3522 -0.6323
  361MPD2     C 5454   4.093   1.249  16.888  0.1379  0.5552  0.3549
  361MPD2    C1 5455   4.147   1.373  16.913 -0.0127 -0.4668  0.1262
  361MPD2    C2 5456   4.287   1.383  16.915 -0.1171  0.0846 -0.3058
  361MPD2    C3 5457   4.358   1.267  16.885 -0.3131 -0.6497  1.0097
  361MPD2    C4 5458   4.294   1.145  16.864 -0.1410  0.0821  0.3576
  361MPD2    C5 5459   4.163   1.136  16.868  0.1736  0.5554 -0.6112
  361MPD2     H 5460   4.327   1.481  16.938 -0.0982 -0.0407  0.1901
  361MPD2    H1 5461   4.348   1.060  16.824 -2.4779 -1.8791  1.4073
  361MPD2    H2 5462   3.987   1.227  16.875  0.8774 -1.4858 -2.3472
  361MPD2    H3 5463   4.109   1.042  16.862  2.6298 -0.7462 -2.0061
  361MPD2     N 5464   4.499   1.260  16.875  0.2562 -0.1200  1.1959
  361MPD2    H5 5465   4.541   1.169  16.857  2.3351  0.7775  1.5530
  361MPD2    N1 5466   4.067   1.487  16.929  0.9860 -0.1868  0.0543
  361MPD2    H7 5467   4.106   1.578  16.951 -0.9090  1.1140 -1.9664
  362TMC3    C1 5468   3.860   1.615  16.938 -0.2451 -0.5081  0.4983
  362TMC3    C2 5469   3.731   1.618  16.963 -0.3959  0.2299  0.1539
  362TMC3    C3 5470   3.662   1.724  16.912  0.1174 -0.8892 -0.3061
  362TMC3    C4 5471   3.925   1.712  16.872  0.0339 -0.0523  0.5245
  362TMC3    C5 5472   3.858   1.823  16.835  0.9127  0.6338 -0.7070
  362TMC3    C6 5473   3.722   1.826  16.850 -0.1866  0.4017 -0.4419
  362TMC3     C 5474   3.929   1.480  16.943 -0.5046 -0.1350  0.3134
  362TMC3     O 5475   3.852   1.382  16.948  0.4142  0.0660  0.4484
  362TMC3     H 5476   3.689   1.543  17.029  1.7280 -0.0782  1.1368
  362TMC3    H1 5477   4.026   1.702  16.832 -0.9464 -4.0759 -0.9785
  362TMC3    H2 5478   3.659   1.906  16.813 -1.3781 -0.7219 -0.8430
  362TMC3    C7 5479   3.913   1.902  16.725  0.2585 -0.5734 -0.4038
  362TMC3    C8 5480   3.525   1.737  16.963 -0.2594 -0.1136 -0.4624
  362TMC3    O1 5481   4.027   1.941  16.750 -0.7484  0.1148  0.6675
  362TMC3    O2 5482   3.466   1.633  16.987  0.0728  0.4854  0.1061
  363TMC3    C1 5483   3.573   0.052   9.585  0.5628 -0.2352  0.5481
  363TMC3    C2 5484   3.575   4.698   9.689  0.5884  0.0961  0.3057
  363TMC3    C3 5485   3.454   4.677   9.755 -0.1444  0.4655  0.1094
  363TMC3    C4 5486   3.462   0.112   9.530  0.5039 -0.8601 -0.3000
  363TMC3    C5 5487   3.344   0.075   9.601 -0.3848 -0.0282  0.3572
  363TMC3    C6 5488   3.339   4.729   9.704 -0.0648 -0.2240  0.3829
  363TMC3     C 5489   3.699   0.107   9.537 -0.2279  0.3350  0.0595
  363TMC3     O 5490   3.706   0.167   9.431  0.0332  0.7555 -0.1955
  363TMC3     H 5491   3.666   4.659   9.733 -1.1295  0.7696  4.4890
  363TMC3    H1 5492   3.468   0.189   9.454  2.5713 -0.2246  0.4917
  363TMC3    H2 5493   3.243   4.694   9.739 -1.3186  2.8848  0.0908
  363TMC3    C7 5494   3.234   0.164   9.560  0.1232 -0.5824 -0.7789
  363TMC3    C8 5495   3.436   4.573   9.850 -0.4288 -0.3657 -0.3217
  363TMC3    O1 5496   3.252   0.277   9.508 -0.2453  0.6528 -0.2736
  363TMC3    O2 5497   3.368   4.603   9.948 -1.0504 -0.2771 -0.2526
  364MPD2     C 5498   1.670   3.196  10.463  0.2622  0.3684  0.2101
  364MPD2    C1 5499   1.706   3.313  10.522  0.4043 -0.3372 -0.1703
  364MPD2    C2 5500   1.782   3.300  10.643 -0.9375  0.5574 -0.0673
  364MPD2    C3 5501   1.819   3.180  10.696  0.0714 -0.0306 -0.1951
  364MPD2    C4 5502   1.772   3.068  10.638  0.2629 -0.8913  0.1515
  364MPD2    C5 5503   1.704   3.074  10.520  1.0550  0.2481 -1.1060
  364MPD2     H 5504   1.827   3.393  10.675  2.2860 -1.0152 -0.0180
  364MPD2    H1 5505   1.799   2.972  10.680  0.3832  1.1947  4.9134
  364MPD2    H2 5506   1.612   3.200  10.372 -3.8682  0.5760  2.8658
  364MPD2    H3 5507   1.677   2.980  10.473 -0.6195 -0.4960  1.3723
  364MPD2     N 5508   1.918   3.173  10.796  0.1773  0.1992  0.0335
  364MPD2    H5 5509   1.938   3.078  10.824 -0.8678  0.9886  3.5341
  364MPD2    N1 5510   1.681   3.437  10.453 -0.0513  0.0852 -0.4535
  364MPD2    H7 5511   1.634   3.437  10.363  1.4498  0.3660 -1.2461
  365TMC3    C1 5512   1.650   3.669  10.419  0.7318  0.2562 -0.0353
  365TMC3    C2 5513   1.720   3.673  10.300  0.3177 -0.1044  0.7502
  365TMC3    C3 5514   1.767   3.790  10.247  0.2603 -0.1442  0.1057
  365TMC3    C4 5515   1.636   3.782  10.494 -0.9156 -0.5163  0.0481
  365TMC3    C5 5516   1.670   3.900  10.435  0.3345  0.3890  0.1338
  365TMC3    C6 5517   1.735   3.908  10.314  0.8631  0.0601 -0.0733
  365TMC3     C 5518   1.696   3.561  10.508  0.5898  0.6230 -0.1283
  365TMC3     O 5519   1.733   3.589  10.623  1.0921 -0.1904 -0.6783
  365TMC3     H 5520   1.759   3.579  10.263 -0.5751 -0.9650  1.9639
  365TMC3    H1 5521   1.580   3.767  10.585  0.8481 -1.8776  0.9109
  365TMC3    H2 5522   1.769   4.003  10.275  0.6549 -0.1386 -0.7558
  365TMC3    C7 5523   1.671   4.022  10.516  0.8812  0.4942  0.1326
  365TMC3    C8 5524   1.899   3.791  10.183  0.1037 -0.4291  0.3988
  365TMC3    O1 5525   1.722   4.119  10.464  0.0523  0.0520  0.5867
  365TMC3    O2 5526   1.951   3.901  10.195  0.2220  0.1660  0.1740
  366MPD2     C 5527   4.734   0.028  15.151  0.2093  0.2469 -0.1980
  366MPD2    C1 5528   0.106   0.091  15.215  0.1525 -0.4540 -0.8579
  366MPD2    C2 5529   0.201   0.013  15.283  0.2894 -0.0845  0.2342
  366MPD2    C3 5530   0.191   4.610  15.268 -0.7532  0.3395 -0.2373
  366MPD2    C4 5531   0.088   4.548  15.203  0.9055 -0.7573 -0.4634
  366MPD2    C5 5532   4.726   4.624  15.144 -0.1586  0.0421  0.0942
  366MPD2     H 5533   0.278   0.051  15.348 -0.6161 -0.4419  1.5167
  366MPD2    H1 5534   0.072   4.441  15.191  2.3259 -1.1349  0.9962
  366MPD2    H2 5535   4.659   0.078  15.091 -1.8007 -1.6739  0.6869
  366MPD2    H3 5536   4.641   4.586  15.088 -2.3150  1.9174  2.1266
  366MPD2     N 5537   0.286   4.529  15.339 -0.2600  0.5067  0.4370
  366MPD2    H5 5538   0.348   4.571  15.406 -2.5199 -1.6066  3.8668
  366MPD2    N1 5539   0.125   0.227  15.225 -0.7032  0.4362 -0.3562
  366MPD2    H7 5540   0.213   0.261  15.264 -0.0197 -1.4888 -0.2317
  367TMC3    C1 5541   0.065   0.455  15.207  0.3554  0.7958  0.0491
  367TMC3    C2 5542   0.137   0.473  15.320  0.2844  0.0531  0.1919
  367TMC3    C3 5543   0.131   0.598  15.372 -0.5534  0.2594  0.1019
  367TMC3    C4 5544   4.722   0.552  15.150  0.1093  0.7782 -0.0291
  367TMC3    C5 5545   4.719   0.675  15.208 -0.5402 -0.6222  0.0331
  367TMC3    C6 5546   0.064   0.708  15.318  0.2953  0.0249  0.1128
  367TMC3     C 5547   0.042   0.322  15.163 -0.3163 -0.1169  0.7697
  367TMC3     O 5548   4.699   0.310  15.071  0.0975  0.0962 -0.5768
  367TMC3     H 5549   0.197   0.401  15.374  1.4155  0.8304 -0.0195
  367TMC3    H1 5550   4.658   0.533  15.065  1.4195 -0.4515 -0.7553
  367TMC3    H2 5551   0.055   0.811  15.350  2.0457 -0.0601  0.9122
  367TMC3    C7 5552   4.602   0.757  15.188  0.5407 -0.0745 -0.0735
  367TMC3    C8 5553   0.235   0.638  15.464 -0.3937 -0.6376  0.1775
  367TMC3    O1 5554   4.546   0.798  15.287  0.7056  0.7500 -0.0064
  367TMC3    O2 5555   0.322   0.551  15.476 -0.3693 -0.0298  0.3711
  368MPD2     C 5556   1.376   1.382  12.930  0.0126 -0.0253 -0.1048
  368MPD2    C1 5557   1.398   1.502  12.862  0.2190  0.7295 -0.4075
  368MPD2    C2 5558   1.465   1.485  12.740  0.5213  0.2429  0.7565
  368MPD2    C3 5559   1.535   1.370  12.707  0.0605 -0.8750  0.3938
  368MPD2    C4 5560   1.512   1.250  12.773 -0.3447 -0.2229 -0.3329
  368MPD2    C5 5561   1.435   1.262  12.885 -0.6688 -0.1255 -0.3971
  368MPD2     H 5562   1.491   1.569  12.678  0.4273  0.1926  0.6487
  368MPD2    H1 5563   1.564   1.158  12.752  0.5813  0.5137 -1.2820
  368MPD2    H2 5564   1.321   1.379  13.023 -1.2943  0.4954 -0.8447
  368MPD2    H3 5565   1.412   1.170  12.939 -0.3536 -0.1734 -0.3439
  368MPD2     N 5566   1.634   1.365  12.607 -0.5780 -0.1204 -0.7856
  368MPD2    H5 5567   1.673   1.272  12.599 -0.5672 -0.2372  0.7515
  368MPD2    N1 5568   1.332   1.620  12.909  0.3398  0.0575  0.7820
  368MPD2    H7 5569   1.284   1.607  12.997  1.0429  2.2088  1.4891
  369TMC3    C1 5570   1.253   1.837  12.915 -0.0600 -0.3291  0.7230
  369TMC3    C2 5571   1.271   1.962  12.876 -0.9278  0.1226 -0.4170
  369TMC3    C3 5572   1.172   2.053  12.899 -0.6748  0.6405 -0.4698
  369TMC3    C4 5573   1.135   1.789  12.973 -0.5914 -0.7064 -0.2300
  369TMC3    C5 5574   1.039   1.878  12.993  0.8155 -0.5206  0.4892
  369TMC3    C6 5575   1.055   2.009  12.955  0.0990  0.3242  0.5105
  369TMC3     C 5576   1.337   1.747  12.850 -0.3748  0.0474  0.3192
  369TMC3     O 5577   1.407   1.789  12.756  0.2441  0.3067 -0.0336
  369TMC3     H 5578   1.367   2.002  12.848 -1.6273  0.7526 -1.8997
  369TMC3    H1 5579   1.120   1.683  12.985 -1.3119 -0.5750  0.0483
  369TMC3    H2 5580   0.971   2.076  12.969  0.0422  0.7242 -1.6633
  369TMC3    C7 5581   0.906   1.833  13.028  0.1172  0.0362  0.0208
  369TMC3    C8 5582   1.207   2.185  12.851  1.0156  0.2924 -0.1918
  369TMC3    O1 5583   0.905   1.715  13.073 -0.1466  0.5561  0.8185
  369TMC3    O2 5584   1.309   2.208  12.785  0.1492  0.1111  0.0413
  370TMC3    C1 5585   0.952   2.625  16.243 -0.6878 -0.6171 -0.0003
  370TMC3    C2 5586   0.871   2.563  16.336  0.6697 -0.3722 -0.0687
  370TMC3    C3 5587   0.828   2.430  16.312 -0.4811 -0.2768 -0.1473
  370TMC3    C4 5588   0.969   2.564  16.125 -0.8807  0.7595  0.5270
  370TMC3    C5 5589   0.925   2.435  16.100 -0.1952 -0.8525 -0.1710
  370TMC3    C6 5590   0.865   2.365  16.198  1.3264 -0.9162  0.1169
  370TMC3     C 5591   1.051   2.716  16.286 -0.0979  0.4576  0.6451
  370TMC3     O 5592   1.081   2.711  16.408  0.4466  0.1405  0.2547
  370TMC3     H 5593   0.850   2.616  16.428 -0.6735  0.6899 -0.9665
  370TMC3    H1 5594   1.017   2.624  16.049  0.9100 -1.4417 -0.0945
  370TMC3    H2 5595   0.844   2.259  16.184 -0.3433 -0.1147 -3.3339
  370TMC3    C7 5596   0.985   2.370  15.988 -0.7438  0.0115 -0.2701
  370TMC3    C8 5597   0.741   2.365  16.404  0.0639  0.2715  0.0802
  370TMC3    O1 5598   0.954   2.414  15.878 -0.1215  0.4366  0.2438
  370TMC3    O2 5599   0.725   2.243  16.385 -0.3614  0.5908 -0.3828
  371TMC3    C1 5600   2.149   0.631  15.601  0.6538 -0.4414  0.2079
  371TMC3    C2 5601   2.026   0.645  15.659  0.4668 -0.1984 -0.2573
  371TMC3    C3 5602   1.954   0.761  15.639 -0.9396 -1.3101 -0.7734
  371TMC3    C4 5603   2.211   0.744  15.548  0.3558 -0.0562 -0.1413
  371TMC3    C5 5604   2.133   0.858  15.531 -0.2712 -0.5191 -0.1035
  371TMC3    C6 5605   2.009   0.872  15.579  0.1942  0.4318 -0.0034
  371TMC3     C 5606   2.239   0.525  15.626 -0.1660  0.0023 -0.6820
  371TMC3     O 5607   2.349   0.536  15.585  0.4490 -0.0287  0.5915
  371TMC3     H 5608   1.977   0.561  15.705 -1.7758  0.0634 -2.1650
  371TMC3    H1 5609   2.312   0.741  15.509  0.1767 -0.9700 -0.5081
  371TMC3    H2 5610   1.956   0.966  15.578  0.6266  0.6721 -0.2315
  371TMC3    C7 5611   2.195   0.982  15.465 -1.0001 -0.4713 -0.4047
  371TMC3    C8 5612   1.813   0.766  15.690 -0.9888 -0.3959  0.5127
  371TMC3    O1 5613   2.127   1.081  15.471  0.4353 -0.0716  0.4014
  371TMC3    O2 5614   1.770   0.655  15.721  0.8215 -0.3672  1.0406
  372MPD2     C 5615   1.741   1.699  13.522  0.0762 -0.3020  0.1282
  372MPD2    C1 5616   1.825   1.599  13.563  0.4806  0.3377  0.0948
  372MPD2    C2 5617   1.768   1.475  13.582 -0.6111 -0.5054 -0.2529
  372MPD2    C3 5618   1.632   1.450  13.570  0.2209 -0.3194 -0.7081
  372MPD2    C4 5619   1.552   1.548  13.533 -0.2772  0.0911  0.1028
  372MPD2    C5 5620   1.610   1.668  13.507 -0.2589 -0.0487  0.6625
  372MPD2     H 5621   1.828   1.388  13.604 -0.6993 -0.6844 -0.7145
  372MPD2    H1 5622   1.446   1.526  13.521 -0.0721  0.2194 -2.0403
  372MPD2    H2 5623   1.765   1.804  13.513  0.5374 -0.7324 -3.3653
  372MPD2    H3 5624   1.547   1.747  13.468  0.9159  0.5976  0.0691
  372MPD2     N 5625   1.590   1.325  13.600 -0.5399  0.4258  0.0948
  372MPD2    H5 5626   1.663   1.259  13.628 -0.8292  0.8432  1.8212
  372MPD2    N1 5627   1.968   1.613  13.572  1.0744  0.7155  0.0969
  372MPD2    H7 5628   2.027   1.531  13.583  0.6186  0.4293  0.4479
  373TMC3    C1 5629   1.456   1.160  13.680 -0.2572  0.3023  0.5250
  373TMC3    C2 5630   1.381   1.147  13.793  0.0858 -0.2575  0.3142
  373TMC3    C3 5631   1.395   1.036  13.870 -0.4641 -0.7000 -0.7054
  373TMC3    C4 5632   1.514   1.048  13.625  0.1257 -0.4255 -0.1169
  373TMC3    C5 5633   1.517   0.926  13.697 -0.6884  0.4624  0.0879
  373TMC3    C6 5634   1.464   0.927  13.820 -0.3387  0.0418 -0.2787
  373TMC3     C 5635   1.462   1.285  13.616 -0.3171  0.1732  0.4421
  373TMC3     O 5636   1.356   1.348  13.608  0.3047  0.5194  0.0472
  373TMC3     H 5637   1.339   1.236  13.836 -0.7140 -0.0639 -0.8522
  373TMC3    H1 5638   1.569   1.061  13.533 -0.5075  2.1836 -0.1311
  373TMC3    H2 5639   1.454   0.832  13.872 -1.3546  0.9471  1.2044
  373TMC3    C7 5640   1.629   0.830  13.663 -0.5997  0.0960 -0.0344
  373TMC3    C8 5641   1.369   1.049  14.016 -0.2269 -0.3661  0.0022
  373TMC3    O1 5642   1.684   0.846  13.556  0.2677  0.2529 -0.0380
  373TMC3    O2 5643   1.397   0.961  14.094 -0.1111 -0.1223 -0.4366
  374TMC3    C1 5644   2.196   2.219  10.347  0.2768  0.4222 -0.1642
  374TMC3    C2 5645   2.262   2.328  10.302  0.0182  0.3814 -0.4741
  374TMC3    C3 5646   2.211   2.387  10.187 -0.6413 -0.2314  0.4436
  374TMC3    C4 5647   2.080   2.177  10.296  0.1439  0.3174  0.3081
  374TMC3    C5 5648   2.030   2.246  10.192  0.1960  0.3938 -0.0909
  374TMC3    C6 5649   2.089   2.357  10.137  0.5115 -0.4891  0.1986
  374TMC3     C 5650   2.232   2.158  10.469  0.6171 -0.4413 -0.2699
  374TMC3     O 5651   2.141   2.091  10.517  0.4792  0.2897 -0.4453
  374TMC3     H 5652   2.310   2.397  10.371  3.5554  0.2804 -2.8361
  374TMC3    H1 5653   2.027   2.091  10.337 -0.8036  0.8151  0.1201
  374TMC3    H2 5654   2.063   2.398  10.040  1.4892  0.3652  0.3040
  374TMC3    C7 5655   1.926   2.181  10.109  0.0032  0.1346  0.2420
  374TMC3    C8 5656   2.298   2.445  10.091  0.8392 -0.4365  0.5195
  374TMC3    O1 5657   1.869   2.252  10.031  0.4415 -0.5308 -0.4482
  374TMC3    O2 5658   2.259   2.466   9.975  0.1549  0.6395  0.1766
  375MPD2     C 5659   2.383   2.533  17.097 -0.3895 -0.2395 -0.2569
  375MPD2    C1 5660   2.369   2.586  16.967  0.2087 -1.0909  0.3251
  375MPD2    C2 5661   2.445   2.523  16.869 -0.3270  0.4295  0.4045
  375MPD2    C3 5662   2.552   2.439  16.899  0.2585 -0.1251  0.1442
  375MPD2    C4 5663   2.582   2.409  17.033  0.2825  0.4205 -0.1447
  375MPD2    C5 5664   2.493   2.455  17.123 -0.3320 -0.3655 -0.1255
  375MPD2     H 5665   2.444   2.559  16.766 -2.1668  2.1967  1.0404
  375MPD2    H1 5666   2.663   2.344  17.064  0.5599  0.6307 -0.4228
  375MPD2    H2 5667   2.318   2.559  17.180  0.8854  2.0043  0.0492
  375MPD2    H3 5668   2.510   2.438  17.229  0.3627 -0.6411 -0.2831
  375MPD2     N 5669   2.625   2.373  16.803 -0.2279 -0.0897  0.3138
  375MPD2    H5 5670   2.698   2.313  16.841  0.0755  0.4698  0.6000
  375MPD2    N1 5671   2.269   2.675  16.927 -0.2547 -0.2968 -0.5959
  375MPD2    H7 5672   2.239   2.683  16.830 -1.5198 -0.4535 -0.2132
  376TMC3    C1 5673   2.675   2.277  16.588  0.1052 -0.2120  0.6872
  376TMC3    C2 5674   2.807   2.269  16.621 -0.2382 -0.1687 -0.1451
  376TMC3    C3 5675   2.893   2.226  16.520  0.8179  0.2580  0.5554
  376TMC3    C4 5676   2.630   2.246  16.461  0.1674  0.6688 -0.6332
  376TMC3    C5 5677   2.727   2.200  16.373  0.3552 -0.0321  0.1991
  376TMC3    C6 5678   2.853   2.195  16.399 -0.0068 -0.0229 -0.1278
  376TMC3     C 5679   2.587   2.359  16.669 -0.4445 -0.0707  0.2146
  376TMC3     O 5680   2.487   2.398  16.608  0.4096  0.1005  0.0940
  376TMC3     H 5681   2.853   2.314  16.708  0.4408 -1.6779  0.2865
  376TMC3    H1 5682   2.523   2.235  16.448  0.3538 -0.3066 -1.3094
  376TMC3    H2 5683   2.919   2.176  16.315  1.4493  0.3985  0.9230
  376TMC3    C7 5684   2.695   2.267  16.251 -0.6512  0.0361  0.0906
  376TMC3    C8 5685   3.029   2.275  16.529 -0.1694 -1.3713  0.3413
  376TMC3    O1 5686   2.614   2.353  16.263 -0.5256  0.1044  0.0842
  376TMC3    O2 5687   3.064   2.326  16.421  0.2058 -0.2790  0.2348
  377MPD2     C 5688   1.125   1.746  12.596  0.0473  0.0115  0.6835
  377MPD2    C1 5689   1.051   1.862  12.586  0.7217 -0.3182 -0.2720
  377MPD2    C2 5690   0.918   1.852  12.630  0.5860 -0.1770  0.2196
  377MPD2    C3 5691   0.860   1.733  12.674 -0.7785  0.1047  0.4215
  377MPD2    C4 5692   0.938   1.620  12.684 -0.1738  0.0411 -0.0063
  377MPD2    C5 5693   1.074   1.633  12.656  0.0266 -0.5708 -0.2021
  377MPD2     H 5694   0.865   1.946  12.638  1.2100  0.3571 -1.8218
  377MPD2    H1 5695   0.892   1.532  12.726  1.6836 -0.5452  0.7988
  377MPD2    H2 5696   1.228   1.745  12.563  0.6999  0.6549  2.7191
  377MPD2    H3 5697   1.139   1.547  12.667  0.1914 -0.5761 -1.2656
  377MPD2     N 5698   0.715   1.724  12.710 -0.0748 -0.0110  0.3300
  377MPD2    H5 5699   0.677   1.637  12.746  2.0468 -1.0026  0.2122
  377MPD2    N1 5700   1.117   1.981  12.545 -0.1613 -0.2363  0.0040
  377MPD2    H7 5701   1.216   1.973  12.523  0.0449 -0.0604  0.8605
  378TMC3    C1 5702   1.153   2.399  12.330  0.2728 -0.1675  0.0775
  378TMC3    C2 5703   1.091   2.314  12.419  0.0716 -0.1706 -0.3632
  378TMC3    C3 5704   1.153   2.194  12.449  0.4393 -0.2543  0.4446
  378TMC3    C4 5705   1.279   2.367  12.274 -0.1499  0.1242  0.6745
  378TMC3    C5 5706   1.339   2.248  12.316  0.0214  0.1540 -0.6407
  378TMC3    C6 5707   1.274   2.161  12.401 -0.2539  0.0724  0.3587
  378TMC3     C 5708   1.087   2.526  12.324 -0.0768 -0.2150  0.4552
  378TMC3     O 5709   0.994   2.554  12.401 -0.3234 -0.4378 -0.0023
  378TMC3     H 5710   1.000   2.330  12.474  0.1586  1.2391 -0.6414
  378TMC3    H1 5711   1.307   2.432  12.192 -0.4797  2.2250  2.2307
  378TMC3    H2 5712   1.323   2.069  12.431 -3.1146 -0.2095  4.0129
  378TMC3    C7 5713   1.450   2.195  12.237  0.6849 -0.5336 -0.1499
  378TMC3    C8 5714   1.063   2.105  12.534  0.9157 -0.5446  0.2039
  378TMC3    O1 5715   1.482   2.077  12.268 -1.0218 -0.4349 -0.0560
  378TMC3    O2 5716   0.947   2.136  12.557 -0.3106 -0.3907 -0.3989
  379MPD2     C 5717   1.267   0.713  16.235  0.0693 -0.4038 -0.2416
  379MPD2    C1 5718   1.175   0.621  16.291 -0.0977 -0.3128  0.2300
  379MPD2    C2 5719   1.223   0.542  16.396  0.7967  0.1177 -0.0997
  379MPD2    C3 5720   1.356   0.553  16.441 -0.0277  0.0644 -0.5069
  379MPD2    C4 5721   1.441   0.641  16.378 -0.3146 -0.7085 -0.1883
  379MPD2    C5 5722   1.400   0.723  16.275  0.0757  0.6787 -0.3611
  379MPD2     H 5723   1.155   0.481  16.454  1.6537 -0.6089  0.1476
  379MPD2    H1 5724   1.548   0.643  16.396  0.0697  0.7134 -2.5805
  379MPD2    H2 5725   1.226   0.767  16.151  1.1862 -1.9598 -1.7654
  379MPD2    H3 5726   1.469   0.789  16.225 -0.0082 -0.2352 -1.6620
  379MPD2     N 5727   1.421   0.485  16.547 -0.1254 -0.0370  0.0726
  379MPD2    H5 5728   1.520   0.504  16.548  0.3840 -2.5519 -2.2833
  379MPD2    N1 5729   1.047   0.594  16.229  0.2398  0.5531  0.0128
  379MPD2    H7 5730   1.020   0.661  16.157  0.3024  2.1132  1.4293
  380TMC3    C1 5731   0.894   0.460  16.121  0.1805  0.9171 -0.6509
  380TMC3    C2 5732   0.936   0.372  16.025  0.8896 -0.0455 -0.2221
  380TMC3    C3 5733   0.875   0.379  15.905  0.2652  0.1511 -0.3784
  380TMC3    C4 5734   0.804   0.557  16.112  0.1034  0.5126 -0.0855
  380TMC3    C5 5735   0.745   0.560  15.989 -0.1703 -0.0320  0.2412
  380TMC3    C6 5736   0.770   0.469  15.883 -0.4893 -0.8241  0.0466
  380TMC3     C 5737   0.992   0.470  16.223  0.4752  0.2418  0.4507
  380TMC3     O 5738   1.013   0.367  16.282  0.3647  0.2265 -0.4221
  380TMC3     H 5739   1.021   0.308  16.048  1.3036  1.3984  2.2717
  380TMC3    H1 5740   0.792   0.631  16.190  1.1907 -1.4517  1.9196
  380TMC3    H2 5741   0.730   0.482  15.783 -2.5380 -1.3357  0.7954
  380TMC3    C7 5742   0.665   0.678  15.959  0.2095  0.4557  0.6874
  380TMC3    C8 5743   0.966   0.358  15.794  0.5401  0.3550  0.4178
  380TMC3    O1 5744   0.698   0.773  16.027 -0.0984 -0.1384 -0.5055
  380TMC3    O2 5745   1.087   0.356  15.816  0.0010  0.4363 -0.2288
  381TMC3    C1 5746   0.808   1.661  16.255  0.3707 -0.9621 -0.0358
  381TMC3    C2 5747   0.866   1.777  16.221  0.9722  0.0877  0.5967
  381TMC3    C3 5748   0.867   1.880  16.306 -0.6789  0.1295 -0.8066
  381TMC3    C4 5749   0.739   1.639  16.371  0.3212 -0.1708 -0.1728
  381TMC3    C5 5750   0.722   1.752  16.447 -0.2565 -0.8054 -0.6145
  381TMC3    C6 5751   0.788   1.874  16.417 -0.0602 -0.1058  0.0943
  381TMC3     C 5752   0.850   1.537  16.178  0.1066  0.0862 -0.9337
  381TMC3     O 5753   0.812   1.432  16.226  0.7509  0.8224 -0.0894
  381TMC3     H 5754   0.919   1.796  16.128  0.6950  1.8973  0.8015
  381TMC3    H1 5755   0.699   1.543  16.402  0.7643 -0.7443 -1.3668
  381TMC3    H2 5756   0.765   1.963  16.474  0.1715 -1.6469  2.5886
  381TMC3    C7 5757   0.703   1.718  16.582 -0.1535  0.0313 -0.2103
  381TMC3    C8 5758   0.977   1.973  16.298 -0.1651 -0.2655 -0.2513
  381TMC3    O1 5759   0.757   1.616  16.615 -0.0838 -0.4710 -0.1068
  381TMC3    O2 5760   1.046   1.963  16.198 -0.6332  0.0722 -0.0201
  382MPD2     C 5761   0.184   4.360  16.922 -0.5830 -0.3043  0.2805
  382MPD2    C1 5762   0.172   4.375  17.056  0.4156  0.6480  0.2983
  382MPD2    C2 5763   0.127   4.274  17.137 -0.3998  0.1751  0.4342
  382MPD2    C3 5764   0.100   4.148  17.078  0.2079 -0.1122 -0.2403
  382MPD2    C4 5765   0.128   4.134  16.946  0.3517  0.6000  0.5106
  382MPD2    C5 5766   0.159   4.241  16.864  0.2617 -0.0791 -0.2615
  382MPD2     H 5767   0.124   4.286  17.244 -1.0745 -1.8064  0.6340
  382MPD2    H1 5768   0.119   4.038  16.896  0.1033  1.6510 -1.4532
  382MPD2    H2 5769   0.212   4.443  16.859  0.3680 -1.0621 -0.3006
  382MPD2    H3 5770   0.174   4.220  16.759  0.6396 -1.8601  0.1514
  382MPD2     N 5771   0.042   4.036  17.145  0.3888 -0.0831  0.1414
  382MPD2    H5 5772   0.035   3.949  17.093 -0.1550 -0.0447  0.1511
  382MPD2    N1 5773   0.181   4.496  17.126  0.6312  0.5941  0.8678
  382MPD2    H7 5774   0.174   4.489  17.227  2.9238  1.6068  1.0836
  383TMC3    C1 5775   4.662   3.923  17.322 -0.4689  0.4577 -0.0795
  383TMC3    C2 5776   4.629   3.816  17.240 -0.8362 -0.1926 -0.0822
  383TMC3    C3 5777   4.596   3.694  17.298  0.2037 -0.5697  0.2731
  383TMC3    C4 5778   4.643   3.919  17.458 -0.2169 -0.4606 -0.1220
  383TMC3    C5 5779   4.604   3.799  17.510  0.6009 -0.3906 -0.8429
  383TMC3    C6 5780   4.585   3.687  17.432  0.6407 -0.6333  0.4469
  383TMC3     C 5781   4.730   4.039  17.271 -0.6419 -0.1047 -0.0302
  383TMC3     O 5782   0.003   4.130  17.353  0.6323 -0.0645  0.2307
  383TMC3     H 5783   4.637   3.817  17.132  0.0612 -1.3541 -0.0335
  383TMC3    H1 5784   4.666   3.996  17.531 -0.0601  2.2750 -3.0371
  383TMC3    H2 5785   4.518   3.610  17.469 -0.8833  0.4203 -0.0937
  383TMC3    C7 5786   4.628   3.780  17.651 -0.2697  0.4701 -0.1311
  383TMC3    C8 5787   4.509   3.609  17.217 -0.0424 -0.9725  0.3648
  383TMC3    O1 5788   4.673   3.874  17.721  0.2257  0.0346 -0.1855
  383TMC3    O2 5789   4.451   3.652  17.119  0.1831 -0.4238  0.6152
  384MPD2     C 5790   2.037   0.545  11.963 -1.2956 -0.1208 -0.4124
  384MPD2    C1 5791   1.979   0.489  12.079 -0.2511 -0.5853 -0.4339
  384MPD2    C2 5792   2.003   0.354  12.096  0.1208 -0.2413 -0.5422
  384MPD2    C3 5793   2.086   0.283  12.006 -0.7204 -0.8878  0.0974
  384MPD2    C4 5794   2.141   0.339  11.898 -0.0119 -0.4353 -0.6086
  384MPD2    C5 5795   2.113   0.474  11.878 -0.0682  0.9796 -0.3522
  384MPD2     H 5796   1.945   0.300  12.170 -0.2158  0.8559 -0.0066
  384MPD2    H1 5797   2.199   0.288  11.822  0.9413  1.2303 -0.9887
  384MPD2    H2 5798   2.015   0.649  11.945 -1.3692 -0.0364  0.1662
  384MPD2    H3 5799   2.159   0.526  11.795  1.6605  3.0647  1.9034
  384MPD2     N 5800   2.104   0.149  12.034 -0.1719  0.4636  0.0787
  384MPD2    H5 5801   2.073   0.114  12.124 -2.0019  1.0758 -0.3215
  384MPD2    N1 5802   1.901   0.554  12.173 -0.2505  0.0857 -0.2082
  384MPD2    H7 5803   1.866   0.497  12.250 -3.8021  1.7301 -0.6103
  385TMC3    C1 5804   2.198   4.678  12.052 -0.1465  0.1820  0.8754
  385TMC3    C2 5805   2.135   4.561  12.004  0.0254  0.2665 -0.1201
  385TMC3    C3 5806   2.069   4.479  12.087 -1.1337  0.1683 -0.5507
  385TMC3    C4 5807   2.185   4.701  12.187 -0.1195 -0.2627 -0.9643
  385TMC3    C5 5808   2.112   4.620  12.269 -0.1567  0.6372  0.8848
  385TMC3    C6 5809   2.055   4.508  12.221 -0.0742 -0.2657  0.1034
  385TMC3     C 5810   2.177   0.059  11.962 -0.0556  0.1790 -0.3216
  385TMC3     O 5811   2.197   0.044  11.843  0.0612  0.4149  0.3021
  385TMC3     H 5812   2.126   4.549  11.897  0.8834 -2.0505  0.0833
  385TMC3    H1 5813   2.221   0.060  12.228 -1.9079 -1.0464  2.3711
  385TMC3    H2 5814   1.987   4.453  12.285 -2.5592  2.5986 -0.0891
  385TMC3    C7 5815   2.013   4.703  12.332  0.3887  0.9151  0.6999
  385TMC3    C8 5816   2.073   4.335  12.057  0.4040 -0.1396  0.2756
  385TMC3    O1 5817   1.982   0.062  12.259 -0.6519  0.1436  0.1698
  385TMC3    O2 5818   2.135   4.256  12.132  0.8361 -0.1133  0.4534
  386TMC3    C1 5819   2.269   2.179  12.205 -0.5676 -0.3760  0.2859
  386TMC3    C2 5820   2.253   2.156  12.074 -0.6787  0.3486  0.0935
  386TMC3    C3 5821   2.178   2.241  11.998 -0.0032 -0.9586 -0.0136
  386TMC3    C4 5822   2.230   2.295  12.265 -0.0674  0.2643 -0.2138
  386TMC3    C5 5823   2.159   2.375  12.183 -0.3098 -0.2184  0.6632
  386TMC3    C6 5824   2.134   2.358  12.054 -0.0854 -0.7991 -0.5778
  386TMC3     C 5825   2.347   2.088  12.285  0.8026  0.1630  0.7762
  386TMC3     O 5826   2.341   1.969  12.255  0.4066  0.5786 -0.0173
  386TMC3     H 5827   2.291   2.059  12.045 -0.5261  0.2339  0.6773
  386TMC3    H1 5828   2.260   2.325  12.365 -1.3727 -1.4683  0.7003
  386TMC3    H2 5829   2.081   2.429  11.992 -0.4175 -0.2284  0.3738
  386TMC3    C7 5830   2.119   2.499  12.237 -0.2999 -1.5888 -0.3176
  386TMC3    C8 5831   2.196   2.259  11.855  0.1438 -0.0016  0.0972
  386TMC3    O1 5832   2.095   2.505  12.358 -0.4342 -0.2923 -0.0859
  386TMC3    O2 5833   2.124   2.337  11.793 -0.4082  0.5564  0.3901
  387MPD2     C 5834   4.423   2.969   9.719 -0.3671 -0.6319  0.3305
  387MPD2    C1 5835   4.427   2.987   9.853  0.0331  0.4113  0.5127
  387MPD2    C2 5836   4.418   2.883   9.940 -0.3363  0.4211  0.1366
  387MPD2    C3 5837   4.413   2.754   9.891 -0.6057 -0.5157  0.8166
  387MPD2    C4 5838   4.407   2.737   9.756  0.6885 -0.7371  0.1754
  387MPD2    C5 5839   4.407   2.841   9.676 -0.0734 -0.5637  0.1170
  387MPD2     H 5840   4.423   2.896  10.048 -0.3758 -3.8655  0.6565
  387MPD2    H1 5841   4.399   2.637   9.714 -1.6179 -0.5062  0.0193
  387MPD2    H2 5842   4.431   3.043   9.641 -1.0953 -1.3720 -0.4380
  387MPD2    H3 5843   4.402   2.814   9.571 -0.7043  1.0694 -0.2853
  387MPD2     N 5844   4.420   2.649   9.988  0.5193 -0.2437 -0.4061
  387MPD2    H5 5845   4.416   2.677  10.086  0.7586  0.7614 -0.6871
  387MPD2    N1 5846   4.436   3.112   9.912  0.0719 -0.4129  0.4372
  387MPD2    H7 5847   4.433   3.130  10.011  0.4213  1.2787  0.1487
  388TMC3    C1 5848   4.511   3.328   9.928  0.7718  0.0314 -0.0973
  388TMC3    C2 5849   4.593   3.426   9.872  1.1660  0.8518  0.1125
  388TMC3    C3 5850   4.696   3.481   9.954 -0.2558  0.2049  0.1397
  388TMC3    C4 5851   4.524   3.309  10.062  0.4585 -0.1002  1.1431
  388TMC3    C5 5852   4.621   3.361  10.141  0.4251  0.0544 -0.2322
  388TMC3    C6 5853   4.708   3.456  10.092 -0.0904 -0.6399  0.4743
  388TMC3     C 5854   4.452   3.232   9.844 -0.4236 -0.9330  0.4670
  388TMC3     O 5855   4.456   3.256   9.724  0.0052 -0.1127 -0.1505
  388TMC3     H 5856   4.584   3.454   9.768 -1.2244 -0.5087 -0.0388
  388TMC3    H1 5857   4.444   3.263  10.119  1.1685 -1.0952  1.3423
  388TMC3    H2 5858   0.044   3.503  10.160  0.5245 -1.1832  0.2018
  388TMC3    C7 5859   4.670   3.287  10.250 -0.0061  0.4375  0.7169
  388TMC3    C8 5860   0.032   3.586   9.887  0.1776  0.6526  0.2179
  388TMC3    O1 5861   0.016   3.345  10.323 -0.7323 -0.2808  0.4288
  388TMC3    O2 5862   4.702   3.641   9.799 -0.5908  0.3547  0.4355
  389MPD2     C 5863   3.702   1.044  10.907 -1.0557 -0.3871 -0.4242
  389MPD2    C1 5864   3.678   0.930  10.837  0.2627  0.1203  0.3397
  389MPD2    C2 5865   3.648   0.808  10.900 -0.5805  1.0875  0.2051
  389MPD2    C3 5866   3.649   0.803  11.038 -0.0728 -0.3130 -0.3113
  389MPD2    C4 5867   3.674   0.918  11.103 -0.9310 -0.5875  0.5766
  389MPD2    C5 5868   3.698   1.039  11.042 -0.0675  0.2654  0.1338
  389MPD2     H 5869   3.612   0.726  10.839  0.7086 -0.6867  1.8437
  389MPD2    H1 5870   3.679   0.917  11.212 -0.0909 -0.2308  0.5459
  389MPD2    H2 5871   3.713   1.141  10.862 -0.0117  0.3202  1.3583
  389MPD2    H3 5872   3.700   1.137  11.089 -1.7511  1.1709 -1.6933
  389MPD2     N 5873   3.605   0.688  11.114  0.3429  0.0135 -0.4989
  389MPD2    H5 5874   3.597   0.709  11.213 -2.4008  0.1392 -0.7407
  389MPD2    N1 5875   3.695   0.940  10.694  0.5936 -0.1487 -0.3021
  389MPD2    H7 5876   3.705   1.036  10.663  0.4815  0.1438  0.5582
  390TMC3    C1 5877   3.459   0.501  11.161  0.4543  0.9402  0.5394
  390TMC3    C2 5878   3.501   0.502  11.292  0.8064  0.4004  0.7383
  390TMC3    C3 5879   3.401   0.482  11.392 -0.0804  0.6940 -1.1112
  390TMC3    C4 5880   3.328   0.481  11.135  0.5491 -0.2484  0.4692
  390TMC3    C5 5881   3.235   0.491  11.232  0.0664 -0.5722  0.3536
  390TMC3    C6 5882   3.273   0.501  11.364 -0.4523  0.4382 -0.3831
  390TMC3     C 5883   3.530   0.581  11.060  0.6406 -0.4160  0.5851
  390TMC3     O 5884   3.488   0.560  10.947  0.3108  0.0321 -0.3716
  390TMC3     H 5885   3.607   0.500  11.311  0.9246 -2.1490 -0.1725
  390TMC3    H1 5886   3.296   0.470  11.032  0.4894 -0.1144  0.4738
  390TMC3    H2 5887   3.194   0.521  11.436  1.2974  0.5911  1.4898
  390TMC3    C7 5888   3.132   0.389  11.205 -0.1324  0.1760 -0.4300
  390TMC3    C8 5889   3.400   0.350  11.455  0.1765 -0.5494  0.2930
  390TMC3    O1 5890   3.108   0.352  11.089 -0.2322 -0.2344 -0.1397
  390TMC3    O2 5891   3.454   0.260  11.396  0.2856 -0.0159  0.1921
  391MPD2     C 5892   3.233   1.950  10.794 -0.0290 -0.1287 -0.0836
  391MPD2    C1 5893   3.267   2.085  10.813 -0.8250 -0.2629 -0.5643
  391MPD2    C2 5894   3.295   2.164  10.706 -0.0098 -0.4595  0.5567
  391MPD2    C3 5895   3.285   2.111  10.577 -0.7357 -0.0042  0.2490
  391MPD2    C4 5896   3.241   1.981  10.558 -0.9476 -0.0823  0.2033
  391MPD2    C5 5897   3.207   1.904  10.667 -0.2028  0.1029 -0.3618
  391MPD2     H 5898   3.332   2.266  10.715 -1.2632  0.0215  0.2921
  391MPD2    H1 5899   3.235   1.938  10.458  1.7894 -0.0009 -0.0063
  391MPD2    H2 5900   3.222   1.889  10.883  2.2308 -0.2373  0.1104
  391MPD2    H3 5901   3.176   1.801  10.651  1.1119  0.0286 -2.4797
  391MPD2     N 5902   3.298   2.202  10.473 -0.5803  0.6169  0.1039
  391MPD2    H5 5903   3.332   2.295  10.497 -1.0101  0.6441  0.6126
  391MPD2    N1 5904   3.278   2.130  10.945 -0.0461 -0.0554 -0.3315
  391MPD2    H7 5905   3.235   2.070  11.015 -0.6506  0.2839 -0.4101
  392TMC3    C1 5906   3.248   2.295  10.259  0.2980 -0.3608 -0.0094
  392TMC3    C2 5907   3.141   2.300  10.172 -0.3589  0.0437  0.2573
  392TMC3    C3 5908   3.097   2.424  10.141  0.0721  0.4114 -0.6972
  392TMC3    C4 5909   3.321   2.402  10.300  0.3414 -0.3656  0.0039
  392TMC3    C5 5910   3.273   2.526  10.261  0.0619  0.1101  0.1404
  392TMC3    C6 5911   3.159   2.540  10.187  0.2513  0.2729  0.0522
  392TMC3     C 5912   3.252   2.175  10.347 -0.5488 -0.0493  0.4882
  392TMC3     O 5913   3.195   2.083  10.292  0.5480 -0.2919 -0.2563
  392TMC3     H 5914   3.086   2.214  10.136 -1.1653  1.5725 -2.1709
  392TMC3    H1 5915   3.400   2.389  10.372  1.0070 -0.1778 -0.6830
  392TMC3    H2 5916   3.126   2.637  10.152  0.2168  0.5101  0.7493
  392TMC3    C7 5917   3.326   2.646  10.325 -0.2969 -0.2715  0.0259
  392TMC3    C8 5918   2.955   2.436  10.139  0.2259  0.1461 -0.1034
  392TMC3    O1 5919   3.444   2.631  10.364 -0.3117 -0.0870 -0.2599
  392TMC3    O2 5920   2.887   2.365  10.209  0.4890 -0.2247  0.3301
  393TMC3    C1 5921   2.406   0.168  10.406  0.3090  0.8044  0.1006
  393TMC3    C2 5922   2.295   0.115  10.481  0.0295  0.2731 -0.6338
  393TMC3    C3 5923   2.293   4.711  10.493  0.5144  0.7861  0.2150
  393TMC3    C4 5924   2.511   0.098  10.364 -0.5218 -0.2450  0.8655
  393TMC3    C5 5925   2.512   4.702  10.396 -0.4223 -0.0466 -0.1501
  393TMC3    C6 5926   2.403   4.636  10.451  0.3096  0.6278  0.0287
  393TMC3     C 5927   2.406   0.312  10.408  0.3970  0.4003 -0.3073
  393TMC3     O 5928   2.314   0.355  10.474  0.1387  0.4268  0.1214
  393TMC3     H 5929   2.206   0.173  10.505  0.6321 -0.2200  2.7749
  393TMC3    H1 5930   2.597   0.144  10.319 -1.2206  0.2178  0.0163
  393TMC3    H2 5931   2.394   4.529  10.468  3.7905  0.5117  1.0468
  393TMC3    C7 5932   2.620   4.615  10.361  0.0338  0.4025  0.1037
  393TMC3    C8 5933   2.168   4.643  10.531  0.4536  0.0541 -0.2555
  393TMC3    O1 5934   2.630   4.510  10.416 -0.0080 -0.1355  0.2889
  393TMC3    O2 5935   2.147   4.529  10.485  0.4228 -0.1829  0.0529
  394TMC3    C1 5936   3.729   0.898  10.468  0.0502  0.2222 -0.4116
  394TMC3    C2 5937   3.671   0.844  10.355 -0.0012  0.7479  0.7498
  394TMC3    C3 5938   3.700   0.897  10.234 -0.4402 -0.6661  0.2080
  394TMC3    C4 5939   3.844   0.978  10.460 -0.8765  0.5158  0.3227
  394TMC3    C5 5940   3.869   1.018  10.332 -0.4432 -0.1570  0.6098
  394TMC3    C6 5941   3.796   0.988  10.224  0.3973  0.2533  0.5031
  394TMC3     C 5942   3.678   0.854  10.595 -0.0682  0.3570  0.0838
  394TMC3     O 5943   3.627   0.743  10.602 -0.0085 -0.3638  0.4950
  394TMC3     H 5944   3.597   0.765  10.364  0.9260 -0.2269 -0.3012
  394TMC3    H1 5945   3.887   1.017  10.551 -4.3990  0.3006  2.1064
  394TMC3    H2 5946   3.832   1.009  10.124 -0.8340  0.2682  0.0632
  394TMC3    C7 5947   3.992   1.089  10.316  0.1298 -0.6983  0.0047
  394TMC3    C8 5948   3.688   0.812  10.112 -0.2081  0.0561 -0.1237
  394TMC3    O1 5949   4.013   1.156  10.214  0.3792  0.4407 -0.0912
  394TMC3    O2 5950   3.705   0.854   9.999  0.4566 -0.2723  1.2320
  395TMC3    C1 5951   3.160   2.633  14.981 -0.1097 -0.4885 -0.1301
  395TMC3    C2 5952   3.095   2.585  14.873  0.2495  0.1331 -0.0014
  395TMC3    C3 5953   3.122   2.638  14.753  1.2508 -0.6157  0.0636
  395TMC3    C4 5954   3.241   2.746  14.972  0.4616  0.6851  0.1532
  395TMC3    C5 5955   3.268   2.799  14.848  0.0431  0.0317  0.1847
  395TMC3    C6 5956   3.209   2.747  14.738  0.7942  0.4167 -0.2684
  395TMC3     C 5957   3.159   2.570  15.110  0.5441 -0.5850 -0.0741
  395TMC3     O 5958   3.190   2.626  15.214  0.4396  0.7087  0.1611
  395TMC3     H 5959   3.020   2.508  14.885  1.7987 -1.1477  1.4576
  395TMC3    H1 5960   3.298   2.777  15.059 -1.5178  1.6510  1.1151
  395TMC3    H2 5961   3.223   2.789  14.639  2.1135 -0.1486 -0.3138
  395TMC3    C7 5962   3.370   2.904  14.844 -0.1429  0.7788  0.5324
  395TMC3    C8 5963   3.049   2.601  14.644 -1.0338  0.7164  0.2237
  395TMC3    O1 5964   3.365   2.982  14.935 -0.0413  0.2065 -0.4040
  395TMC3    O2 5965   3.035   2.687  14.557 -0.0404 -0.1206  0.1757
  396MPD2     C 5966   2.758   3.276  17.226  0.4059 -0.1479  0.6240
  396MPD2    C1 5967   2.879   3.339  17.268 -0.2410 -0.5067  0.1983
  396MPD2    C2 5968   2.942   3.431  17.186 -0.1192  0.3839  0.0715
  396MPD2    C3 5969   2.879   3.483  17.067  0.4123 -0.2722  0.6241
  396MPD2    C4 5970   2.761   3.423  17.032  0.3648  0.8682  0.7175
  396MPD2    C5 5971   2.702   3.318  17.108  0.3298  0.4603  0.0604
  396MPD2     H 5972   3.043   3.461  17.215  0.1055  0.8570 -1.2025
  396MPD2    H1 5973   2.705   3.459  16.947  1.7674 -0.9531 -0.9917
  396MPD2    H2 5974   2.706   3.203  17.287 -0.3574 -0.1842 -0.0715
  396MPD2    H3 5975   2.605   3.278  17.082  0.9733 -0.1526 -1.3775
  396MPD2     N 5976   2.940   3.579  16.993 -0.8545 -0.7998 -0.4017
  396MPD2    H5 5977   3.023   3.624  17.032 -2.1065  0.1665  1.1344
  396MPD2    N1 5978   2.931   3.304  17.400 -0.4399  0.1016  0.6049
  396MPD2    H7 5979   2.875   3.237  17.453 -1.1790  0.4643  0.2800
  397TMC3    C1 5980   3.109   3.235  17.542  0.0705 -0.6344  1.3015
  397TMC3    C2 5981   3.246   3.248  17.550 -0.5306  0.4712 -0.0292
  397TMC3    C3 5982   3.324   3.161  17.499 -0.3565  0.7501  0.5473
  397TMC3    C4 5983   3.055   3.111  17.508  0.4800 -0.4757  0.6797
  397TMC3    C5 5984   3.153   3.025  17.461 -0.8081  0.5730  1.2652
  397TMC3    C6 5985   3.284   3.037  17.464  0.0997  0.1198 -0.4782
  397TMC3     C 5986   3.056   3.337  17.450 -0.3010  0.0068 -0.0869
  397TMC3     O 5987   3.129   3.428  17.424  0.1973  0.1548 -0.3878
  397TMC3     H 5988   3.280   3.350  17.563  0.0306  0.1837  0.7425
  397TMC3    H1 5989   2.948   3.096  17.497  0.0375  3.0889 -0.0567
  397TMC3    H2 5990   3.357   2.965  17.429 -0.7009 -1.4544  1.0929
  397TMC3    C7 5991   3.110   2.893  17.427 -0.4910 -0.0838  0.1521
  397TMC3    C8 5992   3.440   3.215  17.434 -0.1555  0.3367 -0.3093
  397TMC3    O1 5993   3.158   2.837  17.327  0.1618 -0.0161 -0.5659
  397TMC3    O2 5994   3.521   3.286  17.493 -0.1805  0.6405 -0.0267
  398MPD2     C 5995   1.044   0.411   0.355 -0.1675  0.4870 -0.2814
  398MPD2    C1 5996   1.145   0.318   0.387  0.3792  0.3171 -0.0178
  398MPD2    C2 5997   1.273   0.370   0.392  0.4523 -0.0512  0.7121
  398MPD2    C3 5998   1.292   0.507   0.378  0.1442 -0.2095  0.4227
  398MPD2    C4 5999   1.190   0.594   0.350 -0.5579  0.5352  0.0543
  398MPD2    C5 6000   1.066   0.542   0.334 -0.2234 -0.5934 -0.3346
  398MPD2     H 6001   1.351   0.296   0.408  0.5828  0.0124  0.3709
  398MPD2    H1 6002   1.202   0.701   0.339  1.0250  0.2609 -0.7988
  398MPD2    H2 6003   0.946   0.373   0.331  0.3301 -1.2267  0.4181
  398MPD2    H3 6004   0.994   0.611   0.291 -1.8608 -2.6983 -0.9406
  398MPD2     N 6005   1.424   0.550   0.385  0.3820 -0.1365 -0.6554
  398MPD2    H5 6006   1.490   0.478   0.414 -2.1416 -2.0903  0.2971
  398MPD2    N1 6007   1.114   0.185   0.413  0.0452 -0.3628  0.4878
  398MPD2    H7 6008   1.188   0.129   0.455  1.0476  0.9539  0.4918
  399TMC3    C1 6009   1.026   4.705   0.383 -0.1750  0.2132  0.7257
  399TMC3    C2 6010   1.123   4.649   0.457  0.2280 -0.8607 -0.5710
  399TMC3    C3 6011   1.145   4.514   0.447 -1.1549  0.2009 -0.1367
  399TMC3    C4 6012   0.946   4.619   0.304 -0.2344 -0.3010 -0.2659
  399TMC3    C5 6013   0.978   4.481   0.303 -0.1017 -0.1034  0.5554
  399TMC3    C6 6014   1.075   4.419   0.378 -0.4411 -0.1984  0.3961
  399TMC3     C 6015   1.003   0.115   0.375  0.1376  0.2254  0.3132
  399TMC3     O 6016   0.913   0.141   0.301  0.0823 -0.2034 -0.0776
  399TMC3     H 6017   1.177   4.700   0.536 -2.6778 -0.6040  1.2329
  399TMC3    H1 6018   0.862   4.666   0.255 -0.6283 -0.9890 -0.2515
  399TMC3    H2 6019   1.096   4.314   0.364 -1.1802  0.1625 -3.5495
  399TMC3    C7 6020   0.866   4.400   0.258 -0.7219 -0.1895 -0.7361
  399TMC3    C8 6021   1.262   4.466   0.509 -0.0800  1.0962  0.2789
  399TMC3    O1 6022   0.867   4.277   0.276 -0.1800  0.6000 -0.0141
  399TMC3    O2 6023   1.314   4.536   0.597 -0.0704 -0.0577 -0.7061
  400TMC3    C1 6024   4.628   3.379  16.924 -1.1202  0.7022  0.2084
  400TMC3    C2 6025   4.533   3.318  16.843  0.3345 -0.1327 -0.6969
  400TMC3    C3 6026   4.451   3.404  16.766 -0.8001 -0.1147 -0.2138
  400TMC3    C4 6027   4.652   3.515  16.920  0.3867 -0.7448  0.4234
  400TMC3    C5 6028   4.563   3.593  16.837 -0.3855 -0.2046 -0.2424
  400TMC3    C6 6029   4.474   3.535  16.757 -0.1724  0.1628  0.1194
  400TMC3     C 6030   0.002   3.290  16.959 -0.5968 -0.7396  0.3160
  400TMC3     O 6031   0.024   3.197  16.885 -0.2193 -0.4851 -0.1597
  400TMC3     H 6032   4.519   3.211  16.854  1.1712 -0.2023 -0.3356
  400TMC3    H1 6033   4.731   3.565  16.974  0.3312  0.3872 -0.5388
  400TMC3    H2 6034   4.412   3.590  16.688 -0.6193 -1.1377 -0.5028
  400TMC3    C7 6035   4.595   3.733  16.820  0.0025  1.0455 -0.1619
  400TMC3    C8 6036   4.333   3.347  16.704 -0.3132 -0.2738 -0.5999
  400TMC3    O1 6037   4.645   3.765  16.715  0.1630 -0.4082 -0.3636
  400TMC3    O2 6038   4.257   3.428  16.659  0.6888 -0.3404  0.0450
  401MPD2     C 6039   2.372   1.599   0.912 -0.5406 -0.5164 -0.0866
  401MPD2    C1 6040   2.487   1.532   0.937 -0.2816  0.2353  0.0845
  401MPD2    C2 6041   2.482   1.403   0.990  0.6147 -0.5570  0.1461
  401MPD2    C3 6042   2.357   1.344   1.003  0.9095 -0.9468  0.5906
  401MPD2    C4 6043   2.239   1.411   0.976 -0.4968  0.4327 -0.6787
  401MPD2    C5 6044   2.244   1.536   0.920  0.2065 -0.0222  0.3401
  401MPD2     H 6045   2.571   1.342   1.002  0.3531 -0.3629  2.9445
  401MPD2    H1 6046   2.146   1.356   0.984 -0.5027  0.1979 -2.2194
  401MPD2    H2 6047   2.373   1.703   0.880 -0.0877 -1.0581 -1.8208
  401MPD2    H3 6048   2.157   1.579   0.872 -0.1249 -1.2058 -0.1090
  401MPD2     N 6049   2.363   1.207   1.031 -0.1965 -0.2295 -0.5705
  401MPD2    H5 6050   2.448   1.156   1.007  0.7639  0.3263  1.6431
  401MPD2    N1 6051   2.609   1.596   0.926  0.0188 -0.5605 -0.0830
  401MPD2    H7 6052   2.691   1.539   0.946  0.8062  0.0742 -1.5549
  402TMC3    C1 6053   2.285   1.003   1.093  0.4946 -0.2991  0.4381
  402TMC3    C2 6054   2.299   0.949   1.217 -0.0135 -0.2389  0.0909
  402TMC3    C3 6055   2.372   0.832   1.231  0.2041 -0.2873  0.1068
  402TMC3    C4 6056   2.329   0.938   0.983 -0.4230  0.0719 -0.7086
  402TMC3    C5 6057   2.407   0.833   1.001 -0.1900 -0.1695 -1.3986
  402TMC3    C6 6058   2.436   0.774   1.123 -0.7522 -0.1317 -0.0909
  402TMC3     C 6059   2.260   1.140   1.092  1.3495  0.1204  0.3530
  402TMC3     O 6060   2.186   1.180   1.178 -0.5956 -0.2124  0.2831
  402TMC3     H 6061   2.267   1.001   1.307  0.0282  0.5364 -0.3410
  402TMC3    H1 6062   2.306   0.978   0.885  0.7481  0.7473 -0.7137
  402TMC3    H2 6063   2.493   0.682   1.136  2.7587  2.1737  0.9108
  402TMC3    C7 6064   2.494   0.799   0.890  0.2298 -0.0568  0.3793
  402TMC3    C8 6065   2.440   0.818   1.358 -0.3357  0.0693  0.0895
  402TMC3    O1 6066   2.467   0.848   0.779  0.0533 -0.5889 -0.4197
  402TMC3    O2 6067   2.538   0.758   1.346  0.3997 -0.2548 -0.1870
  403MPD2     C 6068   1.667   4.542  13.015 -0.5201  0.2158  0.1120
  403MPD2    C1 6069   1.610   4.598  13.127 -0.4749 -0.0989  0.6613
  403MPD2    C2 6070   1.677   4.613  13.250 -0.0485 -0.1969  0.6874
  403MPD2    C3 6071   1.803   4.565  13.258 -0.1046 -0.2543 -0.2039
  403MPD2    C4 6072   1.864   4.526  13.139 -0.1176 -0.2205  0.1579
  403MPD2    C5 6073   1.803   4.510  13.020  0.5325 -0.6329  0.2305
  403MPD2     H 6074   1.624   4.652  13.336 -0.8922  1.0352 -0.3893
  403MPD2    H1 6075   1.966   4.490  13.136  0.0610  0.4365 -1.3545
  403MPD2    H2 6076   1.600   4.517  12.933 -0.0262  0.9249 -0.5137
  403MPD2    H3 6077   1.854   4.484  12.928 -1.0860 -0.8726 -0.6088
  403MPD2     N 6078   1.869   4.562  13.382 -0.0713  0.0488  0.3419
  403MPD2    H5 6079   1.816   4.616  13.450  2.1014  1.1770  1.1765
  403MPD2    N1 6080   1.471   4.617  13.124  0.1188  0.5255 -0.0392
  403MPD2    H7 6081   1.420   4.562  13.055 -0.2921 -0.4819  1.0649
  404TMC3    C1 6082   1.263   4.649  13.211  0.4049  0.0434 -0.3436
  404TMC3    C2 6083   1.222   4.627  13.340  0.0380  0.3802 -0.1702
  404TMC3    C3 6084   1.118   4.536  13.355 -0.1672  0.0457  0.1321
  404TMC3    C4 6085   1.216   4.565  13.109 -0.1464  0.4296 -0.6193
  404TMC3    C5 6086   1.115   4.480  13.135  0.8653  0.3592 -0.1591
  404TMC3    C6 6087   1.055   4.468  13.257 -0.2726 -0.8869  0.8238
  404TMC3     C 6088   1.400   4.697  13.207  0.3084  0.6679 -0.6703
  404TMC3     O 6089   1.439   0.045  13.289  0.2021 -0.3243 -0.4766
  404TMC3     H 6090   1.260   4.685  13.423 -2.0147 -1.1980  1.8382
  404TMC3    H1 6091   1.251   4.589  13.010 -1.5487  0.2424 -1.1592
  404TMC3    H2 6092   0.991   4.385  13.285 -0.5880 -1.3609 -1.3092
  404TMC3    C7 6093   1.008   4.467  13.038  0.1729 -0.0445 -0.5607
  404TMC3    C8 6094   1.085   4.489  13.486  0.6500  0.0200  0.2773
  404TMC3    O1 6095   0.921   4.384  13.056  0.1877  0.5204  0.5635
  404TMC3    O2 6096   0.986   4.421  13.507 -0.1997  0.0960 -0.0006
  405MPD2     C 6097   1.698   1.139  15.049 -0.0374  0.2788 -0.3316
  405MPD2    C1 6098   1.716   1.052  14.944  0.4283  0.5387  0.3507
  405MPD2    C2 6099   1.648   1.073  14.825  0.5322 -0.4440 -0.0922
  405MPD2    C3 6100   1.563   1.180  14.810 -0.2031  0.0159 -0.2113
  405MPD2    C4 6101   1.549   1.272  14.917 -0.9324 -0.3682 -0.0620
  405MPD2    C5 6102   1.613   1.247  15.036 -0.0112 -0.0734 -0.0196
  405MPD2     H 6103   1.664   1.005  14.742 -1.2560 -0.6579 -0.2544
  405MPD2    H1 6104   1.475   1.351  14.914 -0.9072 -0.2836  2.0841
  405MPD2    H2 6105   1.758   1.126  15.139  1.7102 -0.2919 -1.5921
  405MPD2    H3 6106   1.597   1.309  15.123 -1.4469  0.8404 -0.9335
  405MPD2     N 6107   1.483   1.178  14.697  1.4123 -0.1661  0.5184
  405MPD2    H5 6108   1.524   1.135  14.616 -0.3252  0.9523 -0.9524
  405MPD2    N1 6109   1.805   0.949  14.970 -0.2307  0.0969 -0.0263
  405MPD2    H7 6110   1.851   0.938  15.060  0.3830  0.2405 -0.3193
  406TMC3    C1 6111   1.144   1.139  14.386 -0.2198 -0.5902 -0.1798
  406TMC3    C2 6112   1.202   1.029  14.333  0.0652 -0.1799  0.1687
  406TMC3    C3 6113   1.302   0.974  14.407  0.2195 -0.0423 -0.8753
  406TMC3    C4 6114   1.190   1.203  14.500 -0.1784 -0.2810  0.0243
  406TMC3    C5 6115   1.297   1.146  14.567  0.7080  0.0132  0.1909
  406TMC3    C6 6116   1.352   1.030  14.521  0.2408  0.6523 -0.0964
  406TMC3     C 6117   1.019   1.176  14.330 -0.6704  0.0867 -0.7959
  406TMC3     O 6118   0.990   1.298  14.340  0.1735  0.7963 -0.6148
  406TMC3     H 6119   1.172   0.983  14.240 -1.8938  0.9453  0.2442
  406TMC3    H1 6120   1.154   1.302  14.525  0.2364  0.1776 -1.1941
  406TMC3    H2 6121   1.400   0.964  14.593  0.8411  0.4076 -0.7171
  406TMC3    C7 6122   1.350   1.207  14.687 -0.0142 -0.4295  0.2548
  406TMC3    C8 6123   1.338   0.840  14.368  0.2586 -0.3952  0.1251
  406TMC3    O1 6124   1.282   1.281  14.761 -0.3270  0.6337  0.6296
  406TMC3    O2 6125   1.263   0.777  14.291  0.6556 -0.2135 -0.1665
  407MPD2     C 6126   3.888   2.290  10.354 -0.5936 -0.0085 -0.0743
  407MPD2    C1 6127   3.826   2.406  10.306  0.1666  0.1274  0.2659
  407MPD2    C2 6128   3.835   2.524  10.389 -0.1148  0.0337 -0.2021
  407MPD2    C3 6129   3.907   2.531  10.506  0.4006 -0.2055  0.1683
  407MPD2    C4 6130   3.942   2.415  10.557  0.3514  0.3334  0.5623
  407MPD2    C5 6131   3.937   2.297  10.482 -0.2702 -0.8918 -0.1169
  407MPD2     H 6132   3.796   2.618  10.352 -0.4937  0.1333  0.4511
  407MPD2    H1 6133   3.973   2.405  10.660  2.9981  5.2045  0.2477
  407MPD2    H2 6134   3.901   2.197  10.300  4.2019  0.6693 -0.0544
  407MPD2    H3 6135   3.983   2.211  10.528  0.1058 -0.2694  0.6879
  407MPD2     N 6136   3.947   2.652  10.570 -1.3225 -0.6484 -0.3524
  407MPD2    H5 6137   3.986   2.636  10.662  0.4242 -0.8654 -1.1369
  407MPD2    N1 6138   3.762   2.419  10.182  0.4415 -0.5761 -0.2600
  407MPD2    H7 6139   3.704   2.498  10.158  0.8979 -0.9891 -2.7483
  408TMC3    C1 6140   3.768   2.397   9.944  0.3252  0.0678  0.0287
  408TMC3    C2 6141   3.862   2.385   9.844 -0.2390  0.2687  0.2022
  408TMC3    C3 6142   3.814   2.357   9.717  0.0376 -0.3332  0.1566
  408TMC3    C4 6143   3.630   2.400   9.925  0.0594  0.5174  0.2003
  408TMC3    C5 6144   3.590   2.380   9.791 -0.4377  0.5751  0.1940
  408TMC3    C6 6145   3.679   2.355   9.687 -0.1122 -0.0176 -0.3535
  408TMC3     C 6146   3.808   2.342  10.071  0.1488 -0.6147 -0.1159
  408TMC3     O 6147   3.899   2.259  10.069  0.5875 -0.2574 -0.5542
  408TMC3     H 6148   3.964   2.388   9.879  0.3011 -0.3771 -1.3299
  408TMC3    H1 6149   3.565   2.409  10.012  1.4287  0.9577  1.1697
  408TMC3    H2 6150   3.649   2.340   9.584  1.1796 -0.5240 -0.6488
  408TMC3    C7 6151   3.447   2.377   9.760  0.1161 -0.0007  0.4795
  408TMC3    C8 6152   3.902   2.373   9.600 -0.7282  0.2871 -0.6329
  408TMC3    O1 6153   3.374   2.372   9.859  0.5216 -0.6661 -0.0306
  408TMC3    O2 6154   3.855   2.352   9.490  0.0068  0.4104 -0.0334
  409MPD2     C 6155   3.283   2.895  16.684  0.0449  0.3574  0.3530
  409MPD2    C1 6156   3.369   2.885  16.794 -0.4375 -0.1108 -0.5327
  409MPD2    C2 6157   3.479   2.972  16.789  0.1783 -0.1629 -0.0415
  409MPD2    C3 6158   3.505   3.068  16.696 -0.5437 -0.3316  0.5083
  409MPD2    C4 6159   3.416   3.074  16.590  0.8769 -0.0013 -0.4980
  409MPD2    C5 6160   3.307   2.995  16.594 -0.0504  0.2008  0.4837
  409MPD2     H 6161   3.539   2.973  16.880  0.7743  2.0984 -0.4604
  409MPD2    H1 6162   3.433   3.139  16.504  0.7366  0.8812  0.1380
  409MPD2    H2 6163   3.197   2.834  16.660 -0.8520  0.9916  1.9542
  409MPD2    H3 6164   3.246   3.011  16.506 -1.2125 -2.0926  0.8631
  409MPD2     N 6165   3.615   3.151  16.691 -0.8053  0.5017 -0.5815
  409MPD2    H5 6166   3.617   3.219  16.615  0.1454 -0.2201 -1.2010
  409MPD2    N1 6167   3.357   2.804  16.906  0.1581 -0.3797  0.3099
  409MPD2    H7 6168   3.429   2.811  16.978  1.3939  0.6998 -1.0385
  410TMC3    C1 6169   3.820   3.243  16.755 -0.5196  0.2057  0.0547
  410TMC3    C2 6170   3.906   3.275  16.859  0.1184 -0.0355  0.3734
  410TMC3    C3 6171   3.984   3.386  16.845 -0.4183 -0.1547  0.2221
  410TMC3    C4 6172   3.828   3.303  16.629  0.2847  0.2922 -0.6236
  410TMC3    C5 6173   3.895   3.421  16.624 -0.1462  0.4881  0.2139
  410TMC3    C6 6174   3.976   3.458  16.731  0.3573  0.4428 -0.0412
  410TMC3     C 6175   3.720   3.142  16.780  0.6715  0.1382  0.9016
  410TMC3     O 6176   3.752   3.059  16.868  0.5300  0.3172 -0.4181
  410TMC3     H 6177   3.903   3.213  16.948  4.1371 -1.0125 -0.1790
  410TMC3    H1 6178   3.786   3.254  16.541 -2.7438 -1.2685  1.7016
  410TMC3    H2 6179   4.025   3.555  16.729  0.3299  0.3836 -3.1922
  410TMC3    C7 6180   3.924   3.470  16.493  0.3240  0.0579 -0.0371
  410TMC3    C8 6181   4.090   3.406  16.937  0.1772  0.5291  0.5803
  410TMC3    O1 6182   3.939   3.391  16.399 -0.1546 -1.3319 -0.2095
  410TMC3    O2 6183   4.121   3.524  16.959 -0.2689 -0.2670  0.0785
  411MPD2     C 6184   3.897   3.849  14.478  0.2684 -0.1843  0.3915
  411MPD2    C1 6185   3.800   3.833  14.566 -0.3122 -0.3266 -0.2725
  411MPD2    C2 6186   3.730   3.716  14.580 -0.4416  0.6297  0.5754
  411MPD2    C3 6187   3.756   3.609  14.498 -0.0398 -0.2097  0.3012
  411MPD2    C4 6188   3.852   3.628  14.400 -0.5965  1.0114 -0.4339
  411MPD2    C5 6189   3.918   3.747  14.394  0.2882  0.1312  0.7250
  411MPD2     H 6190   3.668   3.702  14.668 -0.1049 -1.7905  0.4111
  411MPD2    H1 6191   3.875   3.542  14.338  0.7274  0.3723  0.9556
  411MPD2    H2 6192   3.949   3.943  14.462  1.9009 -1.3260 -1.0367
  411MPD2    H3 6193   3.990   3.771  14.316  0.7059  2.6658  1.8915
  411MPD2     N 6194   3.674   3.495  14.499 -0.7460  0.3452 -0.3225
  411MPD2    H5 6195   3.688   3.417  14.435  0.7194  0.5682 -0.2781
  411MPD2    N1 6196   3.779   3.944  14.657 -0.5092  0.0628  0.0603
  411MPD2    H7 6197   3.819   4.034  14.630 -1.2086  0.1120 -0.8120
  412TMC3    C1 6198   3.477   3.376  14.511 -0.5581  0.0619  0.3177
  412TMC3    C2 6199   3.409   3.290  14.591  0.0214 -0.1369 -0.0918
  412TMC3    C3 6200   3.355   3.182  14.531 -0.1030 -0.0168  0.0447
  412TMC3    C4 6201   3.475   3.358  14.375 -0.3391  0.3914 -0.0115
  412TMC3    C5 6202   3.430   3.248  14.315 -0.0685  0.0484  0.0666
  412TMC3    C6 6203   3.370   3.153  14.399 -0.4316  0.4767  0.0176
  412TMC3     C 6204   3.563   3.476  14.576 -0.3708  0.2676  0.4512
  412TMC3     O 6205   3.537   3.524  14.687  0.5167  0.8102  0.0719
  412TMC3     H 6206   3.397   3.321  14.694 -1.0375 -1.2232  0.1002
  412TMC3    H1 6207   3.526   3.432  14.315  0.8232 -0.6090 -0.2597
  412TMC3    H2 6208   3.340   3.056  14.361 -1.4682  0.0066  2.0026
  412TMC3    C7 6209   3.357   3.265  14.191  0.1918 -0.0398  0.2980
  412TMC3    C8 6210   3.221   3.159  14.578 -0.1214 -0.7562  0.2552
  412TMC3    O1 6211   3.259   3.196  14.180 -0.3023  0.1908  0.4174
  412TMC3    O2 6212   3.183   3.177  14.693  0.2540  0.2199 -0.1476
  413MPD2     C 6213   0.507   2.175  15.764 -0.6024 -0.7460  0.1647
  413MPD2    C1 6214   0.492   2.139  15.636  0.3231 -0.0061  0.1681
  413MPD2    C2 6215   0.593   2.077  15.572 -0.3204 -0.2651 -0.0832
  413MPD2    C3 6216   0.710   2.029  15.646  0.6366 -1.1777 -0.4213
  413MPD2    C4 6217   0.722   2.070  15.780 -0.0026 -0.3800 -0.7098
  413MPD2    C5 6218   0.616   2.142  15.835 -0.2488  0.1271  0.2489
  413MPD2     H 6219   0.589   2.042  15.470  0.1392  0.5957 -0.3911
  413MPD2    H1 6220   0.797   2.037  15.851 -1.2947  1.5382  1.5402
  413MPD2    H2 6221   0.430   2.235  15.813  0.3264  0.2421  0.4082
  413MPD2    H3 6222   0.624   2.161  15.942 -0.3485  3.1662 -0.2850
  413MPD2     N 6223   0.790   1.929  15.587  0.2296  0.2530 -0.4797
  413MPD2    H5 6224   0.783   1.911  15.488  1.1625 -1.4303 -0.2302
  413MPD2    N1 6225   0.367   2.168  15.571  0.5311 -0.2354  0.3638
  413MPD2    H7 6226   0.288   2.198  15.627  0.6324  2.8713 -1.1440
  414TMC3    C1 6227   0.978   1.801  15.540  0.1003 -0.0261 -1.1288
  414TMC3    C2 6228   1.038   1.684  15.574 -0.1122  0.7266  0.0581
  414TMC3    C3 6229   1.096   1.613  15.469 -0.1705 -0.5116 -0.2307
  414TMC3    C4 6230   0.998   1.868  15.424 -0.1824 -0.7025  0.4328
  414TMC3    C5 6231   1.043   1.791  15.318 -0.5143 -0.0003  0.0756
  414TMC3    C6 6232   1.090   1.664  15.337 -0.1760 -0.0096 -0.1028
  414TMC3     C 6233   0.894   1.862  15.637 -0.3260 -0.4835  0.2299
  414TMC3     O 6234   0.925   1.851  15.758  0.0155  0.3999 -0.0837
  414TMC3     H 6235   1.042   1.648  15.676  1.2670  1.5772  0.2982
  414TMC3    H1 6236   0.958   1.967  15.404 -0.9442 -0.6762  2.0933
  414TMC3    H2 6237   1.133   1.602  15.259  0.6690 -0.2348  0.5371
  414TMC3    C7 6238   1.120   1.854  15.212 -0.1140 -0.4159 -0.1210
  414TMC3    C8 6239   1.189   1.516  15.495  0.0791  0.5826  0.1256
  414TMC3    O1 6240   1.165   1.776  15.124 -0.0372  0.0574 -0.5208
  414TMC3    O2 6241   1.146   1.412  15.543 -0.0414 -1.0017 -0.1065
  415TMC3    C1 6242   1.423   0.326   9.981 -0.4594  0.2555  0.1547
  415TMC3    C2 6243   1.552   0.353   9.950 -0.4799 -0.0257 -0.4015
  415TMC3    C3 6244   1.573   0.447   9.852  0.1073  0.4889 -0.4276
  415TMC3    C4 6245   1.316   0.387   9.918  0.1329 -0.3663 -0.6109
  415TMC3    C5 6246   1.346   0.484   9.821  0.8587  0.2470 -0.2085
  415TMC3    C6 6247   1.472   0.515   9.785  0.7638 -0.2286  0.4244
  415TMC3     C 6248   1.385   0.240  10.091 -0.0099  0.2255  0.0724
  415TMC3     O 6249   1.268   0.206  10.097 -0.2006  0.6633  0.0731
  415TMC3     H 6250   1.632   0.291   9.988  2.4163  3.5168 -0.7188
  415TMC3    H1 6251   1.213   0.361   9.941  0.4514  0.7039  2.0557
  415TMC3    H2 6252   1.496   0.581   9.702  0.3421  0.4145  0.8097
  415TMC3    C7 6253   1.240   0.549   9.746  0.2111  0.0585 -0.3739
  415TMC3    C8 6254   1.691   0.440   9.776 -0.3247 -0.3910  0.6044
  415TMC3    O1 6255   1.271   0.620   9.650  0.0438 -0.0233 -0.1703
  415TMC3    O2 6256   1.743   0.326   9.782 -0.0016  0.2807 -0.3620
  416MPD2     C 6257   3.290   3.470  11.623 -0.1274 -0.7964  0.3744
  416MPD2    C1 6258   3.171   3.430  11.568 -0.0539 -0.2924  0.5603
  416MPD2    C2 6259   3.183   3.318  11.489 -0.1967 -0.5070 -0.9004
  416MPD2    C3 6260   3.301   3.253  11.455  0.7010 -0.1416 -0.2440
  416MPD2    C4 6261   3.421   3.302  11.506 -0.4099 -0.3063 -0.4445
  416MPD2    C5 6262   3.417   3.415  11.583 -0.1866 -0.0733  0.2425
  416MPD2     H 6263   3.089   3.281  11.448  0.7086 -0.0564 -3.4047
  416MPD2    H1 6264   3.511   3.259  11.465  1.1618  1.7877  0.8377
  416MPD2    H2 6265   3.289   3.558  11.687 -2.6606 -0.0284 -0.7338
  416MPD2    H3 6266   3.512   3.457  11.613 -0.8013  1.6850 -0.2550
  416MPD2     N 6267   3.304   3.137  11.373 -0.6532  0.1278 -0.3773
  416MPD2    H5 6268   3.391   3.085  11.374 -0.6334  0.1366 -3.2835
  416MPD2    N1 6269   3.054   3.510  11.596  0.3597  0.1482 -0.8630
  416MPD2    H7 6270   3.073   3.592  11.653 -3.8880 -0.3629  1.3225
  417TMC3    C1 6271   2.835   3.555  11.646 -0.3444 -0.3635  0.4501
  417TMC3    C2 6272   2.861   3.559  11.775 -0.3128 -0.0881 -0.0790
  417TMC3    C3 6273   2.767   3.620  11.862 -0.4875  0.1409 -0.1308
  417TMC3    C4 6274   2.720   3.616  11.588  0.2532  0.1923 -0.4266
  417TMC3    C5 6275   2.637   3.689  11.672  0.0764 -0.2411  0.4174
  417TMC3    C6 6276   2.657   3.692  11.808  0.4130  0.6336  0.1955
  417TMC3     C 6277   2.925   3.490  11.555  0.4829 -0.2673 -0.1239
  417TMC3     O 6278   2.880   3.434  11.455 -0.6632  0.3414 -0.6440
  417TMC3     H 6279   2.952   3.511  11.810 -0.4146 -0.6663 -0.6168
  417TMC3    H1 6280   2.711   3.613  11.480  1.3080 -1.3495 -0.4810
  417TMC3    H2 6281   2.592   3.748  11.873  0.7085  0.4524  0.6506
  417TMC3    C7 6282   2.558   3.786  11.604  0.7795  0.4501 -0.0159
  417TMC3    C8 6283   2.777   3.593  12.008  0.3177  0.1582 -0.1149
  417TMC3    O1 6284   2.551   3.772  11.481 -0.1966 -0.4090 -0.1836
  417TMC3    O2 6285   2.692   3.651  12.077  0.1822 -0.0851 -0.5678
  418TMC3    C1 6286   1.822   0.663   0.241 -0.5689 -1.0689  0.6610
  418TMC3    C2 6287   1.688   0.696   0.244 -0.1663  0.2690  0.1163
  418TMC3    C3 6288   1.622   0.676   0.360 -0.1467  0.6220 -0.0383
  418TMC3    C4 6289   1.875   0.606   0.352  0.4451 -0.4823 -0.9623
  418TMC3    C5 6290   1.806   0.587   0.467  0.3952 -0.1878 -0.9356
  418TMC3    C6 6291   1.674   0.619   0.477  0.0695 -0.2656 -0.2941
  418TMC3     C 6292   1.861   0.615   0.109 -0.2209 -0.4069 -0.3533
  418TMC3     O 6293   1.836   0.674   0.006  0.0222 -0.1110 -0.0276
  418TMC3     H 6294   1.625   0.729   0.162 -0.3093 -2.0650 -0.6903
  418TMC3    H1 6295   1.973   0.560   0.347  1.2790  1.4035 -1.6801
  418TMC3    H2 6296   1.616   0.600   0.566 -0.2214 -1.3581 -0.7180
  418TMC3    C7 6297   1.863   0.502   0.571  0.3988 -0.2277 -0.4756
  418TMC3    C8 6298   1.477   0.666   0.339 -0.6920  0.0093  0.2714
  418TMC3    O1 6299   1.884   0.381   0.544 -0.3016 -0.2658  0.0703
  418TMC3    O2 6300   1.427   0.758   0.276  0.6524 -0.3185  0.6451
  419MPD2     C 6301   0.743   3.800  12.696  0.0933  0.7424 -0.3875
  419MPD2    C1 6302   0.682   3.926  12.702 -0.0038  0.3083  0.4243
  419MPD2    C2 6303   0.606   3.958  12.810 -0.3695  0.3216 -0.2932
  419MPD2    C3 6304   0.606   3.871  12.922 -0.0580 -0.5192  0.1602
  419MPD2    C4 6305   0.669   3.747  12.915 -0.4902  0.4577 -0.1843
  419MPD2    C5 6306   0.745   3.719  12.808 -1.0331  0.0340  0.5297
  419MPD2     H 6307   0.542   4.046  12.815  0.0980  0.7573 -1.9609
  419MPD2    H1 6308   0.672   3.672  12.994 -0.1576  0.2502 -0.3962
  419MPD2    H2 6309   0.792   3.759  12.608  1.3349  2.0146 -0.2893
  419MPD2    H3 6310   0.802   3.626  12.810  0.6531  1.0410 -0.2457
  419MPD2     N 6311   0.518   3.904  13.027 -0.1130 -0.2806 -0.3865
  419MPD2    H5 6312   0.460   3.987  13.021 -3.7484 -2.7440  0.5275
  419MPD2    N1 6313   0.682   4.017  12.585  0.0641  0.0581 -0.6560
  419MPD2    H7 6314   0.634   4.105  12.603  2.0057  0.6245  1.7052
  420TMC3    C1 6315   0.371   3.871  13.203 -0.4067 -0.4605 -0.3422
  420TMC3    C2 6316   0.314   3.992  13.184  0.1261  0.7967  0.1772
  420TMC3    C3 6317   0.189   4.012  13.239  0.3869  1.0659  0.1811
  420TMC3    C4 6318   0.297   3.768  13.255  0.1532 -0.3041  0.8476
  420TMC3    C5 6319   0.165   3.793  13.290  0.1695 -0.1226 -0.2322
  420TMC3    C6 6320   0.105   3.918  13.282  0.4931 -0.0047  0.1642
  420TMC3     C 6321   0.489   3.826  13.127  0.1902  0.6094 -0.4116
  420TMC3     O 6322   0.543   3.722  13.168 -0.1689 -0.6398 -0.1916
  420TMC3     H 6323   0.375   4.072  13.145 -0.6755  0.7890 -1.0593
  420TMC3    H1 6324   0.347   3.673  13.271  0.0462 -0.6226 -0.7223
  420TMC3    H2 6325   0.005   3.937  13.318  0.9523  0.5527  1.1524
  420TMC3    C7 6326   0.113   3.686  13.377  0.8922  0.8164 -0.5759
  420TMC3    C8 6327   0.118   4.121  13.179  0.3568 -0.6900  0.6382
  420TMC3    O1 6328   0.196   3.610  13.422 -0.3960 -0.3494  0.2557
  420TMC3    O2 6329   4.733   4.114  13.159 -0.1407  0.1296 -0.0006
  421TMC3    C1 6330   2.007   4.515  13.562 -0.1048 -0.3671  0.1519
  421TMC3    C2 6331   1.924   4.599  13.636 -0.1296  0.0046 -0.2774
  421TMC3    C3 6332   1.905   4.577  13.770  0.1648  0.4410  0.7973
  421TMC3    C4 6333   2.062   4.403  13.622  0.2760  0.3675 -0.3550
  421TMC3    C5 6334   2.025   4.377  13.750 -0.1073 -0.1994 -0.9708
  421TMC3    C6 6335   1.950   4.462  13.827 -0.6298 -0.2097 -0.0453
  421TMC3     C 6336   1.980   4.493  13.414  0.5410  0.0997 -0.0756
  421TMC3     O 6337   2.036   4.407  13.342 -0.5847 -0.1248  0.2165
  421TMC3     H 6338   1.877   4.685  13.590  0.3342  0.4774  0.1311
  421TMC3    H1 6339   2.103   4.325  13.560  1.4185  0.2246  0.5753
  421TMC3    H2 6340   1.950   4.445  13.934 -1.9298  0.2832  0.0339
  421TMC3    C7 6341   2.121   4.297  13.821  0.1310  0.1211 -0.1020
  421TMC3    C8 6342   1.897   4.705  13.847 -0.0431  0.7086 -0.3776
  421TMC3    O1 6343   2.235   4.297  13.774  0.7028 -0.0696 -0.6052
  421TMC3    O2 6344   1.900   0.076  13.785  0.0721 -0.1996  0.3204
  422TMC3    C1 6345   3.654   1.824  12.725 -0.2299 -0.8269  0.1213
  422TMC3    C2 6346   3.663   1.954  12.773 -0.1407 -0.3766 -0.2987
  422TMC3    C3 6347   3.549   2.030  12.771  0.2897 -0.5607  0.4290
  422TMC3    C4 6348   3.526   1.770  12.703  0.3587 -0.2297  0.3197
  422TMC3    C5 6349   3.413   1.854  12.714  0.3632 -0.0772  0.1076
  422TMC3    C6 6350   3.424   1.988  12.730  0.1106 -0.8237  0.7226
  422TMC3     C 6351   3.763   1.777  12.648 -0.2639  0.2760 -0.2073
  422TMC3     O 6352   3.782   1.653  12.638  0.0364  0.1627  0.4975
  422TMC3     H 6353   3.763   1.990  12.793  0.0133 -1.1808  0.3945
  422TMC3    H1 6354   3.512   1.671  12.661  0.2889 -0.7087  1.4456
  422TMC3    H2 6355   3.330   2.044  12.736 -0.0192 -0.5964 -3.4063
  422TMC3    C7 6356   3.282   1.800  12.669 -0.1819 -0.5258 -0.1052
  422TMC3    C8 6357   3.581   2.173  12.774 -0.7936 -0.2969  0.1303
  422TMC3    O1 6358   3.203   1.891  12.659  0.2120 -0.1681 -0.1919
  422TMC3    O2 6359   3.704   2.187  12.765  0.0189  0.1973  0.1721
  423MPD2     C 6360   0.270   2.520   0.497 -0.1616  0.6912  0.1184
  423MPD2    C1 6361   0.247   2.387   0.510 -0.6985  0.4231  0.7088
  423MPD2    C2 6362   0.283   2.303   0.406  0.1811  0.2246  1.0703
  423MPD2    C3 6363   0.363   2.349   0.299 -0.1007 -0.1535 -0.3812
  423MPD2    C4 6364   0.407   2.482   0.301 -0.7325  0.1918  0.6475
  423MPD2    C5 6365   0.363   2.560   0.404 -0.6316 -0.6009 -0.2843
  423MPD2     H 6366   0.246   2.201   0.417  1.1959 -0.3734 -0.9594
  423MPD2    H1 6367   0.494   2.525   0.253  0.4405 -1.7474  1.0369
  423MPD2    H2 6368   0.236   2.586   0.575 -1.7746  1.6521 -1.4172
  423MPD2    H3 6369   0.401   2.662   0.403  0.6808 -1.1001 -0.5898
  423MPD2     N 6370   0.419   2.266   0.198 -0.0622 -0.3616  0.0575
  423MPD2    H5 6371   0.466   2.316   0.122 -1.4434  0.7168 -0.0836
  423MPD2    N1 6372   0.189   2.328   0.626 -0.7867  0.7303  0.2661
  423MPD2    H7 6373   0.183   2.227   0.619  1.1513  0.6417 -0.1363
  424TMC3    C1 6374   0.080   2.330   0.842 -0.3183  0.5050  0.4525
  424TMC3    C2 6375   0.161   2.233   0.892  0.7185 -0.1747  0.3262
  424TMC3    C3 6376   0.144   2.207   1.022  0.1838  0.2769  0.2011
  424TMC3    C4 6377   4.728   2.395   0.916 -0.3218  0.1522  0.1557
  424TMC3    C5 6378   4.716   2.368   1.046  0.2800  0.2969 -1.0743
  424TMC3    C6 6379   0.051   2.269   1.101 -0.7646  0.0570  0.0965
  424TMC3     C 6380   0.113   2.396   0.720 -0.3648  0.3615 -0.3716
  424TMC3     O 6381   0.080   2.516   0.724  0.2840 -0.2272 -0.1670
  424TMC3     H 6382   0.241   2.182   0.839  1.5810 -1.2840  2.6869
  424TMC3    H1 6383   4.663   2.471   0.874 -1.2149  0.2287  1.6730
  424TMC3    H2 6384   0.037   2.233   1.202  0.6339  1.1129  0.6624
  424TMC3    C7 6385   4.593   2.409   1.120 -0.3159 -0.2506  0.1110
  424TMC3    C8 6386   0.222   2.110   1.095  0.3525  0.1315  0.1504
  424TMC3    O1 6387   4.606   2.467   1.225 -0.4864  0.1898  0.1674
  424TMC3    O2 6388   0.262   2.008   1.041  1.0864 -0.1656  0.6363
  425MPD2     C 6389   4.084   1.572  17.298 -0.3489  0.1973  0.4290
  425MPD2    C1 6390   3.994   1.462  17.316 -1.0597 -0.1399  0.3933
  425MPD2    C2 6391   3.860   1.483  17.337  0.4270 -0.3474 -0.6409
  425MPD2    C3 6392   3.808   1.614  17.325  0.0938 -0.6403  1.0715
  425MPD2    C4 6393   3.891   1.725  17.297  0.2786  0.3033  0.2647
  425MPD2    C5 6394   4.033   1.702  17.293  0.3914  0.1151  0.2004
  425MPD2     H 6395   3.789   1.406  17.361  1.1439 -0.7070  0.3187
  425MPD2    H1 6396   3.845   1.822  17.286 -1.4759 -0.4095  1.4354
  425MPD2    H2 6397   4.188   1.547  17.280 -0.1125 -0.2196  2.3165
  425MPD2    H3 6398   4.101   1.782  17.265 -0.7080  0.3242 -1.8488
  425MPD2     N 6399   3.671   1.636  17.347  0.0892  0.0408  0.6760
  425MPD2    H5 6400   3.628   1.551  17.382 -0.0451  0.6331  1.9194
  425MPD2    N1 6401   4.047   1.331  17.317  0.1166 -0.0386 -0.5632
  425MPD2    H7 6402   4.145   1.315  17.296 -0.3161 -2.6486 -0.5526
  426TMC3    C1 6403   4.053   1.102  17.353 -0.2860  0.3584  0.0943
  426TMC3    C2 6404   4.098   1.072  17.234 -0.4826  0.4719  0.3265
  426TMC3    C3 6405   4.154   0.948  17.220 -0.7736 -0.6345  0.3778
  426TMC3    C4 6406   4.038   1.009  17.452  0.1543  0.1132 -0.6180
  426TMC3    C5 6407   4.088   0.885  17.433  0.2702 -0.7441  0.5000
  426TMC3    C6 6408   4.161   0.860  17.322 -0.2768  0.0647  0.1172
  426TMC3     C 6409   3.971   1.219  17.355  0.0046  0.1635 -0.6041
  426TMC3     O 6410   3.873   1.210  17.436 -0.0218  0.6080  0.1177
  426TMC3     H 6411   4.084   1.140  17.151  1.1809 -1.3658 -1.4784
  426TMC3    H1 6412   3.979   1.046  17.535 -3.1633 -2.6536 -1.7645
  426TMC3    H2 6413   4.190   0.760  17.295 -1.1974  0.5006 -2.4936
  426TMC3    C7 6414   4.113   0.798  17.542  0.1003  0.0981  0.2124
  426TMC3    C8 6415   4.156   0.879  17.092 -0.3207  0.7042  0.6787
  426TMC3    O1 6416   4.215   0.734  17.530 -0.3759 -0.4492 -0.5303
  426TMC3    O2 6417   4.249   0.796  17.068  0.0256 -0.7062 -0.2963
  427MPD2     C 6418   2.924   3.702  15.125 -0.3787 -0.1397  0.1235
  427MPD2    C1 6419   2.871   3.661  15.247  0.1921 -0.0436  0.3908
  427MPD2    C2 6420   2.740   3.680  15.273 -0.0306 -0.6360 -0.1048
  427MPD2    C3 6421   2.662   3.736  15.176  0.9533 -0.3033  0.2295
  427MPD2    C4 6422   2.710   3.766  15.050  0.4811 -0.3685  0.5304
  427MPD2    C5 6423   2.842   3.752  15.026 -0.0534  0.3490 -0.8114
  427MPD2     H 6424   2.689   3.646  15.363  0.0741  2.2726  1.0350
  427MPD2    H1 6425   2.647   3.818  14.980  0.5595 -1.2391 -0.1944
  427MPD2    H2 6426   3.030   3.692  15.105 -0.2319 -1.2315  1.4187
  427MPD2    H3 6427   2.883   3.772  14.928 -1.2640  0.2776 -1.3375
  427MPD2     N 6428   2.524   3.741  15.189 -0.2980  0.1867 -0.4261
  427MPD2    H5 6429   2.475   3.767  15.104  0.2671  1.7969 -0.2621
  427MPD2    N1 6430   2.959   3.602  15.335  0.2388 -0.0081  0.5664
  427MPD2    H7 6431   3.053   3.581  15.303  0.8783  0.8372  1.8836
  428TMC3    C1 6432   3.045   3.493  15.537  0.6214 -0.6450  0.1959
  428TMC3    C2 6433   2.993   3.398  15.620  0.4546 -0.6053 -0.1548
  428TMC3    C3 6434   3.072   3.298  15.665  0.2185 -0.2307 -0.7343
  428TMC3    C4 6435   3.175   3.498  15.495  0.5097  0.2563 -0.5213
  428TMC3    C5 6436   3.255   3.402  15.551 -0.1497  0.5437  0.4597
  428TMC3    C6 6437   3.206   3.306  15.635 -0.2025  0.6926  0.3428
  428TMC3     C 6438   2.933   3.548  15.461  0.3525  0.3656 -0.0378
  428TMC3     O 6439   2.823   3.545  15.505  0.4490 -0.4114 -0.4604
  428TMC3     H 6440   2.888   3.386  15.644  0.2999  3.3882  1.1342
  428TMC3    H1 6441   3.209   3.585  15.440 -0.9100  0.6974 -0.6787
  428TMC3    H2 6442   3.269   3.229  15.679 -1.7427 -0.8442 -0.1360
  428TMC3    C7 6443   3.402   3.420  15.538  0.3063  0.2653 -0.0096
  428TMC3    C8 6444   3.017   3.160  15.676 -0.4820 -0.3292  0.2255
  428TMC3    O1 6445   3.478   3.366  15.619 -0.9256 -0.3995  0.4785
  428TMC3    O2 6446   3.087   3.076  15.731 -0.4391  0.4472 -0.6150
  429MPD2     C 6447   3.747   3.740   0.003 -0.7163 -0.2179  0.4478
  429MPD2    C1 6448   3.842   3.693  17.654  0.0737 -0.4514 -0.3511
  429MPD2    C2 6449   3.927   3.787  17.592  0.2324  0.5431  0.1654
  429MPD2    C3 6450   3.927   3.929  17.627 -0.2775  0.0598 -0.1030
  429MPD2    C4 6451   3.827   3.968  17.722 -0.3391 -0.5401 -0.2310
  429MPD2    C5 6452   3.740   3.873   0.034  0.0512  0.3629  0.8633
  429MPD2     H 6453   3.996   3.752  17.516 -0.6695  0.9378 -0.8328
  429MPD2    H1 6454   3.812   4.069   0.018  1.3798 -1.0904  2.2293
  429MPD2    H2 6455   3.670   3.675   0.043  0.8726 -1.7442  0.9751
  429MPD2    H3 6456   3.689   3.903   0.125  1.9776 -0.8066  2.3271
  429MPD2     N 6457   4.014   4.029  17.564 -0.0764 -0.2624 -0.0544
  429MPD2    H5 6458   4.078   3.988  17.497 -2.1226 -1.2764 -1.3805
  429MPD2    N1 6459   3.867   3.556  17.631 -0.1060  0.3427 -0.2027
  429MPD2    H7 6460   3.947   3.549  17.569  0.4670 -0.1875  0.6025
  430TMC3    C1 6461   4.102   4.245  17.507  1.0896 -0.5894 -0.0441
  430TMC3    C2 6462   4.048   4.361  17.470 -0.3165  0.3089 -0.9038
  430TMC3    C3 6463   4.096   4.414  17.357  0.0960  0.5281 -0.0032
  430TMC3    C4 6464   4.201   4.180  17.449 -0.1280 -0.3191  0.6489
  430TMC3    C5 6465   4.246   4.238  17.330  0.3074 -0.3306 -0.5156
  430TMC3    C6 6466   4.198   4.357  17.284  0.4932 -0.0471  0.1514
  430TMC3     C 6467   4.011   4.165  17.592 -0.4881  0.3223  0.5631
  430TMC3     O 6468   3.940   4.227  17.667 -0.5063  0.0036 -0.3872
  430TMC3     H 6469   3.977   4.414  17.534  0.3543  0.8802 -0.6358
  430TMC3    H1 6470   4.242   4.086  17.485  0.6579  0.4003  1.6343
  430TMC3    H2 6471   4.234   4.413  17.199 -1.1104 -2.0115 -1.8099
  430TMC3    C7 6472   4.321   4.152  17.242 -0.4852 -0.3063  0.2275
  430TMC3    C8 6473   4.013   4.508  17.284  0.8760  0.0565  0.0617
  430TMC3    O1 6474   4.332   4.035  17.275  0.0494  0.0324  0.8179
  430TMC3    O2 6475   3.936   4.581  17.348 -0.8683 -0.4697  0.1948
  431MPD2     C 6476   0.327   0.099  12.105 -0.6493 -0.5686  0.5801
  431MPD2    C1 6477   0.433   0.073  12.185  0.3657 -0.6003 -0.1539
  431MPD2    C2 6478   0.465   4.681  12.218 -0.4571  0.0418 -0.3343
  431MPD2    C3 6479   0.392   4.574  12.168  0.1987 -0.0964 -0.6633
  431MPD2    C4 6480   0.290   4.604  12.082 -0.4368  0.0063  0.1099
  431MPD2    C5 6481   0.263   4.732  12.054  0.3765 -0.2438 -0.3797
  431MPD2     H 6482   0.544   4.667  12.290  0.0088 -1.2382 -1.0961
  431MPD2    H1 6483   0.231   4.533  12.025  0.9838 -0.4892 -0.7319
  431MPD2    H2 6484   0.293   0.196  12.072 -0.0930  0.3786  2.7938
  431MPD2    H3 6485   0.181   0.017  11.986  0.3344  0.9734  0.0227
  431MPD2     N 6486   0.426   4.439  12.184 -0.1164  0.7546 -0.3138
  431MPD2    H5 6487   0.375   4.374  12.124 -1.1331 -0.1105  1.4933
  431MPD2    N1 6488   0.508   0.174  12.241 -0.1442  0.2364  0.0558
  431MPD2    H7 6489   0.571   0.137  12.311  0.1368  1.3198  0.3786
  432TMC3    C1 6490   0.580   4.262  12.265 -0.0407 -0.1559  0.0932
  432TMC3    C2 6491   0.636   4.246  12.140 -0.4258 -0.0328 -0.7034
  432TMC3    C3 6492   0.732   4.154  12.134  0.7195  0.6717 -0.2301
  432TMC3    C4 6493   0.604   4.190  12.376 -0.2197  0.0946 -0.6630
  432TMC3    C5 6494   0.716   4.098  12.367  0.5819 -0.0705 -0.0530
  432TMC3    C6 6495   0.781   4.080  12.243 -0.1365  0.3945  0.0317
  432TMC3     C 6496   0.504   4.388  12.286 -0.4904  0.6325  0.6431
  432TMC3     O 6497   0.542   4.457  12.379 -0.3060 -0.2042 -0.2872
  432TMC3     H 6498   0.610   4.300  12.049  0.6914 -1.7698 -2.0540
  432TMC3    H1 6499   0.545   4.216  12.463  0.3997  0.6702 -0.4137
  432TMC3    H2 6500   0.857   4.004  12.226  2.5522  2.6378  1.9044
  432TMC3    C7 6501   0.743   3.994  12.466 -0.0398 -0.2172 -0.1132
  432TMC3    C8 6502   0.797   4.151  12.009 -0.2416 -0.8987 -0.0534
  432TMC3    O1 6503   0.813   3.900  12.420 -0.0643 -0.2573  0.1347
  432TMC3    O2 6504   0.732   4.179  11.911 -0.6408  0.3904  0.5077
  433MPD2     C 6505   3.885   2.701  11.220 -0.1116 -0.3296 -0.5986
  433MPD2    C1 6506   3.892   2.570  11.262 -0.5029  0.6312 -0.3693
  433MPD2    C2 6507   3.943   2.547  11.391  0.1962  0.8753  0.5448
  433MPD2    C3 6508   3.991   2.649  11.463  0.7002 -0.8512  1.3006
  433MPD2    C4 6509   3.998   2.776  11.406  0.1471  0.1013 -0.2641
  433MPD2    C5 6510   3.944   2.805  11.289  0.3451 -0.1329  0.5792
  433MPD2     H 6511   3.949   2.445  11.427 -1.3997  0.8916  0.8759
  433MPD2    H1 6512   4.049   2.858  11.454 -1.8137  1.7003 -0.9235
  433MPD2    H2 6513   3.844   2.739  11.127 -0.2990  1.3914  0.1950
  433MPD2    H3 6514   3.943   2.904  11.245  2.3904 -0.3662  0.0267
  433MPD2     N 6515   4.037   2.607  11.597  0.3504 -0.1402 -0.2980
  433MPD2    H5 6516   4.018   2.512  11.628 -1.6510  0.3942  0.1162
  433MPD2    N1 6517   3.838   2.460  11.189  0.1012 -0.3203  0.5182
  433MPD2    H7 6518   3.825   2.373  11.239  1.4227 -0.9431 -0.2271
  434TMC3    C1 6519   3.784   2.323  11.011 -0.3705 -0.6434  0.1562
  434TMC3    C2 6520   3.868   2.224  11.052  0.5104 -0.2031 -0.1279
  434TMC3    C3 6521   3.904   2.128  10.967  0.0287 -0.2102 -0.2674
  434TMC3    C4 6522   3.729   2.322  10.887 -0.0797  0.0826 -0.3155
  434TMC3    C5 6523   3.757   2.215  10.805  0.1494 -0.4131 -0.1671
  434TMC3    C6 6524   3.846   2.117  10.844  0.3016  0.6710 -0.3374
  434TMC3     C 6525   3.813   2.454  11.058 -0.0217  0.0929 -0.3031
  434TMC3     O 6526   3.813   2.548  10.981 -0.5058  0.4097 -0.2692
  434TMC3     H 6527   3.889   2.222  11.158  1.1203  1.9776 -0.2156
  434TMC3    H1 6528   3.657   2.400  10.864 -0.7056 -0.7447 -1.1753
  434TMC3    H2 6529   3.881   2.042  10.774  1.2250  0.9494 -0.1695
  434TMC3    C7 6530   3.679   2.207  10.674 -0.1744 -0.3046  0.0040
  434TMC3    C8 6531   3.974   2.016  11.026 -0.9534 -0.6741  0.4072
  434TMC3    O1 6532   3.633   2.310  10.627 -0.1916 -0.3599 -0.2703
  434TMC3    O2 6533   4.002   2.030  11.143  0.4474 -0.3621  0.0210
  435MPD2     C 6534   1.193   2.512  15.449  0.1754 -0.9131  0.2794
  435MPD2    C1 6535   1.150   2.496  15.576  0.0283 -0.2804 -0.4527
  435MPD2    C2 6536   1.230   2.436  15.669  0.9176 -0.5347 -0.0475
  435MPD2    C3 6537   1.359   2.394  15.641 -0.1486  0.3370 -0.3110
  435MPD2    C4 6538   1.397   2.389  15.512 -0.4439  0.4360  0.2026
  435MPD2    C5 6539   1.317   2.456  15.418  0.0950  0.1524 -0.3137
  435MPD2     H 6540   1.193   2.436  15.771 -2.0729 -1.2234 -1.1452
  435MPD2    H1 6541   1.494   2.347  15.489 -2.5503 -3.7472 -0.9828
  435MPD2    H2 6542   1.139   2.550  15.363 -1.9718 -0.8659  1.6641
  435MPD2    H3 6543   1.354   2.451  15.316 -0.8552 -2.4547 -0.5160
  435MPD2     N 6544   1.428   2.335  15.752  0.5094 -0.8999 -0.1162
  435MPD2    H5 6545   1.372   2.322  15.835  0.4737  1.5493  0.2499
  435MPD2    N1 6546   1.024   2.539  15.618  0.4821 -0.0037  0.6361
  435MPD2    H7 6547   0.995   2.523  15.714 -0.7567 -2.6340 -0.1840
  436TMC3    C1 6548   0.703   2.662  15.819  0.7956  0.2193  0.5786
  436TMC3    C2 6549   0.810   2.664  15.735 -0.6329 -0.2228  0.0210
  436TMC3    C3 6550   0.793   2.604  15.611  0.4650  0.4015  0.5456
  436TMC3    C4 6551   0.578   2.619  15.781 -0.1151  0.5517  0.0670
  436TMC3    C5 6552   0.569   2.579  15.648 -0.3975 -0.0060 -0.7222
  436TMC3    C6 6553   0.672   2.576  15.559  1.0176 -0.2788  0.2286
  436TMC3     C 6554   0.734   2.728  15.945 -0.3289  0.1858  0.9792
  436TMC3     O 6555   0.848   2.765  15.963 -0.0311  0.0109  0.3511
  436TMC3     H 6556   0.909   2.682  15.776 -0.4075  3.7140 -2.2026
  436TMC3    H1 6557   0.490   2.625  15.844 -0.3857 -0.7508 -0.1871
  436TMC3    H2 6558   0.677   2.534  15.460  0.1163  1.2289 -0.4547
  436TMC3    C7 6559   0.436   2.531  15.599  0.5508  0.2942 -0.2583
  436TMC3    C8 6560   0.912   2.566  15.537  0.2641 -0.1713 -0.0966
  436TMC3    O1 6561   0.350   2.521  15.683  0.2654  0.1852 -0.9818
  436TMC3    O2 6562   0.911   2.548  15.417  0.0819  0.3116 -0.0174
  437TMC3    C1 6563   4.417   0.327  12.471 -0.3255  0.0179 -0.8201
  437TMC3    C2 6564   4.327   0.265  12.390 -0.1240  0.1269 -0.3534
  437TMC3    C3 6565   4.309   0.310  12.262 -0.0606 -1.0674  0.9704
  437TMC3    C4 6566   4.491   0.427  12.424 -0.3847 -0.4827 -0.7993
  437TMC3    C5 6567   4.471   0.474  12.302  0.2101  0.5272 -0.2004
  437TMC3    C6 6568   4.379   0.419  12.218 -0.2163 -1.2125 -1.2590
  437TMC3     C 6569   4.456   0.273  12.598  0.3014 -0.4896  0.0619
  437TMC3     O 6570   4.563   0.317  12.640  0.0840 -0.0199  0.2387
  437TMC3     H 6571   4.277   0.176  12.426  0.9635 -0.4672 -0.2911
  437TMC3    H1 6572   4.561   0.484  12.485 -1.1804 -0.3035 -0.0442
  437TMC3    H2 6573   4.372   0.459  12.118 -2.0730  0.9633 -0.2707
  437TMC3    C7 6574   4.570   0.555  12.240  0.3400  0.0408  1.2347
  437TMC3    C8 6575   4.225   0.233  12.167 -0.2765  0.4793 -0.2541
  437TMC3    O1 6576   4.548   0.594  12.127 -0.2152  0.0707 -0.1568
  437TMC3    O2 6577   4.181   0.288  12.067  0.5304 -0.3510  0.3547
  438MPD2     C 6578   2.088   0.422  16.913  0.9011 -0.2284 -0.0593
  438MPD2    C1 6579   2.061   0.295  16.941 -0.0826 -0.5730 -0.3541
  438MPD2    C2 6580   1.994   0.263  17.058  0.1067 -0.2515 -0.2482
  438MPD2    C3 6581   1.949   0.353  17.150  0.4242 -0.1166 -0.2162
  438MPD2    C4 6582   1.980   0.484  17.122 -0.0823  0.0310 -0.2393
  438MPD2    C5 6583   2.042   0.514  17.001  0.6642 -0.5961 -0.0472
  438MPD2     H 6584   1.973   0.157  17.065 -0.2686 -0.0912  1.0616
  438MPD2    H1 6585   1.951   0.568  17.185  0.2375  0.6633 -0.9346
  438MPD2    H2 6586   2.148   0.453  16.828  0.5609  3.5287  1.0706
  438MPD2    H3 6587   2.063   0.619  16.982 -1.4269 -0.0485  0.6874
  438MPD2     N 6588   1.879   0.320  17.267 -0.3454 -0.5543  0.4408
  438MPD2    H5 6589   1.850   0.399  17.324  2.3034  0.6038  0.1859
  438MPD2    N1 6590   2.091   0.181  16.857 -0.7466  0.0011  0.2738
  438MPD2    H7 6591   2.068   0.091  16.898 -0.5986  0.0632  0.4893
  439TMC3    C1 6592   2.166   0.073  16.665  0.7027  0.3711  0.0009
  439TMC3    C2 6593   2.241   0.100  16.551  0.5533 -0.0873 -0.2357
  439TMC3    C3 6594   2.299   4.728  16.485 -0.4264  0.5416  0.2119
  439TMC3    C4 6595   2.157   4.680  16.717  0.1065 -0.7366  0.5555
  439TMC3    C5 6596   2.220   4.579  16.645  0.3199 -0.3368  0.8621
  439TMC3    C6 6597   2.290   4.600  16.523 -0.9230 -1.7729  0.1507
  439TMC3     C 6598   2.146   0.194  16.736 -0.8511  0.8491 -0.8868
  439TMC3     O 6599   2.161   0.295  16.670 -0.2458 -0.2228 -0.5603
  439TMC3     H 6600   2.257   0.195  16.502 -1.6367 -0.3648 -1.4846
  439TMC3    H1 6601   2.115   4.671  16.816 -2.5236 -1.4431 -0.6385
  439TMC3    H2 6602   2.347   4.524  16.471 -0.9064 -0.0088 -2.4338
  439TMC3    C7 6603   2.266   4.466  16.728  0.4280  0.1274  0.2348
  439TMC3    C8 6604   2.369   0.012  16.363  0.5034  1.0072 -1.2611
  439TMC3    O1 6605   2.368   4.415  16.700  0.4101 -0.2124 -0.1746
  439TMC3    O2 6606   2.424   0.121  16.355 -0.9248 -0.1808 -0.4603
  440MPD2     C 6607   1.142   0.814  14.696 -0.4937  0.6498  0.1735
  440MPD2    C1 6608   1.137   0.910  14.795 -0.7651  1.2698  0.6089
  440MPD2    C2 6609   1.231   0.908  14.895 -0.3700  1.3781 -0.0416
  440MPD2    C3 6610   1.341   0.822  14.892  0.0099  0.7909 -0.1904
  440MPD2    C4 6611   1.347   0.725  14.792  0.9294  0.1467  0.1608
  440MPD2    C5 6612   1.254   0.733  14.698 -0.0755  0.0777  0.4053
  440MPD2     H 6613   1.224   0.979  14.977  0.7585 -0.5840  1.7828
  440MPD2    H1 6614   1.428   0.653  14.785 -1.6014 -2.5954 -0.8341
  440MPD2    H2 6615   1.065   0.796  14.622 -2.0026  0.8136  1.6792
  440MPD2    H3 6616   1.260   0.656  14.622  2.0241 -0.6172  1.2830
  440MPD2     N 6617   1.431   0.826  15.000 -0.0022 -0.2078  0.4035
  440MPD2    H5 6618   1.410   0.899  15.067 -0.4797 -0.7214  0.8106
  440MPD2    N1 6619   1.032   1.011  14.806 -0.2018  0.1283  0.1950
  440MPD2    H7 6620   1.047   1.091  14.866  0.2536  1.3755 -1.5685
  441TMC3    C1 6621   1.515   0.734  15.186  0.6318  0.1890  0.3175
  441TMC3    C2 6622   1.548   0.854  15.236 -0.5214 -0.5206  0.2692
  441TMC3    C3 6623   1.525   0.886  15.370 -0.0401  0.9710 -0.7742
  441TMC3    C4 6624   1.442   0.649  15.263 -0.3282 -0.3446  0.1458
  441TMC3    C5 6625   1.406   0.691  15.388 -0.2772  0.1483 -0.1481
  441TMC3    C6 6626   1.457   0.796  15.447 -0.2040  0.3634 -0.2340
  441TMC3     C 6627   1.503   0.719  15.043 -0.4179  0.2994 -0.2737
  441TMC3     O 6628   1.514   0.605  15.006  0.3323  0.5816 -0.1881
  441TMC3     H 6629   1.602   0.924  15.174  2.0932 -2.1920  0.6933
  441TMC3    H1 6630   1.407   0.564  15.207  1.0415  0.5668 -2.1185
  441TMC3    H2 6631   1.407   0.820  15.541  1.1381  1.1213  0.2873
  441TMC3    C7 6632   1.299   0.623  15.461 -0.4767  0.3170 -0.0541
  441TMC3    C8 6633   1.605   1.001  15.422  0.0924  0.7618  1.3581
  441TMC3    O1 6634   1.289   0.641  15.584  0.1856 -0.7924 -0.4381
  441TMC3    O2 6635   1.712   1.024  15.369  0.2522  0.6471 -0.2021
  442MPD2     C 6636   3.974   1.033  16.458 -0.3124 -0.4451  0.3357
  442MPD2    C1 6637   3.846   1.013  16.499  0.0766 -0.1386  0.4835
  442MPD2    C2 6638   3.776   0.899  16.460  0.2465 -0.0254 -0.1907
  442MPD2    C3 6639   3.838   0.814  16.365 -0.3307 -0.3724 -0.0300
  442MPD2    C4 6640   3.963   0.842  16.318 -0.3243 -0.6370  0.5774
  442MPD2    C5 6641   4.038   0.946  16.370  0.5380  0.1884  0.7873
  442MPD2     H 6642   3.673   0.881  16.486 -0.0700  1.6774 -0.2568
  442MPD2    H1 6643   4.009   0.774  16.249  2.0456  1.7787 -0.2002
  442MPD2    H2 6644   4.037   1.117  16.486 -2.2107  1.0291  0.1793
  442MPD2    H3 6645   4.139   0.972  16.340  0.4884  0.4155  0.8135
  442MPD2     N 6646   3.776   0.699  16.303 -0.2245 -0.1840 -0.0237
  442MPD2    H5 6647   3.832   0.640  16.242  0.8410  0.3753  0.4161
  442MPD2    N1 6648   3.771   1.109  16.573 -0.1451  0.1781  0.2338
  442MPD2    H7 6649   3.684   1.067  16.602  0.7392 -1.0207  1.1814
  443TMC3    C1 6650   3.713   1.311  16.668 -0.3197 -0.0087 -0.0330
  443TMC3    C2 6651   3.718   1.441  16.629  0.2522 -0.2449 -0.4401
  443TMC3    C3 6652   3.621   1.522  16.675 -0.9866 -0.0993  0.5780
  443TMC3    C4 6653   3.604   1.251  16.731 -0.1457  0.3906 -0.0721
  443TMC3    C5 6654   3.505   1.337  16.771  0.8376 -0.2037 -0.0891
  443TMC3    C6 6655   3.519   1.473  16.745  0.2565  0.6661 -1.0074
  443TMC3     C 6656   3.815   1.234  16.601  0.2015 -0.3268  0.1240
  443TMC3     O 6657   3.915   1.283  16.552  0.1797 -0.5079  0.1990
  443TMC3     H 6658   3.793   1.480  16.562 -2.9659  2.8099 -2.2502
  443TMC3    H1 6659   3.604   1.144  16.746 -2.5656  0.3318 -0.4372
  443TMC3    H2 6660   3.438   1.534  16.784 -0.3096 -0.7626  0.0998
  443TMC3    C7 6661   3.395   1.284  16.851 -0.0099  0.3666  0.0469
  443TMC3    C8 6662   3.578   1.618  16.571 -0.3299  0.3115  0.8265
  443TMC3    O1 6663   3.375   1.162  16.830  0.2004 -0.5385 -0.4980
  443TMC3    O2 6664   3.600   1.737  16.592  0.3233  0.2862 -0.2202
  444MPD2     C 6665   3.822   0.602  17.178 -0.3381 -0.1228 -0.1959
  444MPD2    C1 6666   3.752   0.566  17.068 -0.0544 -0.2404  0.2107
  444MPD2    C2 6667   3.811   0.493  16.964 -0.1125  0.1955 -0.1729
  444MPD2    C3 6668   3.947   0.461  16.969 -0.0936  0.8567  0.3871
  444MPD2    C4 6669   4.020   0.510  17.077 -0.1677 -0.1817  0.8880
  444MPD2    C5 6670   3.958   0.582  17.182  0.0119  0.4458 -0.4321
  444MPD2     H 6671   3.753   0.471  16.875 -1.9484  0.8768  0.8541
  444MPD2    H1 6672   4.123   0.480  17.095 -0.3300 -0.4008  1.4570
  444MPD2    H2 6673   3.778   0.661  17.258  2.0667  0.0755  0.9623
  444MPD2    H3 6674   4.014   0.612  17.270 -0.5546  1.9257 -0.5869
  444MPD2     N 6675   4.001   0.384  16.865  0.5336  0.1217  0.2156
  444MPD2    H5 6676   3.937   0.347  16.795 -1.4796  3.7742  0.1503
  444MPD2    N1 6677   3.609   0.580  17.063 -0.2182 -0.4003  0.3474
  444MPD2    H7 6678   3.555   0.531  16.993  1.1494 -1.5477  0.0901
  445TMC3    C1 6679   4.157   0.256  16.744 -0.1909  0.2579 -0.1024
  445TMC3    C2 6680   4.062   0.229  16.648  0.5134  0.4162 -0.8727
  445TMC3    C3 6681   4.079   0.123  16.562 -0.4052 -0.4970 -0.1141
  445TMC3    C4 6682   4.274   0.186  16.746  0.1023 -0.2372  0.3253
  445TMC3    C5 6683   4.292   0.086  16.653 -0.1691  0.2352  0.0849
  445TMC3    C6 6684   4.198   0.051  16.560  0.7958  0.3217 -0.0863
  445TMC3     C 6685   4.134   0.354  16.852  0.2245  0.3998  0.6568
  445TMC3     O 6686   4.234   0.402  16.905  0.4167 -0.3247  0.4206
  445TMC3     H 6687   3.963   0.273  16.642  0.5855  0.9645  1.9433
  445TMC3    H1 6688   4.353   0.204  16.818  0.0968 -0.4736  0.3880
  445TMC3    H2 6689   4.210   4.700  16.495  3.0200  0.6278 -0.0670
  445TMC3    C7 6690   4.421   0.012  16.647  0.7032 -0.1270 -0.0670
  445TMC3    C8 6691   3.969   0.081  16.477  0.3556 -1.1227  0.2361
  445TMC3    O1 6692   4.511   0.074  16.703  0.0360 -0.4924 -0.9125
  445TMC3    O2 6693   3.860   0.113  16.519  0.1195 -0.2028  0.2524
  446MPD2     C 6694   3.711   1.655  11.460 -0.7666 -0.4205  0.5674
  446MPD2    C1 6695   3.754   1.692  11.334  0.4699 -0.4857 -0.4825
  446MPD2    C2 6696   3.828   1.808  11.318 -0.0179  0.3981 -0.6103
  446MPD2    C3 6697   3.880   1.877  11.423  0.1854 -0.0595  0.2754
  446MPD2    C4 6698   3.829   1.845  11.547  0.3515  0.5294 -0.1136
  446MPD2    C5 6699   3.751   1.734  11.569 -0.2207  0.7553 -0.2613
  446MPD2     H 6700   3.854   1.837  11.217 -0.4877  2.3884 -0.1437
  446MPD2    H1 6701   3.849   1.904  11.636  1.0440 -0.1518  0.1815
  446MPD2    H2 6702   3.634   1.581  11.478 -0.3662 -0.7059  1.1308
  446MPD2    H3 6703   3.724   1.709  11.671 -1.6992  3.2472 -0.0282
  446MPD2     N 6704   3.958   1.995  11.401 -0.2000 -0.3817  0.4855
  446MPD2    H5 6705   3.998   2.012  11.309 -1.7398  0.6439 -0.0082
  446MPD2    N1 6706   3.704   1.636  11.214 -0.3027 -0.2611 -0.4082
  446MPD2    H7 6707   3.720   1.686  11.128 -1.2098  0.5814 -0.0807
  447TMC3    C1 6708   4.109   2.165  11.496 -0.2897  0.5272  0.2280
  447TMC3    C2 6709   4.128   2.225  11.373 -0.5273 -0.7339  0.1118
  447TMC3    C3 6710   4.242   2.288  11.353 -1.0663  0.6009 -0.0321
  447TMC3    C4 6711   4.199   2.172  11.595  0.2930  0.0549 -0.0886
  447TMC3    C5 6712   4.315   2.224  11.563  0.2515 -0.7087 -0.4725
  447TMC3    C6 6713   4.342   2.297  11.452 -0.8873  0.3558  0.2172
  447TMC3     C 6714   3.992   2.077  11.510  0.0524 -0.9916 -0.1619
  447TMC3     O 6715   3.930   2.103  11.611 -0.2744 -0.2607 -0.1639
  447TMC3     H 6716   4.058   2.213  11.291 -2.4583 -0.5053  1.7236
  447TMC3    H1 6717   4.178   2.104  11.676 -1.1667 -1.1540 -1.5026
  447TMC3    H2 6718   4.443   2.332  11.435 -1.7740  3.1142  0.6969
  447TMC3    C7 6719   4.429   2.200  11.651 -0.1490  0.1086  0.0002
  447TMC3    C8 6720   4.238   2.402  11.258 -0.1233  0.4259 -0.7229
  447TMC3    O1 6721   4.540   2.213  11.601  0.7162  0.0008  0.2530
  447TMC3    O2 6722   4.172   2.377  11.158  0.6157  0.1395 -0.6035
  448TMC3    C1 6723   2.233   2.163  17.505  0.6837 -0.7716  0.1942
  448TMC3    C2 6724   2.166   2.066  17.439  0.0697 -0.6765  0.8774
  448TMC3    C3 6725   2.200   1.935  17.470  0.2010  0.0919  0.4309
  448TMC3    C4 6726   2.332   2.140  17.591 -0.1181  0.2383 -0.4666
  448TMC3    C5 6727   2.370   2.009  17.610 -0.0790 -0.0872  0.0763
  448TMC3    C6 6728   2.304   1.905  17.555  0.1617 -1.1997 -0.4489
  448TMC3     C 6729   2.194   2.306  17.494  0.0631 -0.0056  0.1013
  448TMC3     O 6730   2.225   2.376  17.592 -0.0388 -0.5080 -0.0493
  448TMC3     H 6731   2.080   2.088  17.377  0.1274 -0.1313  0.9872
  448TMC3    H1 6732   2.395   2.215  17.637 -0.9019  1.7730 -1.9201
  448TMC3    H2 6733   2.324   1.801  17.580 -0.7571 -1.2556  0.0428
  448TMC3    C7 6734   2.439   1.989  17.734 -0.6114  0.2388  0.5618
  448TMC3    C8 6735   2.167   1.825  17.371  0.1903 -1.1043 -0.3214
  448TMC3    O1 6736   2.523   2.074   0.028  0.3047  0.0072 -0.1258
  448TMC3    O2 6737   2.176   1.715  17.428 -0.1165 -0.0970  0.6610
  449MPD2     C 6738   3.809   0.206  13.921  0.3226 -0.1759  0.6693
  449MPD2    C1 6739   3.690   0.272  13.883  0.7214  0.7593  0.2442
  449MPD2    C2 6740   3.561   0.215  13.905  0.2363 -0.9699  0.0483
  449MPD2    C3 6741   3.545   0.094  13.953 -0.1360 -0.1410  0.2821
  449MPD2    C4 6742   3.662   0.028  13.988  0.8390  1.0104 -0.4157
  449MPD2    C5 6743   3.788   0.081  13.972 -0.3034 -0.1585  0.3736
  449MPD2     H 6744   3.477   0.280  13.883  1.4294  0.5771  0.1311
  449MPD2    H1 6745   3.658   4.663  14.029 -0.9434  0.9287 -0.8008
  449MPD2    H2 6746   3.907   0.252  13.912  1.1061 -2.1424 -0.7063
  449MPD2    H3 6747   3.872   0.023  14.009 -1.4561 -1.6400  0.6643
  449MPD2     N 6748   3.418   0.046  13.967  0.4750 -0.6694  0.1349
  449MPD2    H5 6749   3.346   0.109  13.932 -0.0385 -1.9130 -1.0776
  449MPD2    N1 6750   3.687   0.394  13.821 -0.5915 -0.3829 -0.1749
  449MPD2    H7 6751   3.600   0.441  13.797 -1.9001 -2.3248  0.7768
  450TMC3    C1 6752   3.740   0.570  13.683 -0.2542  0.4090  0.2558
  450TMC3    C2 6753   3.760   0.562  13.551 -0.6657  0.0896 -0.1762
  450TMC3    C3 6754   3.660   0.613  13.466  0.0165  0.0393 -0.1365
  450TMC3    C4 6755   3.621   0.617  13.739 -0.3327  1.0110  0.5083
  450TMC3    C5 6756   3.528   0.666  13.653 -0.1917  0.5638 -0.8125
  450TMC3    C6 6757   3.549   0.666  13.515  0.0043  0.5243  0.0580
  450TMC3     C 6758   3.793   0.452  13.755  0.1951  0.3174 -0.6605
  450TMC3     O 6759   3.904   0.415  13.723 -0.4946 -0.0896  0.0220
  450TMC3     H 6760   3.864   0.543  13.526 -1.1400 -0.4488 -1.7060
  450TMC3    H1 6761   3.600   0.616  13.845  1.1450  1.1881  0.8027
  450TMC3    H2 6762   3.475   0.701  13.444  0.0414 -0.4793 -0.4723
  450TMC3    C7 6763   3.408   0.589  13.685 -0.8145 -0.7106  0.6925
  450TMC3    C8 6764   3.703   0.646  13.332  0.6173  0.3148 -0.2154
  450TMC3    O1 6765   3.441   0.489  13.746 -0.3297  0.3607  0.0549
  450TMC3    O2 6766   3.625   0.715  13.263  0.1318 -0.1283  0.5965
  451MPD2     C 6767   3.905   3.246   0.611  0.3919  0.6538 -0.1758
  451MPD2    C1 6768   4.022   3.311   0.596 -1.0518  0.2354 -0.8010
  451MPD2    C2 6769   4.139   3.240   0.567 -0.2271  0.5575  0.6559
  451MPD2    C3 6770   4.140   3.098   0.561  0.0998  0.0968  0.3596
  451MPD2    C4 6771   4.023   3.037   0.583 -0.0308  0.3068  0.5076
  451MPD2    C5 6772   3.908   3.105   0.611  0.4812 -0.3216  0.4939
  451MPD2     H 6773   4.236   3.286   0.548 -1.0107  0.7992 -2.8394
  451MPD2    H1 6774   4.014   2.930   0.596  2.3975 -0.0638 -1.0089
  451MPD2    H2 6775   3.809   3.297   0.621  0.1849  0.3347 -0.5637
  451MPD2    H3 6776   3.820   3.047   0.635 -1.8709  2.0821 -2.3852
  451MPD2     N 6777   4.253   3.018   0.536  0.3354  0.3117  0.5459
  451MPD2    H5 6778   4.250   2.920   0.511  0.4166  0.4040  0.1703
  451MPD2    N1 6779   4.015   3.451   0.597  0.0217 -0.4481 -0.1083
  451MPD2    H7 6780   3.931   3.500   0.625  0.6618 -0.0321  1.0910
  452TMC3    C1 6781   4.481   3.013   0.467  0.0907  0.1645  0.1246
  452TMC3    C2 6782   4.456   2.923   0.364 -0.0242  0.6116 -0.4197
  452TMC3    C3 6783   4.556   2.887   0.281 -0.0651 -0.2426 -0.1081
  452TMC3    C4 6784   4.599   3.084   0.464  0.1534  0.3063  0.1876
  452TMC3    C5 6785   4.695   3.057   0.370 -0.2544  0.5090 -0.4283
  452TMC3    C6 6786   4.679   2.949   0.279  0.0402  0.2345 -0.1702
  452TMC3     C 6787   4.377   3.068   0.552 -0.6468 -0.5079  0.8190
  452TMC3     O 6788   4.412   3.150   0.633 -0.1557  0.2739  0.5505
  452TMC3     H 6789   4.370   2.858   0.374  0.3584  0.4066  1.5241
  452TMC3    H1 6790   4.616   3.161   0.539 -0.8179  0.5602  0.1473
  452TMC3    H2 6791   0.032   2.922   0.222  0.1372  1.4373 -0.5889
  452TMC3    C7 6792   0.070   3.138   0.363  0.1514  0.4429  0.3551
  452TMC3    C8 6793   4.526   2.797   0.171  0.0758 -0.0286 -0.0466
  452TMC3    O1 6794   0.116   3.159   0.250  0.4754  0.2273 -0.0395
  452TMC3    O2 6795   4.428   2.719   0.170 -0.0410 -0.3614 -0.2211
  453TMC3    C1 6796   1.974   1.046  11.789  0.7003  0.2102  0.4514
  453TMC3    C2 6797   1.864   0.979  11.827 -0.0988 -0.5146 -0.9329
  453TMC3    C3 6798   1.740   1.025  11.794 -0.0752 -0.5666 -0.8684
  453TMC3    C4 6799   1.967   1.152  11.713 -0.6153 -0.3064  0.1612
  453TMC3    C5 6800   1.846   1.198  11.680 -0.4624 -0.3547  0.1700
  453TMC3    C6 6801   1.725   1.139  11.715  0.2719 -0.4056  0.5438
  453TMC3     C 6802   2.108   1.016  11.835  0.4560  0.4869 -0.9949
  453TMC3     O 6803   2.212   1.048  11.775  0.2880  0.4503  0.5412
  453TMC3     H 6804   1.870   0.884  11.879  0.9722 -0.7116 -1.4068
  453TMC3    H1 6805   2.058   1.210  11.706 -1.1172  0.6734  1.6506
  453TMC3    H2 6806   1.630   1.174  11.675  1.7046 -0.6335 -3.0506
  453TMC3    C7 6807   1.846   1.318  11.603 -0.8030  0.5302 -0.6096
  453TMC3    C8 6808   1.624   0.971  11.852 -0.1380  0.1125 -0.2459
  453TMC3    O1 6809   1.740   1.381  11.602 -0.3909 -0.1793  0.2351
  453TMC3    O2 6810   1.522   1.039  11.844  0.7434  0.1953  0.2710
  454MPD2     C 6811   0.024   0.436  16.198 -0.1640  0.2820 -0.0726
  454MPD2    C1 6812   4.654   0.468  16.107  0.0654  0.0348  0.0730
  454MPD2    C2 6813   4.588   0.589  16.125  0.3490  0.0846  0.1132
  454MPD2    C3 6814   4.617   0.681  16.223  0.0434  0.4102  0.0418
  454MPD2    C4 6815   4.731   0.652  16.302  0.0192 -0.1791  0.0916
  454MPD2    C5 6816   0.062   0.530  16.291  0.6890  0.1704  1.0473
  454MPD2     H 6817   4.509   0.600  16.052 -0.2753 -0.6799  0.6726
  454MPD2    H1 6818   0.028   0.724  16.377 -1.5213  0.2696  0.3123
  454MPD2    H2 6819   0.074   0.340  16.195 -1.7610 -0.4427 -4.1380
  454MPD2    H3 6820   0.138   0.493  16.359  0.4043  0.6544  1.6269
  454MPD2     N 6821   4.537   0.798  16.253 -0.1453 -0.4211  0.1178
  454MPD2    H5 6822   4.563   0.855  16.333 -2.8145  0.6001  0.2404
  454MPD2    N1 6823   4.593   0.382  16.013  0.3851 -0.2095  0.3829
  454MPD2    H7 6824   4.510   0.422  15.970  1.5609 -0.4094 -2.1293
  455TMC3    C1 6825   4.322   0.757  16.264 -0.0462  0.1749  0.6610
  455TMC3    C2 6826   4.333   0.755  16.401 -0.3413 -0.5717  0.2997
  455TMC3    C3 6827   4.269   0.658  16.466 -0.3951  0.2590 -0.5627
  455TMC3    C4 6828   4.274   0.656  16.193 -0.0330  0.7221  0.6092
  455TMC3    C5 6829   4.236   0.546  16.267  0.2332  0.3098 -0.1252
  455TMC3    C6 6830   4.219   0.549  16.399 -0.3447  0.6591  0.6072
  455TMC3     C 6831   4.424   0.829  16.192 -0.1844 -0.3609  0.0584
  455TMC3     O 6832   4.403   0.836  16.073 -0.4751 -0.4328  0.0708
  455TMC3     H 6833   4.374   0.838  16.457  0.6037  0.1348 -1.4207
  455TMC3    H1 6834   4.290   0.646  16.086  2.7801 -0.8035  1.1742
  455TMC3    H2 6835   4.173   0.467  16.453  0.2448  1.9401  3.0332
  455TMC3    C7 6836   4.221   0.421  16.185  0.1535  0.1095  0.3172
  455TMC3    C8 6837   4.224   0.690  16.601  0.4660  0.4791  0.1594
  455TMC3    O1 6838   4.195   0.440  16.064  0.6875  0.1576 -0.7569
  455TMC3    O2 6839   4.286   0.779  16.658 -0.3159 -0.0300  0.1400
  456MPD2     C 6840   2.006   0.680  16.462  0.6998  0.0660  0.5450
  456MPD2    C1 6841   2.110   0.657  16.548 -0.3385 -0.3112  0.0307
  456MPD2    C2 6842   2.111   0.718  16.672  0.3546  0.3522 -0.1011
  456MPD2    C3 6843   2.000   0.789  16.716 -0.8478 -0.0387 -0.0403
  456MPD2    C4 6844   1.900   0.818  16.627  0.1633  0.5898  0.7191
  456MPD2    C5 6845   1.903   0.760  16.502  0.4158  0.0617  0.1208
  456MPD2     H 6846   2.201   0.700  16.730  0.5453  1.4294 -0.0674
  456MPD2    H1 6847   1.819   0.887  16.648 -0.5355  0.0993 -0.3400
  456MPD2    H2 6848   2.004   0.640  16.361  0.4528 -0.5115  0.7811
  456MPD2    H3 6849   1.815   0.766  16.440  0.9779  1.9785 -0.5005
  456MPD2     N 6850   2.011   0.847  16.847 -0.8884 -0.2246  0.2881
  456MPD2    H5 6851   2.096   0.825  16.898  0.3084 -1.1788 -2.1019
  456MPD2    N1 6852   2.222   0.585  16.498  0.5697  0.7809 -0.3426
  456MPD2    H7 6853   2.221   0.561  16.399 -1.6275  1.0728 -0.3808
  457TMC3    C1 6854   2.002   1.001  17.017 -0.0670 -0.4587  0.1301
  457TMC3    C2 6855   2.001   1.139  17.028 -0.5317  0.3515 -0.6326
  457TMC3    C3 6856   2.036   1.192  17.143  0.9711  0.4520 -0.4512
  457TMC3    C4 6857   2.043   0.922  17.111 -0.0089 -0.9020  0.0623
  457TMC3    C5 6858   2.063   0.977  17.235 -0.4178 -0.1634  1.3310
  457TMC3    C6 6859   2.078   1.115  17.245 -0.2059  0.3090  0.2029
  457TMC3     C 6860   1.935   0.948  16.892 -0.1943 -0.6736 -0.5575
  457TMC3     O 6861   1.845   1.022  16.847  0.1805 -0.1783 -0.0586
  457TMC3     H 6862   1.952   1.200  16.953  1.9532  0.2734 -2.3198
  457TMC3    H1 6863   2.038   0.815  17.097  0.3525 -0.7153 -1.4380
  457TMC3    H2 6864   2.110   1.167  17.335 -1.0917 -2.6850  2.2672
  457TMC3    C7 6865   2.094   0.897  17.349 -0.8140 -0.1692 -0.2493
  457TMC3    C8 6866   2.044   1.338  17.155 -0.3838  0.1307  0.1512
  457TMC3    O1 6867   2.115   0.773  17.348  0.1222 -0.4167  0.5161
  457TMC3    O2 6868   2.068   1.376  17.272  0.3525 -0.5186 -0.1397
  458MPD2     C 6869   0.314   0.732  12.209  0.2366 -0.8441  0.8363
  458MPD2    C1 6870   0.309   0.657  12.322  0.3135  0.6103  0.2611
  458MPD2    C2 6871   0.191   0.588  12.356 -0.2762 -0.3738  0.8168
  458MPD2    C3 6872   0.075   0.609  12.277  0.9193 -0.5964  0.0149
  458MPD2    C4 6873   0.084   0.699  12.175  0.0156 -0.4336 -0.2667
  458MPD2    C5 6874   0.204   0.754  12.138  0.3520  0.2173  0.1528
  458MPD2     H 6875   0.184   0.522  12.442  1.6477  0.5048  1.6414
  458MPD2    H1 6876   0.001   0.710  12.106  1.4168 -1.0329 -2.0419
  458MPD2    H2 6877   0.407   0.776  12.172  0.3475 -3.0133 -1.4144
  458MPD2    H3 6878   0.208   0.803  12.042  1.0666 -0.3245 -0.0957
  458MPD2     N 6879   4.691   0.548  12.308  0.1124  0.2335  0.3103
  458MPD2    H5 6880   4.695   0.495  12.394  0.1846  1.1510  0.8725
  458MPD2    N1 6881   0.432   0.641  12.396  0.3386 -0.2816  0.0005
  458MPD2    H7 6882   0.518   0.677  12.356  0.1300  0.9758  0.6837
  459TMC3    C1 6883   0.565   0.598  12.592 -0.2619 -0.7619  0.9063
  459TMC3    C2 6884   0.667   0.665  12.539  0.0794 -0.1782  0.7007
  459TMC3    C3 6885   0.787   0.647  12.600 -0.1862  0.1054 -0.3290
  459TMC3    C4 6886   0.576   0.512  12.693  0.4535  0.3609  0.5687
  459TMC3    C5 6887   0.696   0.483  12.742  0.3183 -0.3727  0.0649
  459TMC3    C6 6888   0.805   0.552  12.701  0.1141  0.1093 -0.0398
  459TMC3     C 6889   0.437   0.597  12.524  0.0515  0.7591 -0.6446
  459TMC3     O 6890   0.347   0.548  12.588  0.2961  0.0524 -0.0049
  459TMC3     H 6891   0.655   0.732  12.454 -1.4209 -3.2970 -1.5498
  459TMC3    H1 6892   0.487   0.458  12.725 -1.0494  2.8817  0.6523
  459TMC3    H2 6893   0.903   0.516  12.728 -1.1748 -0.4338  3.8704
  459TMC3    C7 6894   0.702   0.372  12.837 -0.1072 -0.0048  0.4449
  459TMC3    C8 6895   0.905   0.671  12.516 -0.5373 -0.0108  0.0548
  459TMC3    O1 6896   0.604   0.299  12.841 -0.1945  0.3370 -0.5141
  459TMC3    O2 6897   0.979   0.572  12.500 -0.3350  0.0158 -0.8511
  460MPD2     C 6898   4.390   2.732  11.317 -0.5897  0.4098  0.6251
  460MPD2    C1 6899   4.305   2.640  11.254 -0.0814 -0.3815 -0.3170
  460MPD2    C2 6900   4.240   2.668  11.133  0.7181  0.2169  0.1402
  460MPD2    C3 6901   4.255   2.797  11.076  0.5295  0.0767 -0.1037
  460MPD2    C4 6902   4.322   2.894  11.151 -0.0227 -0.3538 -0.4368
  460MPD2    C5 6903   4.378   2.859  11.275 -0.5711  0.1664  0.3485
  460MPD2     H 6904   4.183   2.592  11.081 -0.1529  0.4792  0.6956
  460MPD2    H1 6905   4.331   2.998  11.124 -1.6871 -0.3175 -0.8142
  460MPD2    H2 6906   4.437   2.705  11.411  0.6009 -0.1661 -0.1380
  460MPD2    H3 6907   4.421   2.937  11.336  0.6222  0.3964 -0.7862
  460MPD2     N 6908   4.198   2.836  10.951 -0.2699 -0.1988 -0.3362
  460MPD2    H5 6909   4.159   2.754  10.907  1.4927 -3.1768  3.6273
  460MPD2    N1 6910   4.303   2.511  11.308  0.4440  0.0849  0.4884
  460MPD2    H7 6911   4.353   2.503  11.396  0.3431 -2.0658  0.3539
  461TMC3    C1 6912   4.120   2.968  10.764 -0.5271 -0.0194 -0.4538
  461TMC3    C2 6913   4.069   2.858  10.703 -0.1543  1.2351 -0.2904
  461TMC3    C3 6914   4.028   2.875  10.571  0.1654 -0.0083  0.6573
  461TMC3    C4 6915   4.142   3.081  10.694  0.0707  0.0672 -0.2202
  461TMC3    C5 6916   4.103   3.091  10.563 -0.1205  0.1369 -0.4286
  461TMC3    C6 6917   4.040   2.990  10.496  0.1963 -0.8779  0.6655
  461TMC3     C 6918   4.199   2.960  10.888  0.2038 -0.0149 -0.1994
  461TMC3     O 6919   4.254   3.065  10.918  0.6321 -0.4134 -0.1712
  461TMC3     H 6920   4.051   2.765  10.757 -2.0352  0.6688 -1.9065
  461TMC3    H1 6921   4.179   3.171  10.742 -0.4256 -0.7624  1.7304
  461TMC3    H2 6922   4.019   2.994  10.390  2.4250  0.0080  0.2581
  461TMC3    C7 6923   4.145   3.201  10.477  0.0905  0.3563  0.2192
  461TMC3    C8 6924   3.967   2.771  10.502 -0.0562  0.0410 -0.0186
  461TMC3    O1 6925   4.078   3.217  10.374 -0.3767 -0.0316 -0.0013
  461TMC3    O2 6926   3.944   2.788  10.382 -0.1733 -0.0425  0.4167
  462TMC3    C1 6927   4.128   3.314   0.200 -1.1405  0.7735 -0.1467
  462TMC3    C2 6928   4.199   3.209   0.142  0.1244  0.0456 -0.3651
  462TMC3    C3 6929   4.154   3.082   0.152  0.6972 -0.1434 -0.1555
  462TMC3    C4 6930   4.011   3.287   0.266 -0.0528 -0.0527 -0.5305
  462TMC3    C5 6931   3.974   3.155   0.273 -0.8143  0.1134 -0.6165
  462TMC3    C6 6932   4.041   3.047   0.217  0.2607 -0.0944 -0.3381
  462TMC3     C 6933   4.175   3.455   0.193 -0.5125  0.3931  0.3333
  462TMC3     O 6934   4.249   3.468   0.101  0.1468  0.3851 -0.3142
  462TMC3     H 6935   4.293   3.231   0.093  1.3469 -1.9620  1.0914
  462TMC3    H1 6936   3.957   3.361   0.325 -0.3625 -1.3449  0.7918
  462TMC3    H2 6937   4.014   2.948   0.250  1.0059  0.2166  1.2221
  462TMC3    C7 6938   3.826   3.119   0.277 -0.5608 -0.1560  0.6130
  462TMC3    C8 6939   4.208   2.983   0.065 -0.5096 -0.1010  0.2924
  462TMC3    O1 6940   3.806   3.003   0.239 -0.3726  0.2116 -0.0661
  462TMC3    O2 6941   4.317   3.011   0.018 -0.6460 -0.1719 -0.0506
  463MPD2     C 6942   0.758   1.637   1.740 -0.4111 -0.2966 -0.0912
  463MPD2    C1 6943   0.685   1.526   1.702  0.7160  0.7960 -0.2661
  463MPD2    C2 6944   0.745   1.407   1.662 -0.3111 -0.6448  0.2284
  463MPD2    C3 6945   0.878   1.399   1.653 -0.6927 -0.2975  0.5012
  463MPD2    C4 6946   0.952   1.509   1.679 -0.2338  0.1907 -0.1930
  463MPD2    C5 6947   0.892   1.625   1.722  0.3106  0.0526 -0.1258
  463MPD2     H 6948   0.685   1.322   1.633 -1.1456 -0.4950  1.5294
  463MPD2    H1 6949   1.060   1.520   1.689 -0.2970  1.6711 -1.0448
  463MPD2    H2 6950   0.719   1.722   1.794 -2.4506  0.2116 -2.3671
  463MPD2    H3 6951   0.955   1.711   1.741 -0.2365  0.5591 -0.5932
  463MPD2     N 6952   0.955   1.284   1.617  0.1143 -0.0506 -0.3172
  463MPD2    H5 6953   1.055   1.299   1.609  0.0423  0.3661 -0.4238
  463MPD2    N1 6954   0.547   1.523   1.726  0.0977 -0.0324  0.5770
  463MPD2    H7 6955   0.497   1.435   1.710 -3.0948  2.0022 -0.6084
  464TMC3    C1 6956   0.325   1.609   1.749  0.7808  0.5028 -0.1843
  464TMC3    C2 6957   0.248   1.707   1.687  0.4239 -0.0731  0.1856
  464TMC3    C3 6958   0.110   1.686   1.688  0.1297 -0.1300  0.6418
  464TMC3    C4 6959   0.270   1.495   1.801  0.0583 -0.4041  0.0512
  464TMC3    C5 6960   0.132   1.496   1.816 -0.3848  0.5100  0.0639
  464TMC3    C6 6961   0.052   1.585   1.749 -0.0108 -0.6746 -0.4136
  464TMC3     C 6962   0.465   1.630   1.750  0.0910 -0.3299 -0.3211
  464TMC3     O 6963   0.491   1.749   1.745 -0.3611  0.2799 -0.3579
  464TMC3     H 6964   0.295   1.789   1.634 -0.3251 -0.8882 -1.6990
  464TMC3    H1 6965   0.323   1.428   1.869  0.8510  0.7814  0.5915
  464TMC3    H2 6966   4.681   1.598   1.769  0.7183  0.1380  2.8816
  464TMC3    C7 6967   0.081   1.383   1.883  0.1777  0.5361  0.0216
  464TMC3    C8 6968   0.023   1.787   1.637 -0.7632  0.1508  1.0005
  464TMC3    O1 6969   0.153   1.309   1.946  0.0324  0.0773 -0.2839
  464TMC3    O2 6970   4.639   1.758   1.618  0.3056 -0.1870 -0.1726
  465MPD2     C 6971   1.619   0.552  17.004  0.2476 -0.7029  0.4478
  465MPD2    C1 6972   1.480   0.556  17.020 -0.2490  0.3165  0.2382
  465MPD2    C2 6973   1.412   0.642  16.933  0.2483  0.5018  0.0520
  465MPD2    C3 6974   1.469   0.711  16.827 -0.1529 -0.4265  0.1647
  465MPD2    C4 6975   1.604   0.684  16.801 -0.3520 -0.0066  0.0680
  465MPD2    C5 6976   1.677   0.609  16.890 -0.4899  0.7553  0.4824
  465MPD2     H 6977   1.304   0.644  16.942  0.1963  0.2287 -0.5323
  465MPD2    H1 6978   1.652   0.728  16.714 -1.4424  0.5212 -0.2583
  465MPD2    H2 6979   1.676   0.490  17.071 -2.6241 -0.5881  2.9876
  465MPD2    H3 6980   1.782   0.596  16.864  0.0034  2.1033  1.8079
  465MPD2     N 6981   1.387   0.796  16.748  0.9207  0.7663 -0.3115
  465MPD2    H5 6982   1.287   0.800  16.768  0.8517  1.0777 -0.7196
  465MPD2    N1 6983   1.413   0.491  17.133 -1.0998 -0.1761  0.4980
  465MPD2    H7 6984   1.313   0.508  17.131 -1.4318 -2.1823  0.4867
  466TMC3    C1 6985   1.109   0.920  16.486  0.5003 -0.8291 -0.6257
  466TMC3    C2 6986   1.128   1.033  16.406 -0.2534 -0.4988 -0.5486
  466TMC3    C3 6987   1.257   1.072  16.395  0.3440  0.7444  0.4671
  466TMC3    C4 6988   1.213   0.865  16.555 -0.3134 -0.0724 -0.0922
  466TMC3    C5 6989   1.339   0.913  16.545 -0.1349  0.0375 -0.7665
  466TMC3    C6 6990   1.364   1.018  16.467 -0.2906  0.6029 -0.6177
  466TMC3     C 6991   0.976   0.863  16.518  0.9918  0.0015 -0.0198
  466TMC3     O 6992   0.977   0.752  16.570 -0.3106 -0.9941 -0.0995
  466TMC3     H 6993   1.047   1.066  16.342 -0.2871  0.9716  0.2528
  466TMC3    H1 6994   1.202   0.771  16.608  0.5348 -0.5534 -0.7791
  466TMC3    H2 6995   1.455   1.076  16.476  0.5403 -0.6381 -1.0279
  466TMC3    C7 6996   1.438   0.874  16.641 -0.0581  0.4370 -0.9501
  466TMC3    C8 6997   1.262   1.212  16.361 -0.3447 -0.4361  0.5868
  466TMC3    O1 6998   1.555   0.904  16.615 -0.3151 -0.4731 -0.0683
  466TMC3    O2 6999   1.348   1.238  16.273  0.3573  0.5826 -0.0289
  467TMC3    C1 7000   2.587   3.889  14.087 -0.1175  0.3102  0.2747
  467TMC3    C2 7001   2.568   3.945  13.966  0.1130  0.9045  0.5080
  467TMC3    C3 7002   2.444   3.925  13.907  0.7196  0.1695  0.2018
  467TMC3    C4 7003   2.496   3.811  14.155  0.0775  0.6464  0.3537
  467TMC3    C5 7004   2.372   3.792  14.088  0.3879 -1.0419  0.9030
  467TMC3    C6 7005   2.344   3.852  13.963 -0.1028  0.2797 -0.6739
  467TMC3     C 7006   2.732   3.872  14.115 -0.1320 -0.1015  0.4925
  467TMC3     O 7007   2.776   3.937  14.208 -0.6357 -0.3358  0.4443
  467TMC3     H 7008   2.646   4.006  13.924  0.5679 -0.7645 -1.0252
  467TMC3    H1 7009   2.512   3.787  14.259 -1.6040  2.1953  0.9507
  467TMC3    H2 7010   2.260   3.825  13.899  0.6217  0.3249 -1.6391
  467TMC3    C7 7011   2.281   3.705  14.156  0.2907 -0.1649  0.6417
  467TMC3    C8 7012   2.425   3.956  13.767 -0.4950 -0.1807  0.1612
  467TMC3    O1 7013   2.326   3.652  14.255  0.1255  0.0396  0.2434
  467TMC3    O2 7014   2.345   3.897  13.697  0.0580  0.2973  0.5236
  468MPD2     C 7015   1.745   2.515  11.155  0.2677 -0.0433  0.2600
  468MPD2    C1 7016   1.856   2.438  11.123 -0.4720  0.0790 -0.5136
  468MPD2    C2 7017   1.834   2.302  11.104 -0.4376 -0.0254  0.7144
  468MPD2    C3 7018   1.711   2.248  11.129  0.3107  0.0612  0.2422
  468MPD2    C4 7019   1.601   2.324  11.166 -0.0386  0.2248 -0.5943
  468MPD2    C5 7020   1.626   2.455  11.166 -0.2469 -0.4001  0.0504
  468MPD2     H 7021   1.919   2.239  11.082 -0.3749  0.7984 -1.3485
  468MPD2    H1 7022   1.511   2.271  11.194 -1.4117  2.3032 -1.1429
  468MPD2    H2 7023   1.759   2.622  11.173 -2.4162  0.3958 -0.3516
  468MPD2    H3 7024   1.538   2.514  11.189 -0.0114 -0.6749  1.6636
  468MPD2     N 7025   1.689   2.107  11.119  0.1601  0.1992  0.8532
  468MPD2    H5 7026   1.591   2.082  11.126  1.1213 -3.6521  0.5190
  468MPD2    N1 7027   1.984   2.501  11.105 -0.9075  0.8000 -0.3411
  468MPD2    H7 7028   2.064   2.441  11.086 -0.9323 -0.1806  2.5555
  469TMC3    C1 7029   2.155   2.659  11.140  0.3421  0.1027 -0.9578
  469TMC3    C2 7030   2.235   2.563  11.188  0.0582 -0.0938  0.4662
  469TMC3    C3 7031   2.359   2.594  11.215 -0.5432 -0.6897  0.1263
  469TMC3    C4 7032   2.193   2.788  11.145  0.7241 -0.0599 -0.1678
  469TMC3    C5 7033   2.315   2.819  11.200 -0.4118  0.3797 -0.4745
  469TMC3    C6 7034   2.405   2.719  11.230 -0.4650 -1.0011  0.2665
  469TMC3     C 7035   2.011   2.635  11.120  0.5952  0.9494  0.1565
  469TMC3     O 7036   1.936   2.731  11.134  0.5854  0.0659 -0.0364
  469TMC3     H 7037   2.212   2.461  11.158  0.4565  0.0094 -0.1790
  469TMC3    H1 7038   2.122   2.868  11.128  1.5165  0.4223 -1.2135
  469TMC3    H2 7039   2.511   2.736  11.242 -0.3504  0.3193 -2.5559
  469TMC3    C7 7040   2.321   2.950  11.268 -1.1029 -0.4024 -0.2040
  469TMC3    C8 7041   2.434   2.491  11.291  0.4638 -0.8047 -0.1094
  469TMC3    O1 7042   2.263   3.045  11.212 -0.1026 -0.0242  0.2326
  469TMC3    O2 7043   2.555   2.478  11.268  0.0445  0.1055 -0.0950
  470TMC3    C1 7044   2.540   3.111   0.227  0.4850 -0.8536 -0.9212
  470TMC3    C2 7045   2.600   3.209   0.299  0.8255  0.5462  0.4425
  470TMC3    C3 7046   2.715   3.177   0.366 -0.6503 -0.5147  0.1694
  470TMC3    C4 7047   2.599   2.992   0.201  0.8671  0.8838 -0.6477
  470TMC3    C5 7048   2.720   2.967   0.261 -0.2705 -0.1711 -0.3359
  470TMC3    C6 7049   2.775   3.055   0.357  0.2113  0.0648 -0.0691
  470TMC3     C 7050   2.435   3.156   0.142 -0.1845  0.0894  0.4739
  470TMC3     O 7051   2.429   3.275   0.112  0.2777  0.4289 -0.0887
  470TMC3     H 7052   2.556   3.308   0.304  0.0537  0.2967 -1.3547
  470TMC3    H1 7053   2.549   2.921   0.136  2.0588 -0.0234 -0.5773
  470TMC3    H2 7054   2.870   3.022   0.398  0.5231 -0.8731 -1.5542
  470TMC3    C7 7055   2.752   2.829   0.273 -0.7826  0.3685 -0.2906
  470TMC3    C8 7056   2.773   3.301   0.428 -0.9076 -0.0523  0.2117
  470TMC3    O1 7057   2.726   2.754   0.181  0.7676  0.3145  0.3395
  470TMC3    O2 7058   2.706   3.387   0.484 -0.2740  0.2277  0.1827
  471MPD2     C 7059   3.836   4.694  16.848  0.5261 -0.1779 -0.6371
  471MPD2    C1 7060   3.845   4.559  16.829 -0.4190 -0.0037 -0.7190
  471MPD2    C2 7061   3.911   4.490  16.932 -0.0718  0.1226  0.8258
  471MPD2    C3 7062   3.941   4.547  17.052  0.3018 -0.4577  0.0357
  471MPD2    C4 7063   3.917   4.683  17.074 -0.3985  0.4671 -0.4257
  471MPD2    C5 7064   3.879   0.019  16.967 -0.4452  0.4274 -0.2352
  471MPD2     H 7065   3.918   4.383  16.915  0.2832  0.0011  1.7517
  471MPD2    H1 7066   3.945   4.734  17.166  0.8693 -1.2066  0.1141
  471MPD2    H2 7067   3.790   0.027  16.776  0.0729 -1.4098 -1.5004
  471MPD2    H3 7068   3.868   0.126  16.974  1.9481  0.8281 -2.3881
  471MPD2     N 7069   3.994   4.464  17.155  0.3611  0.2861  0.0613
  471MPD2    H5 7070   4.020   4.375  17.114 -0.0061  0.5098 -0.6636
  471MPD2    N1 7071   3.809   4.493  16.710 -0.7546 -0.3119 -0.1155
  471MPD2    H7 7072   3.845   4.398  16.706  2.2531  0.6943  2.9472
  472TMC3    C1 7073   3.713   4.438  16.500 -0.0986 -0.6112  0.4369
  472TMC3    C2 7074   3.598   4.444  16.429 -0.2926 -0.3146  0.1761
  472TMC3    C3 7075   3.591   4.353  16.329  0.0536  0.6084 -0.0587
  472TMC3    C4 7076   3.817   4.348  16.475  0.2358 -0.0620 -0.4478
  472TMC3    C5 7077   3.795   4.247  16.386 -0.4235  1.2938 -0.3521
  472TMC3    C6 7078   3.685   4.248  16.305 -0.2003  0.3031  0.2717
  472TMC3     C 7079   3.725   4.533  16.612  0.6164 -0.4568 -0.3231
  472TMC3     O 7080   3.639   4.627  16.618  0.3701  0.1730 -0.8879
  472TMC3     H 7081   3.515   4.509  16.450 -1.3530 -1.4081 -0.6329
  472TMC3    H1 7082   3.911   4.347  16.529 -0.1661 -0.2537  0.2505
  472TMC3    H2 7083   3.674   4.178  16.222  4.8893 -0.5432  0.3097
  472TMC3    C7 7084   3.866   4.131  16.392 -0.6082 -0.5208 -0.6620
  472TMC3    C8 7085   3.458   4.326  16.278  0.1455 -0.2786 -0.6212
  472TMC3    O1 7086   3.906   4.095  16.503  0.1997 -0.0418  0.1134
  472TMC3    O2 7087   3.415   4.390  16.181  0.3525 -0.4365 -0.6845
  473MPD2     C 7088   4.115   1.558  13.417 -0.3459 -0.4383  0.2018
  473MPD2    C1 7089   4.003   1.625  13.471 -0.4707  0.7450  0.4448
  473MPD2    C2 7090   4.020   1.711  13.575 -0.2174  0.1925  1.0669
  473MPD2    C3 7091   4.151   1.749  13.610 -0.3389 -1.0694  0.6106
  473MPD2    C4 7092   4.263   1.702  13.543 -0.7182 -0.3760  0.7730
  473MPD2    C5 7093   4.241   1.598  13.452 -0.5680 -0.6793 -0.2375
  473MPD2     H 7094   3.935   1.755  13.627 -1.7905 -0.7419 -0.7103
  473MPD2    H1 7095   4.364   1.727  13.571 -0.1491 -3.9011  1.9009
  473MPD2    H2 7096   4.119   1.485  13.337  0.8711 -1.5857  1.2944
  473MPD2    H3 7097   4.322   1.543  13.406  1.8449  1.7323  1.0968
  473MPD2     N 7098   4.178   1.854  13.705 -0.6117 -0.4591  0.0171
  473MPD2    H5 7099   4.268   1.850  13.751  0.1249  1.6186 -1.2355
  473MPD2    N1 7100   3.873   1.608  13.412 -0.3983 -0.2900 -0.8231
  473MPD2    H7 7101   3.802   1.666  13.456  0.6255 -0.7904  1.4462
  474TMC3    C1 7102   4.134   2.064  13.825  0.1154 -0.3592 -1.3150
  474TMC3    C2 7103   4.081   2.188  13.802  0.6802 -0.0675 -0.0648
  474TMC3    C3 7104   4.103   2.296  13.890 -0.1586 -0.5217 -0.2271
  474TMC3    C4 7105   4.226   2.039  13.918 -0.8448 -0.0507 -0.2890
  474TMC3    C5 7106   4.239   2.143  14.009 -0.0634 -0.7545 -0.5269
  474TMC3    C6 7107   4.187   2.268  13.995  0.9114 -1.0476 -0.0185
  474TMC3     C 7108   4.091   1.959  13.731  0.0385 -0.4132  0.1564
  474TMC3     O 7109   3.985   1.982  13.675 -0.2703 -0.4396  0.1326
  474TMC3     H 7110   4.010   2.193  13.720  0.9274 -0.1914 -0.2896
  474TMC3    H1 7111   4.271   1.941  13.934  0.1120 -0.1409 -3.3974
  474TMC3    H2 7112   4.218   2.347  14.063  1.6375  1.7337 -3.5599
  474TMC3    C7 7113   4.337   2.119  14.113 -0.3341  0.5994  1.2730
  474TMC3    C8 7114   4.079   2.433  13.843  0.5000  0.4733 -0.0172
  474TMC3    O1 7115   4.432   2.050  14.079 -0.3312  0.2088 -0.6900
  474TMC3    O2 7116   4.134   2.518  13.912  0.3336 -0.3277  0.4280
  475MPD2     C 7117   3.094   4.526  10.199  0.1905  0.5540  0.0690
  475MPD2    C1 7118   3.060   4.648  10.154  0.1683 -0.7474  0.2000
  475MPD2    C2 7119   2.927   4.693  10.164  0.0576 -0.4288  0.0189
  475MPD2    C3 7120   2.835   4.613  10.235 -0.1304 -0.5945 -0.6316
  475MPD2    C4 7121   2.887   4.493  10.284  0.0467  0.0036  0.4720
  475MPD2    C5 7122   3.006   4.438  10.253 -0.0033  0.1761 -0.6510
  475MPD2     H 7123   2.892   0.055  10.128  2.0492  0.4658  0.4731
  475MPD2    H1 7124   2.838   4.422  10.349 -1.3385  2.2265  1.8693
  475MPD2    H2 7125   3.200   4.501  10.193  0.1734  0.3571  0.6749
  475MPD2    H3 7126   3.026   4.338  10.291 -0.2207  0.6266  0.6410
  475MPD2     N 7127   2.709   4.669  10.269  0.4057  0.9714 -0.1354
  475MPD2    H5 7128   2.691   0.029  10.237 -0.1797  0.6837 -0.6695
  475MPD2    N1 7129   3.157   4.715  10.088  0.3491 -0.3732 -0.5066
  475MPD2    H7 7130   3.253   4.682  10.082  1.1690  1.6907  1.4575
  476TMC3    C1 7131   3.250   0.176   9.990 -0.2472 -0.1425  0.2356
  476TMC3    C2 7132   3.216   0.282   9.908 -0.7820  0.1083 -0.6275
  476TMC3    C3 7133   3.271   0.402   9.936  0.8113  0.4107 -0.1528
  476TMC3    C4 7134   3.333   0.184  10.098  1.1437 -0.6265  0.8613
  476TMC3    C5 7135   3.362   0.308  10.135  0.0976  0.4224  0.2643
  476TMC3    C6 7136   3.338   0.413  10.056 -0.6034  0.6532  0.6525
  476TMC3     C 7137   3.132   0.100  10.017  1.1843 -0.1073  0.7711
  476TMC3     O 7138   3.027   0.153   9.978  0.4999  0.4406 -0.7426
  476TMC3     H 7139   3.159   0.266   9.816 -0.5071  1.5490 -1.0530
  476TMC3    H1 7140   3.357   0.097  10.157 -3.2692 -0.9765  2.0975
  476TMC3    H2 7141   3.376   0.512  10.077 -1.6863  0.9439  1.2412
  476TMC3    C7 7142   3.299   0.322  10.257 -0.4887 -0.1402 -0.0201
  476TMC3    C8 7143   3.211   0.513   9.880  0.2361  0.0790  0.3169
  476TMC3    O1 7144   3.319   0.228  10.332  0.0643 -0.5996 -0.2146
  476TMC3    O2 7145   3.271   0.619   9.892  0.0717 -0.3393  0.3616
  477MPD2     C 7146   4.369   1.240  12.127 -0.2668  0.5539  0.0020
  477MPD2    C1 7147   4.430   1.299  12.021 -0.5382 -0.9462 -1.0287
  477MPD2    C2 7148   4.568   1.275  12.011 -0.4893  0.5684  0.7283
  477MPD2    C3 7149   4.639   1.199  12.108  0.1374  0.0175 -0.5355
  477MPD2    C4 7150   4.564   1.147  12.208 -0.3198  0.1844  0.1671
  477MPD2    C5 7151   4.430   1.169  12.220  0.3875 -0.9478 -0.6011
  477MPD2     H 7152   4.633   1.303  11.928  1.1763 -0.2213  1.7627
  477MPD2    H1 7153   4.613   1.082  12.280 -1.8493  1.0846  1.9797
  477MPD2    H2 7154   4.266   1.259  12.156 -0.5596  0.9348 -1.3029
  477MPD2    H3 7155   4.373   1.134  12.306 -1.5325  0.1044 -1.4448
  477MPD2     N 7156   0.048   1.195  12.111 -0.2982 -0.6857  0.2204
  477MPD2    H5 7157   0.098   1.224  12.028 -0.5447 -1.1432 -0.0896
  477MPD2    N1 7158   4.354   1.360  11.923  0.0559  0.3826  0.2814
  477MPD2    H7 7159   4.256   1.354  11.950 -0.2151 -2.4278 -1.3021
  478TMC3    C1 7160   4.269   1.443  11.723  0.3171 -0.8060  0.0336
  478TMC3    C2 7161   4.161   1.495  11.781  0.7391  0.5038 -0.5203
  478TMC3    C3 7162   4.072   1.572  11.714  0.0294 -0.0677 -0.4788
  478TMC3    C4 7163   4.284   1.460  11.588  0.0197  0.2243 -0.0778
  478TMC3    C5 7164   4.184   1.531  11.526  0.0723  0.0347  0.7825
  478TMC3    C6 7165   4.073   1.581  11.585  0.3702  0.3920  0.1383
  478TMC3     C 7166   4.387   1.398  11.794 -0.2371 -0.0433 -0.1224
  478TMC3     O 7167   4.490   1.382  11.732 -0.1139 -0.0852  0.2975
  478TMC3     H 7168   4.153   1.501  11.889  2.4882 -1.7019 -0.2676
  478TMC3    H1 7169   4.362   1.412  11.530  0.4417 -0.4280  1.0213
  478TMC3    H2 7170   4.010   1.650  11.530  3.7590  1.7601 -2.0608
  478TMC3    C7 7171   4.162   1.504  11.380 -0.1648  0.4162  0.5188
  478TMC3    C8 7172   3.976   1.637  11.796  0.0809 -0.8102 -0.3517
  478TMC3    O1 7173   4.209   1.401  11.330 -0.0544 -0.2406  0.2616
  478TMC3    O2 7174   3.897   1.564  11.856 -0.6570  0.4593 -0.2102
  479MPD2     C 7175   3.560   3.604  15.254  0.1903  0.5111 -0.0078
  479MPD2    C1 7176   3.548   3.544  15.376 -0.3700  0.7552  0.4187
  479MPD2    C2 7177   3.660   3.544  15.457 -0.0871  0.1799  0.0453
  479MPD2    C3 7178   3.778   3.610  15.421 -0.0369 -0.2918  0.2615
  479MPD2    C4 7179   3.779   3.680  15.303 -0.1342 -0.4810 -0.8239
  479MPD2    C5 7180   3.678   3.671  15.220 -0.2236  0.3941  0.5755
  479MPD2     H 7181   3.648   3.503  15.557  1.1514  1.0229  0.5489
  479MPD2    H1 7182   3.859   3.745  15.271  2.6871 -3.0672  0.8743
  479MPD2    H2 7183   3.476   3.604  15.186 -1.3770  1.4462  1.9684
  479MPD2    H3 7184   3.690   3.743  15.140  0.5782 -0.0771  0.2676
  479MPD2     N 7185   3.898   3.625  15.506 -0.4101  0.3215  0.5934
  479MPD2    H5 7186   3.981   3.653  15.453 -1.2635  2.0375  0.1696
  479MPD2    N1 7187   3.433   3.479  15.416  0.5945 -0.0756 -0.2822
  479MPD2    H7 7188   3.356   3.488  15.350  0.4257 -2.2592 -0.3730
  480TMC3    C1 7189   3.689   3.525  15.911 -0.9143  0.0705  0.2407
  480TMC3    C2 7190   3.594   3.622  15.895 -0.1224 -0.8058 -0.7288
  480TMC3    C3 7191   3.611   3.716  15.793 -0.6502  0.4335 -0.2061
  480TMC3    C4 7192   3.804   3.525  15.836 -0.7283  0.1233  0.2805
  480TMC3    C5 7193   3.825   3.624  15.739 -0.4424 -0.5373 -0.5387
  480TMC3    C6 7194   3.730   3.729  15.723  0.1797 -0.0655  0.5661
  480TMC3     C 7195   3.661   3.400  15.968 -0.1536 -0.0078  1.1332
  480TMC3     O 7196   3.761   3.334  15.999 -0.3304  0.7866 -0.2845
  480TMC3     H 7197   3.495   3.611  15.939  0.6724 -1.6170  0.8529
  480TMC3    H1 7198   3.884   3.452  15.838  0.2035  1.1887  1.4617
  480TMC3    H2 7199   3.736   3.792  15.634  1.3477  0.2487  0.8650
  480TMC3    C7 7200   3.926   3.593  15.637 -0.3262  0.3302  0.5745
  480TMC3    C8 7201   3.497   3.780  15.743  0.1167  0.1833  0.1435
  480TMC3    O1 7202   4.034   3.572  15.688 -0.5190 -0.4462  0.1881
  480TMC3    O2 7203   3.397   3.772  15.817 -0.4339  0.2457 -0.3219
  481MPD2     C 7204   0.456   3.188  13.879 -0.4282 -0.0748  0.0361
  481MPD2    C1 7205   0.352   3.111  13.932  0.6265 -0.1958  0.0938
  481MPD2    C2 7206   0.335   3.097  14.072 -0.6230  0.4640 -0.1988
  481MPD2    C3 7207   0.432   3.156  14.156 -0.4206 -0.3253 -0.0650
  481MPD2    C4 7208   0.522   3.242  14.102  0.2910  0.0270  0.2469
  481MPD2    C5 7209   0.535   3.259  13.968 -0.0387  0.0278  0.4332
  481MPD2     H 7210   0.251   3.047  14.119 -0.8946  0.2318 -0.9275
  481MPD2    H1 7211   0.587   3.304  14.163  0.1859 -1.2091  1.6254
  481MPD2    H2 7212   0.482   3.196  13.774 -1.2215  0.1124 -0.1442
  481MPD2    H3 7213   0.615   3.316  13.923  1.5447 -0.9744  1.9759
  481MPD2     N 7214   0.429   3.152  14.298  0.3632  0.2208 -0.1962
  481MPD2    H5 7215   0.510   3.196  14.341  0.0990 -0.2964  0.8136
  481MPD2    N1 7216   0.245   3.064  13.848  0.4777  0.6260  0.0673
  481MPD2    H7 7217   0.238   3.108  13.757 -1.4786  0.5323  0.1735
  482TMC3    C1 7218   0.063   2.945  13.774  0.0039 -0.0952  0.0344
  482TMC3    C2 7219   0.033   2.822  13.729  0.0848  0.9803  0.2575
  482TMC3    C3 7220   4.664   2.807  13.642 -0.2188  0.4907  0.2825
  482TMC3    C4 7221   4.722   3.058  13.736 -0.3626 -0.4080  0.6337
  482TMC3    C5 7222   4.617   3.038  13.648  0.4611 -0.1449  0.1954
  482TMC3    C6 7223   4.580   2.917  13.599 -0.4896  0.2724 -0.3047
  482TMC3     C 7224   0.159   2.962  13.880  0.1630  0.0722  0.1857
  482TMC3     O 7225   0.176   2.874  13.964 -0.3782 -0.0709 -0.6907
  482TMC3     H 7226   0.090   2.738  13.767 -0.4092 -0.7139 -2.7083
  482TMC3    H1 7227   0.011   3.157  13.771 -0.6051  0.1928 -0.9097
  482TMC3    H2 7228   4.514   2.921  13.513 -0.8752 -0.3458 -0.0373
  482TMC3    C7 7229   4.531   3.155  13.618 -0.5462 -0.6383 -0.2033
  482TMC3    C8 7230   4.660   2.687  13.570  0.2675 -0.6868  0.2633
  482TMC3    O1 7231   4.417   3.133  13.573 -0.4782 -0.2102 -0.2815
  482TMC3    O2 7232   0.037   2.637  13.563 -0.5966 -0.3301 -0.2156
  483TMC3    C1 7233   2.786   1.729   0.908 -0.3830  0.3080  0.0677
  483TMC3    C2 7234   2.853   1.841   0.856 -0.4374  0.1230  0.6246
  483TMC3    C3 7235   2.983   1.859   0.895  0.3918  1.0383 -0.1016
  483TMC3    C4 7236   2.834   1.659   1.012  0.4499  0.7613 -0.3949
  483TMC3    C5 7237   2.964   1.694   1.051  0.6273 -0.8172 -0.7693
  483TMC3    C6 7238   3.041   1.794   0.995 -0.2821  0.0745  0.1832
  483TMC3     C 7239   2.644   1.715   0.882 -0.7517 -0.4728  0.3421
  483TMC3     O 7240   2.584   1.789   0.805  0.3520  0.3839  0.3356
  483TMC3     H 7241   2.810   1.893   0.771 -0.8208 -0.7705  0.2777
  483TMC3    H1 7242   2.788   1.576   1.065  2.3285 -0.8999 -1.3820
  483TMC3    H2 7243   3.148   1.798   1.007 -0.4356  0.8655  1.3744
  483TMC3    C7 7244   3.033   1.586   1.123 -0.2022  0.2131 -0.4386
  483TMC3    C8 7245   3.036   1.995   0.866 -0.4067  0.5188  0.2072
  483TMC3    O1 7246   3.008   1.473   1.081 -0.7863 -0.6060  0.2603
  483TMC3    O2 7247   2.998   2.045   0.761  0.1953  0.2334  0.1555
  484MPD2     C 7248   0.978   0.974  12.313  0.7741  0.0264 -0.0854
  484MPD2    C1 7249   1.004   0.851  12.367  0.6153  0.1810  0.4668
  484MPD2    C2 7250   1.128   0.785  12.346  0.1221 -0.2182 -0.3753
  484MPD2    C3 7251   1.234   0.857  12.295  0.5021 -0.4289  0.3433
  484MPD2    C4 7252   1.206   0.976  12.239  0.0822  0.3373 -0.1484
  484MPD2    C5 7253   1.083   1.039  12.252  0.5258  0.4080 -0.4232
  484MPD2     H 7254   1.145   0.692  12.399 -2.4735  0.6529  2.0013
  484MPD2    H1 7255   1.290   1.038  12.209  0.8156 -0.1274  0.9506
  484MPD2    H2 7256   0.897   1.039  12.342  0.8732 -0.0541  0.3740
  484MPD2    H3 7257   1.074   1.139  12.212 -2.3755 -0.1794 -1.2939
  484MPD2     N 7258   1.371   0.804  12.293  0.3186  0.6832  0.2311
  484MPD2    H5 7259   1.449   0.857  12.254  2.7889 -2.5735  0.6999
  484MPD2    N1 7260   0.903   0.795  12.453 -0.0810 -0.6455 -0.0209
  484MPD2    H7 7261   0.815   0.845  12.464 -0.3812 -1.0031 -0.7570
  485TMC3    C1 7262   1.548   0.648  12.341  0.3634  0.3585  0.0241
  485TMC3    C2 7263   1.587   0.558  12.434 -0.1120  0.2417  0.0372
  485TMC3    C3 7264   1.717   0.535  12.463  0.1896  0.0057 -0.4657
  485TMC3    C4 7265   1.644   0.731  12.277 -0.2591 -0.6660  0.2183
  485TMC3    C5 7266   1.776   0.703  12.299 -0.3245  1.2161 -0.3791
  485TMC3    C6 7267   1.808   0.607  12.390  0.3311  0.5439  0.2642
  485TMC3     C 7268   1.408   0.680  12.345  0.2053 -0.0582  0.1663
  485TMC3     O 7269   1.339   0.594  12.405  0.6757  0.4659 -0.0652
  485TMC3     H 7270   1.515   0.484  12.467  0.2937  0.0641  0.5119
  485TMC3    H1 7271   1.625   0.799  12.195  0.4385 -0.5436  0.1586
  485TMC3    H2 7272   1.910   0.592  12.423  0.8981 -1.2636 -2.3539
  485TMC3    C7 7273   1.855   0.682  12.172 -0.2756 -0.5103  0.4814
  485TMC3    C8 7274   1.756   0.397  12.460 -0.1098  0.1938 -0.3417
  485TMC3    O1 7275   1.870   0.778  12.095 -0.1013 -0.3517 -0.0809
  485TMC3    O2 7276   1.843   0.374  12.377  0.4727 -0.0962 -0.2087
  486MPD2     C 7277   3.279   3.511  13.118  0.0825  0.5496 -0.3748
  486MPD2    C1 7278   3.218   3.517  12.999 -0.0415  1.1210  0.0878
  486MPD2    C2 7279   3.218   3.637  12.932  0.0615 -0.0034  0.2749
  486MPD2    C3 7280   3.297   3.742  12.973 -0.6287 -0.0303  0.8223
  486MPD2    C4 7281   3.369   3.731  13.089 -0.4492 -0.4218 -0.0221
  486MPD2    C5 7282   3.361   3.616  13.163 -1.0244  0.5855  0.1323
  486MPD2     H 7283   3.164   3.653  12.839 -1.2132 -0.8536  0.8694
  486MPD2    H1 7284   3.428   3.811  13.130  0.5230 -0.9440 -0.3905
  486MPD2    H2 7285   3.276   3.419  13.177 -1.0274  0.8878  0.0996
  486MPD2    H3 7286   3.428   3.595  13.245 -1.5633  1.1769  0.7234
  486MPD2     N 7287   3.291   3.857  12.886  0.0543 -0.4004 -0.0178
  486MPD2    H5 7288   3.250   3.849  12.793 -1.3848  2.9586  0.3307
  486MPD2    N1 7289   3.144   3.407  12.964 -1.0890  0.0444 -0.1063
  486MPD2    H7 7290   3.142   3.330  13.030  2.2426  1.0614  1.1789
  487TMC3    C1 7291   2.992   3.267  12.846 -0.1584  0.4393  0.7696
  487TMC3    C2 7292   2.886   3.257  12.763  0.1968 -0.2148  0.1400
  487TMC3    C3 7293   2.801   3.149  12.772  0.7691 -0.0828  0.8494
  487TMC3    C4 7294   3.017   3.165  12.939 -0.2458  0.2059  0.5629
  487TMC3    C5 7295   2.929   3.061  12.943 -0.2790 -0.3405  0.1568
  487TMC3    C6 7296   2.830   3.038  12.852  0.2242 -0.1248  0.3397
  487TMC3     C 7297   3.076   3.387  12.845  0.3785 -0.2798  0.0192
  487TMC3     O 7298   3.058   3.470  12.756  0.0300  0.1846 -0.3282
  487TMC3     H 7299   2.867   3.339  12.695  0.7892 -0.9568 -0.9327
  487TMC3    H1 7300   3.097   3.171  13.011  1.3214 -2.6264 -0.9464
  487TMC3    H2 7301   2.770   2.947  12.854  0.5361 -0.3241  0.8321
  487TMC3    C7 7302   2.885   3.037  13.081 -0.3295 -0.3961  0.2462
  487TMC3    C8 7303   2.667   3.195  12.779 -0.6017 -0.3077  0.8358
  487TMC3    O1 7304   2.969   3.047  13.173 -0.4849  0.5433 -0.2526
  487TMC3    O2 7305   2.645   3.313  12.806  0.5687  0.5919  0.1712
  488MPD2     C 7306   3.041   0.697  16.029  0.3697 -0.3160  1.4506
  488MPD2    C1 7307   3.061   0.825  16.081  0.0058 -0.3346  0.0027
  488MPD2    C2 7308   3.016   0.846  16.207  0.4542  0.0770  0.2323
  488MPD2    C3 7309   2.946   0.753  16.279  0.8621  0.0007 -0.3785
  488MPD2    C4 7310   2.926   0.632  16.223  0.5438 -0.0407  0.3578
  488MPD2    C5 7311   2.970   0.601  16.097  0.2499 -0.0063  0.6884
  488MPD2     H 7312   3.038   0.944  16.249 -0.5087 -0.9067  3.0357
  488MPD2    H1 7313   2.873   0.558  16.282  0.4766  0.5286  1.0076
  488MPD2    H2 7314   3.086   0.667  15.935 -0.0060  0.4409  1.0309
  488MPD2    H3 7315   2.949   0.504  16.055 -0.4811  0.8634 -0.9909
  488MPD2     N 7316   2.889   0.784  16.406 -0.4681  0.0058 -0.4889
  488MPD2    H5 7317   2.890   0.885  16.419  0.8317 -0.1998  1.0023
  488MPD2    N1 7318   3.131   0.932  16.017 -0.4820 -0.3695  0.5926
  488MPD2    H7 7319   3.148   1.010  16.080 -0.2930  2.0227 -2.3973
  489TMC3    C1 7320   2.756   0.785  16.595 -0.6470 -0.5531  0.4034
  489TMC3    C2 7321   2.821   0.899  16.634 -0.2288 -0.0824 -0.2017
  489TMC3    C3 7322   2.797   0.963  16.755 -0.4164  0.2679  0.1554
  489TMC3    C4 7323   2.666   0.728  16.675  0.5452 -0.3041 -0.4551
  489TMC3    C5 7324   2.651   0.789  16.803  0.1947 -0.0044  0.5182
  489TMC3    C6 7325   2.709   0.902  16.837 -0.6410  0.2135  0.5671
  489TMC3     C 7326   2.801   0.710  16.487  0.0050  0.5949 -0.4548
  489TMC3     O 7327   2.776   0.591  16.481 -0.0891 -0.3859 -0.1356
  489TMC3     H 7328   2.892   0.954  16.573  1.7888 -2.8745 -0.3595
  489TMC3    H1 7329   2.623   0.633  16.646  1.1920 -0.8520  0.3887
  489TMC3    H2 7330   2.709   0.941  16.938 -0.6827  0.6979  0.3817
  489TMC3    C7 7331   2.634   0.694  16.915 -0.5354  0.4810  0.7864
  489TMC3    C8 7332   2.914   1.046  16.800 -0.4414 -0.0182 -0.0829
  489TMC3    O1 7333   2.689   0.719  17.023  0.3769 -0.2030 -0.2968
  489TMC3    O2 7334   3.016   1.032  16.736 -0.0873  0.3555 -0.0281
  490MPD2     C 7335   3.750   0.196  17.318 -0.5358  0.5408 -0.6833
  490MPD2    C1 7336   3.726   0.122  17.435  0.3252 -0.3577  0.6049
  490MPD2    C2 7337   3.772   0.163  17.558 -0.0507  0.6939 -0.4038
  490MPD2    C3 7338   3.858   0.277  17.563 -0.5817  0.0071 -0.1497
  490MPD2    C4 7339   3.885   0.345  17.450 -0.5813  1.1126 -0.0413
  490MPD2    C5 7340   3.826   0.304  17.332  0.5892 -0.0058  0.7819
  490MPD2     H 7341   3.755   0.093  17.639  1.0648 -0.5507 -1.2375
  490MPD2    H1 7342   3.954   0.428  17.449  0.1795  0.4805  0.4732
  490MPD2    H2 7343   3.724   0.170  17.216 -2.0653 -1.6079  0.2342
  490MPD2    H3 7344   3.854   0.354  17.240 -1.1287  0.1081  0.3198
  490MPD2     N 7345   3.916   0.304  17.689 -0.2585  0.4431  0.0120
  490MPD2    H5 7346   3.997   0.366  17.691 -2.5371  3.3722  1.5270
  490MPD2    N1 7347   3.671   4.730  17.427 -0.8922 -0.7541  0.3653
  490MPD2    H7 7348   3.674   4.676  17.512  0.5134 -0.2402  0.6490
  491TMC3    C1 7349   3.612   4.524  17.345 -0.7425  0.4414  0.4739
  491TMC3    C2 7350   3.570   4.500  17.475 -0.6444 -0.1145  0.0332
  491TMC3    C3 7351   3.604   4.380  17.525  0.4533 -0.0661 -0.5246
  491TMC3    C4 7352   3.683   4.433  17.268 -0.3514  0.2777  0.5262
  491TMC3    C5 7353   3.707   4.311  17.329 -0.1380 -1.1035  0.5889
  491TMC3    C6 7354   3.679   4.286  17.459  0.1719 -0.1096 -0.2487
  491TMC3     C 7355   3.631   4.658  17.309 -0.2898  0.4661 -0.0359
  491TMC3     O 7356   3.616   4.692  17.194  0.1394 -0.0585 -0.4358
  491TMC3     H 7357   3.506   4.570  17.529  3.3649  1.7478  2.3970
  491TMC3    H1 7358   3.691   4.444  17.161 -2.2539  0.6700  0.4312
  491TMC3    H2 7359   3.692   4.190  17.510 -2.4077  0.4163  1.3993
  491TMC3    C7 7360   3.676   4.203  17.235  0.3417  0.4440 -0.0788
  491TMC3    C8 7361   3.565   4.345  17.657  0.1930  0.1788  0.5784
  491TMC3    O1 7362   3.636   4.226  17.122 -0.1797  0.3810  0.5725
  491TMC3    O2 7363   3.458   4.393  17.688 -0.2381 -0.6173  0.0436
  492MPD2     C 7364   4.717   0.390  11.509 -0.2871  0.1074  0.2228
  492MPD2    C1 7365   4.617   0.320  11.442 -0.1498 -0.4914  0.4402
  492MPD2    C2 7366   4.555   0.209  11.496  0.3507  0.3184 -0.5788
  492MPD2    C3 7367   4.595   0.166  11.621 -0.0454  0.2057  0.5397
  492MPD2    C4 7368   4.697   0.236  11.693  0.3443 -0.4730 -0.2975
  492MPD2    C5 7369   0.019   0.347  11.632 -0.4866 -1.2739  0.8614
  492MPD2     H 7370   4.476   0.151  11.450 -1.4759  1.8806  0.5962
  492MPD2    H1 7371   4.724   0.209  11.794  1.3665 -1.2958 -0.7966
  492MPD2    H2 7372   0.028   0.479  11.467  1.8867 -0.4710  1.3393
  492MPD2    H3 7373   0.109   0.390  11.674 -1.0801 -0.1380  0.9553
  492MPD2     N 7374   4.538   0.060  11.700  0.1254 -0.1974  0.2863
  492MPD2    H5 7375   4.571   0.051  11.796 -0.7991 -0.9933  0.5332
  492MPD2    N1 7376   4.586   0.364  11.307  0.0025 -0.7888  0.7406
  492MPD2    H7 7377   4.644   0.444  11.282 -1.7374  0.2955  0.1681
  493TMC3    C1 7378   4.474   0.391  11.092 -0.5609  1.1351 -0.9927
  493TMC3    C2 7379   4.486   0.529  11.101 -0.2924  0.0140 -0.2612
  493TMC3    C3 7380   4.429   0.601  11.001 -0.5325  0.7059 -0.3873
  493TMC3    C4 7381   4.409   0.329  10.992  0.1879  1.2039  0.1381
  493TMC3    C5 7382   4.354   0.407  10.895  0.1590 -0.1165  0.1094
  493TMC3    C6 7383   4.359   0.547  10.904 -0.2468  0.7147 -0.2775
  493TMC3     C 7384   4.495   0.314  11.219 -0.2193 -0.2575  0.1663
  493TMC3     O 7385   4.431   0.209  11.220 -0.7329  0.5245 -0.5288
  493TMC3     H 7386   4.515   0.583  11.190  0.4323 -1.0262  0.1271
  493TMC3    H1 7387   4.418   0.221  10.987  1.9211  1.5128 -3.4734
  493TMC3    H2 7388   4.300   0.603  10.832 -0.9098  0.3925  0.0128
  493TMC3    C7 7389   4.244   0.342  10.819  0.6258 -0.0801 -0.3925
  493TMC3    C8 7390   4.383   0.730  11.052 -0.3034  0.1897  0.1289
  493TMC3    O1 7391   4.201   0.385  10.711  0.7194  0.4263 -0.1758
  493TMC3    O2 7392   4.311   0.729  11.153  0.1345  0.3942 -0.4005
  494TMC3    C1 7393   4.336   1.895   0.451  0.1350 -0.3958 -0.0968
  494TMC3    C2 7394   4.306   1.768   0.417  0.1864  0.4912 -0.2625
  494TMC3    C3 7395   4.366   1.723   0.305 -0.4469  0.1649 -0.3125
  494TMC3    C4 7396   4.411   1.986   0.386  0.7950 -0.1012  0.2991
  494TMC3    C5 7397   4.471   1.931   0.272  0.0875 -0.0928  0.9629
  494TMC3    C6 7398   4.460   1.801   0.235  0.7989 -0.1350 -0.4146
  494TMC3     C 7399   4.272   1.941   0.576  0.0404 -0.4332 -0.2751
  494TMC3     O 7400   4.302   2.051   0.619  0.1515  0.4900  0.1543
  494TMC3     H 7401   4.268   1.702   0.493 -1.2151  2.4052  0.6897
  494TMC3    H1 7402   4.394   2.092   0.404 -2.6225 -0.6490  0.3534
  494TMC3    H2 7403   4.521   1.758   0.157 -0.1913 -2.0206 -0.1342
  494TMC3    C7 7404   4.567   2.004   0.191 -0.0769  0.2126 -0.1405
  494TMC3    C8 7405   4.387   1.581   0.295 -0.0248  0.7971  0.4338
  494TMC3    O1 7406   4.594   1.951   0.085  0.4463  0.0964 -0.3049
  494TMC3    O2 7407   4.373   1.521   0.402 -0.4911  0.6189  0.3846
  495TMC3    C1 7408   3.681   4.054  14.833 -0.1331 -0.0622 -0.3897
  495TMC3    C2 7409   3.585   4.086  14.748 -0.4946  0.6988 -1.2100
  495TMC3    C3 7410   3.459   4.078  14.783  0.6290 -0.2034  0.4875
  495TMC3    C4 7411   3.653   4.014  14.961 -0.0163  0.0097 -0.1740
  495TMC3    C5 7412   3.520   4.029  14.999 -0.8729  0.4753  0.5885
  495TMC3    C6 7413   3.423   4.064  14.911  0.3057 -0.2647  0.0711
  495TMC3     C 7414   3.742   3.934  14.785 -0.7340 -0.7795 -0.1130
  495TMC3     O 7415   3.724   3.835  14.859 -0.2894  0.2452  0.1247
  495TMC3     H 7416   3.613   4.130  14.653  0.1014 -1.1122 -1.8821
  495TMC3    H1 7417   3.731   3.977  15.027 -0.7118  3.1368  2.4131
  495TMC3    H2 7418   3.318   4.068  14.938 -0.5249 -0.1197 -3.2145
  495TMC3    C7 7419   3.497   3.996  15.138  0.3260  0.0345 -0.2265
  495TMC3    C8 7420   3.381   3.991  14.704 -0.4463 -0.4459 -0.6606
  495TMC3    O1 7421   3.596   4.021  15.210 -0.3500 -0.2828  0.5577
  495TMC3    O2 7422   3.267   3.964  14.751 -0.4055 -0.5953  0.1392
  496MPD2     C 7423   0.410   4.053  14.975 -0.4693 -0.0067  0.9410
  496MPD2    C1 7424   0.457   3.973  15.080 -0.3258 -0.1857  0.0094
  496MPD2    C2 7425   0.371   3.939  15.178 -0.1325  0.0880 -0.3882
  496MPD2    C3 7426   0.238   3.980  15.174  0.5368 -0.2431  0.2711
  496MPD2    C4 7427   0.185   4.052  15.069 -0.6622  0.1521 -0.5101
  496MPD2    C5 7428   0.279   4.097  14.982  0.1596  0.6983  0.3086
  496MPD2     H 7429   0.399   3.868  15.256  2.3116 -0.0109 -1.3694
  496MPD2    H1 7430   0.080   4.076  15.069 -0.7318 -0.1502 -0.6347
  496MPD2    H2 7431   0.486   4.094  14.911 -2.5121  1.9249 -0.2347
  496MPD2    H3 7432   0.235   4.158  14.904 -0.3115 -2.3481 -1.8593
  496MPD2     N 7433   0.151   3.958  15.281 -0.3935  0.1138  0.2207
  496MPD2    H5 7434   0.066   4.012  15.293 -1.2963 -1.9050  2.7912
  496MPD2    N1 7435   0.596   3.947  15.077  0.6236 -0.3621  0.6016
  496MPD2    H7 7436   0.636   3.975  14.987  0.3777  4.4335  1.9918
  497TMC3    C1 7437   0.125   3.928  15.523  0.7365 -0.4393  0.0571
  497TMC3    C2 7438   0.091   4.061  15.528  0.3285  0.4653 -0.0174
  497TMC3    C3 7439   0.116   4.124  15.647  1.0850  0.9624 -0.2810
  497TMC3    C4 7440   0.162   3.855  15.635  0.0545  0.1841  0.0011
  497TMC3    C5 7441   0.175   3.921  15.750  0.0323  0.3806 -0.0116
  497TMC3    C6 7442   0.170   4.061  15.759 -1.3483  0.2667  0.2130
  497TMC3     C 7443   0.184   3.883  15.399 -0.6170  0.3300 -0.1956
  497TMC3     O 7444   0.265   3.789  15.412  0.0481 -0.3771 -0.2963
  497TMC3     H 7445   0.060   4.111  15.437  0.1573  0.6320  0.1297
  497TMC3    H1 7446   0.188   3.750  15.630 -1.8960 -0.3737  1.7953
  497TMC3    H2 7447   0.185   4.110  15.854  0.3059  2.2068 -1.0671
  497TMC3    C7 7448   0.199   3.833  15.864 -0.0422  0.2749  1.1697
  497TMC3    C8 7449   0.093   4.269  15.639  0.7624 -0.1237  0.7346
  497TMC3    O1 7450   0.169   3.716  15.859 -0.1438 -0.5230 -0.2070
  497TMC3    O2 7451   0.038   4.310  15.539 -0.7977  0.7469  0.0431
  498MPD2     C 7452   2.142   0.632   9.647 -0.0996 -0.0746  0.0807
  498MPD2    C1 7453   2.067   0.743   9.687 -0.1452 -0.0083  0.4235
  498MPD2    C2 7454   1.929   0.716   9.718  0.0103 -0.3455 -0.1552
  498MPD2    C3 7455   1.884   0.587   9.714  0.0617 -0.1601  0.9320
  498MPD2    C4 7456   1.967   0.484   9.670 -0.1302  1.0569  0.1418
  498MPD2    C5 7457   2.093   0.508   9.631  0.1718  0.3887 -0.1376
  498MPD2     H 7458   1.861   0.795   9.746 -0.2351 -0.4112 -0.5650
  498MPD2    H1 7459   1.945   0.378   9.661  0.0487  1.0179  0.1673
  498MPD2    H2 7460   2.245   0.653   9.620  0.1290  0.9716  1.7857
  498MPD2    H3 7461   2.159   0.435   9.585 -0.4760  1.6989 -3.0904
  498MPD2     N 7462   1.747   0.565   9.754 -0.2252  0.0481  0.5193
  498MPD2    H5 7463   1.691   0.647   9.776 -1.8342 -0.9931  0.2897
  498MPD2    N1 7464   2.125   0.869   9.700  0.0074  0.3529 -0.2664
  498MPD2    H7 7465   2.062   0.941   9.734  0.0904 -0.2135  1.0928
  499TMC3    C1 7466   2.268   1.046   9.664  0.5560  0.3301  0.3030
  499TMC3    C2 7467   2.397   1.082   9.687  0.1874  0.3569 -0.0789
  499TMC3    C3 7468   2.462   1.185   9.633  0.2227 -0.7712 -0.0244
  499TMC3    C4 7469   2.203   1.126   9.579  0.1330 -0.0070 -0.5496
  499TMC3    C5 7470   2.259   1.244   9.531 -0.1221 -0.6748 -0.3274
  499TMC3    C6 7471   2.395   1.267   9.545  0.3976  0.1662  0.4139
  499TMC3     C 7472   2.252   0.908   9.671  0.0869  0.0470  0.0568
  499TMC3     O 7473   2.346   0.854   9.619  0.0171 -0.1670  0.7406
  499TMC3     H 7474   2.437   1.006   9.754 -1.1541  0.4734  0.8527
  499TMC3    H1 7475   2.116   1.098   9.521 -0.1010  1.2612 -0.8284
  499TMC3    H2 7476   2.443   1.352   9.499 -0.0376  0.3501  0.3100
  499TMC3    C7 7477   2.190   1.350   9.460 -0.4065  0.2856 -0.4876
  499TMC3    C8 7478   2.604   1.204   9.664  0.2725 -0.0726  0.4590
  499TMC3    O1 7479   2.258   1.421   9.383  0.0451  0.0975 -0.2806
  499TMC3    O2 7480   2.648   1.173   9.770  0.3306  0.3242  0.1077
  500MPD2     C 7481   3.142   1.086  10.138  0.4443 -0.1749 -0.2344
  500MPD2    C1 7482   3.145   1.226  10.143  0.2442  0.2802 -0.8460
  500MPD2    C2 7483   3.043   1.303  10.100  0.9825  0.3934 -0.0912
  500MPD2    C3 7484   2.927   1.249  10.045  0.7830  0.1110 -0.6491
  500MPD2    C4 7485   2.924   1.112  10.040 -0.1951 -0.3178  0.1954
  500MPD2    C5 7486   3.027   1.034  10.075 -0.3517  0.5168 -0.3445
  500MPD2     H 7487   3.043   1.411  10.109  2.5719  0.6167 -2.8139
  500MPD2    H1 7488   2.840   1.064   9.991  0.1460  1.0338 -1.7176
  500MPD2    H2 7489   3.222   1.018  10.165  1.8059  0.8624 -1.5782
  500MPD2    H3 7490   3.034   0.929  10.052 -0.1398  0.4932 -0.1731
  500MPD2     N 7491   2.816   1.318  10.000 -0.4267 -0.0838 -0.5378
  500MPD2    H5 7492   2.730   1.267   9.978 -0.2666 -0.4809 -0.2401
  500MPD2    N1 7493   3.264   1.292  10.188 -0.3711  0.0465  0.4212
  500MPD2    H7 7494   3.261   1.394  10.193  2.6326  0.1728 -0.7390
  501TMC3    C1 7495   3.453   1.337  10.326  0.3026 -0.3525  0.5267
  501TMC3    C2 7496   3.486   1.433  10.227 -0.0544 -0.1881  0.1665
  501TMC3    C3 7497   3.604   1.500  10.251  0.0525 -0.6025 -0.2359
  501TMC3    C4 7498   3.525   1.296  10.436  0.2925  0.6083 -0.0605
  501TMC3    C5 7499   3.642   1.363  10.446  0.4394  0.0336 -0.2287
  501TMC3    C6 7500   3.683   1.466  10.360  0.2314  0.1827 -0.2409
  501TMC3     C 7501   3.362   1.240  10.266  0.5275  0.5701 -0.5218
  501TMC3     O 7502   3.375   1.122  10.296 -0.4903  0.3929 -0.3718
  501TMC3     H 7503   3.438   1.454  10.132  1.7040  1.0667 -0.4650
  501TMC3    H1 7504   3.510   1.207  10.496  1.1650  0.7113  0.3163
  501TMC3    H2 7505   3.781   1.513  10.356  0.5907 -0.6193 -0.7824
  501TMC3    C7 7506   3.733   1.310  10.552  0.4333  0.2266 -1.0382
  501TMC3    C8 7507   3.600   1.637  10.211 -0.5514  0.2924 -0.6051
  501TMC3    O1 7508   3.710   1.209  10.620  0.1092  0.5517  0.1293
  501TMC3    O2 7509   3.527   1.662  10.115 -0.8529  0.0535  0.4378
  502TMC3    C1 7510   3.345   4.715  15.217 -0.0312  0.0346  0.1758
  502TMC3    C2 7511   3.391   0.049  15.101 -0.4274  0.1460  0.4003
  502TMC3    C3 7512   3.304   0.062  15.005  0.2356 -0.5088  0.3259
  502TMC3    C4 7513   3.221   4.659  15.232 -0.2091  0.7159 -0.1734
  502TMC3    C5 7514   3.138   4.676  15.127 -0.7903  0.2379 -0.0011
  502TMC3    C6 7515   3.171   0.023  15.018  0.0535 -0.4569 -0.3431
  502TMC3     C 7516   3.438   4.689  15.323 -0.5024 -0.0859  0.1236
  502TMC3     O 7517   3.548   0.001  15.296 -0.1869  0.3550 -0.4485
  502TMC3     H 7518   3.485   0.102  15.094 -0.9468  0.8180 -1.3643
  502TMC3    H1 7519   3.184   4.609  15.321 -2.6096  1.0793 -0.9496
  502TMC3    H2 7520   3.111   0.038  14.929 -2.5383  1.0154  1.6625
  502TMC3    C7 7521   3.015   4.601  15.106  0.1635 -0.3958  0.3129
  502TMC3    C8 7522   3.346   0.121  14.879  0.5337 -0.2868 -0.2887
  502TMC3    O1 7523   2.967   4.588  14.996  0.1514  0.2388 -0.1802
  502TMC3    O2 7524   3.264   0.173  14.805 -0.3024  0.0259 -0.0285
  503MPD2     C 7525   0.263   0.787  16.613  0.4987 -0.3294 -0.1484
  503MPD2    C1 7526   0.248   0.816  16.747  0.4332  0.0132  0.4686
  503MPD2    C2 7527   0.293   0.733  16.842  0.5195 -0.6151  0.3655
  503MPD2    C3 7528   0.329   0.604  16.813 -0.1730  0.0819 -0.0270
  503MPD2    C4 7529   0.327   0.571  16.684 -0.3186  0.2864 -0.3158
  503MPD2    C5 7530   0.299   0.659  16.582  0.6389 -0.2240 -0.1362
  503MPD2     H 7531   0.284   0.754  16.948 -1.3491 -2.1836  0.5229
  503MPD2    H1 7532   0.367   0.478  16.645 -2.3938 -0.6717 -0.1727
  503MPD2    H2 7533   0.234   0.855  16.534 -1.6420 -0.6083  0.3922
  503MPD2    H3 7534   0.297   0.629  16.477  1.9613  1.6606 -0.6809
  503MPD2     N 7535   0.376   0.518  16.916  0.3416 -0.9318  0.0424
  503MPD2    H5 7536   0.378   0.563  17.007  1.6733 -0.0241 -0.4371
  503MPD2    N1 7537   0.190   0.940  16.801 -0.1324  0.0239  0.0798
  503MPD2    H7 7538   0.183   0.944  16.902  0.0935  0.9595  0.0550
  504TMC3    C1 7539   0.411   0.315  17.032  0.8735  0.4589 -0.4016
  504TMC3    C2 7540   0.371   0.368  17.151 -0.3523 -0.6450  0.3433
  504TMC3    C3 7541   0.436   0.321  17.259  0.6954 -0.5208 -0.1120
  504TMC3    C4 7542   0.504   0.216  17.017  1.2528 -0.0486  0.1009
  504TMC3    C5 7543   0.575   0.180  17.128  1.0226  0.6223 -0.5313
  504TMC3    C6 7544   0.537   0.226  17.252 -0.3738 -0.7749  0.3359
  504TMC3     C 7545   0.376   0.380  16.910  0.8163 -0.3487 -1.0679
  504TMC3     O 7546   0.375   0.313  16.807 -0.4889  0.4141 -0.1212
  504TMC3     H 7547   0.289   0.438  17.142 -0.0644 -0.2455  0.8762
  504TMC3    H1 7548   0.533   0.191  16.915  2.3598 -1.8746  0.8581
  504TMC3    H2 7549   0.595   0.190  17.335 -0.8183 -2.4041 -0.0594
  504TMC3    C7 7550   0.715   0.163  17.099 -0.6463  0.7098  0.1635
  504TMC3    C8 7551   0.365   0.337  17.383 -0.5990  0.2306  0.5634
  504TMC3    O1 7552   0.746   0.177  16.981 -0.4817 -0.3773 -0.4743
  504TMC3    O2 7553   0.260   0.399  17.365  0.1255  0.4367  1.2477
  505MPD2     C 7554   0.725   0.547  10.501  0.6710  0.0232  0.8136
  505MPD2    C1 7555   0.647   0.445  10.451 -1.2366  0.3878  0.2113
  505MPD2    C2 7556   0.666   0.315  10.502  0.2212 -0.0965  0.2078
  505MPD2    C3 7557   0.762   0.296  10.594  0.1171  0.0998 -0.7780
  505MPD2    C4 7558   0.835   0.405  10.646 -0.2610  0.9145 -0.2945
  505MPD2    C5 7559   0.818   0.532  10.593 -0.2969  0.2306 -0.5614
  505MPD2     H 7560   0.599   0.231  10.481  0.9023  0.4341 -4.0054
  505MPD2    H1 7561   0.912   0.392  10.722  0.3329 -1.7288 -1.3462
  505MPD2    H2 7562   0.714   0.649  10.464 -1.3982 -0.7292 -0.6773
  505MPD2    H3 7563   0.884   0.611  10.625 -1.5341  1.3482 -0.7619
  505MPD2     N 7564   0.785   0.159  10.633 -0.0102  0.0460 -0.3997
  505MPD2    H5 7565   0.731   0.080  10.598  1.4230  0.3690 -3.2913
  505MPD2    N1 7566   0.551   0.471  10.347  0.1757  0.1388  0.4277
  505MPD2    H7 7567   0.553   0.563  10.304 -0.0486  0.1202  0.3781
  506TMC3    C1 7568   0.394   0.428  10.176 -0.2795  0.0751 -0.1208
  506TMC3    C2 7569   0.474   0.492  10.084 -0.1306 -0.1821  0.7817
  506TMC3    C3 7570   0.428   0.483   9.955 -0.3836  0.4213  0.8777
  506TMC3    C4 7571   0.273   0.373  10.150 -0.8028  0.5708 -0.8151
  506TMC3    C5 7572   0.245   0.343  10.019  0.1776  0.0214  0.3096
  506TMC3    C6 7573   0.313   0.416   9.919 -0.1925  1.1337  0.1296
  506TMC3     C 7574   0.459   0.380  10.291 -0.7145  0.1488 -0.0769
  506TMC3     O 7575   0.429   0.269  10.329 -0.8021  0.3306  0.1597
  506TMC3     H 7576   0.570   0.534  10.113 -0.8901  0.6730  2.0308
  506TMC3    H1 7577   0.224   0.329  10.236 -0.2149 -1.7665 -1.6770
  506TMC3    H2 7578   0.309   0.388   9.814  0.9065 -0.6262  0.5573
  506TMC3    C7 7579   0.249   0.195   9.999  0.0573  0.5514 -1.5613
  506TMC3    C8 7580   0.515   0.543   9.847  0.4424  0.4261 -0.8384
  506TMC3    O1 7581   0.231   0.140   9.891  0.4939  0.3084  0.3807
  506TMC3    O2 7582   0.461   0.602   9.749  0.2599  0.5229 -0.8388
  507TMC3    C1 7583   1.808   0.567  15.100  0.5090 -0.4176 -0.3590
  507TMC3    C2 7584   1.819   0.478  15.001 -0.0644 -0.0364  0.3048
  507TMC3    C3 7585   1.870   0.517  14.885 -0.0748  0.2499  0.1976
  507TMC3    C4 7586   1.856   0.695  15.083 -0.2777  0.0024  0.2285
  507TMC3    C5 7587   1.916   0.730  14.965  0.5119  0.6723  0.1773
  507TMC3    C6 7588   1.928   0.638  14.863 -0.3493 -0.1502  0.0852
  507TMC3     C 7589   1.760   0.530  15.232  0.2075 -0.2161  0.6931
  507TMC3     O 7590   1.779   0.610  15.324 -0.1300  0.8183  0.2780
  507TMC3     H 7591   1.753   0.392  14.995  0.9502 -0.6774 -1.5225
  507TMC3    H1 7592   1.852   0.761  15.169 -4.1000  0.5866 -0.3949
  507TMC3    H2 7593   1.977   0.670  14.771 -1.7215  0.3635 -0.4625
  507TMC3    C7 7594   1.836   0.837  14.899 -0.1004  0.1168  0.6192
  507TMC3    C8 7595   1.803   0.462  14.768 -0.3293 -0.9446  0.4599
  507TMC3    O1 7596   1.793   0.812  14.784  0.0759  0.2207  0.2389
  507TMC3    O2 7597   1.756   0.349  14.775  0.0621  0.0494  0.1512
  508MPD2     C 7598   2.696   2.161  15.906 -0.1762 -0.5675  0.4919
  508MPD2    C1 7599   2.686   2.249  16.010  0.2689 -0.4134  0.0607
  508MPD2    C2 7600   2.618   2.363  15.987  0.5283  0.5050  0.7538
  508MPD2    C3 7601   2.556   2.382  15.864  0.3097 -0.1256  0.2730
  508MPD2    C4 7602   2.572   2.297  15.759  0.4421  0.5534 -0.0152
  508MPD2    C5 7603   2.646   2.188  15.781  0.2909 -0.1857  1.0575
  508MPD2     H 7604   2.610   2.440  16.062 -1.3390  0.6927  0.3546
  508MPD2    H1 7605   2.538   2.302  15.656 -0.0569 -2.1614  0.0236
  508MPD2    H2 7606   2.750   2.069  15.923  0.5733 -0.5944 -2.0088
  508MPD2    H3 7607   2.659   2.113  15.704 -0.6215 -0.3992  1.1109
  508MPD2     N 7608   2.494   2.511  15.839  0.5226 -0.6204  0.3579
  508MPD2    H5 7609   2.483   2.574  15.918 -2.4402 -0.5761 -0.0887
  508MPD2    N1 7610   2.738   2.206  16.134 -0.8624 -0.0128  0.2956
  508MPD2    H7 7611   2.801   2.127  16.143  0.4483  0.6839 -2.7568
  509TMC3    C1 7612   2.337   2.887  15.613  0.1324  0.4642  0.3785
  509TMC3    C2 7613   2.383   2.973  15.704 -0.6292  0.3641 -0.0102
  509TMC3    C3 7614   2.464   2.919  15.804  0.4512 -0.2938 -0.1588
  509TMC3    C4 7615   2.347   2.752  15.620 -0.2263  0.0680  0.0053
  509TMC3    C5 7616   2.423   2.702  15.720 -0.4799  0.1513 -0.4012
  509TMC3    C6 7617   2.468   2.781  15.821 -0.5925  0.6651 -0.7982
  509TMC3     C 7618   2.288   2.940  15.484 -0.0511  0.7583 -0.2562
  509TMC3     O 7619   2.314   2.872  15.386 -0.0391  0.3892  0.2010
  509TMC3     H 7620   2.371   3.081  15.700  1.2548  0.6556  2.3000
  509TMC3    H1 7621   2.308   2.683  15.546  2.1330 -0.2484 -0.9488
  509TMC3    H2 7622   2.531   2.745  15.902 -2.9973 -2.7410 -0.4699
  509TMC3    C7 7623   2.439   2.555  15.721  0.1329  0.1513 -0.6412
  509TMC3    C8 7624   2.557   2.994  15.884  0.6304  0.2514 -0.0701
  509TMC3    O1 7625   2.432   2.510  15.605 -0.3238  0.0340 -0.1337
  509TMC3    O2 7626   2.557   2.973  16.002 -0.0711  0.9430 -0.2254
  510MPD2     C 7627   4.724   4.284  14.272  0.4093  0.0382  0.0316
  510MPD2    C1 7628   0.051   4.232  14.380  0.2481  0.1773  0.0264
  510MPD2    C2 7629   0.191   4.227  14.375  0.5103 -0.1858  0.7832
  510MPD2    C3 7630   0.269   4.288  14.273  0.2005 -0.7958  0.2467
  510MPD2    C4 7631   0.204   4.353  14.177 -0.4177 -0.8516 -1.0636
  510MPD2    C5 7632   0.066   4.350  14.179 -0.3832 -0.9789  0.5856
  510MPD2     H 7633   0.252   4.178  14.450  1.5043 -3.0891 -1.9471
  510MPD2    H1 7634   0.260   4.399  14.096  2.3575 -0.1782  1.2410
  510MPD2    H2 7635   4.617   4.298  14.263  0.0964 -0.7887  2.5071
  510MPD2    H3 7636   0.009   4.411  14.109  1.4082  1.0701  0.8993
  510MPD2     N 7637   0.410   4.297  14.295  0.0498 -0.7169  0.0511
  510MPD2    H5 7638   0.434   4.253  14.383  1.4329  0.6750  0.3735
  510MPD2    N1 7639   4.707   4.154  14.464  0.1929  0.2177 -0.1461
  510MPD2    H7 7640   4.612   4.132  14.436  0.2874  1.7337 -1.6812
  511TMC3    C1 7641   4.633   4.058  14.674 -1.0676  0.4732 -0.0072
  511TMC3    C2 7642   4.609   4.092  14.803 -0.1006 -0.8019 -0.5686
  511TMC3    C3 7643   4.537   4.005  14.881 -0.2021  0.3700  0.9934
  511TMC3    C4 7644   4.602   3.939  14.623 -0.0137 -0.4203  0.1787
  511TMC3    C5 7645   4.532   3.854  14.702 -0.4406  0.4224 -0.9436
  511TMC3    C6 7646   4.495   3.883  14.832 -0.0779 -0.0446  0.0828
  511TMC3     C 7647   0.004   4.126  14.595 -0.1712 -0.2950 -0.3765
  511TMC3     O 7648   0.095   4.170  14.663  0.2679 -0.6017  0.1691
  511TMC3     H 7649   4.647   4.183  14.848  1.1030 -0.9948 -1.1988
  511TMC3    H1 7650   4.615   3.922  14.517  1.3036 -0.9031  0.4174
  511TMC3    H2 7651   4.415   3.832  14.885  0.6992 -0.1318  1.1777
  511TMC3    C7 7652   4.472   3.737  14.646 -0.1357 -0.3898 -0.2285
  511TMC3    C8 7653   4.485   4.040  15.013 -0.1699  0.3279 -0.9532
  511TMC3    O1 7654   4.483   3.715  14.528 -0.2291 -0.2766 -0.0063
  511TMC3    O2 7655   4.491   4.159  15.046 -0.0266 -0.0071 -0.9495
  512TMC3    C1 7656   3.940   3.959  13.366 -0.5926 -0.2458  0.0059
  512TMC3    C2 7657   3.922   3.887  13.476 -1.1323 -0.3614 -0.0659
  512TMC3    C3 7658   3.952   3.752  13.474  0.5650  0.7492 -0.5190
  512TMC3    C4 7659   3.974   3.894  13.242  0.1885 -0.6725 -0.0655
  512TMC3    C5 7660   3.996   3.763  13.241 -0.1475  0.3033 -0.1945
  512TMC3    C6 7661   3.988   3.692  13.353 -0.1080  0.8941  0.5184
  512TMC3     C 7662   3.942   4.106  13.380 -0.4961 -0.5329 -0.8272
  512TMC3     O 7663   3.876   4.155  13.470  0.5651 -0.1641 -0.0836
  512TMC3     H 7664   3.881   3.939  13.562  0.0507  0.1858  0.1762
  512TMC3    H1 7665   3.998   3.950  13.153  1.1033  0.3073  0.8068
  512TMC3    H2 7666   4.010   3.586  13.355 -2.2115  0.4813  2.0019
  512TMC3    C7 7667   4.059   3.707  13.124 -0.4224  0.4204 -0.2161
  512TMC3    C8 7668   4.038   3.713  13.583 -0.0262 -0.8754 -0.6830
  512TMC3    O1 7669   4.106   3.784  13.043 -0.5017 -0.6394 -0.5139
  512TMC3    O2 7670   4.067   3.598  13.600 -0.5325 -0.2139 -0.1873
  513MPD2     C 7671   1.349   3.885  13.429  0.0745 -0.4299  0.7204
  513MPD2    C1 7672   1.450   3.817  13.362 -0.0661  0.6555 -0.3110
  513MPD2    C2 7673   1.581   3.854  13.382  0.1438  0.9033  0.1893
  513MPD2    C3 7674   1.600   3.969  13.453 -0.1509 -0.5086 -0.2329
  513MPD2    C4 7675   1.500   4.033  13.522  0.5689  0.0812 -0.3522
  513MPD2    C5 7676   1.373   3.987  13.512 -0.1197 -0.0741 -0.0021
  513MPD2     H 7677   1.663   3.814  13.323 -0.5393 -0.6261  0.2750
  513MPD2    H1 7678   1.522   4.118  13.586 -0.3725  0.5332 -0.6398
  513MPD2    H2 7679   1.249   3.843  13.423  0.6210 -1.3713 -2.0299
  513MPD2    H3 7680   1.290   4.027  13.570  1.2043  0.3699  1.6071
  513MPD2     N 7681   1.734   4.013  13.463  0.2769 -0.2721  0.3192
  513MPD2    H5 7682   1.798   3.972  13.397  1.0634 -0.8623  1.4550
  513MPD2    N1 7683   1.409   3.709  13.280 -0.1595 -0.0062 -0.1978
  513MPD2    H7 7684   1.311   3.684  13.270 -0.0758 -0.4652  0.1219
  514TMC3    C1 7685   1.442   3.514  13.155  0.7517 -0.1024 -0.3232
  514TMC3    C2 7686   1.378   3.558  13.045  0.0384  0.2486  0.1308
  514TMC3    C3 7687   1.417   3.510  12.927 -0.6271 -0.0598  0.2737
  514TMC3    C4 7688   1.518   3.396  13.144  0.3628  1.0196  0.0683
  514TMC3    C5 7689   1.555   3.346  13.020 -0.2348  0.2395  0.9744
  514TMC3    C6 7690   1.497   3.399  12.909 -0.0403  0.2558 -0.2838
  514TMC3     C 7691   1.504   3.615  13.244 -0.0857  0.6899 -1.0633
  514TMC3     O 7692   1.620   3.595  13.280  0.4580  0.0976  0.6262
  514TMC3     H 7693   1.305   3.639  13.049  0.9356  1.0038  1.5855
  514TMC3    H1 7694   1.576   3.367  13.231 -0.5063 -2.5946 -0.5476
  514TMC3    H2 7695   1.537   3.371  12.813  1.3065  0.4527  0.2097
  514TMC3    C7 7696   1.696   3.329  12.997 -0.1290  0.1870  0.2131
  514TMC3    C8 7697   1.332   3.534  12.816 -0.1524  0.5690 -0.1532
  514TMC3    O1 7698   1.734   3.277  12.893 -0.1306  0.4489 -0.1612
  514TMC3    O2 7699   1.216   3.562  12.836  0.1320 -0.1596 -0.2014
  515MPD2     C 7700   4.167   0.116  14.453 -0.0471 -0.7959 -0.0569
  515MPD2    C1 7701   4.066   0.210  14.468  1.2070  0.0182 -0.5660
  515MPD2    C2 7702   4.071   0.286  14.588 -0.2701 -0.3207  0.6496
  515MPD2    C3 7703   4.173   0.259  14.688  0.7097  0.0523  0.3610
  515MPD2    C4 7704   4.277   0.167  14.662  0.5622  0.6170 -1.4405
  515MPD2    C5 7705   4.266   0.098  14.542 -0.1750  0.2050 -0.4470
  515MPD2     H 7706   3.995   0.361  14.606 -1.7851 -1.6286 -0.2297
  515MPD2    H1 7707   4.354   0.135  14.732 -0.6151  0.9595  0.0047
  515MPD2    H2 7708   4.165   0.049  14.368 -0.5527  0.2585 -0.8752
  515MPD2    H3 7709   4.348   0.029  14.527 -0.3961 -0.2820  0.6566
  515MPD2     N 7710   4.180   0.316  14.816 -0.0179  0.0027 -0.1998
  515MPD2    H5 7711   4.267   0.297  14.864 -0.0926 -3.0419 -1.2997
  515MPD2    N1 7712   3.956   0.228  14.390  0.9771 -0.4154  0.1280
  515MPD2    H7 7713   3.897   0.310  14.399  1.2598 -0.3357  1.2314
  516TMC3    C1 7714   3.776   0.142  14.287 -0.7222 -0.5587  0.2189
  516TMC3    C2 7715   3.696   0.257  14.274  0.3862 -0.2478 -0.2055
  516TMC3    C3 7716   3.560   0.251  14.288 -0.4263 -0.0131  0.4085
  516TMC3    C4 7717   3.715   0.024  14.326  0.2772  1.1674  1.1698
  516TMC3    C5 7718   3.578   0.022  14.348 -0.6989 -0.4038  0.0034
  516TMC3    C6 7719   3.501   0.139  14.341 -0.2625  0.3524 -0.1746
  516TMC3     C 7720   3.920   0.146  14.287 -0.7881 -0.4487 -0.9631
  516TMC3     O 7721   3.975   0.045  14.240  0.0199 -0.5578 -0.3604
  516TMC3     H 7722   3.738   0.356  14.262 -0.4368  0.0551 -0.5904
  516TMC3    H1 7723   3.773   4.669  14.341 -1.2513  0.0257  0.2550
  516TMC3    H2 7724   3.393   0.133  14.338 -0.2226  0.0224 -0.8011
  516TMC3    C7 7725   3.540   4.672  14.456 -0.1380  0.9435  0.6378
  516TMC3    C8 7726   3.460   0.350  14.240  0.1749 -0.4024 -0.3053
  516TMC3    O1 7727   3.627   4.611  14.508 -0.1578 -0.6733  0.8309
  516TMC3    O2 7728   3.340   0.323  14.236 -0.1879 -0.4144 -0.0052
  517MPD2     C 7729   3.061   2.176  17.515  0.3107 -0.6541  0.3259
  517MPD2    C1 7730   3.153   2.120  17.601  0.6549 -0.0594 -0.5770
  517MPD2    C2 7731   3.195   2.194  17.708  0.0045 -0.5627  0.7777
  517MPD2    C3 7732   3.127   2.315  17.735 -0.1369 -0.1755 -0.8903
  517MPD2    C4 7733   3.041   2.369  17.639  0.3750  0.2479  0.0038
  517MPD2    C5 7734   3.015   2.304  17.531 -0.2515  0.4137  0.5090
  517MPD2     H 7735   3.274   2.159   0.034  2.1045  1.7371 -0.5671
  517MPD2    H1 7736   2.990   2.464  17.650  0.6198  0.2575  1.0080
  517MPD2    H2 7737   3.037   2.122  17.424  0.0239 -0.8144  0.4981
  517MPD2    H3 7738   2.954   2.341  17.449 -0.7536  0.2051  0.7864
  517MPD2     N 7739   3.152   2.404   0.104  0.0936 -0.3628  1.0550
  517MPD2    H5 7740   3.104   2.493   0.108  1.4945  0.4948 -1.1003
  517MPD2    N1 7741   3.216   1.996  17.577  0.0354  0.2919  0.4578
  517MPD2    H7 7742   3.304   1.983  17.627 -0.3719  0.7131  1.2712
  518TMC3    C1 7743   3.250   1.801  17.447 -0.0346 -0.0368  0.3656
  518TMC3    C2 7744   3.197   1.680  17.418 -0.7383  0.0056  0.6290
  518TMC3    C3 7745   3.272   1.590  17.350 -0.6565 -0.1685 -0.1107
  518TMC3    C4 7746   3.379   1.827  17.416  0.4490  0.3446  0.5010
  518TMC3    C5 7747   3.454   1.733  17.362  0.4296  0.5133 -0.8791
  518TMC3    C6 7748   3.403   1.612  17.328 -0.5552 -0.7156  0.0014
  518TMC3     C 7749   3.155   1.904  17.491 -0.4929 -0.1561 -0.0227
  518TMC3     O 7750   3.044   1.896  17.451  0.3177 -0.5000  0.2190
  518TMC3     H 7751   3.093   1.666  17.448 -1.1171 -3.2435 -2.2115
  518TMC3    H1 7752   3.420   1.915  17.463 -0.4321  0.7511  0.5103
  518TMC3    H2 7753   3.461   1.535  17.278  1.3501 -0.0098  1.1172
  518TMC3    C7 7754   3.601   1.755  17.355  0.8997 -0.3826 -0.0775
  518TMC3    C8 7755   3.239   1.445  17.357 -0.1476  0.2871  0.3166
  518TMC3    O1 7756   3.632   1.871  17.339 -0.1871  0.7576  0.1986
  518TMC3    O2 7757   3.335   1.371  17.338 -0.0459  0.4881 -0.6467
  519MPD2     C 7758   0.435   0.420  14.629  0.3716 -0.2952 -0.6729
  519MPD2    C1 7759   0.346   0.394  14.524 -0.1494  1.1855 -0.2176
  519MPD2    C2 7760   0.372   0.284  14.447 -0.6857  0.2565 -0.2930
  519MPD2    C3 7761   0.469   0.196  14.474 -0.4383  0.0087  0.4107
  519MPD2    C4 7762   0.535   0.204  14.597  0.0713  0.3978 -0.0871
  519MPD2    C5 7763   0.515   0.319  14.671  0.4750  0.2221 -0.0204
  519MPD2     H 7764   0.304   0.263  14.365 -1.0991  0.0940  0.0983
  519MPD2    H1 7765   0.602   0.123  14.623  0.4416  1.3787  1.9744
  519MPD2    H2 7766   0.439   0.511  14.687  3.1785  0.8131 -2.6091
  519MPD2    H3 7767   0.577   0.331  14.759  2.9283 -1.5442 -1.4941
  519MPD2     N 7768   0.505   0.087  14.387  0.3802  0.2253 -0.3266
  519MPD2    H5 7769   0.582   0.028  14.418  0.6938 -0.2297 -2.0090
  519MPD2    N1 7770   0.263   0.501  14.484 -0.2683 -1.0187  0.8890
  519MPD2    H7 7771   0.280   0.592  14.526 -2.3197 -0.8359  1.2964
  520TMC3    C1 7772   0.551   0.009  14.167  0.2762  0.0337 -0.2037
  520TMC3    C2 7773   0.535   0.064  14.040  0.5613  0.6760  0.3731
  520TMC3    C3 7774   0.633   0.031  13.949 -0.6546 -1.1980 -0.4693
  520TMC3    C4 7775   0.667   4.695  14.223  0.1743  0.4185  0.1250
  520TMC3    C5 7776   0.768   4.695  14.129  0.6038 -0.9259 -0.6987
  520TMC3    C6 7777   0.751   4.716  13.993 -0.2783 -0.3224 -0.4953
  520TMC3     C 7778   0.455   0.062  14.261  0.4601  0.3068  0.1553
  520TMC3     O 7779   0.354   0.113  14.212  0.1585 -0.5644  0.2390
  520TMC3     H 7780   0.442   0.111  14.010 -0.8625 -1.3843  1.5678
  520TMC3    H1 7781   0.679   4.663  14.325 -0.9900 -0.6518 -0.0742
  520TMC3    H2 7782   0.831   4.693  13.923  1.3077  4.2279 -0.1518
  520TMC3    C7 7783   0.905   4.675  14.183  0.6197  0.1629 -0.0871
  520TMC3    C8 7784   0.615   0.063  13.808  0.3036 -0.3834 -0.3175
  520TMC3    O1 7785   0.918   4.636  14.299 -1.0053 -0.1734 -0.7505
  520TMC3    O2 7786   0.719   0.072  13.752  0.8081 -0.1461 -0.4592
  521MPD2     C 7787   1.538   3.216  17.469  0.6945  0.0341  0.0975
  521MPD2    C1 7788   1.476   3.134  17.378 -0.2761 -0.5362  0.4611
  521MPD2    C2 7789   1.552   3.077  17.279  1.5367  0.4791 -0.1098
  521MPD2    C3 7790   1.694   3.107  17.274  0.8677  0.5629 -0.9012
  521MPD2    C4 7791   1.744   3.195  17.362 -0.3285 -0.8460 -0.8314
  521MPD2    C5 7792   1.670   3.240  17.469 -0.2636 -0.0146 -0.5284
  521MPD2     H 7793   1.503   3.025  17.198  0.9796 -0.6559  0.9651
  521MPD2    H1 7794   1.846   3.231  17.360 -0.9551  0.9368 -1.2965
  521MPD2    H2 7795   1.483   3.255  17.554 -0.3699  1.1314 -1.0846
  521MPD2    H3 7796   1.712   3.306  17.545 -0.8586  1.2658 -1.3186
  521MPD2     N 7797   1.765   3.057  17.165  0.5009  0.1365 -0.2467
  521MPD2    H5 7798   1.714   2.994  17.104  0.4066  1.7884 -1.9049
  521MPD2    N1 7799   1.341   3.109  17.404  0.1808 -0.2219  0.4461
  521MPD2    H7 7800   1.303   3.167  17.478 -1.5287  0.8453 -1.2433
  522TMC3    C1 7801   1.948   3.006  17.022  0.0623  0.1446 -0.5792
  522TMC3    C2 7802   2.074   2.953  17.024 -0.5018  0.0509 -0.5897
  522TMC3    C3 7803   2.103   2.837  16.950  0.2925  0.4293 -0.3826
  522TMC3    C4 7804   1.853   2.952  16.932  0.5226 -0.6109 -0.6022
  522TMC3    C5 7805   1.892   2.847  16.853 -0.0250 -0.1143 -0.2853
  522TMC3    C6 7806   2.020   2.795  16.848 -0.2575 -0.1759 -0.1104
  522TMC3     C 7807   1.900   3.079  17.142 -0.1232 -0.3859 -0.1956
  522TMC3     O 7808   1.984   3.138  17.203 -0.2199 -0.3659  0.0924
  522TMC3     H 7809   2.145   2.997  17.093 -1.4703  1.8548 -0.7497
  522TMC3    H1 7810   1.753   2.994  16.935  1.1544  0.9361 -1.3038
  522TMC3    H2 7811   2.043   2.719  16.775 -3.1207 -1.4358  0.2887
  522TMC3    C7 7812   1.794   2.765  16.786 -0.0362  0.0745 -0.4334
  522TMC3    C8 7813   2.199   2.755  17.019  0.2550 -0.4835 -0.3538
  522TMC3    O1 7814   1.821   2.644  16.774  0.0670 -0.3071  0.1037
  522TMC3    O2 7815   2.238   2.781  17.130 -0.7751 -0.0532  0.4183
  523MPD2     C 7816   4.452   3.408  10.503  0.4460 -0.4011 -0.5044
  523MPD2    C1 7817   4.324   3.371  10.460  0.4555 -0.3475  0.0890
  523MPD2    C2 7818   4.248   3.465  10.385  0.4673 -0.5292 -0.0743
  523MPD2    C3 7819   4.301   3.583  10.337  0.1834 -0.9036 -0.4529
  523MPD2    C4 7820   4.427   3.614  10.376 -0.1146  0.1441 -0.2612
  523MPD2    C5 7821   4.500   3.533  10.462 -0.1306  0.1074  0.2579
  523MPD2     H 7822   4.145   3.441  10.357  0.2770  1.4486 -1.0726
  523MPD2    H1 7823   4.479   3.704  10.345  0.3072 -0.0276 -0.0509
  523MPD2    H2 7824   4.514   3.345  10.566  1.3108 -0.6601 -1.6120
  523MPD2    H3 7825   4.596   3.561  10.502  0.1121  1.5118 -1.3270
  523MPD2     N 7826   4.238   3.674  10.254 -0.3568  0.1996  0.1487
  523MPD2    H5 7827   4.299   3.751  10.229 -1.2008  0.7169 -0.2930
  523MPD2    N1 7828   4.273   3.251  10.509 -0.1121  0.3463  0.1113
  523MPD2    H7 7829   4.326   3.200  10.578  0.2620  2.0453  1.0755
  524TMC3    C1 7830   4.057   3.814  10.191  0.4624 -0.2922  0.1056
  524TMC3    C2 7831   4.147   3.870  10.105 -0.7567  0.3840 -0.1131
  524TMC3    C3 7832   4.087   3.959  10.013  0.4652 -0.2426  0.0003
  524TMC3    C4 7833   3.925   3.844  10.180 -0.5458 -0.0564 -0.2041
  524TMC3    C5 7834   3.875   3.915  10.077 -0.3359  0.5055 -0.0802
  524TMC3    C6 7835   3.961   3.980   9.987 -0.5530 -0.4903 -0.0998
  524TMC3     C 7836   4.099   3.687  10.247  0.4848  0.3838 -1.0033
  524TMC3     O 7837   4.007   3.619  10.293 -0.4234 -0.5702 -0.0177
  524TMC3     H 7838   4.254   3.870  10.121 -0.2417 -0.8645 -3.6516
  524TMC3    H1 7839   3.863   3.806  10.261  0.9042 -1.0779  0.4321
  524TMC3    H2 7840   3.932   4.052   9.911  1.4771  0.5266  0.0714
  524TMC3    C7 7841   3.739   3.962  10.099 -1.0146 -0.1182  0.4409
  524TMC3    C8 7842   4.177   4.058   9.958 -0.5833 -1.0370  0.1726
  524TMC3    O1 7843   3.673   3.923  10.192  0.0417 -0.0772 -0.2131
  524TMC3    O2 7844   4.126   4.167   9.948  0.0368 -0.0519 -0.1450
  525MPD2     C 7845   1.925   4.695  14.715  0.1453  0.4784 -0.3918
  525MPD2    C1 7846   2.048   4.632  14.720 -0.6446 -0.1717  0.7043
  525MPD2    C2 7847   2.154   4.713  14.685 -0.6894 -0.1847 -0.2928
  525MPD2    C3 7848   2.139   0.114  14.654 -0.4510 -0.5467 -0.7983
  525MPD2    C4 7849   2.012   0.169  14.658 -0.2124 -0.1512 -0.0957
  525MPD2    C5 7850   1.910   0.087  14.679 -0.6846 -0.8084 -0.4601
  525MPD2     H 7851   2.256   4.678  14.673 -1.2314 -2.5295  1.9147
  525MPD2    H1 7852   2.000   0.271  14.623 -0.3499  0.3825  1.5251
  525MPD2    H2 7853   1.827   4.652  14.733 -0.3855  2.1121  0.6601
  525MPD2    H3 7854   1.807   0.122  14.674 -0.6979 -0.9156 -0.9908
  525MPD2     N 7855   2.250   0.204  14.637  0.1075  0.5516 -0.3283
  525MPD2    H5 7856   2.224   0.303  14.635  1.1492  0.8499  1.3300
  525MPD2    N1 7857   2.080   4.502  14.759 -0.5192  0.4644 -0.4710
  525MPD2    H7 7858   2.177   4.473  14.765 -0.5847  0.0923 -1.2860
  526TMC3    C1 7859   2.025   4.284  14.842  0.6480 -0.3584  1.2766
  526TMC3    C2 7860   1.949   4.227  14.942  0.6824  0.2840 -0.5434
  526TMC3    C3 7861   2.014   4.176  15.051 -0.3331  0.3668 -1.0869
  526TMC3    C4 7862   2.156   4.254  14.839 -0.7021  1.1387 -0.3353
  526TMC3    C5 7863   2.214   4.178  14.938  0.1304  0.6324  0.4654
  526TMC3    C6 7864   2.150   4.152  15.054 -0.3497 -0.1116  0.2334
  526TMC3     C 7865   1.976   4.410  14.785  0.6294  0.0781 -0.6493
  526TMC3     O 7866   1.857   4.419  14.773 -0.6409  0.2158 -0.4755
  526TMC3     H 7867   1.844   4.255  14.945  1.2817  2.4245  0.5572
  526TMC3    H1 7868   2.211   4.260  14.746 -0.0466  1.4705  0.0719
  526TMC3    H2 7869   2.205   4.104  15.135  0.3511  2.8225  1.5008
  526TMC3    C7 7870   2.346   4.120  14.910  0.3425 -1.4906  0.5898
  526TMC3    C8 7871   1.947   4.189  15.177 -0.2073  0.3871 -0.4788
  526TMC3    O1 7872   2.382   4.032  14.988 -0.0177  0.2127  0.2683
  526TMC3    O2 7873   2.016   4.184  15.279  1.0793 -0.2385 -0.3045
  527MPD2     C 7874   4.098   2.548   1.056  0.8022 -0.2640 -0.0058
  527MPD2    C1 7875   4.137   2.459   0.962  0.5535 -0.0453 -0.3064
  527MPD2    C2 7876   4.265   2.415   0.951  0.1036  0.1270 -0.6207
  527MPD2    C3 7877   4.356   2.448   1.049  0.2560 -0.4400  0.6030
  527MPD2    C4 7878   4.317   2.520   1.160 -0.6995  0.0164 -0.7619
  527MPD2    C5 7879   4.190   2.571   1.155 -0.5344  0.1606 -0.1939
  527MPD2     H 7880   4.279   2.337   0.878 -0.3710  0.0450 -0.6296
  527MPD2    H1 7881   4.394   2.546   1.233 -1.3363 -1.3414  0.3866
  527MPD2    H2 7882   3.999   2.592   1.059  0.4446 -0.9135 -2.4330
  527MPD2    H3 7883   4.159   2.638   1.235 -1.7155 -0.9702  0.2915
  527MPD2     N 7884   4.483   2.393   1.040 -0.1268  0.1841  0.8140
  527MPD2    H5 7885   4.503   2.339   0.956  1.4329  1.3365  0.4656
  527MPD2    N1 7886   4.040   2.405   0.875 -0.6176 -0.1700  0.1882
  527MPD2    H7 7887   4.076   2.346   0.801 -0.3835  1.9689 -1.3867
  528TMC3    C1 7888   3.829   2.331   0.788  0.1977 -0.6193 -0.3564
  528TMC3    C2 7889   3.861   2.333   0.657  0.0131  0.2072  0.1935
  528TMC3    C3 7890   3.804   2.244   0.571 -0.8083  0.4232 -0.1760
  528TMC3    C4 7891   3.735   2.250   0.844 -0.5132  0.0915  0.6608
  528TMC3    C5 7892   3.667   2.169   0.754  0.2472 -0.5501  0.1073
  528TMC3    C6 7893   3.710   2.156   0.623 -0.0806  0.4232  0.2611
  528TMC3     C 7894   3.901   2.418   0.880  0.6264 -0.2083 -0.5771
  528TMC3     O 7895   3.834   2.486   0.961 -0.0164  0.4552 -0.2240
  528TMC3     H 7896   3.929   2.406   0.615  0.7963 -0.0530  0.9947
  528TMC3    H1 7897   3.713   2.242   0.950  1.7784  1.3336  1.2404
  528TMC3    H2 7898   3.663   2.084   0.556  2.2431  1.5371 -2.5755
  528TMC3    C7 7899   3.566   2.080   0.808 -0.5047 -0.6477 -0.0151
  528TMC3    C8 7900   3.884   2.202   0.459 -0.4165 -1.0976 -0.4871
  528TMC3    O1 7901   3.582   2.050   0.925  0.4010 -0.2987 -0.1174
  528TMC3    O2 7902   3.962   2.281   0.409  0.0969 -0.3208 -0.3487
  529MPD2     C 7903   1.891   0.877   1.148  0.8087 -0.4193 -0.4646
  529MPD2    C1 7904   1.979   0.834   1.060  0.0174  0.5052  0.3796
  529MPD2    C2 7905   2.007   0.914   0.949  1.0586  0.0596 -0.1518
  529MPD2    C3 7906   1.935   1.037   0.933 -0.9564 -0.1551 -0.1293
  529MPD2    C4 7907   1.836   1.069   1.011 -0.2657 -0.3405 -0.8695
  529MPD2    C5 7908   1.820   0.992   1.123 -0.0110  0.1860 -0.3316
  529MPD2     H 7909   2.090   0.878   0.890  0.6418 -0.8102 -0.2169
  529MPD2    H1 7910   1.782   1.162   1.012  1.3325  0.5813 -0.6980
  529MPD2    H2 7911   1.859   0.827   1.238  1.6016 -0.1361 -0.0295
  529MPD2    H3 7912   1.747   1.031   1.194  0.1012 -2.5165  1.2555
  529MPD2     N 7913   1.965   1.135   0.839  0.0980 -0.4219  0.7967
  529MPD2    H5 7914   1.899   1.212   0.834  0.5599 -0.0699  0.0980
  529MPD2    N1 7915   2.056   0.717   1.082  0.0312  0.0167 -0.3189
  529MPD2    H7 7916   2.111   0.692   1.000  2.1485  1.5061  0.6574
  530TMC3    C1 7917   2.161   0.546   1.204  0.2284  0.1161  0.8981
  530TMC3    C2 7918   2.239   0.542   1.317  0.0047 -0.0289 -0.2197
  530TMC3    C3 7919   2.331   0.446   1.324  0.0576  0.0591  0.1208
  530TMC3    C4 7920   2.157   0.452   1.107  0.7427  0.1780 -0.2542
  530TMC3    C5 7921   2.240   0.341   1.125 -0.4068  0.2475 -0.3732
  530TMC3    C6 7922   2.328   0.339   1.232 -0.5864 -0.1385  0.1127
  530TMC3     C 7923   2.061   0.654   1.205  0.0630 -0.5081  0.0679
  530TMC3     O 7924   2.021   0.689   1.313  0.0144  0.0138  0.4216
  530TMC3     H 7925   2.238   0.630   1.380 -2.2746  0.0759 -0.3919
  530TMC3    H1 7926   2.078   0.459   1.033  0.6866 -2.5154 -0.4187
  530TMC3    H2 7927   2.393   0.254   1.247  0.2176  0.7363  1.5227
  530TMC3    C7 7928   2.188   0.212   1.083  0.0798 -0.2079  0.6382
  530TMC3    C8 7929   2.383   0.426   1.453 -0.1076 -0.0336 -0.2869
  530TMC3    O1 7930   2.275   0.141   1.029  0.2752  0.4812  0.5601
  530TMC3    O2 7931   2.330   0.492   1.540  0.1344 -0.3580  0.6198
  531MPD2     C 7932   2.152   3.546  13.084 -0.1056  0.0953 -0.0816
  531MPD2    C1 7933   2.050   3.613  13.153 -0.6881 -0.5744  0.5780
  531MPD2    C2 7934   1.919   3.559  13.151 -0.6059  0.1846 -0.0592
  531MPD2    C3 7935   1.897   3.452  13.074  0.1690  0.2415 -0.8202
  531MPD2    C4 7936   1.992   3.385  12.996  0.0802 -1.0183  0.4753
  531MPD2    C5 7937   2.118   3.440  12.999  0.1755 -0.0310 -0.9329
  531MPD2     H 7938   1.844   3.614  13.206  0.6977  1.5041  0.4035
  531MPD2    H1 7939   1.980   3.290  12.945 -0.7324  0.1024 -1.3911
  531MPD2    H2 7940   2.258   3.561  13.097  0.0604 -0.0636 -1.2369
  531MPD2    H3 7941   2.196   3.380  12.954  1.9379  1.6614 -0.1637
  531MPD2     N 7942   1.760   3.411  13.079 -0.2407  0.1242 -0.1649
  531MPD2    H5 7943   1.701   3.458  13.147  0.2092  1.7071 -0.8892
  531MPD2    N1 7944   2.085   3.707  13.244  0.1315  0.2691  0.4101
  531MPD2    H7 7945   2.184   3.714  13.265  0.3446  1.2428 -0.8985
  532TMC3    C1 7946   2.027   3.853  13.413  0.3338 -0.6975 -0.4131
  532TMC3    C2 7947   1.969   3.971  13.440 -0.7964 -1.1707 -0.0793
  532TMC3    C3 7948   1.931   4.004  13.564 -0.3352  1.7263 -0.1917
  532TMC3    C4 7949   2.027   3.754  13.510  0.0306 -0.3496 -0.0239
  532TMC3    C5 7950   1.984   3.784  13.633  0.2598  0.0839  0.2271
  532TMC3    C6 7951   1.952   3.913  13.667  0.7732  0.7713  0.5604
  532TMC3     C 7952   1.994   3.807  13.280 -0.1398 -0.2028  0.6905
  532TMC3     O 7953   1.891   3.846  13.230  0.0677  0.0196  0.4524
  532TMC3     H 7954   1.956   4.042  13.359 -1.2044 -0.4690  0.6034
  532TMC3    H1 7955   2.051   3.652  13.480  2.2651  0.3610 -0.6852
  532TMC3    H2 7956   1.939   3.924  13.774 -1.3173  1.0060  0.2763
  532TMC3    C7 7957   2.002   3.693  13.741  0.0574 -0.0443 -0.7349
  532TMC3    C8 7958   1.800   4.065  13.570  0.0914 -0.6035  0.1445
  532TMC3    O1 7959   2.042   3.742  13.847  0.0529  0.3616  0.1608
  532TMC3    O2 7960   1.748   4.079  13.683  0.5907 -0.2498 -0.1664
  533TMC3    C1 7961   2.454   0.295  14.659  0.7886  0.5910  0.6083
  533TMC3    C2 7962   2.583   0.314  14.609  0.7296  0.2532  0.1589
  533TMC3    C3 7963   2.674   0.375  14.689  0.5063 -0.1925  0.2835
  533TMC3    C4 7964   2.417   0.365  14.771 -0.0322  0.3755 -0.1369
  533TMC3    C5 7965   2.509   0.440  14.838 -0.1528 -0.2729  0.0772
  533TMC3    C6 7966   2.636   0.446  14.800 -0.4545 -0.3902  0.3696
  533TMC3     C 7967   2.379   0.175  14.625  0.6483 -0.2892 -0.5756
  533TMC3     O 7968   2.441   0.069  14.613  0.1363  0.0238  0.2682
  533TMC3     H 7969   2.624   0.245  14.537  1.0861 -0.1767  0.7708
  533TMC3    H1 7970   2.329   0.339  14.828  1.2550 -0.5856  1.4029
  533TMC3    H2 7971   2.705   0.510  14.853  2.3786 -3.4695  0.3637
  533TMC3    C7 7972   2.474   0.439  14.981  0.4006 -0.4312  0.3015
  533TMC3    C8 7973   2.788   0.437  14.625  0.2247  0.8045  0.0521
  533TMC3    O1 7974   2.539   0.362  15.054 -0.7860 -0.2343 -0.0952
  533TMC3    O2 7975   2.880   0.469  14.698 -0.0437 -0.4496  0.1613
  534MPD2     C 7976   4.633   1.187   2.001 -0.1239  0.3299 -0.0294
  534MPD2    C1 7977   4.592   1.276   1.899 -0.2586 -0.4565 -0.4566
  534MPD2    C2 7978   4.463   1.286   1.862  0.2865 -0.5048 -0.1772
  534MPD2    C3 7979   4.384   1.179   1.886 -0.2541 -0.4469  0.1993
  534MPD2    C4 7980   4.427   1.083   1.978  0.2491 -0.6130 -0.4218
  534MPD2    C5 7981   4.541   1.098   2.044  0.3070  0.4375  0.3145
  534MPD2     H 7982   4.432   1.362   1.791 -2.0235  0.0302  1.3936
  534MPD2    H1 7983   4.362   0.997   1.994 -1.2071  0.5300 -0.2303
  534MPD2    H2 7984   4.733   1.178   2.041 -0.5969 -1.2398  0.8083
  534MPD2    H3 7985   4.566   1.016   2.111  1.2708  0.8710  0.4905
  534MPD2     N 7986   4.250   1.169   1.841 -0.3031 -0.4232  0.3162
  534MPD2    H5 7987   4.221   1.073   1.850 -0.2633 -0.3856  0.8318
  534MPD2    N1 7988   4.688   1.364   1.841 -0.1335  0.4610 -0.3123
  534MPD2    H7 7989   4.655   1.421   1.765 -2.3181  1.0381  1.0731
  535TMC3    C1 7990   4.061   1.202   1.703  0.0204  0.0973  0.3712
  535TMC3    C2 7991   3.973   1.114   1.774 -0.2355 -0.5959 -0.4129
  535TMC3    C3 7992   3.865   1.052   1.699 -0.7865 -1.0289 -0.4359
  535TMC3    C4 7993   4.044   1.231   1.567  0.3511  0.0115 -0.3325
  535TMC3    C5 7994   3.938   1.175   1.510  0.4788  0.1740  1.0443
  535TMC3    C6 7995   3.846   1.091   1.572 -0.5210  0.0512 -0.1264
  535TMC3     C 7996   4.177   1.259   1.764 -0.1405 -0.6430 -0.1120
  535TMC3     O 7997   4.203   1.370   1.724 -0.1512  0.0593 -0.3675
  535TMC3     H 7998   3.993   1.101   1.879 -0.8007  0.0171 -0.2294
  535TMC3    H1 7999   4.117   1.292   1.515  0.0354 -0.0364 -0.8327
  535TMC3    H2 8000   3.779   1.027   1.515 -0.9218  0.4788 -0.1321
  535TMC3    C7 8001   3.912   1.204   1.367  0.8793 -0.1790  0.4382
  535TMC3    C8 8002   3.757   0.977   1.757  0.2008 -0.0033 -0.6769
  535TMC3    O1 8003   3.830   1.132   1.312 -0.0317 -0.4411  0.0097
  535TMC3    O2 8004   3.662   0.942   1.683 -0.1312  0.1641  0.0914
  536MPD2     C 8005   2.767   4.057  16.333  0.4730  0.3254  0.0033
  536MPD2    C1 8006   2.866   4.097  16.413 -0.1939  0.1542  0.7138
  536MPD2    C2 8007   2.933   4.208  16.371 -0.0705  0.4368 -0.4932
  536MPD2    C3 8008   2.901   4.280  16.259  0.0799  0.7297 -0.4783
  536MPD2    C4 8009   2.803   4.232  16.175  0.1358 -0.2053  0.1747
  536MPD2    C5 8010   2.743   4.115  16.211  0.5546  0.4687  0.3517
  536MPD2     H 8011   3.014   4.244  16.433 -0.9119  0.3321  0.6615
  536MPD2    H1 8012   2.783   4.283  16.082 -0.7878 -2.1363 -0.6867
  536MPD2    H2 8013   2.722   3.962  16.360  2.1234 -0.0540  1.3976
  536MPD2    H3 8014   2.669   4.079  16.140  1.6499  1.0960 -1.1162
  536MPD2     N 8015   2.964   4.402  16.216  0.4453 -0.3747 -0.2325
  536MPD2    H5 8016   2.940   4.445  16.127 -1.9132 -1.6241 -0.1909
  536MPD2    N1 8017   2.909   4.014  16.523  0.1298  0.2606 -0.4696
  536MPD2    H7 8018   2.866   3.922  16.527 -0.9474  0.8106  0.5739
  537TMC3    C1 8019   3.061   3.922  16.681  0.0171 -0.3431 -0.1883
  537TMC3    C2 8020   3.185   3.933  16.743 -0.3626  0.3297 -0.5158
  537TMC3    C3 8021   3.224   3.842  16.842 -0.7216  0.1653 -0.4331
  537TMC3    C4 8022   2.972   3.833  16.735  0.3610  0.3323  0.3293
  537TMC3    C5 8023   3.004   3.748  16.839  0.4572 -0.5232 -0.2488
  537TMC3    C6 8024   3.132   3.748  16.895  0.6958  0.3875 -0.2755
  537TMC3     C 8025   3.017   4.037  16.605  0.1579  0.2386  0.1229
  537TMC3     O 8026   3.076   4.141  16.625  0.2692  0.5787  0.1562
  537TMC3     H 8027   3.257   3.998  16.695 -0.0274  0.1010 -0.3195
  537TMC3    H1 8028   2.868   3.842  16.709  0.6934 -0.1835 -1.1631
  537TMC3    H2 8029   3.153   3.670  16.967 -1.5813 -1.2765 -1.4224
  537TMC3    C7 8030   2.903   3.645  16.883 -0.0107  0.0044  0.1455
  537TMC3    C8 8031   3.343   3.881  16.924 -0.5715  0.5974 -0.0235
  537TMC3    O1 8032   2.798   3.635  16.817 -0.1682 -0.0098  0.4106
  537TMC3    O2 8033   3.379   3.996  16.904 -0.2224 -0.3194  0.0913
  538TMC3    C1 8034   4.620   3.185  11.471  0.3167  1.0732  0.2003
  538TMC3    C2 8035   0.015   3.196  11.431 -0.2328  0.4264  0.0707
  538TMC3    C3 8036   0.035   3.231  11.294 -0.1410  0.6510  0.0940
  538TMC3    C4 8037   4.516   3.216  11.386 -0.5174  0.5939  0.1601
  538TMC3    C5 8038   4.543   3.249  11.261  0.2883  0.0678  0.2992
  538TMC3    C6 8039   4.668   3.266  11.214 -0.1066 -0.0770  0.0286
  538TMC3     C 8040   4.591   3.157  11.610  0.1879 -0.0054 -0.3263
  538TMC3     O 8041   4.473   3.162  11.635 -0.0142 -0.0512 -0.2966
  538TMC3     H 8042   0.097   3.195  11.502 -0.1823 -1.6800 -0.0237
  538TMC3    H1 8043   4.416   3.240  11.420 -0.6865 -1.8604  1.4053
  538TMC3    H2 8044   4.677   3.271  11.107  0.2420  1.5285  0.1353
  538TMC3    C7 8045   4.437   3.281  11.164 -0.2336  0.1050 -0.5379
  538TMC3    C8 8046   0.174   3.230  11.253  0.5003 -0.5704 -0.4637
  538TMC3    O1 8047   4.327   3.249  11.207  0.4466 -0.3115 -0.3208
  538TMC3    O2 8048   0.259   3.224  11.339 -0.0238  0.0026 -0.2176
  539MPD2     C 8049   3.829   1.832  11.966 -0.9479  0.4853 -0.1222
  539MPD2    C1 8050   3.949   1.856  11.918 -1.0282  0.2163 -0.6125
  539MPD2    C2 8051   4.004   1.987  11.930  1.0063  0.3905 -0.4532
  539MPD2    C3 8052   3.932   2.082  12.004 -0.3422  0.3313 -0.9174
  539MPD2    C4 8053   3.816   2.041  12.059  1.3730  0.6178  0.0204
  539MPD2    C5 8054   3.755   1.925  12.038  1.5058 -0.3565  0.9653
  539MPD2     H 8055   4.097   2.013  11.881  1.1961 -0.4615 -0.5458
  539MPD2    H1 8056   3.775   2.101  12.139 -2.7157 -2.4433  0.2255
  539MPD2    H2 8057   3.772   1.744  11.939 -2.0728  1.0511  0.3920
  539MPD2    H3 8058   3.658   1.893  12.072  0.1776  1.3366 -1.1675
  539MPD2     N 8059   3.965   2.217  12.029  0.0962  0.8314 -0.3705
  539MPD2    H5 8060   3.914   2.275  12.094  0.8113  0.4150  0.5544
  539MPD2    N1 8061   4.022   1.766  11.832  0.6423 -0.6919  0.0336
  539MPD2    H7 8062   4.100   1.814  11.789 -0.8358  1.6565 -0.0508
  540TMC3    C1 8063   4.026   2.427  11.935 -0.3958  0.0391 -0.5201
  540TMC3    C2 8064   4.072   2.489  11.829 -0.4483  0.2395 -0.2138
  540TMC3    C3 8065   4.077   2.625  11.824 -0.2666  0.5540  0.2700
  540TMC3    C4 8066   3.955   2.494  12.024  0.3583  0.2122  0.6443
  540TMC3    C5 8067   3.949   2.630  12.019  0.0616 -0.7699 -0.3301
  540TMC3    C6 8068   4.016   2.697  11.926 -0.4337 -0.5257  0.9471
  540TMC3     C 8069   4.054   2.287  11.951  0.5703 -0.0927 -0.2906
  540TMC3     O 8070   4.140   2.250  11.872  0.7403  0.4423  0.7886
  540TMC3     H 8071   4.121   2.431  11.751 -1.8443 -0.2707 -0.7105
  540TMC3    H1 8072   3.911   2.444  12.109 -0.4209  0.3971  0.3451
  540TMC3    H2 8073   3.996   2.803  11.921  0.1716 -0.4830 -0.6097
  540TMC3    C7 8074   3.836   2.698  12.077 -0.1771 -0.2741  0.9865
  540TMC3    C8 8075   4.077   2.695  11.696 -0.0477 -0.1889 -0.2734
  540TMC3    O1 8076   3.739   2.625  12.112  0.2730  0.6354 -0.4572
  540TMC3    O2 8077   4.097   2.816  11.681 -0.5225 -0.0230  0.4476
  541MPD2     C 8078   2.774   3.665  13.487 -0.1905 -0.1771  0.0986
  541MPD2    C1 8079   2.718   3.599  13.383 -0.0810  0.5909  0.3967
  541MPD2    C2 8080   2.765   3.642  13.262 -0.1027  0.2089  1.0478
  541MPD2    C3 8081   2.849   3.756  13.243  0.0955  0.8534 -0.1963
  541MPD2    C4 8082   2.902   3.819  13.351 -0.2171 -0.0025  0.2121
  541MPD2    C5 8083   2.863   3.764  13.467  0.6531 -0.4807 -0.1670
  541MPD2     H 8084   2.724   3.599  13.171 -0.3586 -1.2470  1.8463
  541MPD2    H1 8085   2.977   3.897  13.349 -0.9661  0.7033 -0.2261
  541MPD2    H2 8086   2.755   3.640  13.590 -0.4678  2.3049  0.6390
  541MPD2    H3 8087   2.920   3.803  13.550  0.0223  1.0237 -0.4442
  541MPD2     N 8088   2.868   3.809  13.110  0.0653  0.1088 -0.7198
  541MPD2    H5 8089   2.935   3.886  13.107 -0.3480  0.4906 -0.0378
  541MPD2    N1 8090   2.621   3.501  13.396  0.0783  0.3843  0.5146
  541MPD2    H7 8091   2.605   3.446  13.312 -1.4889  1.6202 -0.0019
  542TMC3    C1 8092   2.884   3.817  12.877 -0.1917  0.2185 -1.0295
  542TMC3    C2 8093   2.874   3.734  12.768  0.2630 -0.2696 -0.4278
  542TMC3    C3 8094   2.857   3.794  12.647  0.3607  0.5273  0.3250
  542TMC3    C4 8095   2.875   3.953  12.869 -0.5952 -0.3194  0.0793
  542TMC3    C5 8096   2.848   4.008  12.745 -0.1983  0.3279 -0.1908
  542TMC3    C6 8097   2.842   3.934  12.632 -0.3312  0.8620  0.0542
  542TMC3     C 8098   2.826   3.761  12.994 -0.6510  0.2217 -0.4837
  542TMC3     O 8099   2.732   3.677  12.976  0.1085 -0.0859 -0.6382
  542TMC3     H 8100   2.859   3.629  12.787  0.6113 -0.5663 -1.7779
  542TMC3    H1 8101   2.872   4.025  12.951  0.7220 -1.6825  1.3285
  542TMC3    H2 8102   2.822   3.980  12.535  0.5829 -0.6607 -0.8605
  542TMC3    C7 8103   2.771   4.132  12.744 -0.5951  0.0953 -0.1343
  542TMC3    C8 8104   2.865   3.722  12.521 -0.0548  0.3278  0.8018
  542TMC3    O1 8105   2.794   4.206  12.841 -0.4570 -0.4646  0.4843
  542TMC3    O2 8106   2.831   3.776  12.417 -0.1378 -0.3471 -0.2645
  543TMC3    C1 8107   1.785   0.180  17.435  0.0693 -0.4858 -0.0033
  543TMC3    C2 8108   1.809   0.057  17.496  0.1750  0.4362 -0.7150
  543TMC3    C3 8109   1.727   0.032  17.604 -0.0000  0.2522 -0.5046
  543TMC3    C4 8110   1.714   0.286  17.490 -0.4337 -0.6409 -0.3046
  543TMC3    C5 8111   1.655   0.256  17.613  0.0176 -0.5938  0.4691
  543TMC3    C6 8112   1.651   0.131  17.666  0.2305  0.2821 -0.0292
  543TMC3     C 8113   1.850   0.191  17.302  0.0549 -0.0109  0.5594
  543TMC3     O 8114   1.895   0.083  17.258  0.0597  0.1284  0.4508
  543TMC3     H 8115   1.853   4.705  17.448  0.5956  0.3059 -0.1018
  543TMC3    H1 8116   1.713   0.380  17.437  0.1344  0.0466  0.9119
  543TMC3    H2 8117   1.586   0.107   0.011  1.9743 -2.3856  0.5580
  543TMC3    C7 8118   1.563   0.344  17.673  0.3279  0.4716  0.1085
  543TMC3    C8 8119   1.750   4.645  17.674 -0.1659  0.9657  0.0753
  543TMC3    O1 8120   1.524   0.318   0.051 -0.1090 -0.1695  0.8463
  543TMC3    O2 8121   1.771   4.547  17.605  0.4811 -0.0314 -0.5255
  544MPD2     C 8122   1.745   4.382   0.374 -0.5388  0.2655  0.0251
  544MPD2    C1 8123   1.741   4.334   0.245 -0.3382  0.3154  0.2707
  544MPD2    C2 8124   1.746   4.422   0.138 -0.5553 -0.6137  0.8707
  544MPD2    C3 8125   1.751   4.562   0.170 -0.0635  0.5203  0.0533
  544MPD2    C4 8126   1.754   4.607   0.304 -0.0431  0.0509 -0.4135
  544MPD2    C5 8127   1.742   4.514   0.398  0.1519  0.0086 -0.4706
  544MPD2     H 8128   1.749   4.385   0.036  0.7594  1.5235  0.1309
  544MPD2    H1 8129   1.749   4.713   0.327  1.2265  0.2220 -0.9389
  544MPD2    H2 8130   1.760   4.322   0.462  0.2194  0.2272 -0.1335
  544MPD2    H3 8131   1.739   4.536   0.505 -0.8276  1.1722 -0.7371
  544MPD2     N 8132   1.756   4.662   0.070 -0.5084 -0.2181  0.7328
  544MPD2    H5 8133   1.757   0.020   0.111  1.4190 -0.5395  1.4089
  544MPD2    N1 8134   1.744   4.192   0.226 -0.1717  0.0838  0.0024
  544MPD2    H7 8135   1.740   4.139   0.313  1.5020 -3.0289 -1.8146
  545TMC3    C1 8136   1.769   3.992   0.125  0.2340 -0.5286  0.0792
  545TMC3    C2 8137   1.877   3.937   0.190 -0.2461  0.0614  0.3011
  545TMC3    C3 8138   1.904   3.807   0.157  0.0869  0.5797 -0.1943
  545TMC3    C4 8139   1.684   3.919   0.050 -0.1723  0.7315 -0.9429
  545TMC3    C5 8140   1.702   3.785   0.040 -0.3995 -0.2754  1.0299
  545TMC3    C6 8141   1.818   3.729   0.086 -0.3638  0.3707 -0.0634
  545TMC3     C 8142   1.767   4.135   0.106  0.4346  0.0474 -0.0347
  545TMC3     O 8143   1.764   4.174  17.729 -0.0801 -0.0292 -0.4919
  545TMC3     H 8144   1.930   3.991   0.267 -1.5059  0.3867  0.9391
  545TMC3    H1 8145   1.591   3.966   0.020  1.1126  1.0125 -4.4552
  545TMC3    H2 8146   1.849   3.630   0.055  0.1909  0.6860 -0.5238
  545TMC3    C7 8147   1.598   3.704  17.719 -0.2992  0.2091  0.2831
  545TMC3    C8 8148   2.035   3.754   0.193  0.1458  0.1336 -0.3379
  545TMC3    O1 8149   1.531   3.757  17.632  0.6426  0.6090  0.2156
  545TMC3    O2 8150   2.039   3.635   0.171 -0.3552  0.7488 -0.6500
  546MPD2     C 8151   3.274   4.678  17.496 -0.6914  0.5039 -0.7729
  546MPD2    C1 8152   3.195   4.687  17.383 -0.5865 -0.5436  0.5592
  546MPD2    C2 8153   3.203   0.075  17.308 -0.3213  0.6862 -0.2102
  546MPD2    C3 8154   3.285   0.178  17.348  0.4230  0.1805  0.3121
  546MPD2    C4 8155   3.370   0.159  17.460  0.4317 -0.0863  0.2402
  546MPD2    C5 8156   3.363   0.042  17.527  0.0630 -0.1495  0.1937
  546MPD2     H 8157   3.146   0.091  17.218 -0.1225 -1.6145 -0.7365
  546MPD2    H1 8158   3.434   0.240  17.492  0.3829  0.0798 -0.0824
  546MPD2    H2 8159   3.270   4.586  17.553  1.3496  1.0209  0.2116
  546MPD2    H3 8160   3.419   0.015  17.615  0.2186 -0.1508  0.0944
  546MPD2     N 8161   3.293   0.301  17.279  0.1669 -0.4124  0.4760
  546MPD2    H5 8162   3.355   0.373  17.316  1.3035 -1.1596 -0.0005
  546MPD2    N1 8163   3.112   4.579  17.352 -0.4208  0.1985 -0.7232
  546MPD2    H7 8164   3.096   4.511  17.425  3.0703  1.1106  0.8872
  547TMC3    C1 8165   2.930   4.469  17.247  0.8568 -0.3489  0.2537
  547TMC3    C2 8166   2.803   4.490  17.195 -0.4100 -0.5066 -0.1842
  547TMC3    C3 8167   2.734   4.383  17.182 -0.3912 -0.7944  0.0857
  547TMC3    C4 8168   2.978   4.346  17.280  0.0260  0.2019  1.2267
  547TMC3    C5 8169   2.895   4.241  17.261  0.4971 -0.2664  0.4633
  547TMC3    C6 8170   2.764   4.256  17.218 -0.0085 -0.0607  0.1972
  547TMC3     C 8171   3.005   4.591  17.262 -0.6356  1.1874  1.2861
  547TMC3     O 8172   2.970   4.684  17.188 -0.6421 -0.0916 -0.1173
  547TMC3     H 8173   2.767   4.581  17.148 -1.8785 -0.2184  1.4739
  547TMC3    H1 8174   3.081   4.329  17.310  0.3061 -3.8416 -2.0578
  547TMC3    H2 8175   2.700   4.171  17.202 -0.9324  0.6618  0.0898
  547TMC3    C7 8176   2.928   4.111  17.319  0.3207 -0.2282 -0.2607
  547TMC3    C8 8177   2.603   4.400  17.113 -0.5616 -0.4975 -0.2079
  547TMC3    O1 8178   2.983   4.109  17.431 -0.0915 -0.3737  0.1571
  547TMC3    O2 8179   2.588   4.502  17.045 -0.4939  0.4520 -0.5133
  548MPD2     C 8180   3.759   0.301  12.858 -0.1445 -0.0243 -1.1915
  548MPD2    C1 8181   3.642   0.242  12.891  0.5925  0.0532  0.1339
  548MPD2    C2 8182   3.646   0.108  12.915 -0.2892  1.2906 -0.0719
  548MPD2    C3 8183   3.759   0.031  12.901  0.6881  0.4175  0.8760
  548MPD2    C4 8184   3.882   0.092  12.863  0.0909  0.2768 -0.2613
  548MPD2    C5 8185   3.878   0.230  12.857  0.3243 -0.3964 -0.2413
  548MPD2     H 8186   3.552   0.057  12.934  1.1188 -1.4131 -0.3615
  548MPD2    H1 8187   3.976   0.040  12.846  0.0770  1.2512 -3.4163
  548MPD2    H2 8188   3.766   0.405  12.829  0.1197  0.3489  0.2522
  548MPD2    H3 8189   3.968   0.280  12.826  0.4856 -0.4130  0.1963
  548MPD2     N 8190   3.753   4.627  12.922 -0.4303 -0.8178  0.0111
  548MPD2    H5 8191   3.667   4.577  12.941 -1.7122  1.6541  0.6590
  548MPD2    N1 8192   3.535   0.331  12.897 -0.5465 -0.2047 -0.3389
  548MPD2    H7 8193   3.541   0.423  12.856  0.8210 -0.4236 -0.6633
  549TMC3    C1 8194   3.311   0.389  12.895  0.1140 -0.4197  0.6794
  549TMC3    C2 8195   3.327   0.476  12.785 -0.1782 -0.0319  0.0834
  549TMC3    C3 8196   3.218   0.534  12.722  0.1343 -0.1600  0.3411
  549TMC3    C4 8197   3.182   0.364  12.931  0.1127  0.1542 -0.2097
  549TMC3    C5 8198   3.073   0.421  12.874 -0.0413  0.0372  0.0291
  549TMC3    C6 8199   3.091   0.513  12.771  0.5629  0.5616  0.6422
  549TMC3     C 8200   3.408   0.290  12.933 -0.5103  0.2147 -0.3173
  549TMC3     O 8201   3.363   0.184  12.981  0.5039  0.4415 -0.3282
  549TMC3     H 8202   3.424   0.499  12.741  0.3515  0.4647  1.5339
  549TMC3    H1 8203   3.163   0.291  13.009 -0.6285 -2.0806 -2.4716
  549TMC3    H2 8204   3.003   0.556  12.725  0.7473 -0.6052 -0.7900
  549TMC3    C7 8205   2.963   0.335  12.862  0.2640  0.0186  0.4078
  549TMC3    C8 8206   3.220   0.627  12.613  0.4256 -0.1766 -0.2826
  549TMC3    O1 8207   2.857   0.371  12.815 -0.4905 -0.2779 -0.1276
  549TMC3    O2 8208   3.105   0.649  12.567  0.1284 -0.1233 -0.3814
  550TMC3    C1 8209   2.576   3.311  12.317  0.0345  0.0236 -0.5057
  550TMC3    C2 8210   2.523   3.294  12.448  0.4103 -0.2563  0.5348
  550TMC3    C3 8211   2.464   3.409  12.500 -0.2614  0.2020  0.7629
  550TMC3    C4 8212   2.559   3.428  12.247  0.1517 -0.2033 -0.2909
  550TMC3    C5 8213   2.483   3.528  12.300  0.7432 -0.2261 -0.5824
  550TMC3    C6 8214   2.444   3.525  12.432  0.3355 -0.1109 -0.0386
  550TMC3     C 8215   2.646   3.193  12.263 -0.3537  0.4557 -0.2943
  550TMC3     O 8216   2.696   3.105  12.332 -0.0210  0.1066  0.3598
  550TMC3     H 8217   2.515   3.198  12.498 -0.3951  0.7638  2.3468
  550TMC3    H1 8218   2.596   3.439  12.145  1.2775  4.0068  0.5997
  550TMC3    H2 8219   2.383   3.605  12.474 -1.4397 -1.6004  0.2283
  550TMC3    C7 8220   2.381   3.579  12.220  0.5265 -0.4643 -0.0196
  550TMC3    C8 8221   2.368   3.398  12.611  0.4472 -0.1348  0.1975
  550TMC3    O1 8222   2.274   3.600  12.276  0.4991 -0.0119  0.1486
  550TMC3    O2 8223   2.365   3.494  12.689 -0.0005 -0.4790 -0.0485
  551TMC3    C1 8224   4.490   1.237  13.354 -0.3362 -0.3115  0.3226
  551TMC3    C2 8225   4.612   1.189  13.320 -0.0249  0.3734  0.2748
  551TMC3    C3 8226   4.701   1.135  13.419 -0.4314 -0.3107 -0.0278
  551TMC3    C4 8227   4.437   1.207  13.479 -0.3011 -0.7389  0.3581
  551TMC3    C5 8228   4.525   1.166  13.578  0.9109 -0.1863 -0.3201
  551TMC3    C6 8229   4.658   1.136  13.552 -0.6717 -0.1030 -0.0306
  551TMC3     C 8230   4.401   1.281  13.249 -0.4054 -0.2814 -0.2604
  551TMC3     O 8231   4.287   1.242  13.245  0.6676 -0.5467 -0.1512
  551TMC3     H 8232   4.647   1.193  13.217 -1.8221  0.9442 -0.3090
  551TMC3    H1 8233   4.338   1.247  13.497 -0.1373 -0.5221  0.7897
  551TMC3    H2 8234   4.718   1.116  13.640  1.6842 -1.3062 -1.9115
  551TMC3    C7 8235   4.505   1.221  13.711  0.1142 -0.3251  0.0968
  551TMC3    C8 8236   0.108   1.138  13.397  0.0624 -0.4728 -0.6114
  551TMC3    O1 8237   4.575   1.182  13.804 -0.0915 -0.0926  0.5717
  551TMC3    O2 8238   0.191   1.087  13.467 -0.1669  1.0625 -0.0347
  552MPD2     C 8239   1.450   3.362  14.510 -0.4534 -0.3674  0.6463
  552MPD2    C1 8240   1.442   3.227  14.539  0.0144  0.3195 -0.1664
  552MPD2    C2 8241   1.545   3.165  14.608 -0.1010 -0.7904  0.0344
  552MPD2    C3 8242   1.654   3.237  14.654  1.0781  0.2316 -0.3400
  552MPD2    C4 8243   1.670   3.367  14.614  0.1063  0.7078  0.6619
  552MPD2    C5 8244   1.571   3.429  14.547 -0.0771  0.2802  0.5285
  552MPD2     H 8245   1.543   3.056  14.614  0.6040 -0.8991 -1.6808
  552MPD2    H1 8246   1.748   3.437  14.643 -0.8986  2.6004 -1.1695
  552MPD2    H2 8247   1.373   3.419  14.460 -1.5437 -1.1224  1.4531
  552MPD2    H3 8248   1.574   3.536  14.529  1.1005  0.0901 -0.3684
  552MPD2     N 8249   1.766   3.174  14.728 -0.4726 -0.1501  0.8166
  552MPD2    H5 8250   1.846   3.229  14.757 -1.9814  1.7375  1.4122
  552MPD2    N1 8251   1.337   3.142  14.492 -0.4189 -0.0952 -0.0857
  552MPD2    H7 8252   1.345   3.040  14.493  1.0759  0.0380  1.2176
  553TMC3    C1 8253   1.148   3.077  14.378 -0.5988 -0.0441  0.0215
  553TMC3    C2 8254   1.157   3.063  14.243 -0.3324  0.1994  0.2970
  553TMC3    C3 8255   1.142   2.935  14.192 -0.4521  1.0872 -0.1271
  553TMC3    C4 8256   1.147   2.971  14.462 -0.2639  0.4513  0.2821
  553TMC3    C5 8257   1.145   2.847  14.404  0.1087  0.0876  0.4922
  553TMC3    C6 8258   1.129   2.826  14.269  1.0356  0.7892  0.3253
  553TMC3     C 8259   1.229   3.187  14.421 -0.0164  0.1824  0.3788
  553TMC3     O 8260   1.202   3.298  14.373 -0.1577  0.1421 -0.1551
  553TMC3     H 8261   1.180   3.150  14.182  0.5113 -0.0104  0.3170
  553TMC3    H1 8262   1.172   2.983  14.567 -3.0581  0.3668  0.9549
  553TMC3    H2 8263   1.140   2.729  14.221 -2.5064  0.0783  0.9337
  553TMC3    C7 8264   1.246   2.768  14.461  0.4614  0.5879  0.6551
  553TMC3    C8 8265   1.193   2.919  14.052 -0.5189 -0.3179  0.4117
  553TMC3    O1 8266   1.347   2.823  14.492 -0.2793 -0.4893 -0.3581
  553TMC3    O2 8267   1.255   3.015  14.007  0.5219  0.8238 -0.2187
  554TMC3    C1 8268   3.189   2.340  11.287  0.9827 -0.4139  0.1997
  554TMC3    C2 8269   3.220   2.249  11.190 -0.3670  0.3919  0.2601
  554TMC3    C3 8270   3.334   2.267  11.125  0.3704  0.2998 -0.3092
  554TMC3    C4 8271   3.280   2.431  11.326 -0.3171  0.0038  0.5683
  554TMC3    C5 8272   3.400   2.441  11.266  0.3691  0.2236  1.1610
  554TMC3    C6 8273   3.427   2.364  11.158  0.0220  0.3016 -0.0066
  554TMC3     C 8274   3.103   2.278  11.388 -0.2719 -0.3170  0.4128
  554TMC3     O 8275   3.020   2.199  11.352 -0.2241 -0.1684 -0.4194
  554TMC3     H 8276   3.145   2.176  11.165  0.0920 -0.1469  0.4495
  554TMC3    H1 8277   3.248   2.512  11.390 -3.3749  1.3931 -2.7215
  554TMC3    H2 8278   3.520   2.362  11.103  0.4747  1.0675  0.7385
  554TMC3    C7 8279   3.459   2.569  11.246  0.1796  0.0638 -0.2354
  554TMC3    C8 8280   3.333   2.252  10.982 -0.0318  0.3363  0.2970
  554TMC3    O1 8281   3.461   2.611  11.131 -0.1703 -0.1471  0.8201
  554TMC3    O2 8282   3.407   2.333  10.922 -0.3892  0.5611  0.2088
  555TMC3    C1 8283   2.416   1.843  15.402  0.3207 -0.4935 -0.1969
  555TMC3    C2 8284   2.395   1.911  15.520 -0.3058 -0.1169  0.4370
  555TMC3    C3 8285   2.360   1.835  15.624 -0.1150  0.2201  0.0573
  555TMC3    C4 8286   2.410   1.702  15.391  0.0248  0.1073  0.4473
  555TMC3    C5 8287   2.378   1.638  15.510  0.0964  0.1583  0.1795
  555TMC3    C6 8288   2.344   1.698  15.622  0.0805  0.2346 -0.3190
  555TMC3     C 8289   2.466   1.911  15.285 -0.5979 -0.0156  0.7394
  555TMC3     O 8290   2.544   2.004  15.304 -0.5667  0.0032  0.2526
  555TMC3     H 8291   2.415   2.017  15.529 -1.1497  0.2032 -1.5065
  555TMC3    H1 8292   2.412   1.652  15.295 -0.2290 -0.4580  0.7321
  555TMC3    H2 8293   2.311   1.634  15.703  0.4794  0.3913 -0.0328
  555TMC3    C7 8294   2.360   1.493  15.503 -0.0702 -0.4377  0.0680
  555TMC3    C8 8295   2.379   1.896  15.755  0.0031  0.2576  0.6814
  555TMC3    O1 8296   2.249   1.455  15.545  0.4775 -0.0568 -0.5561
  555TMC3    O2 8297   2.327   2.007  15.769  0.3937  0.6756  0.0528
  556MPD2     C 8298   0.863   3.950  10.537  0.5781 -0.9846  0.1484
  556MPD2    C1 8299   0.836   3.855  10.635  0.3819  0.6335 -0.7179
  556MPD2    C2 8300   0.768   3.741  10.595 -1.0917  0.4200  0.4401
  556MPD2    C3 8301   0.714   3.723  10.466  0.7626 -0.4403 -0.0883
  556MPD2    C4 8302   0.725   3.826  10.379 -0.7365  0.4104  1.0931
  556MPD2    C5 8303   0.807   3.935  10.406  0.7179 -0.0578 -0.7335
  556MPD2     H 8304   0.776   3.658  10.664 -1.1303  0.9732  1.1044
  556MPD2    H1 8305   0.681   3.823  10.279  2.3701  2.2491 -0.3336
  556MPD2    H2 8306   0.927   4.037  10.549  0.4740 -0.6640 -1.6815
  556MPD2    H3 8307   0.817   4.011  10.329  1.3808  0.3862 -0.2064
  556MPD2     N 8308   0.643   3.601  10.440  0.0179 -0.0273  0.1343
  556MPD2    H5 8309   0.649   3.532  10.514  4.1858  0.3372  0.1495
  556MPD2    N1 8310   0.899   3.854  10.764 -0.5655 -0.3684  0.7400
  556MPD2    H7 8311   0.896   3.762  10.806 -0.9470  0.0879  1.7279
  557TMC3    C1 8312   0.514   3.445  10.343  0.2764 -0.6690 -0.0317
  557TMC3    C2 8313   0.450   3.385  10.230  0.5176 -0.5278 -0.5210
  557TMC3    C3 8314   0.364   3.282  10.246 -0.1588 -0.2193  0.0316
  557TMC3    C4 8315   0.480   3.399  10.469 -0.7409 -0.1714  0.3688
  557TMC3    C5 8316   0.392   3.288  10.477 -0.7526  0.1031  0.4680
  557TMC3    C6 8317   0.328   3.232  10.368  0.0286 -0.4081 -0.1027
  557TMC3     C 8318   0.587   3.563  10.319  0.0446 -1.1544 -0.0444
  557TMC3     O 8319   0.573   3.628  10.214 -0.3682 -0.4745  0.3694
  557TMC3     H 8320   0.482   3.415  10.130 -1.6586  1.2241 -0.6981
  557TMC3    H1 8321   0.490   3.461  10.557 -2.0361  0.8719 -0.2099
  557TMC3    H2 8322   0.259   3.149  10.382  1.1842 -1.2752  0.4096
  557TMC3    C7 8323   0.345   3.258  10.609 -1.0670  0.8395  0.1353
  557TMC3    C8 8324   0.270   3.268  10.139 -0.5150  0.2575  0.0427
  557TMC3    O1 8325   0.229   3.213  10.616  0.1196 -0.1328  0.4995
  557TMC3    O2 8326   0.258   3.366  10.071 -0.2798 -0.3069 -0.4119
  558TMC3    C1 8327   2.674   1.504   9.945 -0.0192 -0.1783 -0.0065
  558TMC3    C2 8328   2.578   1.443  10.019  0.3028  0.6308 -0.5463
  558TMC3    C3 8329   2.465   1.512  10.031  0.3149  1.0773  0.3089
  558TMC3    C4 8330   2.659   1.621   9.870 -0.6023 -0.2888 -0.5978
  558TMC3    C5 8331   2.537   1.678   9.880 -0.1534 -0.5276 -0.3299
  558TMC3    C6 8332   2.441   1.622   9.957  0.3405  0.0249 -0.7853
  558TMC3     C 8333   2.808   1.456   9.979 -0.2673  0.2899  0.0669
  558TMC3     O 8334   2.895   1.542   9.984 -0.0334  0.6211  0.6697
  558TMC3     H 8335   2.592   1.347  10.067  0.5066  1.2462  0.6212
  558TMC3    H1 8336   2.739   1.670   9.815 -0.8754  0.5503 -0.2550
  558TMC3    H2 8337   2.340   1.660   9.957 -0.3253 -1.7514 -1.9758
  558TMC3    C7 8338   2.493   1.797   9.808  0.2170  0.1374 -0.6107
  558TMC3    C8 8339   2.376   1.490  10.149  0.8041 -0.2089  0.4126
  558TMC3    O1 8340   2.387   1.836   9.851 -0.3367  0.1971  0.8437
  558TMC3    O2 8341   2.272   1.550  10.147  0.0030  0.4934 -0.3892
  559MPD2     C 8342   3.194   1.648  10.403 -0.4210 -0.0708 -0.1199
  559MPD2    C1 8343   3.138   1.569  10.498 -0.2911  0.0565 -0.3197
  559MPD2    C2 8344   3.219   1.509  10.588  0.2118  0.8080 -0.7019
  559MPD2    C3 8345   3.351   1.544  10.603  0.5868 -0.5667 -0.9365
  559MPD2    C4 8346   3.404   1.639  10.517 -0.5922  0.5709  0.2032
  559MPD2    C5 8347   3.326   1.678  10.419  0.2270  0.0881  0.0789
  559MPD2     H 8348   3.185   1.454  10.675  0.0312 -1.0328 -1.9384
  559MPD2    H1 8349   3.508   1.667  10.524 -0.3369 -0.2200 -0.4978
  559MPD2    H2 8350   3.138   1.717  10.340  0.2164  2.0596  1.6275
  559MPD2    H3 8351   3.377   1.748  10.353 -0.4752 -0.0107 -0.5643
  559MPD2     N 8352   3.418   1.489  10.713 -0.4589 -0.0836  0.3026
  559MPD2    H5 8353   3.369   1.419  10.767  0.0440  0.5593  1.5874
  559MPD2    N1 8354   2.995   1.564  10.511 -0.5742 -0.1649  0.3346
  559MPD2    H7 8355   2.949   1.621  10.442  0.1718 -0.2889 -0.2659
  560TMC3    C1 8356   3.594   1.437  10.858 -0.3945  0.3609  0.2285
  560TMC3    C2 8357   3.517   1.326  10.870 -0.1908  0.7422 -0.6366
  560TMC3    C3 8358   3.463   1.303  10.990  0.0723 -0.3260 -0.4549
  560TMC3    C4 8359   3.651   1.512  10.961  0.4292  0.7580  0.5987
  560TMC3    C5 8360   3.613   1.456  11.084 -0.4422 -0.0886  0.7374
  560TMC3    C6 8361   3.517   1.361  11.100 -0.0630 -0.1292  0.1896
  560TMC3     C 8362   3.550   1.526  10.752 -0.0236  0.0115 -0.8628
  560TMC3     O 8363   3.615   1.624  10.718 -0.1258 -0.3449  0.4456
  560TMC3     H 8364   3.475   1.276  10.783  1.3633 -1.0312 -0.3862
  560TMC3    H1 8365   3.707   1.604  10.950 -0.2428  1.0452 -0.3850
  560TMC3    H2 8366   3.471   1.352  11.198  1.8226  0.9876  1.1656
  560TMC3    C7 8367   3.660   1.503  11.214 -0.3699 -0.5159  0.2689
  560TMC3    C8 8368   3.321   1.274  10.971 -0.2628 -0.2657  0.7381
  560TMC3    O1 8369   3.652   1.428  11.310 -0.3359  0.1229 -0.9988
  560TMC3    O2 8370   3.280   1.266  10.853 -0.6218  0.0326  0.0779
  561TMC3    C1 8371   0.764   1.431  11.027  0.7661  0.2209  0.8375
  561TMC3    C2 8372   0.668   1.347  11.069  0.1530 -0.6139  1.0496
  561TMC3    C3 8373   0.625   1.362  11.200 -0.0791  0.6959  0.0804
  561TMC3    C4 8374   0.809   1.535  11.098  0.4068 -0.4408 -0.1604
  561TMC3    C5 8375   0.756   1.548  11.225  0.1318 -0.0732  0.4191
  561TMC3    C6 8376   0.666   1.462  11.284  0.3327  0.1375  0.2587
  561TMC3     C 8377   0.819   1.403  10.898 -0.2967 -0.0908  0.3267
  561TMC3     O 8378   0.745   1.400  10.802  0.4085  0.3302 -0.4359
  561TMC3     H 8379   0.636   1.267  11.002 -0.4252 -1.2042  2.0299
  561TMC3    H1 8380   0.890   1.597  11.061  0.1194  0.4817  0.7322
  561TMC3    H2 8381   0.629   1.481  11.384  0.8318 -0.0068  0.4681
  561TMC3    C7 8382   0.809   1.650  11.316  0.4936 -0.1185 -0.2515
  561TMC3    C8 8383   0.601   1.234  11.267  0.3893 -0.1150  0.5095
  561TMC3    O1 8384   0.730   1.706  11.391 -0.1354  0.7169  0.4002
  561TMC3    O2 8385   0.626   1.136  11.196 -0.4732 -0.2601 -0.1837
  562TMC3    C1 8386   2.296   2.062  16.563 -0.5989  0.0874 -0.2790
  562TMC3    C2 8387   2.247   2.189  16.554 -0.6860 -0.7494  0.3362
  562TMC3    C3 8388   2.176   2.236  16.447  0.8758  0.7626  0.2422
  562TMC3    C4 8389   2.267   1.985  16.451  0.0994  0.2960  0.4086
  562TMC3    C5 8390   2.181   2.029  16.353 -0.4031 -0.3627 -0.1136
  562TMC3    C6 8391   2.138   2.161  16.341 -0.4713  0.4318  0.2576
  562TMC3     C 8392   2.378   2.002  16.669 -0.1214 -0.2452  0.5177
  562TMC3     O 8393   2.463   1.915  16.637  0.1313 -0.7342  0.0640
  562TMC3     H 8394   2.272   2.259  16.632  0.6359 -0.4032 -0.4023
  562TMC3    H1 8395   2.293   1.880  16.459 -1.9831 -0.2894 -0.6449
  562TMC3    H2 8396   2.070   2.194  16.263  0.7657  1.3606 -0.4283
  562TMC3    C7 8397   2.139   1.935  16.248  0.6666 -0.2111 -0.3839
  562TMC3    C8 8398   2.103   2.363  16.476 -0.1777  0.7912 -0.2456
  562TMC3    O1 8399   2.095   1.981  16.145  0.7518 -0.7317 -0.3368
  562TMC3    O2 8400   2.091   2.409  16.585  0.4249  0.1481 -0.3804
  563MPD2     C 8401   4.383   3.378  15.538  0.3264  0.1576  0.2564
  563MPD2    C1 8402   4.393   3.422  15.671  0.3740 -0.0912 -1.1232
  563MPD2    C2 8403   4.509   3.388  15.739 -0.0395 -0.4391 -0.0755
  563MPD2    C3 8404   4.599   3.299  15.682  0.6810  0.4524  0.6217
  563MPD2    C4 8405   4.579   3.250  15.556 -0.1150  0.0506 -0.1559
  563MPD2    C5 8406   4.472   3.295  15.482 -0.4616  0.6381  0.6692
  563MPD2     H 8407   4.526   3.425  15.839  2.5311  2.5157 -1.5900
  563MPD2    H1 8408   4.651   3.182  15.512  1.3208  2.6279 -1.8074
  563MPD2    H2 8409   4.289   3.412  15.496  0.0538  0.6097  1.2227
  563MPD2    H3 8410   4.458   3.261  15.380 -0.6529  0.7599  0.6549
  563MPD2     N 8411   4.706   3.259  15.768  0.2608  0.3643 -0.2523
  563MPD2    H5 8412   4.719   3.310  15.855  2.0052  1.2886 -1.0480
  563MPD2    N1 8413   4.285   3.495  15.732  0.8998  0.4392 -0.3862
  563MPD2    H7 8414   4.194   3.507  15.689 -0.2962  0.1730  2.0254
  564TMC3    C1 8415   4.184   3.519  15.951  0.1342 -0.0737  0.2719
  564TMC3    C2 8416   4.123   3.398  15.937  0.3962 -0.1063 -0.2605
  564TMC3    C3 8417   4.091   3.322  16.042 -0.4445  0.1054  0.3597
  564TMC3    C4 8418   4.213   3.568  16.075  0.0361  0.5022 -0.6280
  564TMC3    C5 8419   4.197   3.483  16.180  0.0908  0.3868  0.8275
  564TMC3    C6 8420   4.133   3.363  16.167  0.0707  0.6240 -0.3671
  564TMC3     C 8421   4.300   3.543  15.858  0.8506 -0.0920 -0.2382
  564TMC3     O 8422   4.403   3.580  15.908  0.4795 -0.5141  0.6796
  564TMC3     H 8423   4.108   3.358  15.837  0.5233  1.1520 -0.7777
  564TMC3    H1 8424   4.274   3.657  16.084 -0.9433  1.2597 -1.4593
  564TMC3    H2 8425   4.126   3.287  16.244  0.6685  1.3443  0.4044
  564TMC3    C7 8426   4.276   3.517  16.294  0.3902 -0.1381  0.1719
  564TMC3    C8 8427   4.105   3.184  16.024  0.5636  0.0308 -0.7628
  564TMC3    O1 8428   4.251   3.632  16.331 -0.3557  0.1661 -0.9769
  564TMC3    O2 8429   4.044   3.107  16.100 -0.5677  0.3485  0.3723
  565TMC3    C1 8430   0.175   0.213  10.550  0.2560 -0.1656 -0.0841
  565TMC3    C2 8431   0.260   0.120  10.605  0.4048  0.1615 -0.2433
  565TMC3    C3 8432   0.242   4.725  10.572  0.0068  0.1272 -0.2475
  565TMC3    C4 8433   0.092   0.184  10.451  0.3658 -0.0825  0.0647
  565TMC3    C5 8434   0.071   0.052  10.423  0.1591 -0.6434  0.8333
  565TMC3    C6 8435   0.149   4.687  10.476 -0.3244  1.0054 -0.1209
  565TMC3     C 8436   0.198   0.357  10.563 -0.2000 -0.2434 -0.0764
  565TMC3     O 8437   0.155   0.434  10.479 -0.0804 -0.2127 -0.3011
  565TMC3     H 8438   0.345   0.144  10.667 -0.1768  1.8940 -0.0997
  565TMC3    H1 8439   0.037   0.258  10.394 -2.5375 -2.5830 -0.3892
  565TMC3    H2 8440   0.118   4.584  10.470  1.3967  0.4479  0.5369
  565TMC3    C7 8441   4.709   0.023  10.321 -0.3326  0.1289  0.0847
  565TMC3    C8 8442   0.339   4.632  10.624  0.4807  0.1393 -0.2442
  565TMC3    O1 8443   4.635   0.113  10.287  0.1215 -0.3301 -0.0972
  565TMC3    O2 8444   0.407   4.663  10.721  0.2403 -0.1284 -0.0201
  566MPD2     C 8445   1.488   1.415  14.337  0.2525  0.2285 -0.4953
  566MPD2    C1 8446   1.529   1.282  14.328  0.0118 -0.3921 -0.4762
  566MPD2    C2 8447   1.475   1.199  14.239 -0.0680 -0.2633  1.0068
  566MPD2    C3 8448   1.375   1.244  14.160  0.2414 -0.0683  0.1787
  566MPD2    C4 8449   1.322   1.365  14.177 -0.0747  0.5837  0.0057
  566MPD2    C5 8450   1.376   1.449  14.262  0.1377  0.0641 -0.7553
  566MPD2     H 8451   1.526   1.106  14.218  0.4603  0.5094 -1.2447
  566MPD2    H1 8452   1.243   1.403  14.114 -0.6158 -1.5615 -0.6028
  566MPD2    H2 8453   1.544   1.495  14.384  1.1320 -0.6388 -0.0588
  566MPD2    H3 8454   1.347   1.553  14.271 -1.1940 -0.4275  0.6677
  566MPD2     N 8455   1.327   1.171  14.051  0.0342  0.6239  0.3278
  566MPD2    H5 8456   1.270   1.225  13.987 -0.6043  0.1812  0.5291
  566MPD2    N1 8457   1.643   1.246  14.392 -0.1331  0.2521 -0.3682
  566MPD2    H7 8458   1.713   1.316  14.413 -0.3852  1.3329 -3.0580
  567TMC3    C1 8459   1.830   1.119  14.434 -0.5192  0.1044 -0.7857
  567TMC3    C2 8460   1.897   1.173  14.324  0.5663 -0.1456 -0.5929
  567TMC3    C3 8461   2.022   1.124  14.290 -0.3035 -0.5007  0.4393
  567TMC3    C4 8462   1.889   1.021  14.505  0.3419  0.2124 -1.0063
  567TMC3    C5 8463   2.016   0.982  14.475  0.2469 -0.7381  0.3119
  567TMC3    C6 8464   2.092   1.036  14.375  0.3380  0.5039 -0.1012
  567TMC3     C 8465   1.685   1.115  14.413 -0.2603  0.5604 -0.0768
  567TMC3     O 8466   1.629   1.022  14.470 -0.5433 -0.3747  0.0358
  567TMC3     H 8467   1.853   1.239  14.250 -2.5980  0.6246  1.9597
  567TMC3    H1 8468   1.829   0.974  14.582  0.7914  0.7362 -0.3473
  567TMC3    H2 8469   2.196   1.011  14.356 -0.3324 -1.3120 -1.3922
  567TMC3    C7 8470   2.093   0.975  14.598 -0.0668  0.2382 -0.4333
  567TMC3    C8 8471   2.095   1.203  14.197 -0.6824  0.7685  0.1554
  567TMC3    O1 8472   2.208   0.927  14.597 -0.0688 -0.5787 -0.2021
  567TMC3    O2 8473   2.038   1.234  14.094  0.4411  0.1292 -0.0167
  568MPD2     C 8474   3.805   1.881  16.383 -0.7211  0.4286 -0.1529
  568MPD2    C1 8475   3.872   1.934  16.490 -0.4343 -0.1847 -0.0529
  568MPD2    C2 8476   3.960   2.040  16.479 -0.3472 -0.3000  0.3151
  568MPD2    C3 8477   3.989   2.094  16.355  0.2369  0.3218 -0.0162
  568MPD2    C4 8478   3.924   2.037  16.244  0.9082 -0.2834 -0.0413
  568MPD2    C5 8479   3.834   1.938  16.260 -0.0537  0.1814 -0.1517
  568MPD2     H 8480   3.999   2.090  16.567  1.6215 -2.3149  0.6081
  568MPD2    H1 8481   3.934   2.074  16.142  3.6870 -0.2342  0.2596
  568MPD2    H2 8482   3.741   1.794  16.390 -0.3585  0.0631 -1.4152
  568MPD2    H3 8483   3.783   1.901  16.172 -1.9568 -0.8465  1.3855
  568MPD2     N 8484   4.079   2.206  16.344 -0.7426 -0.5514  0.6055
  568MPD2    H5 8485   4.122   2.228  16.433  0.9375  1.3598 -0.6805
  568MPD2    N1 8486   3.841   1.879  16.617 -0.2766 -0.7845  0.4538
  568MPD2    H7 8487   3.752   1.829  16.619  0.4217 -2.0542 -0.1285
  569TMC3    C1 8488   4.205   2.388  16.252  0.0376  1.0962 -0.3165
  569TMC3    C2 8489   4.180   2.467  16.363 -0.8600 -0.0588 -0.0473
  569TMC3    C3 8490   4.243   2.582  16.377 -0.3937 -0.7526 -0.4776
  569TMC3    C4 8491   4.305   2.418  16.169  0.1809 -0.2959 -0.2364
  569TMC3    C5 8492   4.381   2.533  16.192  0.2158 -0.5327  0.4115
  569TMC3    C6 8493   4.345   2.625  16.292 -0.2698 -0.0493  0.6695
  569TMC3     C 8494   4.131   2.263  16.231 -0.8953 -0.2678  0.0815
  569TMC3     O 8495   4.125   2.222  16.114 -0.4543 -0.0579 -0.3132
  569TMC3     H 8496   4.088   2.450  16.419 -0.2818 -0.6912  0.6985
  569TMC3    H1 8497   4.326   2.358  16.082  0.6983  0.4364 -0.6133
  569TMC3    H2 8498   4.403   2.714  16.314  1.0274 -0.8278  0.4327
  569TMC3    C7 8499   4.414   2.591  16.068  0.1874 -0.1118  0.1835
  569TMC3    C8 8500   4.168   2.686  16.444 -0.5256  0.5164  0.7340
  569TMC3    O1 8501   4.508   2.558  16.002  0.6878 -0.1028  0.1549
  569TMC3    O2 8502   4.052   2.674  16.460 -0.2957  0.1768 -0.5627
  570TMC3    C1 8503   3.246   1.059  15.854  0.0258 -0.3622  0.5907
  570TMC3    C2 8504   3.349   1.067  15.760 -0.4615  0.0016 -1.0871
  570TMC3    C3 8505   3.424   1.180  15.750  0.2294 -0.1255  0.3199
  570TMC3    C4 8506   3.211   1.167  15.927 -0.4741 -0.0820  0.4303
  570TMC3    C5 8507   3.293   1.274  15.917 -0.3932 -0.4397 -0.1090
  570TMC3    C6 8508   3.402   1.285  15.839 -0.0149  0.5246 -0.4071
  570TMC3     C 8509   3.186   0.932  15.887  0.3171 -0.1362  0.3909
  570TMC3     O 8510   3.198   0.841  15.810 -0.1384 -0.2863  0.6239
  570TMC3     H 8511   3.364   0.987  15.689 -2.5433  1.7561 -3.4679
  570TMC3    H1 8512   3.126   1.171  15.993 -0.1217 -0.2438  0.8991
  570TMC3    H2 8513   3.455   1.378  15.827 -1.4907  1.7140  2.4218
  570TMC3    C7 8514   3.302   1.342  16.044  0.0945  0.2864 -0.1874
  570TMC3    C8 8515   3.537   1.204  15.663 -0.0056  0.3000  0.3966
  570TMC3    O1 8516   3.305   1.269  16.144 -0.2301 -0.1404 -0.0860
  570TMC3    O2 8517   3.596   1.313  15.666 -0.8397  0.9262 -0.6800
  571MPD2     C 8518   0.454   2.935   0.606 -0.2288 -0.4683 -0.2050
  571MPD2    C1 8519   0.538   2.839   0.658 -0.0012  0.0751  0.2662
  571MPD2    C2 8520   0.675   2.861   0.643  0.3747  0.3027  0.0277
  571MPD2    C3 8521   0.723   2.970   0.574  0.0809  0.4682  0.0369
  571MPD2    C4 8522   0.638   3.064   0.526 -0.1929  0.2841  0.5665
  571MPD2    C5 8523   0.504   3.048   0.542  0.7945 -0.1081 -0.6865
  571MPD2     H 8524   0.739   2.780   0.677 -1.7347 -0.7166  1.5488
  571MPD2    H1 8525   0.675   3.150   0.471  4.0622 -1.7737  0.2401
  571MPD2    H2 8526   0.349   2.915   0.590  0.0379 -1.2798 -0.9441
  571MPD2    H3 8527   0.425   3.104   0.493  1.5345  0.5327 -1.1356
  571MPD2     N 8528   0.861   2.994   0.551 -0.1023 -1.3900 -0.3593
  571MPD2    H5 8529   0.887   3.085   0.514 -1.4554 -1.0239 -0.4121
  571MPD2    N1 8530   0.491   2.723   0.728  0.1465 -0.3730  0.0278
  571MPD2    H7 8531   0.558   2.650   0.749 -1.6061 -1.8665  0.3540
  572TMC3    C1 8532   1.097   2.968   0.597 -0.2459  1.0397 -0.4957
  572TMC3    C2 8533   1.201   2.871   0.586  0.8440 -0.1955 -0.7384
  572TMC3    C3 8534   1.325   2.911   0.556 -0.4437  0.2572  0.1947
  572TMC3    C4 8535   1.121   3.101   0.567  0.9068  0.5447 -0.4984
  572TMC3    C5 8536   1.254   3.139   0.545  0.4061 -0.0897 -0.4650
  572TMC3    C6 8537   1.357   3.044   0.533 -0.6497 -0.5627 -0.1065
  572TMC3     C 8538   0.962   2.911   0.590  0.1476  0.6868 -0.6384
  572TMC3     O 8539   0.952   2.791   0.619 -0.4098  0.3939 -0.3668
  572TMC3     H 8540   1.176   2.766   0.576  0.9619  0.2023 -5.0664
  572TMC3    H1 8541   1.044   3.177   0.568 -0.4291 -0.8421  1.8748
  572TMC3    H2 8542   1.449   3.075   0.484  0.1580 -1.3870  0.8819
  572TMC3    C7 8543   1.278   3.255   0.468  0.1371 -0.6281  0.3108
  572TMC3    C8 8544   1.442   2.826   0.579 -0.5924 -0.1473  0.1485
  572TMC3    O1 8545   1.192   3.293   0.393  0.1555 -0.1588  0.6348
  572TMC3    O2 8546   1.542   2.861   0.522 -0.3128  0.1622 -0.0018
  573MPD2     C 8547   2.165   2.552   0.551 -0.5935 -0.1676 -0.3791
  573MPD2    C1 8548   2.114   2.677   0.568  0.3259 -0.3364  0.6368
  573MPD2    C2 8549   2.017   2.724   0.472  0.1922 -0.5811 -0.7197
  573MPD2    C3 8550   1.968   2.643   0.372 -0.5362 -0.9275 -0.0346
  573MPD2    C4 8551   2.022   2.514   0.357 -0.5716 -0.2203 -0.0902
  573MPD2    C5 8552   2.113   2.466   0.455  0.4058 -0.1916 -0.6973
  573MPD2     H 8553   1.955   2.809   0.495  1.3287  0.1857 -0.5068
  573MPD2    H1 8554   1.989   2.450   0.276  1.4798 -1.2186 -0.1553
  573MPD2    H2 8555   2.245   2.509   0.610 -0.7189 -1.0335 -0.8255
  573MPD2    H3 8556   2.162   2.370   0.440  1.5060  0.3013 -0.2102
  573MPD2     N 8557   1.857   2.675   0.295  0.2827  0.6616  0.4797
  573MPD2    H5 8558   1.820   2.599   0.239 -2.5422  1.6661  0.9732
  573MPD2    N1 8559   2.157   2.752   0.677 -0.3089 -0.1327 -0.2848
  573MPD2    H7 8560   2.226   2.699   0.730 -1.3200  0.1938  1.3875
  574TMC3    C1 8561   1.660   2.786   0.237 -0.0914  0.2752 -0.3058
  574TMC3    C2 8562   1.604   2.898   0.202  0.4896 -0.4669 -0.4572
  574TMC3    C3 8563   1.464   2.900   0.191  0.0197  0.9966  0.1688
  574TMC3    C4 8564   1.587   2.670   0.274 -0.5770 -0.0978 -0.1554
  574TMC3    C5 8565   1.449   2.675   0.260  0.8338  0.4082 -0.1575
  574TMC3    C6 8566   1.389   2.788   0.217  0.2980  0.2007  0.2585
  574TMC3     C 8567   1.799   2.792   0.278  0.1849  0.1958 -0.1492
  574TMC3     O 8568   1.840   2.904   0.309  0.1379  0.0252 -0.9297
  574TMC3     H 8569   1.665   2.988   0.199  1.8282 -1.3478  0.3887
  574TMC3    H1 8570   1.636   2.588   0.326  1.6310  0.9320 -0.6024
  574TMC3    H2 8571   1.281   2.789   0.216  0.3291 -0.2422 -3.0551
  574TMC3    C7 8572   1.354   2.574   0.306  0.1048  0.0929  0.2986
  574TMC3    C8 8573   1.393   3.016   0.140  0.2005 -0.5669  0.2410
  574TMC3    O1 8574   1.244   2.599   0.351 -0.3229  0.0351 -0.0572
  574TMC3    O2 8575   1.274   3.006   0.103 -0.6832  0.3000  0.3435
  575TMC3    C1 8576   0.844   4.328  11.214 -0.3057  0.1917 -0.2399
  575TMC3    C2 8577   0.813   4.198  11.246  0.8180 -0.3778 -0.2540
  575TMC3    C3 8578   0.757   4.126  11.144 -0.0280  0.3774 -0.4691
  575TMC3    C4 8579   0.827   4.383  11.091 -0.6571  0.6456 -0.4321
  575TMC3    C5 8580   0.780   4.297  10.994  0.1996 -0.7946  1.4562
  575TMC3    C6 8581   0.746   4.171  11.013  0.0851 -1.2266 -0.2689
  575TMC3     C 8582   0.901   4.399  11.317  0.3638  0.9940  0.7126
  575TMC3     O 8583   0.861   4.370  11.430 -0.2251  0.2930  0.1365
  575TMC3     H 8584   0.817   4.157  11.346 -0.8040  0.2156  0.0558
  575TMC3    H1 8585   0.826   4.488  11.064  2.6809  0.3218 -1.7831
  575TMC3    H2 8586   0.695   4.108  10.941  0.5366  0.0103 -1.6717
  575TMC3    C7 8587   0.716   4.363  10.886  1.1970 -0.6197 -0.3906
  575TMC3    C8 8588   0.709   3.992  11.177 -0.1415  0.4842 -0.5201
  575TMC3    O1 8589   0.670   4.475  10.898 -0.6635  0.3832  0.4824
  575TMC3    O2 8590   0.755   3.957  11.283 -0.3095 -0.7219 -0.1980
  576MPD2     C 8591   0.596   0.923  12.705  0.6746 -0.9272 -0.1308
  576MPD2    C1 8592   0.469   0.969  12.675 -0.3024  0.8210  0.0984
  576MPD2    C2 8593   0.362   0.955  12.760  0.1649  0.2835  0.2801
  576MPD2    C3 8594   0.381   0.897  12.881 -0.6314 -0.0745 -0.3105
  576MPD2    C4 8595   0.506   0.853  12.913 -0.4744 -0.2873 -0.5570
  576MPD2    C5 8596   0.611   0.875  12.825 -0.4906  0.3250 -0.0597
  576MPD2     H 8597   0.262   0.989  12.734  0.2605  0.5821  0.3059
  576MPD2    H1 8598   0.527   0.807  13.009  0.2290 -2.4753 -1.7640
  576MPD2    H2 8599   0.683   0.935  12.641  0.9376 -0.7120  0.2730
  576MPD2    H3 8600   0.713   0.844  12.845 -0.5813 -0.6774 -1.1875
  576MPD2     N 8601   0.265   0.875  12.960 -0.2342 -0.1303  0.4538
  576MPD2    H5 8602   0.185   0.925  12.922 -0.5386 -0.1357  1.0819
  576MPD2    N1 8603   0.440   1.030  12.552 -0.4384 -0.0369 -0.3988
  576MPD2    H7 8604   0.351   1.077  12.542 -1.7118 -2.4832 -0.6886
  577TMC3    C1 8605   0.456   1.086  12.314 -0.0946  0.0620  0.1578
  577TMC3    C2 8606   0.511   1.054  12.197 -0.2288  0.4228  0.2321
  577TMC3    C3 8607   0.441   1.069  12.079 -0.5046  0.2999  0.6655
  577TMC3    C4 8608   0.333   1.139  12.317 -0.3977  0.7586 -0.0085
  577TMC3    C5 8609   0.263   1.149  12.198  0.3785 -0.3092 -0.1276
  577TMC3    C6 8610   0.316   1.116  12.079 -0.2020 -0.0061  0.9424
  577TMC3     C 8611   0.521   1.030  12.439  0.0682  0.2497 -0.1406
  577TMC3     O 8612   0.633   0.982  12.424  0.9461 -0.1761  0.4303
  577TMC3     H 8613   0.612   1.015  12.191 -0.1027  0.5366  1.5947
  577TMC3    H1 8614   0.299   1.173  12.414  0.6831  0.5952  0.4271
  577TMC3    H2 8615   0.259   1.122  11.988  0.2380 -1.6992  0.5561
  577TMC3    C7 8616   0.118   1.162  12.223 -0.6843  0.2217  1.0541
  577TMC3    C8 8617   0.490   0.998  11.962 -1.3604  0.0536  0.8909
  577TMC3    O1 8618   0.091   1.121  12.335 -0.4191  0.0279  0.6651
  577TMC3    O2 8619   0.550   0.896  11.985  0.0168  0.2099 -0.4948
  578MPD2     C 8620   2.335   0.842   1.707 -0.1960  0.2478  0.5745
  578MPD2    C1 8621   2.419   0.822   1.607 -0.2370 -0.2194  0.5172
  578MPD2    C2 8622   2.543   0.759   1.636 -0.5225  0.2124  0.4258
  578MPD2    C3 8623   2.578   0.728   1.768 -0.8846  0.5714 -0.0941
  578MPD2    C4 8624   2.488   0.755   1.868  0.4196 -0.4419  0.0754
  578MPD2    C5 8625   2.367   0.813   1.842  1.0210 -0.7352 -0.3059
  578MPD2     H 8626   2.613   0.733   1.557  1.0282  2.9400  0.9148
  578MPD2    H1 8627   2.519   0.735   1.969  2.3719  0.2280 -0.3978
  578MPD2    H2 8628   2.238   0.884   1.685 -0.7860 -1.4566 -0.0757
  578MPD2    H3 8629   2.305   0.833   1.928 -0.4257  0.4473 -1.6250
  578MPD2     N 8630   2.700   0.671   1.786 -0.2838  0.0706 -0.1468
  578MPD2    H5 8631   2.745   0.643   1.700 -0.6569 -0.6349 -0.1146
  578MPD2    N1 8632   2.372   0.848   1.472  0.2129 -0.0049  0.2741
  578MPD2    H7 8633   2.277   0.883   1.465  0.3113  0.2580  0.2586
  579TMC3    C1 8634   2.899   0.593   1.889  0.4210  0.4370 -0.0527
  579TMC3    C2 8635   2.999   0.655   1.962 -0.1203 -0.3400  0.3483
  579TMC3    C3 8636   3.124   0.621   1.920 -0.2882 -0.8168  0.4470
  579TMC3    C4 8637   2.927   0.519   1.777 -0.2695  0.0006 -0.3359
  579TMC3    C5 8638   3.056   0.497   1.742  0.7775 -0.4426 -0.1875
  579TMC3    C6 8639   3.160   0.551   1.818  0.0020 -0.0256  0.0485
  579TMC3     C 8640   2.764   0.641   1.906  0.0038 -0.5269  0.7958
  579TMC3     O 8641   2.730   0.669   2.021  0.3208  0.2122 -0.5889
  579TMC3     H 8642   2.979   0.726   2.042 -2.3143  0.2340 -0.7179
  579TMC3    H1 8643   2.845   0.466   1.731  0.7936 -0.0624 -2.1688
  579TMC3    H2 8644   3.260   0.536   1.780 -0.0756  1.9328 -0.9397
  579TMC3    C7 8645   3.089   0.416   1.619  0.5665 -0.5430 -0.5888
  579TMC3    C8 8646   3.226   0.668   2.009 -0.0493  0.0192  0.1100
  579TMC3    O1 8647   3.205   0.383   1.613  0.3601  0.1703 -0.1443
  579TMC3    O2 8648   3.204   0.672   2.131 -0.3101  0.2030 -0.7067
  580TMC3    C1 8649   2.840   0.182  12.004 -0.2463 -0.5239  0.2446
  580TMC3    C2 8650   2.775   0.160  11.882 -0.6435  0.7867 -0.7021
  580TMC3    C3 8651   2.776   0.031  11.834 -0.6580  0.5174  0.4654
  580TMC3    C4 8652   2.899   0.079  12.070  0.2154  0.7745  0.9020
  580TMC3    C5 8653   2.904   4.690  12.014 -0.0321 -0.9409  0.2378
  580TMC3    C6 8654   2.831   4.657  11.898  0.2712  0.4381  0.6382
  580TMC3     C 8655   2.881   0.319  12.027  0.1091 -0.2608  0.5910
  580TMC3     O 8656   2.835   0.405  11.953 -0.1237  0.2126 -0.3691
  580TMC3     H 8657   2.719   0.239  11.833 -0.1957  2.0463  0.8433
  580TMC3    H1 8658   2.974   0.101  12.146  0.5598  0.8179  0.5538
  580TMC3    H2 8659   2.836   4.564  11.844 -1.6852  0.3253  0.6645
  580TMC3    C7 8660   2.958   4.587  12.095  0.4659  0.1304 -0.1990
  580TMC3    C8 8661   2.767   0.011  11.692 -0.5173 -0.2173  0.1514
  580TMC3    O1 8662   2.965   4.624  12.210 -0.6865 -0.3814 -0.1738
  580TMC3    O2 8663   2.744   4.634  11.655 -0.4680 -0.2057  0.0069
  581MPD2     C 8664   0.774   4.573  15.135 -0.3840  0.0681  0.2383
  581MPD2    C1 8665   0.655   4.505  15.115  0.5477  0.1925 -0.3275
  581MPD2    C2 8666   0.546   4.571  15.069  0.1229  0.2130 -0.0693
  581MPD2    C3 8667   0.556   4.702  15.021 -0.1523  0.0378  0.2645
  581MPD2    C4 8668   0.673   0.035  15.047  0.2650  0.0897  0.3739
  581MPD2    C5 8669   0.782   4.704  15.098  0.5169  0.5752 -0.3384
  581MPD2     H 8670   0.451   4.522  15.080  0.3487 -0.4610 -1.1684
  581MPD2    H1 8671   0.674   0.142  15.030 -0.5229 -0.0472 -0.5377
  581MPD2    H2 8672   0.861   4.531  15.185 -1.2173 -0.5099  1.2029
  581MPD2    H3 8673   0.876   0.024  15.099  2.0415 -2.0124 -2.8858
  581MPD2     N 8674   0.445   0.034  14.966 -0.4724  0.3116  0.5558
  581MPD2    H5 8675   0.451   0.135  14.976 -1.5990  0.5834 -1.3845
  581MPD2    N1 8676   0.625   4.377  15.164  0.3812  0.8295 -0.2845
  581MPD2    H7 8677   0.528   4.349  15.156  0.6370 -0.1371  0.0050
  582TMC3    C1 8678   0.628   4.245  15.346 -0.3324 -0.1839 -0.4073
  582TMC3    C2 8679   0.668   4.284  15.471 -1.2646 -0.1240 -0.2469
  582TMC3    C3 8680   0.579   4.348  15.553 -0.1275 -0.7531 -0.5148
  582TMC3    C4 8681   0.493   4.247  15.315 -0.3094 -0.0734  0.5533
  582TMC3    C5 8682   0.409   4.323  15.391 -0.4655  0.2603  0.4426
  582TMC3    C6 8683   0.450   4.373  15.509  0.3536  0.1136 -0.1335
  582TMC3     C 8684   0.708   4.306  15.247  0.1060  0.8052  0.2976
  582TMC3     O 8685   0.827   4.315  15.268 -0.2034  0.0927  0.4526
  582TMC3     H 8686   0.774   4.281  15.493 -1.1723 -0.4527 -0.7548
  582TMC3    H1 8687   0.464   4.197  15.224  1.8769  1.4143 -0.9591
  582TMC3    H2 8688   0.387   4.437  15.569 -1.1276 -0.5788 -0.9656
  582TMC3    C7 8689   0.307   4.390  15.310 -0.2374  0.1359  0.2974
  582TMC3    C8 8690   0.605   4.393  15.688 -0.2083  0.3944 -0.2543
  582TMC3    O1 8691   0.262   4.335  15.211 -0.5648 -0.1208  0.5050
  582TMC3    O2 8692   0.513   4.460  15.741 -0.2374 -0.1783  0.2776
  583MPD2     C 8693   0.606   1.652  16.857 -0.0796  0.3487 -0.0802
  583MPD2    C1 8694   0.574   1.763  16.783 -0.1031 -0.2128 -0.2000
  583MPD2    C2 8695   0.513   1.870  16.852  0.6720 -0.2551 -0.4338
  583MPD2    C3 8696   0.475   1.861  16.983  0.1938 -0.0584  0.1900
  583MPD2    C4 8697   0.506   1.745  17.048  1.1248  0.0452  0.0031
  583MPD2    C5 8698   0.561   1.644  16.985  0.0632 -0.1828 -0.4406
  583MPD2     H 8699   0.484   1.955  16.791 -0.0809  0.9117  1.5450
  583MPD2    H1 8700   0.487   1.721  17.152  2.8831  0.6355  0.4623
  583MPD2    H2 8701   0.663   1.567  16.822 -0.4701  0.3512 -0.7029
  583MPD2    H3 8702   0.587   1.553  17.038  1.9639  0.7540  0.2425
  583MPD2     N 8703   0.401   1.965  17.049  0.3942 -0.2489 -0.0004
  583MPD2    H5 8704   0.367   2.046  16.997 -1.7015 -1.5220 -0.6267
  583MPD2    N1 8705   0.610   1.793  16.652 -0.1816  0.2982 -0.0174
  583MPD2    H7 8706   0.579   1.881  16.614 -0.4691  0.4662  0.5992
  584TMC3    C1 8707   0.297   2.073  17.226 -0.0882  0.1864 -0.8608
  584TMC3    C2 8708   0.298   2.196  17.161  0.6555 -0.6210  0.6988
  584TMC3    C3 8709   0.254   2.301  17.231 -0.2500  0.2094 -0.3237
  584TMC3    C4 8710   0.258   2.066  17.354  0.3855 -0.1028 -0.5265
  584TMC3    C5 8711   0.227   2.176  17.427  0.2567 -0.1734 -0.3975
  584TMC3    C6 8712   0.236   2.301  17.368 -0.1426  0.3724  0.4869
  584TMC3     C 8713   0.368   1.960  17.181  0.3305  0.2350  0.7401
  584TMC3     O 8714   0.402   1.888  17.273 -0.4567  0.2963 -0.5781
  584TMC3     H 8715   0.317   2.200  17.054 -2.3834  0.1465  0.1838
  584TMC3    H1 8716   0.243   1.968  17.397 -0.4210  0.0847 -0.3725
  584TMC3    H2 8717   0.208   2.394  17.415  1.7334 -0.3360  2.9931
  584TMC3    C7 8718   0.171   2.152  17.559  0.4479  0.2864 -0.2395
  584TMC3    C8 8719   0.288   2.423  17.165  0.0640  0.4950 -0.3377
  584TMC3    O1 8720   0.121   2.043  17.575 -0.1494  0.0972  0.0003
  584TMC3    O2 8721   0.230   2.446  17.064 -0.0749  0.6963 -0.4310
  585MPD2     C 8722   4.033   0.621   0.838  0.4862  0.0206  0.5963
  585MPD2    C1 8723   3.954   0.647   0.732 -0.1274 -0.6328 -0.3055
  585MPD2    C2 8724   3.922   0.542   0.650  0.2284  0.8845 -0.6253
  585MPD2    C3 8725   3.994   0.420   0.656  1.0201 -0.5969 -0.0270
  585MPD2    C4 8726   4.087   0.399   0.756 -0.2355 -0.2237  0.1548
  585MPD2    C5 8727   4.093   0.498   0.854  0.4227  0.1254  0.4981
  585MPD2     H 8728   3.859   0.558   0.564  0.1163  1.2786 -0.4665
  585MPD2    H1 8729   4.152   0.313   0.767  2.1583  1.7480  1.4467
  585MPD2    H2 8730   4.042   0.696   0.916  0.7053  3.2236 -2.5202
  585MPD2    H3 8731   4.162   0.477   0.936  0.5618 -0.7629  0.1546
  585MPD2     N 8732   3.990   0.336   0.541 -0.1961 -0.1717 -0.1882
  585MPD2    H5 8733   3.928   0.372   0.469 -0.4176  1.8904  1.0534
  585MPD2    N1 8734   3.893   0.779   0.726 -0.0299  0.1507  0.1541
  585MPD2    H7 8735   3.936   0.850   0.785 -1.2796 -0.6522  2.0595
  586TMC3    C1 8736   4.081   0.181   0.372 -1.0805 -0.5781  0.2730
  586TMC3    C2 8737   4.202   0.142   0.319  0.3632  0.1820 -0.3064
  586TMC3    C3 8738   4.208   0.132   0.183  0.4344  0.1848  0.5374
  586TMC3    C4 8739   3.974   0.210   0.292 -0.4095  0.1558  0.4805
  586TMC3    C5 8740   3.998   0.222   0.153  0.2416 -0.0204 -0.0236
  586TMC3    C6 8741   4.111   0.175   0.095 -0.1796  0.3282 -0.7895
  586TMC3     C 8742   4.071   0.225   0.510  0.9334  0.9609  0.0253
  586TMC3     O 8743   4.153   0.175   0.586  0.3517  0.3065  0.2846
  586TMC3     H 8744   4.289   0.132   0.382  1.1764  0.3472 -1.3999
  586TMC3    H1 8745   3.881   0.245   0.337 -0.3886 -1.5965  1.9069
  586TMC3    H2 8746   4.135   0.168  17.727  0.6434 -1.0964 -0.5103
  586TMC3    C7 8747   3.884   0.236   0.065 -0.4263  0.0551  0.6134
  586TMC3    C8 8748   4.338   0.115   0.123  0.3137 -0.2269  0.2724
  586TMC3    O1 8749   3.767   0.213   0.107 -0.4307  0.1162 -0.3052
  586TMC3    O2 8750   4.360   0.193   0.031 -0.0063  0.0742  0.0656
  587TMC3    C1 8751   1.877   4.104  16.215 -0.0356 -0.7511  1.0087
  587TMC3    C2 8752   1.879   4.231  16.270 -0.0010 -0.0414  0.2255
  587TMC3    C3 8753   2.002   4.271  16.308  0.2972 -0.3352  0.4757
  587TMC3    C4 8754   1.978   4.017  16.199  0.1238  0.0271  0.2794
  587TMC3    C5 8755   2.097   4.062  16.249 -0.0988  0.3366 -0.0179
  587TMC3    C6 8756   2.112   4.188  16.299 -0.4465  0.2095  0.0963
  587TMC3     C 8757   1.756   4.082  16.126 -1.0068 -0.1275  0.8723
  587TMC3     O 8758   1.781   4.012  16.026  0.4241 -0.0490 -0.4265
  587TMC3     H 8759   1.798   4.298  16.245 -0.1841 -0.1825  0.4354
  587TMC3    H1 8760   1.966   3.942  16.121 -0.3737  0.9521 -0.5244
  587TMC3    H2 8761   2.213   4.228  16.306  0.0623 -1.1441  0.4366
  587TMC3    C7 8762   2.223   3.987  16.221  0.9766 -0.2503  0.3619
  587TMC3    C8 8763   2.027   4.413  16.313 -0.7027 -0.3863 -0.5703
  587TMC3    O1 8764   2.328   4.044  16.240 -0.3783 -0.2521 -0.0806
  587TMC3    O2 8765   2.137   4.448  16.272 -0.1469 -0.1858  0.5768
  588TMC3    C1 8766   4.495   2.437  10.076  0.6168  0.2769  0.6487
  588TMC3    C2 8767   4.561   2.316  10.042 -0.0994  0.4204  0.4649
  588TMC3    C3 8768   4.663   2.275  10.131 -0.5328  0.3659 -0.1749
  588TMC3    C4 8769   4.521   2.504  10.199  0.5922  0.1040 -0.2829
  588TMC3    C5 8770   4.630   2.464  10.272 -0.8110 -0.0980  0.0837
  588TMC3    C6 8771   4.702   2.347  10.245 -0.0329  0.7543  0.1773
  588TMC3     C 8772   4.454   2.521   9.958 -0.6218  1.0158 -0.7893
  588TMC3     O 8773   4.448   2.456   9.854  0.3344  0.9699 -0.3413
  588TMC3     H 8774   4.525   2.254   9.961 -1.8869  0.6587  1.0696
  588TMC3    H1 8775   4.453   2.569  10.253  0.4408 -0.0099 -0.3369
  588TMC3    H2 8776   0.049   2.309  10.305  0.3242  1.0967 -0.0904
  588TMC3    C7 8777   4.696   2.562  10.357  0.0674  0.7955 -0.0018
  588TMC3    C8 8778   4.699   2.134  10.110 -0.0906 -0.5533  0.2110
  588TMC3    O1 8779   0.048   2.532  10.437  0.4651  0.7492  0.4972
  588TMC3    O2 8780   4.699   2.087   9.998  0.2490 -0.1966 -0.1656
  589TMC3    C1 8781   2.901   3.835   1.087  0.3356 -0.5835 -0.1334
  589TMC3    C2 8782   3.018   3.809   1.155  0.2142  0.6458  0.1783
  589TMC3    C3 8783   3.111   3.724   1.095  0.0104  0.5425 -0.3302
  589TMC3    C4 8784   2.884   3.783   0.957 -0.3880 -0.4593 -0.0657
  589TMC3    C5 8785   2.992   3.721   0.900  0.0853 -0.5127 -0.0748
  589TMC3    C6 8786   3.108   3.688   0.961  0.8818  0.4496 -0.2234
  589TMC3     C 8787   2.798   3.922   1.138  0.0308  0.4284 -0.3445
  589TMC3     O 8788   2.688   3.926   1.085 -0.4169 -0.0361  0.4403
  589TMC3     H 8789   3.027   3.833   1.261  0.7108  1.5659 -0.0758
  589TMC3    H1 8790   2.796   3.801   0.898 -0.0424  0.5612 -0.2701
  589TMC3    H2 8791   3.180   3.619   0.919  1.4238 -0.0455  1.4922
  589TMC3    C7 8792   2.970   3.653   0.783  0.4805  0.2207 -0.3678
  589TMC3    C8 8793   3.247   3.749   1.154  0.1588  0.5141  0.0309
  589TMC3    O1 8794   2.855   3.603   0.777  0.0256  0.1919  0.0043
  589TMC3    O2 8795   3.246   3.786   1.272  0.4266  0.3165 -0.2130
  590MPD2     C 8796   3.245   2.293  16.822  0.1150 -0.3476  0.5682
  590MPD2    C1 8797   3.202   2.321  16.693  0.7202 -0.2635 -0.0039
  590MPD2    C2 8798   3.279   2.404  16.610  0.4860 -0.0519 -0.2128
  590MPD2    C3 8799   3.398   2.451  16.655 -0.4406 -0.1275  0.5440
  590MPD2    C4 8800   3.439   2.422  16.781  0.0862 -0.0974 -0.5635
  590MPD2    C5 8801   3.369   2.342  16.860 -0.2813  0.4105 -0.2050
  590MPD2     H 8802   3.256   2.421  16.505  2.0562  0.1445 -0.5296
  590MPD2    H1 8803   3.535   2.459  16.814 -0.3614 -0.3061  1.0265
  590MPD2    H2 8804   3.182   2.248  16.898 -1.4573 -1.3117 -1.3113
  590MPD2    H3 8805   3.408   2.318  16.958  0.6484  0.0304 -0.6646
  590MPD2     N 8806   3.487   2.522  16.572  0.2905  0.4354 -0.7271
  590MPD2    H5 8807   3.457   2.541  16.477  2.0673 -0.1194 -1.3960
  590MPD2    N1 8808   3.080   2.268  16.650 -0.0299  0.2038 -0.0676
  590MPD2    H7 8809   3.016   2.223  16.714 -0.1360  3.0109  1.7612
  591TMC3    C1 8810   3.654   2.645  16.492 -0.5206  0.2792  0.1814
  591TMC3    C2 8811   3.757   2.603  16.402 -0.0095  0.6857  0.0364
  591TMC3    C3 8812   3.768   2.651  16.273  0.0408 -0.0902  0.2472
  591TMC3    C4 8813   3.557   2.717  16.430 -0.5058 -0.8191 -0.8984
  591TMC3    C5 8814   3.564   2.750  16.297  0.1425 -0.3223  0.2222
  591TMC3    C6 8815   3.668   2.721  16.214 -0.1208  0.5692  0.4067
  591TMC3     C 8816   3.620   2.564  16.600 -0.3249  0.3187 -0.7280
  591TMC3     O 8817   3.698   2.543  16.693 -0.5594 -0.2421 -0.4433
  591TMC3     H 8818   3.836   2.549  16.452 -0.1740 -0.0597 -0.5017
  591TMC3    H1 8819   3.469   2.749  16.485 -1.1802 -1.3899 -1.6468
  591TMC3    H2 8820   3.662   2.746  16.108 -1.1517 -0.4670  0.2241
  591TMC3    C7 8821   3.469   2.836  16.238 -0.0862  0.4549  0.2127
  591TMC3    C8 8822   3.874   2.601  16.198 -0.1521  0.2717 -0.2550
  591TMC3    O1 8823   3.360   2.834  16.289 -0.2871 -0.4021  0.1498
  591TMC3    O2 8824   3.902   2.487  16.228  0.2180  0.1187 -0.4511
  592MPD2     C 8825   3.621   4.283  11.446 -0.3856  0.2240  0.5911
  592MPD2    C1 8826   3.570   4.328  11.570 -0.1289  0.2546  0.3254
  592MPD2    C2 8827   3.518   4.240  11.663 -0.7141 -0.1387  0.8431
  592MPD2    C3 8828   3.514   4.106  11.637 -0.5346  0.4037 -0.2315
  592MPD2    C4 8829   3.568   4.066  11.515 -0.3744  0.0676  0.1399
  592MPD2    C5 8830   3.610   4.151  11.418  0.5114 -0.0710 -0.4801
  592MPD2     H 8831   3.484   4.281  11.757  0.4076 -0.3546  1.3452
  592MPD2    H1 8832   3.587   3.960  11.505  2.0641  0.4267  0.8731
  592MPD2    H2 8833   3.650   4.357  11.372 -1.8805 -0.7627 -0.9827
  592MPD2    H3 8834   3.646   4.110  11.323 -0.0591 -1.5932 -0.0450
  592MPD2     N 8835   3.458   4.008  11.727  0.5756  0.3357  0.1975
  592MPD2    H5 8836   3.449   3.916  11.687  1.0466  0.3208  0.1263
  592MPD2    N1 8837   3.573   4.468  11.585  0.2340  0.2747  0.5322
  592MPD2    H7 8838   3.601   4.517  11.500 -2.7623 -1.1367 -1.2836
  593TMC3    C1 8839   3.613   4.669  11.690 -0.1919  0.0258 -0.6918
  593TMC3    C2 8840   3.567   0.015  11.797 -0.1789  0.2278 -0.6994
  593TMC3    C3 8841   3.580   0.148  11.787 -0.3090  0.5226 -0.0128
  593TMC3    C4 8842   3.679   4.722  11.577 -0.0478 -0.6632  0.4638
  593TMC3    C5 8843   3.689   0.125  11.576  0.2137 -0.1431 -0.0548
  593TMC3    C6 8844   3.650   0.205  11.682  0.1057 -0.0015 -0.3431
  593TMC3     C 8845   3.564   4.533  11.704 -0.2289  0.7596  0.0008
  593TMC3     O 8846   3.526   4.494  11.811  0.4429  0.2090  0.0416
  593TMC3     H 8847   3.520   4.704  11.883 -2.1820  1.1555 -1.3117
  593TMC3    H1 8848   3.700   4.664  11.488  1.3511  0.4040  0.1165
  593TMC3    H2 8849   3.660   0.312  11.677  0.7331 -0.0272  0.5110
  593TMC3    C7 8850   3.745   0.204  11.469 -0.1878  0.3461 -0.3134
  593TMC3    C8 8851   3.558   0.221  11.906 -0.0858  0.3004  0.0845
  593TMC3    O1 8852   3.805   0.303  11.502 -0.0341  0.0171  0.1477
  593TMC3    O2 8853   3.465   0.177  11.976  0.3180 -0.7593  0.1654
  594MPD2     C 8854   2.448   2.964  15.064  0.8165 -0.2825  0.3916
  594MPD2    C1 8855   2.405   3.004  14.939 -0.4025 -0.0065  0.5998
  594MPD2    C2 8856   2.485   3.089  14.864 -0.1217 -0.2892  0.5326
  594MPD2    C3 8857   2.600   3.143  14.913  0.6837 -0.2895 -0.1917
  594MPD2    C4 8858   2.641   3.102  15.040  0.3980 -0.6290  0.0713
  594MPD2    C5 8859   2.562   3.020  15.112  0.2154 -0.2022 -0.4094
  594MPD2     H 8860   2.463   3.127  14.765 -1.3596  1.4116  1.4503
  594MPD2    H1 8861   2.729   3.143  15.088 -0.2682  2.2221 -1.1583
  594MPD2    H2 8862   2.391   2.913  15.141 -1.5176 -0.3794 -1.4074
  594MPD2    H3 8863   2.594   2.990  15.211  0.5369  1.6283  0.0376
  594MPD2     N 8864   2.662   3.243  14.838  0.1235  0.9032  0.3809
  594MPD2    H5 8865   2.613   3.281  14.758  1.0014 -2.1610 -1.6083
  594MPD2    N1 8866   2.286   2.954  14.895 -0.0580  0.4841 -0.1798
  594MPD2    H7 8867   2.246   2.879  14.951  0.2672  1.0046  0.7558
  595TMC3    C1 8868   2.944   3.516  14.612 -0.0604 -0.4889  0.0120
  595TMC3    C2 8869   2.933   3.420  14.702 -0.3231 -0.0242 -0.0488
  595TMC3    C3 8870   2.807   3.404  14.758  0.0638  0.0563 -0.6702
  595TMC3    C4 8871   2.843   3.616  14.590  0.5745  0.0555  0.0854
  595TMC3    C5 8872   2.729   3.610  14.671 -0.3085  0.2659  0.5538
  595TMC3    C6 8873   2.703   3.502  14.751 -0.0890  0.4024  0.1328
  595TMC3     C 8874   3.077   3.571  14.608 -0.0059  0.6479 -0.2189
  595TMC3     O 8875   3.144   3.565  14.717 -1.1549 -0.3303  0.3040
  595TMC3     H 8876   3.001   3.336  14.714 -3.1770 -2.2447  0.6722
  595TMC3    H1 8877   2.867   3.697  14.521 -1.3219  1.0097  0.5532
  595TMC3    H2 8878   2.606   3.490  14.798 -0.3714  0.1516 -0.5137
  595TMC3    C7 8879   2.653   3.730  14.703 -0.0481  0.5425  0.0953
  595TMC3    C8 8880   2.787   3.294  14.850  0.3588  0.6725 -0.3414
  595TMC3    O1 8881   2.552   3.722  14.777 -0.1306  0.0739  0.0041
  595TMC3    O2 8882   2.884   3.243  14.907 -0.0817  0.0494 -0.2201
  596MPD2     C 8883   1.479   1.451  16.779  0.6267  0.0592 -0.1218
  596MPD2    C1 8884   1.465   1.578  16.723  0.5968 -0.1066  0.7969
  596MPD2    C2 8885   1.496   1.597  16.591 -0.3367 -0.2111  0.1516
  596MPD2    C3 8886   1.516   1.487  16.510  0.0951  0.2317  0.6131
  596MPD2    C4 8887   1.526   1.360  16.570  0.0955 -0.1983  0.4279
  596MPD2    C5 8888   1.494   1.338  16.703 -0.2450  0.5884 -0.0818
  596MPD2     H 8889   1.487   1.696  16.548  0.5560  0.3266  1.1816
  596MPD2    H1 8890   1.546   1.274  16.508 -0.0022  0.2892 -0.2883
  596MPD2    H2 8891   1.464   1.437  16.885 -3.6104  1.8371 -0.4419
  596MPD2    H3 8892   1.498   1.237  16.741  0.9386  0.3874 -0.7338
  596MPD2     N 8893   1.523   1.494  16.367 -0.6245 -0.1050 -0.3234
  596MPD2    H5 8894   1.516   1.410  16.311 -1.8211  0.7187 -1.4152
  596MPD2    N1 8895   1.453   1.702  16.802  0.3592 -0.8015 -0.3182
  596MPD2    H7 8896   1.447   1.789  16.749 -3.4634 -1.1296 -0.3831
  597TMC3    C1 8897   1.404   1.854  16.975 -0.3418 -0.2647  0.5608
  597TMC3    C2 8898   1.487   1.939  16.900  0.2126  0.6328 -0.2133
  597TMC3    C3 8899   1.447   2.067  16.907  0.2618 -0.1634 -0.4032
  597TMC3    C4 8900   1.290   1.890  17.028 -0.7149  0.3120 -0.5086
  597TMC3    C5 8901   1.259   2.017  17.040 -0.9430  0.3182 -0.6975
  597TMC3    C6 8902   1.337   2.109  16.976 -0.1361  0.2861 -0.8224
  597TMC3     C 8903   1.408   1.712  16.932  0.8787 -0.2053  0.5317
  597TMC3     O 8904   1.365   1.618  16.999 -0.5118  0.3253  0.0209
  597TMC3     H 8905   1.579   1.901  16.855  0.5473  2.7336 -1.2979
  597TMC3    H1 8906   1.228   1.819  17.083 -0.9281  1.1045  0.2715
  597TMC3    H2 8907   1.326   2.215  16.993  1.7785  0.3101  0.2835
  597TMC3    C7 8908   1.135   2.047  17.122  0.4825 -0.0757  0.8428
  597TMC3    C8 8909   1.494   2.163  16.811  0.0251  0.6864 -0.1212
  597TMC3    O1 8910   1.093   1.956  17.192 -0.4672  0.4804 -0.3815
  597TMC3    O2 8911   1.449   2.276  16.815 -0.6043 -0.2272 -0.1189
  598TMC3    C1 8912   4.264   2.975  15.240  0.4474 -0.0486  0.9629
  598TMC3    C2 8913   4.152   2.932  15.290  0.0807  0.4757  0.3271
  598TMC3    C3 8914   4.030   2.974  15.240 -0.3216  0.3049  1.2631
  598TMC3    C4 8915   4.264   3.066  15.141 -0.0465 -0.6103 -0.0534
  598TMC3    C5 8916   4.148   3.098  15.083 -0.4687  0.0571  0.2735
  598TMC3    C6 8917   4.030   3.046  15.123  0.6328 -0.3111 -0.1992
  598TMC3     C 8918   4.389   2.952  15.316 -0.3291 -0.3250 -0.2166
  598TMC3     O 8919   4.482   3.028  15.291  0.0991  0.2756  0.3235
  598TMC3     H 8920   4.144   2.886  15.388  0.8793 -2.7798 -1.1279
  598TMC3    H1 8921   4.361   3.100  15.105  0.4975 -2.6274 -0.5320
  598TMC3    H2 8922   3.939   3.096  15.088  0.1930 -2.0668 -1.5386
  598TMC3    C7 8923   4.147   3.151  14.952  0.9792  0.4517  0.7141
  598TMC3    C8 8924   3.907   2.891  15.267  0.5776 -0.1280  0.4771
  598TMC3    O1 8925   4.059   3.097  14.886  0.0471  0.0845  0.4391
  598TMC3    O2 8926   3.898   2.824  15.370 -0.0049  0.0732 -0.2998
  599MPD2     C 8927   4.078   0.595  15.659  0.1193 -0.1022 -0.1546
  599MPD2    C1 8928   4.083   0.474  15.731 -1.2296 -0.8154  0.6425
  599MPD2    C2 8929   3.975   0.421  15.796 -0.2698  0.0570  0.3248
  599MPD2    C3 8930   3.858   0.504  15.801 -0.3577 -0.0351 -0.2173
  599MPD2    C4 8931   3.860   0.624  15.729  0.6464  0.3441  0.1070
  599MPD2    C5 8932   3.965   0.670  15.660  0.0916 -0.2414 -0.2177
  599MPD2     H 8933   3.973   0.323  15.842  0.8987  0.1281  0.5137
  599MPD2    H1 8934   3.769   0.684  15.732  0.9171  0.7277  0.6402
  599MPD2    H2 8935   4.165   0.634  15.608  0.9361 -1.2463  0.3645
  599MPD2    H3 8936   3.956   0.764  15.606 -4.0593 -1.6029 -1.9116
  599MPD2     N 8937   3.741   0.482  15.875 -0.1640 -0.5155 -0.5602
  599MPD2    H5 8938   3.680   0.562  15.890 -3.8901 -2.6972 -3.7465
  599MPD2    N1 8939   4.206   0.406  15.724  0.3326  0.2243 -0.1998
  599MPD2    H7 8940   4.287   0.450  15.680  0.9762  0.7116  1.4576
  600TMC3    C1 8941   3.639   0.392  16.062 -0.0025  0.1599 -1.1386
  600TMC3    C2 8942   3.556   0.295  16.117 -0.3189  0.2368 -0.4626
  600TMC3    C3 8943   3.508   0.321  16.246  0.8702 -0.0077 -0.8433
  600TMC3    C4 8944   3.661   0.513  16.128 -0.2424  0.7829  0.7015
  600TMC3    C5 8945   3.612   0.534  16.250 -0.0091  0.1069  0.2761
  600TMC3    C6 8946   3.530   0.438  16.306 -0.1779 -0.3102 -0.6943
  600TMC3     C 8947   3.725   0.367  15.949 -0.3299 -0.2324  0.7416
  600TMC3     O 8948   3.782   0.258  15.950  0.2340  0.6782 -0.6840
  600TMC3     H 8949   3.546   0.194  16.078 -0.7948  0.0773  0.0762
  600TMC3    H1 8950   3.735   0.579  16.084 -0.4898  0.0607 -0.8086
  600TMC3    H2 8951   3.498   0.457  16.408 -2.1690 -2.5464 -0.9218
  600TMC3    C7 8952   3.650   0.651  16.330 -1.6184  0.5441  0.5802
  600TMC3    C8 8953   3.424   0.220  16.308  0.4251  0.6600 -0.0554
  600TMC3    O1 8954   3.573   0.699  16.412  0.2012  0.0330 -0.2362
  600TMC3    O2 8955   3.447   0.103  16.282  0.0696 -0.3760  0.5125
  601MPD2     C 8956   1.569   3.673   0.377 -0.3707  0.3957  0.1079
  601MPD2    C1 8957   1.439   3.641   0.339 -0.1862  0.7377 -0.2306
  601MPD2    C2 8958   1.384   3.518   0.368  0.2809 -0.2139 -0.0955
  601MPD2    C3 8959   1.453   3.435   0.455  0.5614  0.2235 -0.2359
  601MPD2    C4 8960   1.587   3.467   0.494  0.9565 -0.3259 -0.4571
  601MPD2    C5 8961   1.640   3.587   0.449  0.1988  0.1832 -0.3056
  601MPD2     H 8962   1.281   3.503   0.338 -0.1202 -1.1723  1.8020
  601MPD2    H1 8963   1.646   3.393   0.547 -1.4912 -0.9370  1.3805
  601MPD2    H2 8964   1.618   3.764   0.347 -0.2537 -0.2520 -1.6256
  601MPD2    H3 8965   1.738   3.613   0.488 -0.2632 -0.7639  1.5095
  601MPD2     N 8966   1.405   3.309   0.495  0.0653 -0.8132  0.0079
  601MPD2    H5 8967   1.465   3.262   0.562 -0.5384 -1.7311 -0.1010
  601MPD2    N1 8968   1.355   3.719   0.272 -0.7276 -0.0232  0.2821
  601MPD2    H7 8969   1.262   3.679   0.266  0.3180 -2.4665  0.0485
  602TMC3    C1 8970   1.283   3.891   0.137 -0.4406  0.1219  0.5748
  602TMC3    C2 8971   1.273   4.026   0.121 -0.2686  0.0595  0.4826
  602TMC3    C3 8972   1.163   4.082   0.065 -0.0516  0.2581 -0.1920
  602TMC3    C4 8973   1.183   3.813   0.091  0.0965 -0.0429  0.2007
  602TMC3    C5 8974   1.068   3.874   0.044  0.3349 -0.3995 -0.3361
  602TMC3    C6 8975   1.052   4.011   0.033  0.4573 -0.2338  0.3109
  602TMC3     C 8976   1.388   3.844   0.228 -0.2626 -0.4284 -0.1285
  602TMC3     O 8977   1.478   3.920   0.253  0.3899 -0.4213  0.2578
  602TMC3     H 8978   1.351   4.090   0.160  0.3945  0.5177 -1.5922
  602TMC3    H1 8979   1.188   3.705   0.097 -1.7372 -0.0319  2.1439
  602TMC3    H2 8980   0.954   4.056   0.022  0.6607  0.2366  0.3860
  602TMC3    C7 8981   0.968   3.785  17.714 -0.1498  0.2198  0.5043
  602TMC3    C8 8982   1.168   4.225   0.051 -0.6253 -0.6143 -0.0914
  602TMC3    O1 8983   0.989   3.667  17.721 -0.2043  0.3501  0.2386
  602TMC3    O2 8984   1.233   4.289   0.129  0.0325 -0.2730 -0.6937
  603TMC3    C1 8985   0.371   4.279  10.990 -0.2256 -0.2062 -0.6290
  603TMC3    C2 8986   0.417   4.252  11.117  0.1770 -0.9502 -0.1944
  603TMC3    C3 8987   0.414   4.351  11.205  0.2093  0.2305  0.8271
  603TMC3    C4 8988   0.334   4.404  10.946  0.6192 -0.4503 -0.2088
  603TMC3    C5 8989   0.336   4.497  11.049  0.7805  0.9093  0.7150
  603TMC3    C6 8990   0.382   4.479  11.176 -0.9428  0.0548 -0.2931
  603TMC3     C 8991   0.374   4.170  10.895  0.0490 -0.1380 -0.6313
  603TMC3     O 8992   0.463   4.088  10.903  0.2518  0.0891 -0.2737
  603TMC3     H 8993   0.432   4.147  11.138  1.7006 -0.7914 -0.4823
  603TMC3    H1 8994   0.303   4.425  10.844 -4.1689 -2.9522  0.7418
  603TMC3    H2 8995   0.412   4.561  11.240  0.5148 -1.8943  1.5128
  603TMC3    C7 8996   0.264   4.625  11.044  0.3503  0.4923  0.0224
  603TMC3    C8 8997   0.437   4.322  11.343  0.3964 -0.8002 -0.2842
  603TMC3    O1 8998   0.308   4.708  11.125 -0.1250 -1.1665  0.0757
  603TMC3    O2 8999   0.497   4.216  11.371  0.0657 -0.6432  0.2309
  604MPD2     C 9000   0.582   2.921  16.394  0.4888  0.0429  0.1216
  604MPD2    C1 9001   0.501   2.816  16.358 -0.5653 -0.0707 -0.5683
  604MPD2    C2 9002   0.515   2.748  16.240 -0.3452 -0.5644  0.2997
  604MPD2    C3 9003   0.627   2.772  16.165  0.1770  0.1764  0.4893
  604MPD2    C4 9004   0.717   2.874  16.206  0.2934 -0.0166  0.1120
  604MPD2    C5 9005   0.696   2.944  16.323  0.0330 -0.2231 -0.0747
  604MPD2     H 9006   0.460   2.663  16.201 -1.9574  1.2170 -1.3112
  604MPD2    H1 9007   0.804   2.909  16.151  0.5828 -1.5493 -0.4126
  604MPD2    H2 9008   0.567   2.975  16.487  0.0601 -0.7388  0.5010
  604MPD2    H3 9009   0.770   3.015  16.357  1.1309 -0.0603 -2.8326
  604MPD2     N 9010   0.636   2.707  16.044 -0.0900  0.3688 -0.0009
  604MPD2    H5 9011   0.565   2.640  16.016  1.0708 -2.2927  3.3068
  604MPD2    N1 9012   0.394   2.799  16.442  0.1977 -0.0803  0.7147
  604MPD2    H7 9013   0.405   2.854  16.527  0.5138 -1.3204  1.4697
  605TMC3    C1 9014   0.175   2.742  16.519  0.3268  0.5769 -0.0767
  605TMC3    C2 9015   0.236   2.777  16.640 -1.2113  0.0918  0.1908
  605TMC3    C3 9016   0.192   2.878  16.717  0.0477  0.5204 -0.7195
  605TMC3    C4 9017   0.064   2.816  16.477 -0.1296  0.0468  0.4021
  605TMC3    C5 9018   0.016   2.912  16.564 -0.8685  1.3171  0.3207
  605TMC3    C6 9019   0.080   2.942  16.685 -0.1681  0.0585 -0.2162
  605TMC3     C 9020   0.277   2.727  16.419 -0.1170  0.2190 -0.0144
  605TMC3     O 9021   0.240   2.678  16.313 -0.1412  0.0302 -0.4190
  605TMC3     H 9022   0.325   2.723  16.671  0.4387  1.7131 -1.7390
  605TMC3    H1 9023   0.014   2.795  16.384 -1.0206  0.4140  0.7914
  605TMC3    H2 9024   0.041   3.014  16.757 -2.1243  0.1781 -1.4055
  605TMC3    C7 9025   4.665   3.014  16.516  0.1694 -0.3869 -0.5121
  605TMC3    C8 9026   0.305   2.967  16.731  0.4848 -0.3252 -0.4217
  605TMC3    O1 9027   4.624   3.095  16.600  0.0069  0.1309  0.4837
  605TMC3    O2 9028   0.409   2.922  16.688  0.4155  0.0755 -0.1723
  606TMC3    C1 9029   1.772   1.689  17.338  0.1061 -0.1248 -0.3709
  606TMC3    C2 9030   1.797   1.637  17.463  0.4623 -0.7200  0.9226
  606TMC3    C3 9031   1.789   1.497  17.478 -0.5136  0.8628  0.6512
  606TMC3    C4 9032   1.738   1.612  17.229 -0.4960  0.1933 -0.5035
  606TMC3    C5 9033   1.739   1.478  17.250  0.0945  0.4037 -0.4078
  606TMC3    C6 9034   1.759   1.418  17.369 -0.1054 -0.0125 -0.2801
  606TMC3     C 9035   1.768   1.832  17.319 -0.0128 -0.5258 -0.5708
  606TMC3     O 9036   1.785   1.899  17.418 -0.3219  0.0818 -0.0406
  606TMC3     H 9037   1.793   1.701  17.550  0.6639  0.0086  0.3911
  606TMC3    H1 9038   1.715   1.644  17.129 -0.8942 -0.4541 -0.6213
  606TMC3    H2 9039   1.760   1.310  17.376  5.3033  0.1053  0.6928
  606TMC3    C7 9040   1.682   1.388  17.151 -0.3750  0.3344 -0.8675
  606TMC3    C8 9041   1.796   1.445  17.611 -0.1098  0.7793 -0.2929
  606TMC3    O1 9042   1.710   1.407  17.032  0.4415 -0.2776 -0.4976
  606TMC3    O2 9043   1.842   1.520  17.691 -0.0987 -0.2677  0.1758
  607MPD2     C 9044   4.079   4.058  11.931  0.8847 -0.1767 -0.4001
  607MPD2    C1 9045   4.156   4.133  12.014 -0.2414  0.7167  0.9454
  607MPD2    C2 9046   4.206   4.077  12.134  0.0300  0.4165 -0.5185
  607MPD2    C3 9047   4.177   3.944  12.172 -0.7349  0.4549  0.0315
  607MPD2    C4 9048   4.106   3.862  12.082 -0.0650  0.6601 -0.4282
  607MPD2    C5 9049   4.058   3.919  11.965 -0.3847  0.4265 -0.0974
  607MPD2     H 9050   4.264   4.142  12.199  0.9749 -1.1007  0.1604
  607MPD2    H1 9051   4.111   3.755  12.094 -2.0030  0.5672 -0.4765
  607MPD2    H2 9052   4.041   4.090  11.835 -0.8135  0.4905  0.4983
  607MPD2    H3 9053   4.007   3.858  11.891  1.2119 -0.4366 -0.5110
  607MPD2     N 9054   4.231   3.904  12.298  0.2715 -0.2221 -0.8726
  607MPD2    H5 9055   4.268   3.982  12.352 -0.0341 -0.2216 -0.6705
  607MPD2    N1 9056   4.199   4.264  11.983  0.2647  0.7458 -0.1852
  607MPD2    H7 9057   4.244   4.317  12.057  0.6087 -1.6691  1.3715
  608TMC3    C1 9058   4.315   4.415  11.856  0.6541  0.1607  0.5234
  608TMC3    C2 9059   4.414   4.391  11.944  0.0674 -0.1320  0.3975
  608TMC3    C3 9060   4.514   4.482  11.940  0.1148  0.4386  0.5019
  608TMC3    C4 9061   4.316   4.514  11.758  0.7297  0.1126 -0.2301
  608TMC3    C5 9062   4.427   4.601  11.763  0.0528  0.4042  0.4045
  608TMC3    C6 9063   4.527   4.592  11.855 -0.0397 -0.4067 -0.2611
  608TMC3     C 9064   4.204   4.326  11.858  0.4972 -0.7779  0.1253
  608TMC3     O 9065   4.145   4.304  11.753  0.0816  0.4410 -0.3840
  608TMC3     H 9066   4.423   4.310  12.015  2.6453 -0.2300 -0.0595
  608TMC3    H1 9067   4.235   4.528  11.687  0.9222  1.0909 -0.2575
  608TMC3    H2 9068   4.629   4.623  11.836 -0.6526  0.3978 -2.1992
  608TMC3    C7 9069   4.446   4.705  11.660 -0.4159  0.0969 -0.9703
  608TMC3    C8 9070   4.618   4.474  12.042 -0.2545  0.0248 -0.8109
  608TMC3    O1 9071   4.405   4.696  11.544  0.1060  0.3526  0.4703
  608TMC3    O2 9072   4.726   4.520  12.013  0.3319  0.1144 -0.3766
  609TMC3    C1 9073   1.834   3.374   9.744 -0.3497 -0.0705  0.4946
  609TMC3    C2 9074   1.766   3.283   9.660  0.4412 -0.5377  0.0421
  609TMC3    C3 9075   1.848   3.206   9.579  0.3801  0.4801  0.0944
  609TMC3    C4 9076   1.970   3.385   9.739 -0.3952 -0.0013  0.1945
  609TMC3    C5 9077   2.043   3.295   9.660 -0.0862 -0.0485 -0.0929
  609TMC3    C6 9078   1.982   3.207   9.578 -0.0267 -0.8701  0.7402
  609TMC3     C 9079   1.746   3.474   9.798  0.3334 -0.2514 -0.0726
  609TMC3     O 9080   1.637   3.432   9.836  0.0842  0.3582 -0.6416
  609TMC3     H 9081   1.658   3.271   9.669  0.4493 -0.1014  0.7313
  609TMC3    H1 9082   2.022   3.464   9.793  0.5956 -0.9809  0.6793
  609TMC3    H2 9083   2.040   3.147   9.508 -0.2172  0.6372 -0.6920
  609TMC3    C7 9084   2.189   3.288   9.680 -0.0280 -0.1009  0.8076
  609TMC3    C8 9085   1.783   3.119   9.479 -0.7695  0.4132  0.8510
  609TMC3    O1 9086   2.233   3.342   9.785 -0.4032 -0.1207 -0.1503
  609TMC3    O2 9087   1.852   3.030   9.427 -0.0328  0.5198 -0.3945
  610TMC3    C1 9088   4.273   4.409  12.632 -0.8891  0.2359  0.4740
  610TMC3    C2 9089   4.304   4.514  12.544  0.3454  0.9773  0.2315
  610TMC3    C3 9090   4.433   4.554  12.526 -0.3080  0.2791  0.4740
  610TMC3    C4 9091   4.381   4.346  12.691 -0.6940  0.4525  0.6045
  610TMC3    C5 9092   4.508   4.398  12.679 -0.9525 -0.3058  0.1893
  610TMC3    C6 9093   4.535   4.494  12.591 -0.3937  0.2874  0.0627
  610TMC3     C 9094   4.162   4.325  12.586  0.1050 -0.5191  0.2685
  610TMC3     O 9095   4.133   4.329  12.468  0.4635 -0.0883 -0.8126
  610TMC3     H 9096   4.231   4.574  12.489  0.5963 -0.0164 -1.1881
  610TMC3    H1 9097   4.365   4.261  12.756  2.9536 -0.8537 -0.2058
  610TMC3    H2 9098   4.637   4.524  12.572  0.8598 -2.9677  1.8322
  610TMC3    C7 9099   4.611   4.352  12.767  1.0146 -0.0773 -0.1234
  610TMC3    C8 9100   4.465   4.656  12.421  0.5329 -0.3944  0.2859
  610TMC3    O1 9101   4.600   4.235  12.806  0.1408 -0.1793 -0.2727
  610TMC3    O2 9102   4.366   4.698  12.368  0.3873  0.3253 -0.0309
  611MPD2     C 9103   3.812   4.293  10.268  0.0538 -0.0214  0.2779
  611MPD2    C1 9104   3.831   4.337  10.394 -0.2098  0.5976 -0.4131
  611MPD2    C2 9105   3.930   4.428  10.422 -0.1117  0.4816 -0.4214
  611MPD2    C3 9106   4.007   4.479  10.318 -0.2908  0.2109 -0.3632
  611MPD2    C4 9107   3.986   4.433  10.184  0.8647 -0.3686 -0.4912
  611MPD2    C5 9108   3.887   4.342  10.159  0.2385 -0.1795  0.0182
  611MPD2     H 9109   3.949   4.452  10.526  0.5157 -2.4207  0.1393
  611MPD2    H1 9110   4.055   4.458  10.104  1.4769 -0.7248 -0.0708
  611MPD2    H2 9111   3.728   4.234  10.233 -0.9849  2.4902 -1.4864
  611MPD2    H3 9112   3.878   4.310  10.056  1.0076 -2.0484  0.5471
  611MPD2     N 9113   4.120   4.560  10.336 -0.0861  0.0187 -0.3250
  611MPD2    H5 9114   4.160   4.599  10.251  0.0226  0.3678 -0.1153
  611MPD2    N1 9115   3.735   4.306  10.495  0.2458  0.3986  0.1237
  611MPD2    H7 9116   3.673   4.226  10.484  0.2865  0.8791 -3.4034
  612TMC3    C1 9117   4.254   4.722  10.428  0.1757  0.1535  0.7357
  612TMC3    C2 9118   4.349   0.021  10.525 -0.0390  0.1869  0.8554
  612TMC3    C3 9119   4.399   0.148  10.518  0.2994 -0.2284  0.1755
  612TMC3    C4 9120   4.223   0.069  10.326  0.6292 -0.1003 -0.1043
  612TMC3    C5 9121   4.260   0.199  10.333  0.2194  0.6641  0.3944
  612TMC3    C6 9122   4.348   0.239  10.431 -0.6269  0.2337 -0.3359
  612TMC3     C 9123   4.180   4.602  10.454  0.4921 -0.6042  0.4857
  612TMC3     O 9124   4.160   4.566  10.566 -0.3177  0.1708  0.4856
  612TMC3     H 9125   4.369   4.689  10.608 -0.9705  0.7095  1.5020
  612TMC3    H1 9126   4.139   0.044  10.262  0.6247 -0.3245 -0.0117
  612TMC3    H2 9127   4.382   0.342  10.429 -0.5399  0.2236  0.7459
  612TMC3    C7 9128   4.193   0.289  10.243  1.0109  0.2215 -0.4403
  612TMC3    C8 9129   4.491   0.197  10.620 -0.4941 -0.4802  0.0104
  612TMC3    O1 9130   4.106   0.241  10.170  0.4345  0.2892 -0.1137
  612TMC3    O2 9131   4.497   0.320  10.627 -0.3935  0.5126  0.0728
  613MPD2     C 9132   2.582   1.457  16.841  0.6067 -0.3719  0.1250
  613MPD2    C1 9133   2.646   1.370  16.751 -0.4803 -0.2007  0.5092
  613MPD2    C2 9134   2.577   1.273  16.694 -0.4565 -0.6858  0.6257
  613MPD2    C3 9135   2.439   1.247  16.736  0.2403  0.3404  0.1900
  613MPD2    C4 9136   2.384   1.333  16.831 -0.6467 -0.2446 -0.1137
  613MPD2    C5 9137   2.452   1.438  16.881 -0.2999 -0.4209 -0.4333
  613MPD2     H 9138   2.614   1.220  16.607  1.9232  1.2353  0.4684
  613MPD2    H1 9139   2.282   1.315  16.863 -1.1309  2.5588 -0.1060
  613MPD2    H2 9140   2.632   1.543  16.883 -1.0818  1.5938 -1.8454
  613MPD2    H3 9141   2.407   1.510  16.948  0.1457  1.6305 -2.3686
  613MPD2     N 9142   2.369   1.141  16.687  0.2088  0.1291  0.1005
  613MPD2    H5 9143   2.424   1.079  16.629 -2.0234 -0.6347 -1.2286
  613MPD2    N1 9144   2.771   1.419  16.704  0.0301 -0.8272  0.0057
  613MPD2    H7 9145   2.807   1.496  16.760 -3.7122  0.0948  1.0923
  614TMC3    C1 9146   2.928   1.459  16.527 -0.9484  0.4532 -0.1867
  614TMC3    C2 9147   3.000   1.393  16.428  0.0040 -0.1891  0.6123
  614TMC3    C3 9148   3.002   1.443  16.303  0.7313  0.1300  0.0450
  614TMC3    C4 9149   2.854   1.574  16.501 -0.1350 -0.3392  0.3612
  614TMC3    C5 9150   2.854   1.616  16.369  0.2223  0.2102  0.7005
  614TMC3    C6 9151   2.920   1.546  16.275  0.2289  0.8812  0.0670
  614TMC3     C 9152   2.844   1.360  16.603 -0.1588 -0.0464 -0.3656
  614TMC3     O 9153   2.839   1.246  16.553 -0.3490  0.4632  0.3597
  614TMC3     H 9154   3.064   1.309  16.453  0.8482 -0.3208 -1.9650
  614TMC3    H1 9155   2.794   1.627  16.573  0.6828 -1.0234  1.5334
  614TMC3    H2 9156   2.919   1.582  16.173 -1.8165 -0.8277 -0.5007
  614TMC3    C7 9157   2.754   1.714  16.345  0.0149  0.2067  0.3395
  614TMC3    C8 9158   2.962   1.344  16.211  0.0142  0.2964 -0.0183
  614TMC3    O1 9159   2.721   1.787  16.440 -0.3766 -0.4155  0.2744
  614TMC3    O2 9160   2.966   1.362  16.089 -0.0198  0.6019  0.0791
  615MPD2     C 9161   2.124   2.587  15.862  0.2108 -0.0751  0.2836
  615MPD2    C1 9162   2.109   2.721  15.903  0.5131 -0.6779  0.4673
  615MPD2    C2 9163   2.015   2.807  15.845  0.3661  0.3011  0.1007
  615MPD2    C3 9164   1.976   2.768  15.720 -0.5536  0.1452 -0.1524
  615MPD2    C4 9165   2.014   2.644  15.666 -0.5736 -0.0403  0.2840
  615MPD2    C5 9166   2.083   2.553  15.738 -0.1701 -0.0013 -0.1106
  615MPD2     H 9167   1.982   2.901  15.887 -0.4042  0.0210  0.1130
  615MPD2    H1 9168   1.979   2.607  15.570  0.3960 -0.4309  0.0838
  615MPD2    H2 9169   2.187   2.517  15.916 -1.2822 -2.3412 -0.9152
  615MPD2    H3 9170   2.111   2.458  15.694 -0.2078 -0.0943  0.0647
  615MPD2     N 9171   1.888   2.842  15.640  0.8925 -0.2475 -0.6071
  615MPD2    H5 9172   1.878   2.804  15.546  0.5267  1.7667 -1.3892
  615MPD2    N1 9173   2.163   2.769  16.030 -0.5517 -0.3126 -0.3028
  615MPD2    H7 9174   2.143   2.864  16.056 -0.7078 -0.3041 -0.4542
  616TMC3    C1 9175   2.288   2.787  16.221  0.0347  0.0998  0.3542
  616TMC3    C2 9176   2.415   2.842  16.236  0.1332 -0.7877  0.1941
  616TMC3    C3 9177   2.435   2.953  16.316  0.0459 -0.0074 -0.3720
  616TMC3    C4 9178   2.176   2.846  16.280  0.0837  0.5253 -0.7443
  616TMC3    C5 9179   2.203   2.960  16.360  0.5231  0.4420 -0.2720
  616TMC3    C6 9180   2.330   3.006  16.385  0.8677  1.1811 -0.7233
  616TMC3     C 9181   2.269   2.710  16.095 -0.3038  0.3033 -0.4423
  616TMC3     O 9182   2.356   2.627  16.075  0.4049 -0.6799 -0.8091
  616TMC3     H 9183   2.492   2.812  16.167 -0.5851 -2.0556 -0.0613
  616TMC3    H1 9184   2.073   2.815  16.278  0.5046 -0.9265  0.3382
  616TMC3    H2 9185   2.345   3.094  16.446 -0.5589 -0.9328  2.6519
  616TMC3    C7 9186   2.090   2.997  16.451  0.0272 -0.0592  0.3644
  616TMC3    C8 9187   2.569   3.015  16.344  0.3642 -0.0918 -0.0330
  616TMC3    O1 9188   1.973   2.972  16.424  0.5056  0.0922  0.1069
  616TMC3    O2 9189   2.562   3.125  16.394 -0.6199 -0.0766 -0.3466
  617MPD2     C 9190   0.399   1.198  13.743  0.5400  0.4841 -0.2164
  617MPD2    C1 9191   0.428   1.111  13.842 -0.1779  0.0840  0.2325
  617MPD2    C2 9192   0.323   1.094  13.933  0.2590  0.5118  0.0127
  617MPD2    C3 9193   0.200   1.157  13.920  0.0220 -0.6822 -0.3180
  617MPD2    C4 9194   0.174   1.235  13.810 -0.4993 -0.0901 -0.4294
  617MPD2    C5 9195   0.281   1.261  13.732 -0.5420  0.5730  0.6261
  617MPD2     H 9196   0.339   1.032  14.020 -0.7115 -1.0316 -0.9037
  617MPD2    H1 9197   0.078   1.281  13.793 -0.4477  0.3845  0.5255
  617MPD2    H2 9198   0.466   1.224  13.662  2.1907 -2.4306  0.2267
  617MPD2    H3 9199   0.269   1.326  13.647  0.0583 -1.1562 -0.7976
  617MPD2     N 9200   0.093   1.137  14.008 -0.4633  0.3730 -0.5730
  617MPD2    H5 9201   0.009   1.184  13.977 -1.7327 -0.6581  1.2969
  617MPD2    N1 9202   0.545   1.035  13.855 -0.3485  0.3784 -0.3380
  617MPD2    H7 9203   0.562   0.976  13.935  2.6856 -1.8473 -2.6334
  618TMC3    C1 9204   0.771   0.995  13.817 -0.3166 -0.3078  0.2131
  618TMC3    C2 9205   0.778   0.899  13.913 -0.1451  0.7193 -0.2288
  618TMC3    C3 9206   0.898   0.880  13.978  0.1079 -0.4679  0.4045
  618TMC3    C4 9207   0.885   1.048  13.762 -0.5023 -0.3927 -0.1427
  618TMC3    C5 9208   0.999   1.009  13.811 -0.2722  0.3306 -0.5559
  618TMC3    C6 9209   1.006   0.948  13.937 -0.5580  0.0679  1.0754
  618TMC3     C 9210   0.645   1.040  13.761  0.2274  0.6260 -0.0314
  618TMC3     O 9211   0.658   1.103  13.657  0.0491 -0.3144 -0.0007
  618TMC3     H 9212   0.693   0.851  13.960 -0.5503  1.8037  0.1357
  618TMC3    H1 9213   0.877   1.122  13.683  1.7017 -0.7169 -0.6778
  618TMC3    H2 9214   1.105   0.940  13.979 -0.1587 -0.2778  0.0574
  618TMC3    C7 9215   1.069   0.926  13.723  0.0757 -0.1930 -0.4264
  618TMC3    C8 9216   0.928   0.758  14.054 -0.8816 -0.3750  0.8303
  618TMC3    O1 9217   1.116   0.824  13.771 -0.0297 -0.2267 -0.0570
  618TMC3    O2 9218   0.861   0.715  14.150  0.1736  0.1460 -0.5310
  619MPD2     C 9219   1.841   2.357  13.914  0.2677 -0.1293 -0.2953
  619MPD2    C1 9220   1.747   2.455  13.890  0.0406  0.3197 -0.1089
  619MPD2    C2 9221   1.616   2.433  13.940 -0.7702 -0.1297 -1.0906
  619MPD2    C3 9222   1.578   2.317  14.003 -0.1408 -0.1974  0.1172
  619MPD2    C4 9223   1.674   2.219  14.014  0.5725  0.1711 -0.4744
  619MPD2    C5 9224   1.805   2.243  13.979 -0.5052  0.7904 -0.0720
  619MPD2     H 9225   1.540   2.504  13.909 -0.4375  1.2557  1.2601
  619MPD2    H1 9226   1.657   2.124  14.063  0.9670  0.3741  0.0425
  619MPD2    H2 9227   1.939   2.365  13.868 -0.0882  1.2727 -0.8238
  619MPD2    H3 9228   1.877   2.162  13.977 -1.4387  0.0081 -1.5328
  619MPD2     N 9229   1.455   2.293  14.056 -0.1667  0.0228  0.1337
  619MPD2    H5 9230   1.425   2.198  14.078 -0.9887  0.1192 -0.5355
  619MPD2    N1 9231   1.769   2.572  13.817 -0.3080  0.2513  0.5402
  619MPD2    H7 9232   1.685   2.626  13.800 -0.1210 -0.0774 -1.4408
  620TMC3    C1 9233   1.850   2.715  13.653 -0.1823 -0.2316  0.0904
  620TMC3    C2 9234   1.746   2.678  13.565 -0.4567  0.2506 -0.0347
  620TMC3    C3 9235   1.657   2.770  13.525 -0.2894  0.7645  0.8458
  620TMC3    C4 9236   1.856   2.841  13.705  0.8366 -0.3185 -0.6417
  620TMC3    C5 9237   1.764   2.935  13.655  0.1684  0.3746  0.6220
  620TMC3    C6 9238   1.667   2.900  13.566  0.8075 -0.3662 -0.1513
  620TMC3     C 9239   1.882   2.614  13.754  0.0066 -0.2714  0.7124
  620TMC3     O 9240   1.995   2.565  13.757 -0.1661 -0.6894 -0.7165
  620TMC3     H 9241   1.733   2.575  13.534 -0.1349 -0.1388  1.1147
  620TMC3    H1 9242   1.948   2.864  13.758  1.6311  0.2897 -2.2860
  620TMC3    H2 9243   1.599   2.976  13.528 -0.4148 -1.1343  0.5082
  620TMC3    C7 9244   1.813   3.064  13.654 -0.5210 -0.1782  0.5221
  620TMC3    C8 9245   1.522   2.715  13.514 -0.3638  0.2648 -0.0073
  620TMC3    O1 9246   1.814   3.133  13.553  0.1348  0.4014 -0.0541
  620TMC3    O2 9247   1.507   2.607  13.454 -0.4932  0.4404  0.6464
  621MPD2     C 9248   2.067   2.497  10.532 -0.5221 -0.2352 -0.9497
  621MPD2    C1 9249   1.995   2.534  10.418 -0.7693 -0.2915 -0.0323
  621MPD2    C2 9250   2.054   2.628  10.337  0.2273  0.0787 -0.2274
  621MPD2    C3 9251   2.184   2.678  10.362  0.5965 -0.2540  0.0250
  621MPD2    C4 9252   2.246   2.646  10.477 -0.4846 -0.5934  0.1654
  621MPD2    C5 9253   2.183   2.558  10.566 -0.4240  0.2393  0.2131
  621MPD2     H 9254   2.009   2.659  10.243  0.3334  1.2653  0.1183
  621MPD2    H1 9255   2.345   2.684  10.501 -0.7028 -1.3865  2.2950
  621MPD2    H2 9256   2.026   2.430  10.607  1.7796 -0.0981  0.4388
  621MPD2    H3 9257   2.230   2.526  10.658  0.4700  1.5842  0.2133
  621MPD2     N 9258   2.237   2.760  10.259 -0.3704  0.7686 -0.2006
  621MPD2    H5 9259   2.189   2.770  10.170  0.5393  2.1665 -0.5464
  621MPD2    N1 9260   1.867   2.474  10.385 -1.2849  0.0166  0.1507
  621MPD2    H7 9261   1.811   2.506  10.307  0.8553 -1.3124 -1.9285
  622TMC3    C1 9262   1.687   2.317  10.384 -0.5596 -0.0184  0.5570
  622TMC3    C2 9263   1.619   2.217  10.458  0.4536 -0.0678  1.0739
  622TMC3    C3 9264   1.516   2.150  10.393 -0.4127 -0.7038 -0.7981
  622TMC3    C4 9265   1.662   2.350  10.255 -0.4729 -0.2132  0.1651
  622TMC3    C5 9266   1.556   2.287  10.202 -0.6668 -0.6299 -0.3640
  622TMC3    C6 9267   1.481   2.195  10.268 -0.0027  0.1190 -0.3723
  622TMC3     C 9268   1.808   2.371  10.455  0.3762  0.4864  0.2325
  622TMC3     O 9269   1.838   2.330  10.564 -0.4179 -0.7313  0.5349
  622TMC3     H 9270   1.647   2.190  10.559  0.3752  1.5921  1.5291
  622TMC3    H1 9271   1.725   2.415  10.195 -0.5638 -0.9611 -0.7500
  622TMC3    H2 9272   1.391   2.151  10.226  1.1774 -2.2177 -0.4891
  622TMC3    C7 9273   1.516   2.318  10.069  0.2303 -0.4725 -0.4366
  622TMC3    C8 9274   1.411   2.118  10.487  0.1961  0.0050  0.0742
  622TMC3    O1 9275   1.433   2.238  10.020 -0.5385  0.0901  0.4224
  622TMC3    O2 9276   1.327   2.042  10.445  0.2714 -0.1233 -0.2219
  623MPD2     C 9277   0.765   3.064  15.900 -0.4128  1.0528 -0.3159
  623MPD2    C1 9278   0.673   3.113  15.989 -0.1026 -0.4238 -0.1338
  623MPD2    C2 9279   0.719   3.187  16.102  0.6978 -0.1943 -1.1932
  623MPD2    C3 9280   0.857   3.210  16.123  0.0166  0.6059  0.0839
  623MPD2    C4 9281   0.940   3.160  16.022  0.2550  0.2568  0.1131
  623MPD2    C5 9282   0.900   3.080  15.925 -0.6061 -0.4499  0.2531
  623MPD2     H 9283   0.645   3.236  16.163  1.4635 -0.7707  0.1945
  623MPD2    H1 9284   1.048   3.157  16.016  0.1366 -0.2898 -1.7636
  623MPD2    H2 9285   0.741   3.013  15.808 -0.5786 -0.7211  0.7055
  623MPD2    H3 9286   0.962   3.062  15.838  1.6285 -1.6503  2.0925
  623MPD2     N 9287   0.895   3.278  16.236 -0.5591 -0.3402 -0.1677
  623MPD2    H5 9288   0.820   3.291  16.303 -0.0619  0.7613  0.1786
  623MPD2    N1 9289   0.538   3.094  15.970  0.5365 -0.0570 -0.1286
  623MPD2    H7 9290   0.479   3.154  16.028 -1.1327 -3.0607  1.2604
  624TMC3    C1 9291   1.135   3.136  16.554 -0.3057  0.2525 -0.2028
  624TMC3    C2 9292   1.021   3.126  16.634 -0.5629 -0.5604  0.5238
  624TMC3    C3 9293   0.921   3.209  16.596  0.0250  1.0608 -0.0836
  624TMC3    C4 9294   1.154   3.235  16.460  1.1304 -0.2886  0.3048
  624TMC3    C5 9295   1.041   3.306  16.419 -0.2476 -0.1010  0.0969
  624TMC3    C6 9296   0.924   3.298  16.492 -0.2069  0.1487 -0.1128
  624TMC3     C 9297   1.255   3.074  16.605 -0.3196  0.4369 -0.1463
  624TMC3     O 9298   1.360   3.143  16.616 -0.1375  0.1100 -0.3223
  624TMC3     H 9299   1.016   3.054  16.715 -0.3526 -1.2643 -0.0799
  624TMC3    H1 9300   1.248   3.241  16.406  1.6683 -0.5448  1.2151
  624TMC3    H2 9301   0.831   3.350  16.472 -1.7013 -2.2253  0.6009
  624TMC3    C7 9302   1.026   3.292  16.274 -0.5732 -0.1230 -0.2443
  624TMC3    C8 9303   0.789   3.166  16.645 -0.5517  0.3685  0.1647
  624TMC3    O1 9304   1.128   3.286  16.211  0.1153  0.0445 -0.4474
  624TMC3    O2 9305   0.757   3.045  16.648 -0.4604  0.2243  0.0988
  625MPD2     C 9306   0.911   4.393   0.700  0.5511  0.5074  1.0793
  625MPD2    C1 9307   0.935   4.525   0.722 -0.4258  0.3471 -0.4310
  625MPD2    C2 9308   1.041   4.563   0.800 -0.5683 -0.3761 -0.0719
  625MPD2    C3 9309   1.132   4.474   0.847  0.2057 -0.5875 -0.4286
  625MPD2    C4 9310   1.113   4.340   0.814 -0.0221  0.3476  0.6343
  625MPD2    C5 9311   1.000   4.303   0.746 -0.1634 -0.3139  0.4116
  625MPD2     H 9312   1.057   4.668   0.819  1.3100 -0.4938 -1.0092
  625MPD2    H1 9313   1.177   4.258   0.844  0.5696  0.0614 -1.3688
  625MPD2    H2 9314   0.825   4.359   0.644  2.1563  0.9968 -1.6430
  625MPD2    H3 9315   0.971   4.199   0.750  1.2306 -0.8025 -1.7483
  625MPD2     N 9316   1.234   4.524   0.936 -0.1909  0.2375  0.2420
  625MPD2    H5 9317   1.241   4.622   0.960 -0.3371  0.0528  1.0491
  625MPD2    N1 9318   0.845   4.626   0.677 -0.5837  0.0656 -0.0730
  625MPD2    H7 9319   0.863   4.720   0.711 -0.2401  0.1015 -0.3597
  626TMC3    C1 9320   0.684   0.003   0.556  0.6591 -0.1420  0.3592
  626TMC3    C2 9321   0.635   0.010   0.432  0.2778 -0.0434  0.4643
  626TMC3    C3 9322   0.559   0.121   0.407  0.2393 -0.0957 -0.1111
  626TMC3    C4 9323   0.678   0.101   0.643  0.0975 -0.6351  0.2155
  626TMC3    C5 9324   0.598   0.202   0.615 -0.2146 -0.3621  0.3557
  626TMC3    C6 9325   0.526   0.212   0.505 -0.7418 -0.2415 -0.3175
  626TMC3     C 9326   0.746   4.612   0.585  0.1280 -0.4098 -0.4655
  626TMC3     O 9327   0.707   4.516   0.521 -1.0784  0.2336  0.3829
  626TMC3     H 9328   0.633   4.662   0.363  1.0801  1.2540 -1.1229
  626TMC3    H1 9329   0.712   0.086   0.745 -0.3297  0.2903  0.4891
  626TMC3    H2 9330   0.466   0.297   0.474 -0.9249 -0.7621 -1.3870
  626TMC3    C7 9331   0.576   0.306   0.723 -0.1971  0.3345 -0.2146
  626TMC3    C8 9332   0.533   0.152   0.269  0.2640 -0.0288 -0.0698
  626TMC3    O1 9333   0.630   0.285   0.829 -0.2599  0.7348  0.8035
  626TMC3    O2 9334   0.607   0.097   0.187 -0.5457  1.0296 -0.3527
  627MPD2     C 9335   4.595   0.101  14.261 -0.0245  0.6022  0.1770
  627MPD2    C1 9336   4.607   0.026  14.376  0.0188  0.2437 -0.2010
  627MPD2    C2 9337   4.532   4.641  14.397  0.1458  0.4027 -0.2551
  627MPD2    C3 9338   4.443   4.596  14.300 -0.2455  0.6931 -0.5445
  627MPD2    C4 9339   4.446   4.668  14.182 -0.1132  0.2452 -0.0641
  627MPD2    C5 9340   4.514   0.051  14.164 -0.2940 -0.4815 -0.0857
  627MPD2     H 9341   4.532   4.588  14.491 -0.2754 -0.0317 -0.5013
  627MPD2    H1 9342   4.390   4.622  14.101 -1.3266  0.8525  0.4385
  627MPD2    H2 9343   4.652   0.192  14.240  0.5722 -0.2425 -1.8937
  627MPD2    H3 9344   4.511   0.108  14.072 -1.6968 -0.0909  0.2095
  627MPD2     N 9345   4.358   4.483  14.333 -0.2610  0.1319 -0.1644
  627MPD2    H5 9346   4.362   4.451  14.430  0.7846  1.7167  0.3050
  627MPD2    N1 9347   4.706   0.075  14.467  0.2762  0.1284  0.0309
  627MPD2    H7 9348   0.016   0.163  14.445 -0.9624  1.0493  1.2357
  628TMC3    C1 9349   0.107   0.072  14.659  0.1333  0.0643 -0.7791
  628TMC3    C2 9350   0.190   4.729  14.737 -0.4140 -0.3779  0.6278
  628TMC3    C3 9351   0.250   0.055  14.841  0.0098  0.0529 -0.3523
  628TMC3    C4 9352   0.084   0.203  14.694 -0.3704  0.8547 -0.6765
  628TMC3    C5 9353   0.153   0.263  14.803  0.3539  0.2218 -0.2648
  628TMC3    C6 9354   0.240   0.186  14.869  0.2174  0.3398  0.4206
  628TMC3     C 9355   0.006   0.004  14.580 -0.6313 -0.4492  0.1948
  628TMC3     O 9356   4.707   4.624  14.618  0.3637 -0.0437  0.2611
  628TMC3     H 9357   0.209   4.625  14.715  1.6101  0.1127  0.0462
  628TMC3    H1 9358   0.018   0.259  14.628 -0.9101  1.5144  0.4223
  628TMC3    H2 9359   0.281   0.227  14.960 -1.2787 -0.5205  1.4745
  628TMC3    C7 9360   0.155   0.407  14.837 -0.3410  0.1426 -0.7154
  628TMC3    C8 9361   0.345   4.697  14.905 -0.2666  0.0434 -0.2230
  628TMC3    O1 9362   0.242   0.443  14.916  0.3131 -0.0093  0.1420
  628TMC3    O2 9363   0.339   4.579  14.878 -0.0844  0.0317  0.1940
  629MPD2     C 9364   3.081   3.036  16.285  0.5290  0.1831  0.4737
  629MPD2    C1 9365   3.000   3.126  16.350  0.2172 -0.7113  0.5425
  629MPD2    C2 9366   2.863   3.094  16.369 -0.2402  0.5255 -0.3820
  629MPD2    C3 9367   2.808   2.978  16.309 -0.2612 -0.4139  0.2130
  629MPD2    C4 9368   2.899   2.898  16.235 -0.2555  0.6788 -0.1801
  629MPD2    C5 9369   3.033   2.923  16.220  0.3724 -0.7295 -0.1059
  629MPD2     H 9370   2.801   3.157  16.432 -1.6202 -1.5202  0.3017
  629MPD2    H1 9371   2.862   2.810  16.183 -1.9321  0.0740  2.0434
  629MPD2    H2 9372   3.188   3.053  16.282  0.3932  0.5815 -1.9410
  629MPD2    H3 9373   3.093   2.862  16.153 -1.2174 -3.1983  0.7713
  629MPD2     N 9374   2.676   2.943  16.310 -0.0770 -0.1881 -0.0678
  629MPD2    H5 9375   2.654   2.848  16.283  1.3215 -0.9570  1.4733
  629MPD2    N1 9376   3.053   3.241  16.405 -0.7599 -0.4999 -0.8300
  629MPD2    H7 9377   3.153   3.253  16.396 -0.7170 -0.7957 -0.7377
  630TMC3    C1 9378   3.066   3.426  16.539 -0.2909 -0.1714  0.5251
  630TMC3    C2 9379   3.113   3.534  16.471  0.1826  0.7121 -0.2380
  630TMC3    C3 9380   3.205   3.606  16.537 -0.0737 -0.3686  0.1386
  630TMC3    C4 9381   3.117   3.369  16.649 -0.7720  0.1479 -0.0101
  630TMC3    C5 9382   3.231   3.430  16.695  0.1046 -0.4512  0.2783
  630TMC3    C6 9383   3.271   3.558  16.648 -0.1172 -0.6089 -0.1918
  630TMC3     C 9384   2.990   3.344  16.463  0.3377 -0.1135 -0.0910
  630TMC3     O 9385   2.873   3.368  16.479  0.0818 -0.0362  0.0115
  630TMC3     H 9386   3.073   3.563  16.374 -0.4069 -1.4776 -0.6458
  630TMC3    H1 9387   3.102   3.264  16.671  0.4146 -0.0888 -0.2862
  630TMC3    H2 9388   3.348   3.615  16.698 -0.5639 -1.2234  1.1956
  630TMC3    C7 9389   3.272   3.379  16.822  0.5242  0.1916  0.6677
  630TMC3    C8 9390   3.257   3.732  16.482 -0.0790 -0.3993  0.2154
  630TMC3    O1 9391   3.177   3.345  16.899  0.5185 -0.0206 -0.1703
  630TMC3    O2 9392   3.359   3.773  16.530  0.0525  0.1199 -0.1766
  631MPD2     C 9393   0.957   3.393  15.448  0.0114 -0.1427  1.0382
  631MPD2    C1 9394   1.046   3.432  15.352 -1.0907 -0.1247  0.7179
  631MPD2    C2 9395   1.178   3.378  15.350  0.3316  0.0521  0.5414
  631MPD2    C3 9396   1.213   3.271  15.438 -0.1147  0.8688 -0.0566
  631MPD2    C4 9397   1.117   3.228  15.530 -0.4258 -0.5185  0.0663
  631MPD2    C5 9398   0.992   3.286  15.532 -0.0191  0.4311  0.5591
  631MPD2     H 9399   1.254   3.416  15.282  0.6178 -1.3330  0.0804
  631MPD2    H1 9400   1.131   3.148  15.601  1.2219 -1.1158 -0.9382
  631MPD2    H2 9401   0.856   3.429  15.466 -0.1697 -0.9669  1.6792
  631MPD2    H3 9402   0.918   3.258  15.607 -0.9360  0.1255 -0.4529
  631MPD2     N 9403   1.341   3.209  15.432  0.0682  0.4754 -0.6387
  631MPD2    H5 9404   1.397   3.220  15.348  1.6988 -1.5413  0.1726
  631MPD2    N1 9405   1.000   3.545  15.283  0.5738  0.1352  0.0674
  631MPD2    H7 9406   0.920   3.588  15.329 -0.7656 -0.0637 -2.0812
  632TMC3    C1 9407   1.000   3.718  15.129  0.1162  0.2083  0.9122
  632TMC3    C2 9408   0.873   3.745  15.189 -0.6015  0.4374  0.6747
  632TMC3    C3 9409   0.809   3.851  15.136  0.6157 -0.2912 -0.3203
  632TMC3    C4 9410   1.069   3.791  15.040 -0.0039 -0.8074  0.3225
  632TMC3    C5 9411   0.994   3.894  14.992  0.3226 -0.0085  0.1437
  632TMC3    C6 9412   0.869   3.932  15.043  0.2413 -0.7867 -0.6006
  632TMC3     C 9413   1.067   3.601  15.181  0.6268  0.3201  0.2021
  632TMC3     O 9414   1.163   3.555  15.123  0.0085 -0.1376  0.4770
  632TMC3     H 9415   0.813   3.680  15.251 -3.0814  2.4267  0.3986
  632TMC3    H1 9416   1.165   3.758  15.002  0.2154  0.0802  0.0871
  632TMC3    H2 9417   0.816   4.023  15.017  0.2098 -1.2248 -2.0640
  632TMC3    C7 9418   1.046   3.958  14.866  0.5338 -0.5219 -0.2881
  632TMC3    C8 9419   0.667   3.871  15.168 -0.3588 -0.5047  0.1034
  632TMC3    O1 9420   1.137   3.897  14.811 -0.0233 -0.4949  0.3601
  632TMC3    O2 9421   0.630   3.815  15.273 -0.2561 -0.1604  0.1557
  633MPD2     C 9422   0.790   1.629  17.453 -0.1352 -0.7313 -0.3973
  633MPD2    C1 9423   0.793   1.572  17.328  0.3185 -0.2880 -0.1498
  633MPD2    C2 9424   0.796   1.440  17.321 -0.5471 -0.0684  0.1994
  633MPD2    C3 9425   0.811   1.350  17.425 -0.0507 -0.0972  0.0666
  633MPD2    C4 9426   0.815   1.400  17.549 -0.7134 -0.3346 -0.5198
  633MPD2    C5 9427   0.800   1.539  17.560 -0.4276  0.8582 -0.9181
  633MPD2     H 9428   0.804   1.398  17.221 -1.1184 -1.0673  0.5734
  633MPD2    H1 9429   0.843   1.340  17.635  0.3795 -0.8252 -1.2224
  633MPD2    H2 9430   0.805   1.734  17.473 -0.6199 -0.6744 -0.3321
  633MPD2    H3 9431   0.814   1.588  17.656 -3.3429 -0.3280  0.1062
  633MPD2     N 9432   0.829   1.212  17.404 -0.5689  0.1887  0.3497
  633MPD2    H5 9433   0.883   1.163  17.475  0.1455  1.7541  0.9076
  633MPD2    N1 9434   0.803   1.646  17.206  0.6708 -0.0410 -0.2043
  633MPD2    H7 9435   0.830   1.593  17.124 -2.7873 -1.2594 -0.5434
  634TMC3    C1 9436   0.851   1.817  17.065 -0.4449 -0.0275  0.2663
  634TMC3    C2 9437   0.937   1.728  17.010 -0.3615 -0.6668  0.5852
  634TMC3    C3 9438   0.975   1.755  16.878 -0.1203  0.4140  0.8033
  634TMC3    C4 9439   0.804   1.937  17.009 -0.2367 -0.2153 -0.0868
  634TMC3    C5 9440   0.855   1.963  16.882  0.2432  0.0380  0.1697
  634TMC3    C6 9441   0.933   1.870  16.820 -0.3292  0.1127 -0.1452
  634TMC3     C 9442   0.802   1.779  17.194 -0.0039  0.0790 -0.7150
  634TMC3     O 9443   0.750   1.860  17.271  0.1748 -0.1431  0.5704
  634TMC3     H 9444   0.980   1.641  17.058 -2.0223 -0.5323  2.3448
  634TMC3    H1 9445   0.720   1.987  17.057 -0.5939 -1.2867  0.4248
  634TMC3    H2 9446   0.969   1.903  16.723 -1.0022 -1.8654 -1.0582
  634TMC3    C7 9447   0.810   2.075  16.800 -0.5157 -0.3085  0.5540
  634TMC3    C8 9448   1.036   1.652  16.793  0.1572  0.4250 -0.1423
  634TMC3    O1 9449   0.866   2.085  16.694 -0.2048 -0.3873 -0.3896
  634TMC3    O2 9450   1.033   1.537  16.839 -0.2391 -0.3945 -0.6870
  635TMC3    C1 9451   0.368   2.586   0.857  0.4332  0.2633  0.2610
  635TMC3    C2 9452   0.460   2.483   0.833 -0.1431  0.7858 -0.2301
  635TMC3    C3 9453   0.498   2.402   0.938 -0.4480 -0.5609 -0.2498
  635TMC3    C4 9454   0.308   2.602   0.980  0.2455 -0.2681  0.2872
  635TMC3    C5 9455   0.357   2.522   1.076 -0.5631 -0.2275  0.1024
  635TMC3    C6 9456   0.445   2.417   1.062  0.2467  0.2339  0.0600
  635TMC3     C 9457   0.363   2.701   0.771 -0.2127 -0.2237  0.6726
  635TMC3     O 9458   0.267   2.777   0.771 -0.7419  0.2410 -0.3127
  635TMC3     H 9459   0.500   2.475   0.733 -2.4756 -3.9805 -0.7994
  635TMC3    H1 9460   0.228   2.673   0.999  0.3944  0.6074 -2.3970
  635TMC3    H2 9461   0.450   2.337   1.135 -4.1401  1.9664  2.2341
  635TMC3    C7 9462   0.290   2.535   1.211 -0.1711  0.2577 -0.9136
  635TMC3    C8 9463   0.540   2.271   0.903  0.1083 -0.1442 -0.0500
  635TMC3    O1 9464   0.269   2.427   1.261  0.8475  0.0603 -0.4173
  635TMC3    O2 9465   0.539   2.237   0.785 -0.4217 -0.4125  0.4727
  636MPD2     C 9466   2.155   1.696  16.079 -0.2957 -0.5737  0.0886
  636MPD2    C1 9467   2.143   1.690  16.215  0.4043  0.3267 -0.6959
  636MPD2    C2 9468   2.155   1.564  16.278 -0.1545 -0.3929  0.3111
  636MPD2    C3 9469   2.153   1.446  16.211 -0.3847  0.8974  0.1676
  636MPD2    C4 9470   2.141   1.455  16.072  0.1735  0.8477 -0.9081
  636MPD2    C5 9471   2.153   1.578  16.011 -0.2621  0.2103 -0.1580
  636MPD2     H 9472   2.169   1.554  16.385 -0.3356  1.8913  0.5411
  636MPD2    H1 9473   2.135   1.368  16.008  0.0111  0.7200 -0.7177
  636MPD2    H2 9474   2.171   1.791  16.030 -2.1329  0.6124  1.7817
  636MPD2    H3 9475   2.169   1.575  15.904 -1.2146  0.2654 -0.3081
  636MPD2     N 9476   2.165   1.326  16.294  0.3341 -0.1099 -0.1046
  636MPD2    H5 9477   2.182   1.335  16.394  2.5400 -0.7622 -0.4435
  636MPD2    N1 9478   2.144   1.804  16.297 -0.3710  0.3551 -0.7793
  636MPD2    H7 9479   2.163   1.788  16.395 -0.7710  1.4013 -0.5300
  637TMC3    C1 9480   2.177   1.091  16.348 -0.3092 -0.4570  0.0511
  637TMC3    C2 9481   2.135   1.104  16.476 -0.4213 -0.1906 -0.3622
  637TMC3    C3 9482   2.202   1.036  16.573  0.0438  0.1866  1.0102
  637TMC3    C4 9483   2.268   0.995  16.318  0.4349 -0.4199  0.4433
  637TMC3    C5 9484   2.333   0.925  16.413  0.2496  0.3712 -0.1796
  637TMC3    C6 9485   2.304   0.948  16.541  0.0914  0.0382  0.1647
  637TMC3     C 9486   2.162   1.198  16.242 -0.0095 -0.4743 -0.0801
  637TMC3     O 9487   2.176   1.165  16.127  0.2947  0.3968 -0.1106
  637TMC3     H 9488   2.055   1.173  16.501 -0.1679  0.1018 -0.3690
  637TMC3    H1 9489   2.303   1.001  16.216 -2.8424 -0.7764 -0.7095
  637TMC3    H2 9490   2.356   0.895  16.620  2.6056  2.9790  0.4923
  637TMC3    C7 9491   2.481   0.939  16.404  0.9012 -0.1022  0.1476
  637TMC3    C8 9492   2.232   1.127  16.682  0.1064 -0.9084 -0.1548
  637TMC3    O1 9493   2.543   0.972  16.504  0.0030 -0.1887 -0.0314
  637TMC3    O2 9494   2.147   1.200  16.727  0.1223  0.2428 -0.0670
  638MPD2     C 9495   2.183   0.587  15.137 -0.3340 -0.0092 -0.1765
  638MPD2    C1 9496   2.279   0.491  15.124 -0.0523 -0.9510  0.3758
  638MPD2    C2 9497   2.292   0.389  15.216  0.0052  0.2434  0.5053
  638MPD2    C3 9498   2.197   0.370  15.316  0.2926 -0.7581  0.4634
  638MPD2    C4 9499   2.097   0.463  15.316  0.1988 -0.0250 -1.0187
  638MPD2    C5 9500   2.096   0.578  15.243  0.1129 -0.2686  0.2183
  638MPD2     H 9501   2.367   0.313  15.197 -0.3092  0.1573 -0.3804
  638MPD2    H1 9502   2.013   0.456  15.384  1.2839 -2.1868  0.1005
  638MPD2    H2 9503   2.175   0.660  15.057  0.5660 -1.0592 -1.2292
  638MPD2    H3 9504   2.020   0.652  15.260 -1.4709 -1.9191  0.3748
  638MPD2     N 9505   2.176   0.250  15.391 -0.6728 -0.1532 -0.1542
  638MPD2    H5 9506   2.094   0.240  15.449 -0.4585 -0.7021  0.0490
  638MPD2    N1 9507   2.362   0.503  15.008  0.2247 -0.5328  0.2565
  638MPD2    H7 9508   2.337   0.566  14.932  0.9945 -1.1072 -0.4647
  639TMC3    C1 9509   2.213   0.021  15.428  0.1349 -0.2322  0.3387
  639TMC3    C2 9510   2.091   4.729  15.378  0.3285  0.2995  0.0687
  639TMC3    C3 9511   2.056   4.597  15.351 -0.5956 -0.2734 -0.3349
  639TMC3    C4 9512   2.309   4.661  15.430  0.7514 -0.1563 -0.0145
  639TMC3    C5 9513   2.276   4.529  15.402  0.0847 -0.4928 -0.3662
  639TMC3    C6 9514   2.151   4.499  15.366 -0.0088 -0.5670  0.0379
  639TMC3     C 9515   2.270   0.148  15.387 -0.1759 -0.0350  0.3515
  639TMC3     O 9516   2.385   0.153  15.355  0.2010 -0.1371 -0.6521
  639TMC3     H 9517   2.011   0.067  15.369  1.4420  1.5208  0.1846
  639TMC3    H1 9518   2.409   4.699  15.449  1.0183 -0.0280 -1.6381
  639TMC3    H2 9519   2.121   4.397  15.346 -1.9292 -0.6379  3.3726
  639TMC3    C7 9520   2.381   4.429  15.358 -0.2246  0.5955  0.0435
  639TMC3    C8 9521   1.961   4.587  15.233  0.2345  0.4637 -0.2304
  639TMC3    O1 9522   2.349   4.320  15.316  0.3473 -0.1356 -0.0180
  639TMC3    O2 9523   2.000   4.524  15.137 -0.1075  0.3520  0.0989
  640MPD2     C 9524   2.351   4.576  10.127  0.2061  0.0295  0.0440
  640MPD2    C1 9525   2.446   4.631  10.044  0.8640 -0.1927  0.0297
  640MPD2    C2 9526   2.423   0.024   9.989  0.0341  0.5048 -0.2275
  640MPD2    C3 9527   2.314   0.096  10.031 -0.1445  0.6602 -0.3453
  640MPD2    C4 9528   2.229   0.048  10.125  0.5358  0.1560  0.5591
  640MPD2    C5 9529   2.245   4.649  10.167  0.5404 -0.1659 -0.3123
  640MPD2     H 9530   2.493   0.065   9.917  0.0511 -2.2944 -1.8141
  640MPD2    H1 9531   2.146   0.109  10.160  0.0652  0.0284 -0.3272
  640MPD2    H2 9532   2.366   4.486  10.185  0.6240  1.1301  1.6310
  640MPD2    H3 9533   2.180   4.606  10.243  0.3046  0.8769  0.0833
  640MPD2     N 9534   2.289   0.227   9.983  0.3498  0.0495  0.1057
  640MPD2    H5 9535   2.211   0.274  10.029 -1.5540 -1.1734 -1.8948
  640MPD2    N1 9536   2.565   4.559  10.022 -0.0369  0.0785 -0.2004
  640MPD2    H7 9537   2.560   4.458  10.035 -1.8522 -0.0889 -2.2035
  641TMC3    C1 9538   2.781   4.503   9.947 -0.3771  0.1657 -0.0151
  641TMC3    C2 9539   2.751   4.376   9.993 -0.6885 -0.2968 -0.0772
  641TMC3    C3 9540   2.823   4.275   9.939  0.6019 -0.0324  0.3433
  641TMC3    C4 9541   2.879   4.519   9.853  0.4378 -0.2691 -0.6020
  641TMC3    C5 9542   2.958   4.418   9.811  0.3245 -0.0021 -0.1876
  641TMC3    C6 9543   2.925   4.289   9.848  0.8784 -0.0224  0.3966
  641TMC3     C 9544   2.674   4.604   9.954 -0.1798  0.3733  0.3664
  641TMC3     O 9545   2.701   4.718   9.928 -0.2751 -0.3175  0.8630
  641TMC3     H 9546   2.673   4.349  10.063  0.8118  0.5012  1.9079
  641TMC3    H1 9547   2.906   4.621   9.830  1.4284 -0.5267 -0.6032
  641TMC3    H2 9548   2.971   4.205   9.797  2.9440 -0.3693  2.8036
  641TMC3    C7 9549   3.070   4.448   9.727  0.2127  0.5315 -0.1486
  641TMC3    C8 9550   2.791   4.140   9.988 -0.1027  0.1804 -0.1139
  641TMC3    O1 9551   3.070   4.558   9.669  0.5998 -0.1422  0.6790
  641TMC3    O2 9552   2.802   4.043   9.914  0.0009 -0.3706  0.9275
  642TMC3    C1 9553   3.808   4.405  12.903 -0.0476 -0.6224 -0.3589
  642TMC3    C2 9554   3.757   4.386  13.035  0.3945  0.2334  0.1854
  642TMC3    C3 9555   3.686   4.268  13.051  0.0434  0.1309  0.5901
  642TMC3    C4 9556   3.785   4.319  12.804  0.2241 -0.9862  0.1694
  642TMC3    C5 9557   3.717   4.203  12.827  0.1501 -0.2628  0.4467
  642TMC3    C6 9558   3.662   4.178  12.951 -0.4166 -1.0471 -0.0329
  642TMC3     C 9559   3.851   4.543  12.874 -0.0455 -0.3790  0.6245
  642TMC3     O 9560   3.947   4.559  12.800 -0.3737 -0.2206  0.8619
  642TMC3     H 9561   3.784   4.449  13.120 -2.5079 -0.2128  1.4598
  642TMC3    H1 9562   3.816   4.346  12.703  0.1734 -1.1903  0.0979
  642TMC3    H2 9563   3.599   4.094  12.980  0.6934 -1.7183  0.4224
  642TMC3    C7 9564   3.680   4.124  12.712  0.2759  0.1965 -0.4435
  642TMC3    C8 9565   3.651   4.241  13.187  0.0800  0.3048  0.4146
  642TMC3    O1 9566   3.671   4.180  12.602  0.1510 -0.0718 -0.1279
  642TMC3    O2 9567   3.653   4.340  13.258  0.9452 -0.5849 -0.5077
  643TMC3    C1 9568   2.633   4.059   0.265 -0.3274  0.0634 -0.1441
  643TMC3    C2 9569   2.522   4.121   0.214 -0.1206 -0.0670  0.3790
  643TMC3    C3 9570   2.463   4.073   0.097 -0.1401 -0.3095  0.3796
  643TMC3    C4 9571   2.686   3.946   0.202 -0.5060 -0.5353 -0.3027
  643TMC3    C5 9572   2.625   3.901   0.088 -0.3397 -0.8265  0.0139
  643TMC3    C6 9573   2.510   3.961   0.042 -0.3578  0.2108  0.0417
  643TMC3     C 9574   2.667   4.093   0.405  0.1092  0.3409 -0.2056
  643TMC3     O 9575   2.619   4.205   0.433  0.6391  0.2522 -0.0977
  643TMC3     H 9576   2.462   4.189   0.273 -2.3366 -0.3103 -1.5858
  643TMC3    H1 9577   2.778   3.912   0.248 -1.4212 -1.9594  0.4689
  643TMC3    H2 9578   2.454   3.936  17.690  0.2132 -1.7202  0.2279
  643TMC3    C7 9579   2.714   3.837  17.728 -0.0357  0.9565 -0.2037
  643TMC3    C8 9580   2.432   4.177   0.002 -0.3036  0.6294 -0.0398
  643TMC3    O1 9581   2.831   3.872  17.737 -0.0637 -0.0095 -0.4087
  643TMC3    O2 9582   2.383   4.142  17.629  0.5085 -0.0140 -0.1821
  644MPD2     C 9583   2.874   0.062   9.596 -0.0654 -0.3026  0.0355
  644MPD2    C1 9584   2.982   0.145   9.567  0.4027 -0.2505  0.5818
  644MPD2    C2 9585   2.961   0.272   9.537 -0.6795 -0.6830  0.2444
  644MPD2    C3 9586   2.835   0.332   9.519  0.4498  0.7091 -0.0210
  644MPD2    C4 9587   2.723   0.250   9.547 -0.5170 -0.2204 -0.5283
  644MPD2    C5 9588   2.749   0.121   9.589 -0.3809  0.1777  0.2750
  644MPD2     H 9589   3.042   0.341   9.516 -1.0891  0.0251  1.0069
  644MPD2    H1 9590   2.620   0.283   9.532 -0.9248  0.5686  3.9853
  644MPD2    H2 9591   2.877   4.695   9.631 -1.9923 -0.1887  0.5414
  644MPD2    H3 9592   2.660   0.062   9.608 -0.0784 -0.6650 -0.9150
  644MPD2     N 9593   2.825   0.473   9.496  0.5304 -0.0480  0.1459
  644MPD2    H5 9594   2.909   0.527   9.477  0.9447 -0.1620  1.5889
  644MPD2    N1 9595   3.112   0.098   9.593  1.0183  0.1217 -0.3806
  644MPD2    H7 9596   3.114   0.005   9.633  0.0561 -1.6830 -4.6346
  645TMC3    C1 9597   2.720   0.677   9.452 -1.1137 -0.0384 -0.0576
  645TMC3    C2 9598   2.844   0.729   9.456  0.6055 -0.2107 -0.7086
  645TMC3    C3 9599   2.852   0.857   9.412  0.5006  0.0883  0.6755
  645TMC3    C4 9600   2.606   0.749   9.428  0.9348 -0.2390  0.6366
  645TMC3    C5 9601   2.619   0.888   9.402  0.2503  0.7194 -0.8747
  645TMC3    C6 9602   2.747   0.939   9.388  0.0077 -0.3041  0.0505
  645TMC3     C 9603   2.704   0.535   9.486 -0.3235 -0.1289 -0.5213
  645TMC3     O 9604   2.590   0.503   9.516 -0.4153 -0.3272 -0.1670
  645TMC3     H 9605   2.935   0.681   9.492 -0.1363 -0.5933  0.6612
  645TMC3    H1 9606   2.506   0.710   9.444  1.6178 -1.7165  1.3356
  645TMC3    H2 9607   2.755   1.041   9.351 -1.7486 -0.0252  0.4473
  645TMC3    C7 9608   2.515   0.951   9.320  0.0309 -0.3693  0.3408
  645TMC3    C8 9609   2.981   0.929   9.427  0.1363 -0.5574 -0.4820
  645TMC3    O1 9610   2.555   1.034   9.240  0.1381  0.8317  0.1353
  645TMC3    O2 9611   3.065   0.884   9.502  0.6066 -0.5722 -0.2503
  646MPD2     C 9612   2.145   3.830  14.698 -0.6035 -0.3478 -0.2568
  646MPD2    C1 9613   2.068   3.861  14.809  0.1318 -0.2801 -0.5151
  646MPD2    C2 9614   1.949   3.928  14.797  0.8103  0.1121  0.2128
  646MPD2    C3 9615   1.917   3.980  14.672 -0.3882 -0.3422  0.1143
  646MPD2    C4 9616   2.004   3.958  14.563 -0.7275  0.2170  0.8330
  646MPD2    C5 9617   2.116   3.882  14.579  0.1296  0.3635 -0.4377
  646MPD2     H 9618   1.880   3.947  14.879 -0.4665 -0.5817 -0.7035
  646MPD2    H1 9619   1.998   3.997  14.462 -1.4323 -0.7325  0.5113
  646MPD2    H2 9620   2.243   3.784  14.708 -1.3893 -2.1050 -0.6217
  646MPD2    H3 9621   2.172   3.860  14.489  2.8569  3.6233  0.4471
  646MPD2     N 9622   1.789   4.052  14.657  0.1844  0.1416 -0.0040
  646MPD2    H5 9623   1.738   4.065  14.744 -1.7430 -0.5667 -1.0411
  646MPD2    N1 9624   2.117   3.813  14.935  0.2970 -0.3055 -0.0872
  646MPD2    H7 9625   2.203   3.760  14.938  1.1521  1.1567  1.1643
  647TMC3    C1 9626   2.114   3.742  15.157 -0.3786  0.5309  0.3629
  647TMC3    C2 9627   2.041   3.712  15.266 -1.1395 -1.4414 -0.9478
  647TMC3    C3 9628   2.105   3.680  15.388 -0.0060  0.5775  0.1769
  647TMC3    C4 9629   2.249   3.765  15.174  0.6307  0.0960  0.3129
  647TMC3    C5 9630   2.312   3.737  15.294 -0.6163  0.2953  0.3877
  647TMC3    C6 9631   2.238   3.691  15.396  0.0576  0.2813  0.8092
  647TMC3     C 9632   2.047   3.821  15.052  0.0274  0.1930 -0.4081
  647TMC3     O 9633   1.943   3.880  15.085 -0.1656  0.5404  0.3656
  647TMC3     H 9634   1.939   3.680  15.249 -1.6508 -1.5444  2.2434
  647TMC3    H1 9635   2.307   3.822  15.102  3.9988 -1.0958  2.1099
  647TMC3    H2 9636   2.281   3.651  15.487 -0.0781 -4.1981 -1.0994
  647TMC3    C7 9637   2.454   3.741  15.307  0.5823  0.2941  0.5250
  647TMC3    C8 9638   2.065   3.553  15.436 -0.2886 -0.5782 -0.6707
  647TMC3    O1 9639   2.491   3.719  15.420  0.2435  0.3197 -0.3571
  647TMC3    O2 9640   2.088   3.523  15.555  0.3156  0.0393  0.6523
  648TMC3    C1 9641   1.519   1.587  16.153 -0.1513 -0.4330  0.0312
  648TMC3    C2 9642   1.519   1.457  16.105  0.3646  0.4443 -0.4417
  648TMC3    C3 9643   1.519   1.447  15.971 -0.3331 -0.7371 -0.6537
  648TMC3    C4 9644   1.492   1.701  16.078  0.6820 -0.1036 -0.5724
  648TMC3    C5 9645   1.480   1.685  15.943  0.7196 -0.2108  0.2434
  648TMC3    C6 9646   1.505   1.555  15.887  0.2577  0.7681 -0.6865
  648TMC3     C 9647   1.521   1.610  16.293 -0.2068 -0.0358 -0.2249
  648TMC3     O 9648   1.518   1.727  16.327 -0.6118 -0.5743  0.4826
  648TMC3     H 9649   1.547   1.367  16.157  0.1934 -0.2129 -1.4961
  648TMC3    H1 9650   1.475   1.798  16.124 -0.0036 -0.3210 -0.3717
  648TMC3    H2 9651   1.498   1.528  15.782  1.3041  2.8833 -1.3096
  648TMC3    C7 9652   1.399   1.778  15.863  0.1590 -0.2333  0.5524
  648TMC3    C8 9653   1.569   1.323  15.917 -0.0316  0.1096  0.2491
  648TMC3    O1 9654   1.401   1.741  15.746  0.6330  0.1592  0.3978
  648TMC3    O2 9655   1.678   1.334  15.857 -0.3749  0.5909 -0.8207
  649TMC3    C1 9656   0.643   2.722  12.748  0.2453 -0.1174 -0.1251
  649TMC3    C2 9657   0.680   2.638  12.647  0.5869 -1.2074 -0.0783
  649TMC3    C3 9658   0.674   2.499  12.657  0.1709  0.7435 -0.6197
  649TMC3    C4 9659   0.582   2.669  12.856  1.0691  0.4081  0.2749
  649TMC3    C5 9660   0.589   2.532  12.867 -0.1779  0.6031 -0.1308
  649TMC3    C6 9661   0.639   2.446  12.776  0.4166 -0.2364  0.2532
  649TMC3     C 9662   0.637   2.862  12.744  0.2949 -0.5690 -1.1433
  649TMC3     O 9663   0.577   2.917  12.834 -0.2067  0.5057  0.0232
  649TMC3     H 9664   0.717   2.672  12.551  2.6645  1.5996  1.7311
  649TMC3    H1 9665   0.566   2.725  12.948  0.3905  0.2134  0.2803
  649TMC3    H2 9666   0.635   2.339  12.797  1.6302  0.0884  2.1376
  649TMC3    C7 9667   0.576   2.484  13.005 -0.1905 -0.2123  0.3294
  649TMC3    C8 9668   0.627   2.420  12.545  0.7958 -0.2546  0.2210
  649TMC3    O1 9669   0.497   2.537  13.079  0.1491  0.4442  0.4882
  649TMC3    O2 9670   0.595   2.304  12.563 -0.6226 -0.3131  0.1342
  650TMC3    C1 9671   3.286   4.092  12.841 -0.1060  0.1194 -0.2224
  650TMC3    C2 9672   3.230   4.202  12.896 -0.2752 -0.4138 -0.1267
  650TMC3    C3 9673   3.162   4.286  12.814 -0.2067  0.2475 -0.5321
  650TMC3    C4 9674   3.285   4.061  12.707  0.1782  0.0735  0.4033
  650TMC3    C5 9675   3.228   4.160  12.630  0.3337 -0.5898 -0.2873
  650TMC3    C6 9676   3.164   4.269  12.680  0.0716 -0.1209 -0.4288
  650TMC3     C 9677   3.328   3.986  12.929 -0.0986  0.4509  0.3433
  650TMC3     O 9678   3.363   4.021  13.038 -0.2576 -0.2840 -0.2497
  650TMC3     H 9679   3.237   4.223  13.002  0.7789 -0.9804 -0.0802
  650TMC3    H1 9680   3.336   3.980  12.656 -1.2049 -0.1657 -0.5956
  650TMC3    H2 9681   3.109   4.329  12.609 -1.9552 -0.6255  0.7327
  650TMC3    C7 9682   3.212   4.132  12.489 -0.4284 -1.3130  0.1613
  650TMC3    C8 9683   3.120   4.424  12.852 -0.0508 -0.2026 -0.0041
  650TMC3    O1 9684   3.191   4.018  12.457  0.3214 -0.0319 -0.0777
  650TMC3    O2 9685   3.189   4.485  12.933 -0.2184  0.3905 -0.3622
  651MPD2     C 9686   2.037   1.312  10.985 -0.2040 -0.3425  0.1058
  651MPD2    C1 9687   2.055   1.454  10.974  0.0826 -0.4701  0.7927
  651MPD2    C2 9688   2.158   1.505  10.894  0.0337  0.0587  0.2849
  651MPD2    C3 9689   2.243   1.421  10.820  0.2810 -0.1862 -0.0405
  651MPD2    C4 9690   2.227   1.280  10.835  0.6192 -0.0219 -0.6498
  651MPD2    C5 9691   2.125   1.237  10.913 -0.7190 -0.1237  0.1408
  651MPD2     H 9692   2.171   1.609  10.869  0.4498  0.3350  1.6362
  651MPD2    H1 9693   2.302   1.212  10.798 -1.0958 -0.0024 -4.2182
  651MPD2    H2 9694   1.962   1.262  11.045  2.8481 -3.4647  1.2942
  651MPD2    H3 9695   2.113   1.130  10.901  1.8591 -0.1797 -2.0122
  651MPD2     N 9696   2.352   1.484  10.759 -0.4760  0.2312  0.2119
  651MPD2    H5 9697   2.338   1.584  10.748 -0.7114  0.0912 -0.8492
  651MPD2    N1 9698   1.967   1.556  11.031  0.0206 -0.2997  0.2550
  651MPD2    H7 9699   1.998   1.651  11.012 -0.8704  0.4900  2.6704
  652TMC3    C1 9700   2.787   1.547  10.610 -0.1162 -0.2059 -0.0477
  652TMC3    C2 9701   2.679   1.458  10.612  0.1441 -0.3284  0.2657
  652TMC3    C3 9702   2.562   1.509  10.657  0.0907  0.6183 -0.1067
  652TMC3    C4 9703   2.785   1.673  10.658  0.3053 -0.2800 -0.5857
  652TMC3    C5 9704   2.661   1.718  10.697 -0.8187  0.7960 -0.8278
  652TMC3    C6 9705   2.546   1.643  10.693 -0.9015  0.4191  0.3226
  652TMC3     C 9706   2.919   1.494  10.600  0.1272 -0.0866  0.1820
  652TMC3     O 9707   2.954   1.413  10.683  0.0481 -0.3981  0.7047
  652TMC3     H 9708   2.689   1.352  10.592 -2.0915 -0.4437 -0.1966
  652TMC3    H1 9709   2.877   1.722  10.689 -0.3990 -0.1851  1.3826
  652TMC3    H2 9710   2.454   1.693  10.723  0.3462  2.2786  1.0207
  652TMC3    C7 9711   2.673   1.825  10.798  0.1407 -0.3077 -0.4758
  652TMC3    C8 9712   2.468   1.426  10.725 -0.1143 -0.1425  0.2998
  652TMC3    O1 9713   2.612   1.797  10.901 -0.4340 -0.5362 -0.2747
  652TMC3    O2 9714   2.511   1.312  10.765 -0.0430 -0.9687 -0.2554
  653MPD2     C 9715   0.465   1.499  17.513  0.3937  0.0836  0.1336
  653MPD2    C1 9716   0.391   1.595  17.453  0.9224  0.1599 -0.2792
  653MPD2    C2 9717   0.339   1.559  17.326  0.4817  0.1082  0.6743
  653MPD2    C3 9718   0.339   1.434  17.279  0.1329 -0.3670  0.0256
  653MPD2    C4 9719   0.417   1.343  17.340 -0.2358  0.0437  0.4277
  653MPD2    C5 9720   0.481   1.373  17.459 -0.1694  0.1054 -0.6303
  653MPD2     H 9721   0.289   1.634  17.266  0.9626  0.3139  0.5330
  653MPD2    H1 9722   0.430   1.243  17.298 -2.4459 -0.3024  0.5643
  653MPD2    H2 9723   0.509   1.525  17.608  1.3206 -0.9725 -0.0135
  653MPD2    H3 9724   0.543   1.296  17.505  0.7488  1.2020 -0.0428
  653MPD2     N 9725   0.272   1.414  17.156  0.2364 -0.3153  0.2185
  653MPD2    H5 9726   0.233   1.498  17.115  1.4356  0.4008  0.5376
  653MPD2    N1 9727   0.403   1.730  17.497 -0.9578 -0.6026  0.2649
  653MPD2    H7 9728   0.399   1.803  17.426  1.4936  1.9285  2.7475
  654TMC3    C1 9729   0.186   1.295  16.971  0.5147 -0.7296 -0.3163
  654TMC3    C2 9730   0.069   1.366  16.965 -0.0288 -0.2092 -0.7004
  654TMC3    C3 9731   4.715   1.335  16.864 -0.2268 -1.0252  0.0787
  654TMC3    C4 9732   0.209   1.191  16.891  0.2688 -0.0206  0.4540
  654TMC3    C5 9733   0.117   1.156  16.801 -0.1691  1.1075  0.5705
  654TMC3    C6 9734   4.733   1.225  16.785  0.4503  0.1772  0.2963
  654TMC3     C 9735   0.266   1.295  17.090 -0.0200  0.6286  0.3893
  654TMC3     O 9736   0.327   1.194  17.114 -0.7791 -0.1180 -0.7679
  654TMC3     H 9737   0.043   1.425  17.051 -0.2231 -2.6602  0.9352
  654TMC3    H1 9738   0.306   1.143  16.895 -0.6647 -1.9024  0.2441
  654TMC3    H2 9739   4.664   1.197  16.707  0.1101  1.2883  0.1962
  654TMC3    C7 9740   0.138   1.036  16.722  0.4905  0.4409  0.4682
  654TMC3    C8 9741   4.578   1.363  16.904  0.1684  0.5057 -0.2537
  654TMC3    O1 9742   0.113   1.050  16.599  0.3544  0.1647 -0.1576
  654TMC3    O2 9743   4.552   1.473  16.946 -0.5650  0.1002 -0.1077
  655MPD2     C 9744   1.864   1.659  15.823  0.2744 -0.6051  0.0225
  655MPD2    C1 9745   1.887   1.780  15.770 -1.2279 -0.0593  0.3837
  655MPD2    C2 9746   1.935   1.784  15.638  0.0192 -0.0456  0.3858
  655MPD2    C3 9747   1.958   1.668  15.572 -0.3364 -0.3910  0.2506
  655MPD2    C4 9748   1.950   1.547  15.638 -0.1116  0.3210 -0.5939
  655MPD2    C5 9749   1.908   1.545  15.764  0.4325 -0.1568  0.2880
  655MPD2     H 9750   1.936   1.885  15.599 -0.0372 -0.9517 -1.9575
  655MPD2    H1 9751   1.984   1.451  15.601 -1.3887 -0.7423  0.9854
  655MPD2    H2 9752   1.815   1.645  15.919 -0.2694  0.1474 -0.1536
  655MPD2    H3 9753   1.905   1.452  15.819  1.3923 -0.1018  0.4328
  655MPD2     N 9754   2.003   1.659  15.441 -0.6028 -0.1120 -0.2374
  655MPD2    H5 9755   2.002   1.565  15.404  1.8996 -0.0056 -0.5677
  655MPD2    N1 9756   1.856   1.904  15.830  0.1505  0.2684 -0.3939
  655MPD2    H7 9757   1.873   1.988  15.775  2.8401 -0.0377 -0.0154
  656TMC3    C1 9758   1.713   2.055  15.962 -0.7863 -0.1895  0.0907
  656TMC3    C2 9759   1.657   2.082  16.088  0.7233  0.0747 -0.4303
  656TMC3    C3 9760   1.568   2.180  16.099  0.7036  0.5186  0.4294
  656TMC3    C4 9761   1.684   2.132  15.854 -0.9513 -0.9780 -0.1130
  656TMC3    C5 9762   1.596   2.236  15.874  0.4818 -0.5403 -0.8643
  656TMC3    C6 9763   1.529   2.262  15.993  0.5584  0.3465 -0.1380
  656TMC3     C 9764   1.790   1.928  15.949  0.5992  0.2623  0.2474
  656TMC3     O 9765   1.771   1.842  16.037 -0.2097 -0.0404  0.2659
  656TMC3     H 9766   1.681   2.020  16.174  1.8772 -1.0813 -1.5913
  656TMC3    H1 9767   1.734   2.118  15.758 -2.9734  1.3513 -1.4828
  656TMC3    H2 9768   1.456   2.342  15.999  0.2411  0.0049  0.5953
  656TMC3    C7 9769   1.558   2.287  15.748 -0.6644 -0.2546 -0.1946
  656TMC3    C8 9770   1.458   2.147  16.192  0.0534  0.1733  0.6173
  656TMC3    O1 9771   1.637   2.294  15.654  0.3164 -0.1975  0.9006
  656TMC3    O2 9772   1.425   2.029  16.198  0.2256 -0.3630  0.1982
  657TMC3    C1 9773   0.839   1.144  14.748  0.2499 -0.3810 -0.0606
  657TMC3    C2 9774   0.828   1.193  14.873 -0.0088 -0.4949  0.2641
  657TMC3    C3 9775   0.737   1.294  14.898  0.1944 -0.4612 -0.4676
  657TMC3    C4 9776   0.751   1.178  14.658 -0.4143  0.5104  0.3421
  657TMC3    C5 9777   0.650   1.271  14.682  0.0386  0.9863  0.4141
  657TMC3    C6 9778   0.646   1.339  14.801 -0.6863  0.3255 -0.3669
  657TMC3     C 9779   0.928   1.030  14.718 -0.1352  0.0029  0.1461
  657TMC3     O 9780   0.893   0.958  14.625  0.0320 -0.2376 -0.1893
  657TMC3     H 9781   0.913   1.179  14.939  0.6245  0.4087 -0.3691
  657TMC3    H1 9782   0.757   1.124  14.565 -0.3878 -0.9122  1.1772
  657TMC3    H2 9783   0.558   1.393  14.834  0.4304  1.5746  0.5949
  657TMC3    C7 9784   0.548   1.285  14.579  0.4244  0.1713  0.4345
  657TMC3    C8 9785   0.687   1.311  15.034  0.1952 -0.3992 -0.5634
  657TMC3    O1 9786   0.519   1.187  14.508  0.8387  0.0017 -0.4752
  657TMC3    O2 9787   0.609   1.403  15.055  0.4384  0.1827  0.3619
  658MPD2     C 9788   2.207   1.204  15.040 -0.1150  0.6456  0.1043
  658MPD2    C1 9789   2.084   1.251  14.996 -0.2434  0.1040  0.5652
  658MPD2    C2 9790   2.021   1.188  14.895 -0.3251 -0.4318 -0.1715
  658MPD2    C3 9791   2.089   1.097  14.821 -0.0277  0.2571  0.4465
  658MPD2    C4 9792   2.212   1.051  14.865 -0.0983 -0.2061  0.0209
  658MPD2    C5 9793   2.274   1.110  14.970 -0.1442 -0.2735  1.0374
  658MPD2     H 9794   1.923   1.226  14.868 -0.0872 -0.5778 -1.2242
  658MPD2    H1 9795   2.276   0.984  14.808 -0.0807  1.5253 -1.9982
  658MPD2    H2 9796   2.266   1.237  15.124 -0.0637 -1.5009  0.9014
  658MPD2    H3 9797   2.363   1.063  15.010 -0.2935 -1.9081 -0.5484
  658MPD2     N 9798   2.030   1.048  14.700  0.4416 -0.9118 -0.3291
  658MPD2    H5 9799   1.935   1.083  14.693  0.8846  0.4165  0.3735
  658MPD2    N1 9800   2.042   1.370  15.057  0.0440  0.0190  0.4383
  658MPD2    H7 9801   2.082   1.394  15.147  0.4426  0.2313  0.2002
  659TMC3    C1 9802   1.906   1.563  15.101  0.5239  0.7684  0.0969
  659TMC3    C2 9803   1.994   1.619  15.192 -0.2257  0.2309  0.1716
  659TMC3    C3 9804   1.971   1.743  15.230 -0.1197  0.2843  0.2205
  659TMC3    C4 9805   1.798   1.634  15.052 -0.2130  0.4939 -0.6080
  659TMC3    C5 9806   1.785   1.763  15.082 -0.7668  0.6473 -0.4593
  659TMC3    C6 9807   1.869   1.821  15.172  1.1890  0.0056  0.2143
  659TMC3     C 9808   1.942   1.448  15.012  0.1475 -0.6626  0.1029
  659TMC3     O 9809   1.886   1.445  14.902 -0.1739  0.0758  0.2384
  659TMC3     H 9810   2.089   1.572  15.219 -0.1691  0.8330  1.0054
  659TMC3    H1 9811   1.725   1.591  14.985  0.5504 -0.5860 -0.7530
  659TMC3    H2 9812   1.851   1.920  15.210  1.5741  0.2074 -0.1235
  659TMC3    C7 9813   1.646   1.805  15.090  0.0005  0.3127 -0.2502
  659TMC3    C8 9814   2.021   1.774  15.365 -0.0490 -0.3611 -0.7501
  659TMC3    O1 9815   1.553   1.727  15.071  0.7470  0.4851  0.5785
  659TMC3    O2 9816   2.046   1.889  15.390  0.0126  0.3901  0.3135
  660MPD2     C 9817   0.004   0.832  12.540  0.4661 -0.4430 -0.6237
  660MPD2    C1 9818   4.607   0.798  12.557  0.4480 -0.6082  0.5873
  660MPD2    C2 9819   4.584   0.706  12.662  0.0870 -0.0302 -0.4658
  660MPD2    C3 9820   4.676   0.651  12.746  0.6431  0.0126 -0.5003
  660MPD2    C4 9821   0.070   0.694  12.730  0.1001 -0.1552  0.5190
  660MPD2    C5 9822   0.099   0.782  12.630 -0.5325 -0.1888  0.2713
  660MPD2     H 9823   4.484   0.676  12.693 -0.0278  0.1663 -0.6412
  660MPD2    H1 9824   0.148   0.651  12.792 -0.3197 -0.5127  0.7949
  660MPD2    H2 9825   0.045   0.895  12.462 -1.8949  2.6659  0.6622
  660MPD2    H3 9826   0.201   0.815  12.619 -0.5964 -0.1746 -0.2521
  660MPD2     N 9827   4.625   0.564  12.842 -0.5938  0.6803 -0.7594
  660MPD2    H5 9828   4.527   0.538  12.834 -0.5020 -0.1773  0.9046
  660MPD2    N1 9829   4.510   0.846  12.468 -0.0716  0.0895  0.1970
  660MPD2    H7 9830   4.549   0.895  12.388  1.1382  0.7168  1.1738
  661TMC3    C1 9831   4.306   0.809  12.346 -0.3237 -0.2201 -0.5130
  661TMC3    C2 9832   4.372   0.844  12.231 -0.4928  0.1315 -0.0703
  661TMC3    C3 9833   4.306   0.830  12.114  0.3528 -0.0828  0.5369
  661TMC3    C4 9834   4.179   0.768  12.346  0.1944  0.0250  0.4260
  661TMC3    C5 9835   4.120   0.735  12.225  0.2184 -0.2170 -0.2278
  661TMC3    C6 9836   4.179   0.777  12.107  0.0461 -0.0898  0.1212
  661TMC3     C 9837   4.383   0.782  12.462 -0.0730 -0.0956 -0.6227
  661TMC3     O 9838   4.328   0.715  12.552 -0.5213  0.7024  0.0523
  661TMC3     H 9839   4.477   0.870  12.223 -0.1407 -1.4707 -0.6205
  661TMC3    H1 9840   4.132   0.748  12.441 -0.2133  1.1788  0.4637
  661TMC3    H2 9841   4.128   0.767  12.012 -0.4382  1.4469  0.2196
  661TMC3    C7 9842   3.975   0.710  12.230  0.0520 -0.5105 -0.0860
  661TMC3    C8 9843   4.362   0.894  11.987  0.3544  0.2602 -0.1998
  661TMC3    O1 9844   3.921   0.746  12.335 -0.2708  0.2773 -0.1737
  661TMC3    O2 9845   4.482   0.908  11.973  0.2274  0.3102  0.1258
  662MPD2     C 9846   0.066   4.689   0.099 -1.2008  0.2404  0.5139
  662MPD2    C1 9847   4.721   0.004   0.001  0.5214  0.2274 -0.1723
  662MPD2    C2 9848   4.591   0.032   0.027 -0.4201 -0.1585  0.6053
  662MPD2    C3 9849   4.548   0.003   0.159 -0.1925  0.1460 -0.1550
  662MPD2    C4 9850   4.628   4.683   0.257 -0.4254  0.2553  0.0042
  662MPD2    C5 9851   0.023   4.666   0.225 -0.3141 -0.1971  0.6136
  662MPD2     H 9852   4.527   0.070  17.686  1.1926  1.6875  0.1945
  662MPD2    H1 9853   4.596   4.673   0.360  1.2207 -0.9183  0.4034
  662MPD2    H2 9854   0.169   4.665   0.074 -1.0004  1.8683 -0.2099
  662MPD2    H3 9855   0.087   4.633   0.307 -1.0963  0.2419  1.3964
  662MPD2     N 9856   4.418   0.034   0.196 -0.3935  0.2851 -0.4109
  662MPD2    H5 9857   4.379   4.734   0.283  1.5743 -0.7040  0.0775
  662MPD2    N1 9858   0.018   0.034  17.601 -0.2906 -0.4888  0.1530
  662MPD2    H7 9859   4.690   0.098  17.554  0.8619  1.3308  1.1044
  663TMC3    C1 9860   0.129   0.043  17.396  0.2658 -0.6049 -1.0270
  663TMC3    C2 9861   0.047   0.147  17.357  0.2994  0.6405  0.2500
  663TMC3    C3 9862   0.047   0.181  17.228  0.2271  0.4098 -0.5430
  663TMC3    C4 9863   0.202   4.701  17.307 -0.2206 -0.2776 -0.1199
  663TMC3    C5 9864   0.185   4.728  17.176  0.5840  0.6795  0.3599
  663TMC3    C6 9865   0.117   0.108  17.137  0.8009  0.1368 -0.2195
  663TMC3     C 9866   0.132   0.002  17.533 -0.0586 -0.1055 -0.4462
  663TMC3     O 9867   0.230   4.666  17.566  0.5765  0.2745 -0.3038
  663TMC3     H 9868   0.022   0.223  17.430 -2.4619  0.6987 -0.7561
  663TMC3    H1 9869   0.261   4.613  17.332 -2.6090 -1.5920  0.8497
  663TMC3    H2 9870   0.077   0.101  17.037  0.0648  1.1037 -0.0026
  663TMC3    C7 9871   0.180   4.620  17.072 -0.1113 -0.2571 -0.2421
  663TMC3    C8 9872   4.646   0.203  17.186 -0.1985  1.2488  1.0573
  663TMC3    O1 9873   0.176   4.655  16.957 -0.0112 -0.4389  0.7084
  663TMC3    O2 9874   4.629   0.267  17.083  0.3268 -0.0579 -0.0792
  664MPD2     C 9875   2.920   2.671  17.358  0.2200 -0.3402 -0.1038
  664MPD2    C1 9876   2.916   2.744  17.471  0.2120  0.1292  0.1767
  664MPD2    C2 9877   2.821   2.724  17.568  0.0568 -0.5173  0.3512
  664MPD2    C3 9878   2.744   2.616  17.571  0.0104  0.1246 -0.2190
  664MPD2    C4 9879   2.749   2.526  17.462  0.4314 -1.1566 -0.1195
  664MPD2    C5 9880   2.832   2.559  17.356  0.1339 -0.0914 -0.3419
  664MPD2     H 9881   2.822   2.792  17.652 -1.1280 -0.5243  0.3723
  664MPD2    H1 9882   2.677   2.446  17.450  1.8442 -2.4239 -0.0930
  664MPD2    H2 9883   2.985   2.693  17.275  0.4707 -1.1664 -0.1300
  664MPD2    H3 9884   2.845   2.497  17.268 -0.9661 -0.5862 -0.1533
  664MPD2     N 9885   2.668   2.584  17.683  0.6887  0.2280  0.1298
  664MPD2    H5 9886   2.652   2.661   0.009 -0.5699 -0.1396  0.2739
  664MPD2    N1 9887   2.994   2.860  17.495 -0.3806 -0.0341 -0.5930
  664MPD2    H7 9888   2.980   2.910  17.582 -0.8564 -0.5077 -0.4004
  665TMC3    C1 9889   2.528   2.472   0.095 -0.1048 -0.6681 -0.1574
  665TMC3    C2 9890   2.537   2.361   0.179 -0.9358  0.3481 -0.1954
  665TMC3    C3 9891   2.505   2.385   0.312  0.0126  0.0319  0.5910
  665TMC3    C4 9892   2.480   2.591   0.139  1.2835  0.4223 -0.2083
  665TMC3    C5 9893   2.454   2.602   0.271  0.6706  0.5224  0.0866
  665TMC3    C6 9894   2.469   2.501   0.358 -0.7279  0.5932 -0.3256
  665TMC3     C 9895   2.598   2.468  17.705  0.1599  1.3006  0.2467
  665TMC3     O 9896   2.610   2.363  17.653  0.0962  0.1590  0.0178
  665TMC3     H 9897   2.576   2.265   0.148 -1.1209  0.4112 -0.6169
  665TMC3    H1 9898   2.477   2.675   0.070  1.5030 -0.6422 -1.5146
  665TMC3    H2 9899   2.454   2.519   0.464 -0.5754  0.5368 -0.2941
  665TMC3    C7 9900   2.388   2.725   0.308  0.1661  0.0214  0.3129
  665TMC3    C8 9901   2.456   2.268   0.387  0.4486  0.5654 -0.7531
  665TMC3    O1 9902   2.311   2.778   0.223  0.1858 -0.1957  0.2011
  665TMC3    O2 9903   2.456   2.281   0.507  0.1316  0.8809 -0.0456
  666TMC3    C1 9904   2.395   2.903  10.143 -0.1527 -0.5504  0.3476
  666TMC3    C2 9905   2.527   2.920  10.124 -0.2754 -0.4577 -0.7041
  666TMC3    C3 9906   2.580   3.055  10.125 -0.4443 -0.4276 -0.4803
  666TMC3    C4 9907   2.310   3.012  10.143  0.1620 -0.9848  0.0408
  666TMC3    C5 9908   2.364   3.142  10.136  0.4085  0.1968 -0.0912
  666TMC3    C6 9909   2.501   3.164  10.135  0.4884 -0.0163  0.0260
  666TMC3     C 9910   2.368   2.800  10.249 -0.0359 -0.2796  0.3997
  666TMC3     O 9911   2.461   2.758  10.317 -0.5281  0.0610  0.3809
  666TMC3     H 9912   2.590   2.832  10.120 -0.2111 -0.4342 -0.0919
  666TMC3    H1 9913   2.208   2.986  10.172 -1.5307  2.5130 -2.8836
  666TMC3    H2 9914   2.536   3.266  10.136 -0.3265  0.2516  2.0001
  666TMC3    C7 9915   2.270   3.250  10.118  0.3090 -0.5781  0.5444
  666TMC3    C8 9916   2.691   3.055  10.220 -0.6148 -0.3258  0.3542
  666TMC3    O1 9917   2.152   3.222  10.128 -0.1654 -0.1860 -0.6375
  666TMC3    O2 9918   2.757   2.951  10.228  0.0348 -0.1596  0.2076
  667MPD2     C 9919   3.797   3.109  14.635  0.3078 -1.3312  0.0423
  667MPD2    C1 9920   3.733   3.138  14.749  0.0893  0.4630  0.1322
  667MPD2    C2 9921   3.627   3.061  14.794 -0.2116  0.3504 -0.3836
  667MPD2    C3 9922   3.568   2.967  14.706 -0.6858 -0.2067 -0.1173
  667MPD2    C4 9923   3.629   2.945  14.589 -0.1158  0.2480 -0.1418
  667MPD2    C5 9924   3.740   3.017  14.556 -0.5471 -1.0138 -0.1862
  667MPD2     H 9925   3.573   3.094  14.882 -0.6030 -1.2038 -0.0509
  667MPD2    H1 9926   3.586   2.866  14.529 -2.2519 -0.3603  2.1728
  667MPD2    H2 9927   3.876   3.165  14.586 -0.4509  0.9217  1.3633
  667MPD2    H3 9928   3.792   2.997  14.462 -0.2154 -0.5984 -0.0922
  667MPD2     N 9929   3.449   2.893  14.731 -0.1746  1.1095  0.5913
  667MPD2    H5 9930   3.421   2.815  14.672  0.8977 -0.1209  1.6978
  667MPD2    N1 9931   3.769   3.254  14.823  0.2794 -0.3214  0.9592
  667MPD2    H7 9932   3.739   3.269  14.918 -0.1743 -0.5430  0.8470
  668TMC3    C1 9933   3.887   3.441  14.893  0.2703 -0.2504  0.5912
  668TMC3    C2 9934   3.930   3.569  14.873  0.1649  1.3448 -0.2129
  668TMC3    C3 9935   3.982   3.643  14.974  0.2948 -0.0564 -0.2950
  668TMC3    C4 9936   3.896   3.377  15.017 -0.0854  0.7779  0.7959
  668TMC3    C5 9937   3.973   3.445  15.109 -0.5949 -0.1944 -0.6539
  668TMC3    C6 9938   4.006   3.579  15.094  0.5986  0.1273  0.4524
  668TMC3     C 9939   3.857   3.354  14.779  0.0518 -0.1831 -0.2999
  668TMC3     O 9940   3.893   3.377  14.664  0.1216  0.5144  0.0006
  668TMC3     H 9941   3.900   3.609  14.777 -0.1787 -0.2253 -0.7589
  668TMC3    H1 9942   3.883   3.270  15.028 -0.8105  0.8329  0.5237
  668TMC3    H2 9943   4.066   3.629  15.169  0.9135 -0.8889  0.8756
  668TMC3    C7 9944   4.012   3.385  15.234 -0.3984 -0.1633  0.1747
  668TMC3    C8 9945   4.057   3.761  14.945  0.1328  0.6796 -0.2845
  668TMC3    O1 9946   4.118   3.425  15.283 -0.2374 -0.2933  0.1843
  668TMC3    O2 9947   4.058   3.847  15.033  0.2997  0.0881 -0.6874
  669TMC3    C1 9948   1.960   2.786  14.906  0.2353  0.3396 -0.0620
  669TMC3    C2 9949   1.861   2.872  14.899  0.9092  0.1438 -0.1812
  669TMC3    C3 9950   1.878   2.991  14.831  0.3813 -0.0177 -0.2950
  669TMC3    C4 9951   2.083   2.811  14.852  0.4328  0.2287 -0.2329
  669TMC3    C5 9952   2.097   2.918  14.772  0.0185  0.3860  1.1449
  669TMC3    C6 9953   1.993   3.009  14.759  0.1337 -0.0978 -0.2945
  669TMC3     C 9954   1.936   2.657  14.967  0.4505  0.1361 -0.7258
  669TMC3     O 9955   2.025   2.572  14.949 -0.2456 -0.0641 -0.6988
  669TMC3     H 9956   1.762   2.835  14.924  0.7196 -0.3149 -1.6071
  669TMC3    H1 9957   2.162   2.738  14.867 -0.7523 -0.4596  2.5973
  669TMC3    H2 9958   2.014   3.102  14.708 -0.8824  0.5536  0.4730
  669TMC3    C7 9959   2.223   2.986  14.783 -0.5178  0.1174  1.0626
  669TMC3    C8 9960   1.753   3.049  14.780  0.0276 -0.2102  0.1163
  669TMC3    O1 9961   2.244   3.082  14.710 -0.2581  0.0395  0.2931
  669TMC3    O2 9962   1.645   2.998  14.821  0.5740  0.1078  0.0962
  670MPD2     C 9963   0.459   0.761  13.583  0.4589 -0.2257  0.4205
  670MPD2    C1 9964   0.499   0.689  13.684  0.6095  0.5801 -0.1991
  670MPD2    C2 9965   0.419   0.693  13.805 -0.1857 -0.2947  0.0755
  670MPD2    C3 9966   0.306   0.761  13.817 -0.0486 -0.1781 -0.4093
  670MPD2    C4 9967   0.260   0.824  13.705  0.8435  0.1023 -0.2521
  670MPD2    C5 9968   0.339   0.830  13.597  0.7926 -0.2774 -0.0274
  670MPD2     H 9969   0.462   0.644  13.893  0.8568  2.8987  1.3332
  670MPD2    H1 9970   0.163   0.870  13.694  1.3833  1.3443  0.1647
  670MPD2    H2 9971   0.515   0.759  13.490  0.7652 -1.4009  0.6345
  670MPD2    H3 9972   0.310   0.887  13.510  0.9511 -2.3444 -1.4504
  670MPD2     N 9973   0.221   0.755  13.934 -0.4340  0.1049  0.0206
  670MPD2    H5 9974   0.130   0.798  13.920  0.0761  0.6710 -1.5326
  670MPD2    N1 9975   0.614   0.611  13.685 -0.4508 -0.3923 -0.1771
  670MPD2    H7 9976   0.633   0.559  13.770 -2.2752  0.5357  0.7934
  671TMC3    C1 9977   0.148   0.713  14.160  0.3236 -0.8404  0.4402
  671TMC3    C2 9978   0.182   0.677  14.285  0.1492  0.3033 -0.2057
  671TMC3    C3 9979   0.095   0.596  14.356  0.0255 -0.1904 -0.2806
  671TMC3    C4 9980   0.022   0.688  14.112 -0.3622  0.3837 -0.3594
  671TMC3    C5 9981   4.674   0.604  14.187  0.3176  0.2416  0.5238
  671TMC3    C6 9982   4.706   0.565  14.316 -0.3967  0.0949  0.0266
  671TMC3     C 9983   0.258   0.721  14.061 -0.3955  0.5618  0.6864
  671TMC3     O 9984   0.374   0.704  14.099 -0.0197  0.0140 -0.1936
  671TMC3     H 9985   0.289   0.674  14.301  0.0116  0.9093  0.8764
  671TMC3    H1 9986   4.728   0.719  14.012 -1.8066  0.1567 -0.0067
  671TMC3    H2 9987   4.650   0.487  14.367 -2.4805  3.0587  2.3000
  671TMC3    C7 9988   4.614   0.506  14.099 -0.3278 -0.0641  0.4601
  671TMC3    C8 9989   0.171   0.480  14.388  0.4048  0.0741  0.1706
  671TMC3    O1 9990   4.672   0.473  13.999 -0.3557 -0.3894 -0.4004
  671TMC3    O2 9991   0.114   0.375  14.360  0.0210 -0.2168 -0.3671
  672MPD2     C 9992   4.626   1.064   1.061 -0.1191 -0.3172  0.2115
  672MPD2    C1 9993   0.012   1.072   0.994 -0.3672  0.1919 -0.2779
  672MPD2    C2 9994   0.125   1.118   1.064 -0.2475  0.1360 -0.1466
  672MPD2    C3 9995   0.117   1.161   1.198  0.3450  0.3568 -0.7698
  672MPD2    C4 9996   4.729   1.158   1.260  0.4588 -0.4503  0.3682
  672MPD2    C5 9997   4.620   1.105   1.191  0.2847 -0.4059 -0.1610
  672MPD2     H 9998   0.224   1.116   1.019 -0.0755 -1.0840  0.2858
  672MPD2    H1 9999   4.723   1.185   1.364 -0.2758 -0.2774  0.2833
  672MPD2    H210000   4.532   1.035   1.015  0.5584 -2.4888  0.1936
  672MPD2    H310001   4.524   1.084   1.236  0.1586 -0.6265 -0.5341
  672MPD2     N10002   0.224   1.217   1.268  0.1765  1.1020 -0.4842
  672MPD2    H510003   0.196   1.238   1.363  0.6889  0.1614 -0.1301
  672MPD2    N110004   0.026   1.039   0.857 -0.6659  0.6810  0.3478
  672MPD2    H710005   0.115   1.046   0.809  0.9193  0.1026  3.1572
  673TMC3    C110006   4.696   0.953   0.655  0.0398  0.3202 -0.1438
  673TMC3    C210007   0.085   0.889   0.669 -0.1117 -0.1702  0.0248
  673TMC3    C310008   0.138   0.850   0.549  0.1850  0.2612  0.4735
  673TMC3    C410009   4.641   0.984   0.531  1.0573  0.9385  0.2261
  673TMC3    C510010   4.698   0.940   0.416 -0.6089  0.6465 -0.2329
  673TMC3    C610011   0.080   0.870   0.425  0.4863  0.3275  0.3793
  673TMC3     C10012   4.650   1.018   0.772  0.0493 -0.8363 -0.3239
  673TMC3     O10013   4.534   1.048   0.792 -0.1048 -0.1698 -0.9060
  673TMC3     H10014   0.110   0.844   0.764 -0.8973  2.3210  1.4261
  673TMC3    H110015   4.544   1.033   0.531 -0.6223 -2.4167  2.1611
  673TMC3    H210016   0.143   0.852   0.339 -0.4390 -1.3998  0.0521
  673TMC3    C710017   4.664   0.992   0.283  0.5554  0.5102  1.1718
  673TMC3    C810018   0.275   0.808   0.565 -0.1689  0.2128  0.3550
  673TMC3    O110019   4.699   0.929   0.182  0.0197 -0.0262  0.8366
  673TMC3    O210020   0.333   0.837   0.666 -0.7086  0.1577 -0.2008
  674MPD2     C10021   4.178   1.314  17.633 -0.8666  0.6522 -0.2215
  674MPD2    C110022   4.188   1.190  17.692 -0.4731  0.4390  0.4682
  674MPD2    C210023   4.095   1.165   0.062 -0.1589 -0.6564  0.5948
  674MPD2    C310024   4.013   1.260   0.117  0.5390  0.3098  0.0799
  674MPD2    C410025   4.021   1.384   0.058  0.0368  0.1262  0.3173
  674MPD2    C510026   4.097   1.407  17.685 -0.2029 -0.2461 -0.2635
  674MPD2     H10027   4.087   1.065   0.103 -0.3232 -0.5380  0.8536
  674MPD2    H110028   3.954   1.465   0.084 -1.4461 -1.4617  1.4910
  674MPD2    H210029   4.231   1.342  17.543  1.6458  0.2910  1.1432
  674MPD2    H310030   4.088   1.505  17.639 -1.2920 -0.7089 -1.0132
  674MPD2     N10031   3.930   1.234   0.231 -0.3215  0.5235  0.0303
  674MPD2    H510032   3.881   1.311   0.276 -1.9032  1.2146 -2.8471
  674MPD2    N110033   4.279   1.085  17.657 -0.0632 -0.5452  0.9368
  674MPD2    H710034   4.283   1.018  17.733  0.6360 -1.3502  0.1817
  675TMC3    C110035   4.469   0.979  17.561  0.1406 -0.3402  0.3252
  675TMC3    C210036   4.457   0.873  17.649 -0.2629  0.0452  0.6011
  675TMC3    C310037   4.560   0.785  17.664  0.7103  0.6841 -0.3093
  675TMC3    C410038   4.576   0.987  17.482  0.7961 -0.4538  0.0407
  675TMC3    C510039   4.675   0.893  17.492  0.1848 -0.1989 -0.0317
  675TMC3    C610040   4.664   0.791  17.581 -0.4085  0.7114  0.1724
  675TMC3     C10041   4.370   1.088  17.557 -0.1554  0.1138 -0.0087
  675TMC3     O10042   4.379   1.177  17.479 -0.2538 -0.2518 -0.2307
  675TMC3     H10043   4.366   0.865  17.709 -0.0462 -0.5017  0.8553
  675TMC3    H110044   4.588   1.070  17.414 -0.7136 -0.2365  0.0527
  675TMC3    H210045   0.022   0.744  17.612 -0.4526  0.1270 -0.5747
  675TMC3    C710046   0.074   0.949  17.480 -0.0287 -0.1271  0.2212
  675TMC3    C810047   4.564   0.674   0.022 -0.7040 -0.4793 -1.0999
  675TMC3    O110048   0.093   1.068  17.482 -0.0211 -0.2990  0.2771
  675TMC3    O210049   4.662   0.604   0.010 -0.6510 -0.6016  0.7299
  676MPD2     C10050   3.473   4.111  11.093 -0.4559 -0.0360  0.2562
  676MPD2    C110051   3.376   4.061  11.177  0.6055 -0.0989 -0.9280
  676MPD2    C210052   3.382   3.927  11.211  0.4631 -0.0091  0.7301
  676MPD2    C310053   3.480   3.841  11.174  0.5896 -0.8546 -0.0734
  676MPD2    C410054   3.577   3.891  11.090  0.9414 -0.1882  0.3690
  676MPD2    C510055   3.573   4.024  11.053  0.1448 -0.2070 -0.0407
  676MPD2     H10056   3.295   3.888  11.262  0.6474  1.8800  2.4662
  676MPD2    H110057   3.655   3.830  11.047  1.5098  1.8119 -1.3976
  676MPD2    H210058   3.463   4.215  11.063  0.8185 -0.0070 -0.0558
  676MPD2    H310059   3.655   4.054  10.988  1.1477  1.3167  1.9218
  676MPD2     N10060   3.471   3.699  11.199  0.1288 -0.2825 -0.4940
  676MPD2    H510061   3.548   3.641  11.167  2.1656  2.2963 -0.2240
  676MPD2    N110062   3.275   4.130  11.241  0.2669  0.4560 -0.4830
  676MPD2    H710063   3.224   4.074  11.308  0.8036  0.7866  0.2120
  677TMC3    C110064   3.163   4.302  11.354  0.0216  0.6388  0.0692
  677TMC3    C210065   3.068   4.206  11.377  0.6294 -0.4796  0.6142
  677TMC3    C310066   2.985   4.227  11.486  0.5125  0.7278 -0.1098
  677TMC3    C410067   3.190   4.407  11.437  0.6090  0.2850 -0.0424
  677TMC3    C510068   3.111   4.417  11.545  0.0158  0.2887  0.5403
  677TMC3    C610069   3.004   4.337  11.567 -0.1962  0.1708 -0.0139
  677TMC3     C10070   3.261   4.269  11.248  0.1559  0.4051 -0.5515
  677TMC3     O10071   3.340   4.353  11.201 -0.6097 -0.6662 -1.0975
  677TMC3     H10072   3.048   4.122  11.311 -0.8017 -0.0763  0.5227
  677TMC3    H110073   3.283   4.456  11.412 -0.6671  2.2930 -0.8626
  677TMC3    H210074   2.935   4.365  11.646  0.8093  0.0159  0.9300
  677TMC3    C710075   3.129   4.519  11.645 -0.4111 -0.8533  0.5896
  677TMC3    C810076   2.951   4.110  11.558 -0.5009 -0.0474  0.6486
  677TMC3    O110077   3.088   4.488  11.754  0.0590  0.4431 -0.2322
  677TMC3    O210078   3.008   4.006  11.529 -0.2722  0.3463  0.3422
  678MPD2     C10079   3.763   3.842   1.145 -0.0696 -0.5445 -0.3897
  678MPD2    C110080   3.725   3.776   1.027  0.2068 -0.9082 -0.1007
  678MPD2    C210081   3.593   3.732   1.008  0.5474  0.8072  0.8627
  678MPD2    C310082   3.491   3.761   1.098 -0.7292  0.2354 -0.1632
  678MPD2    C410083   3.529   3.831   1.220 -0.4655 -0.4238 -0.2051
  678MPD2    C510084   3.663   3.867   1.238  0.0374 -0.1340  0.1335
  678MPD2     H10085   3.583   3.660   0.927  2.0572  1.9219 -0.3248
  678MPD2    H110086   3.460   3.864   1.296  0.4056 -1.1071  0.8837
  678MPD2    H210087   3.864   3.872   1.170  0.7062 -2.6418 -0.9728
  678MPD2    H310088   3.699   3.916   1.328  0.3468  0.3853 -0.2754
  678MPD2     N10089   3.353   3.728   1.066  0.0748  0.4518  0.4889
  678MPD2    H510090   3.335   3.684   0.976 -0.1606 -2.4451  1.9731
  678MPD2    N110091   3.830   3.754   0.927 -0.3306  0.0074  0.0609
  678MPD2    H710092   3.809   3.698   0.845 -2.0821 -1.0620  1.2166
  679TMC3    C110093   4.092   3.671   0.628 -0.6383  0.0139  0.6983
  679TMC3    C210094   4.015   3.689   0.741 -0.6021 -0.6516 -0.0958
  679TMC3    C310095   4.017   3.805   0.798 -1.1834  0.0582 -0.3439
  679TMC3    C410096   4.186   3.759   0.588 -0.2004  0.4416  0.0641
  679TMC3    C510097   4.187   3.879   0.656 -0.8336 -0.6897 -0.1867
  679TMC3    C610098   4.098   3.912   0.763 -0.2588  0.3291 -0.4338
  679TMC3     C10099   4.123   3.534   0.586 -0.0914  0.0261  0.3637
  679TMC3     O10100   4.223   3.516   0.514  0.2396  0.3679 -0.5131
  679TMC3     H10101   3.950   3.611   0.778 -1.2761  1.0043  2.2051
  679TMC3    H110102   4.247   3.741   0.500 -2.9486 -0.4966 -1.6392
  679TMC3    H210103   4.084   4.004   0.819 -4.0196 -1.4239  1.4837
  679TMC3    C710104   4.233   4.003   0.592  0.0910  0.4553 -0.4576
  679TMC3    C810105   3.955   3.815   0.924  0.0957  0.4634  0.2959
  679TMC3    O110106   4.161   4.101   0.602  0.2581 -0.6348 -0.3007
  679TMC3    O210107   4.008   3.894   1.004  0.3720 -0.0509 -0.7238
  680MPD2     C10108   4.430   2.276  13.360 -0.5789  0.0552 -0.5883
  680MPD2    C110109   4.559   2.302  13.389 -0.3547  0.2311  0.4358
  680MPD2    C210110   4.598   2.423  13.445  0.0413  0.4363 -0.2693
  680MPD2    C310111   4.506   2.523  13.468 -0.7442  0.0137  0.1103
  680MPD2    C410112   4.376   2.495  13.439 -0.3209 -0.6416  0.2708
  680MPD2    C510113   4.338   2.373  13.386 -0.7506 -0.0742 -0.4724
  680MPD2     H10114   4.700   2.436  13.480  0.0209  1.3416 -0.5369
  680MPD2    H110115   4.296   2.565  13.459 -0.3363  0.1127 -2.4228
  680MPD2    H210116   4.398   2.183  13.314 -0.3339 -1.0846  1.5610
  680MPD2    H310117   4.233   2.351  13.370 -0.2106 -0.8988 -2.9207
  680MPD2     N10118   4.532   2.644  13.526 -0.0870  0.2605 -0.4991
  680MPD2    H510119   4.456   2.704  13.556  0.5524  0.5824  0.4542
  680MPD2    N110120   4.661   2.202  13.373  0.4052  0.1305  0.2287
  680MPD2    H710121   0.017   2.239  13.399 -0.2068  1.3477  0.6281
  681TMC3    C110122   0.032   1.989  13.335  0.5172 -0.1309  0.0052
  681TMC3    C210123   0.001   1.886  13.420  0.3902  0.2517 -0.0068
  681TMC3    C310124   0.078   1.872  13.535  0.3790  0.2024  0.5294
  681TMC3    C410125   0.148   2.061  13.351 -0.2899 -0.1531  0.2113
  681TMC3    C510126   0.224   2.044  13.465 -0.2556 -0.5667 -0.3468
  681TMC3    C610127   0.195   1.941  13.555 -0.1091  0.3881  0.3595
  681TMC3     C10128   4.648   2.077  13.318  0.4530  0.9015  0.3344
  681TMC3     O10129   4.559   2.022  13.257 -0.0784 -0.3167  0.1481
  681TMC3     H10130   4.639   1.838  13.405 -1.0729  2.6308  1.9042
  681TMC3    H110131   0.185   2.109  13.261  2.3091  3.1811  3.0117
  681TMC3    H210132   0.260   1.921  13.640 -0.6401  0.6853  0.8411
  681TMC3    C710133   0.361   2.082  13.465 -0.5561  0.1337  0.7445
  681TMC3    C810134   4.713   1.895  13.635 -0.2571 -0.6041  0.0930
  681TMC3    O110135   0.435   2.016  13.537  0.6082  0.0921  0.2555
  681TMC3    O210136   4.597   1.868  13.612  0.2908  0.0581  0.1458
  682MPD2     C10137   1.696   4.214  10.733  0.1906 -0.7914  0.0425
  682MPD2    C110138   1.626   4.095  10.749 -0.1012  1.0200 -0.1383
  682MPD2    C210139   1.570   4.064  10.873  0.4343 -0.0813 -0.0107
  682MPD2    C310140   1.583   4.153  10.977 -0.1989  0.2824  0.7163
  682MPD2    C410141   1.653   4.273  10.964 -0.6491  0.3950 -0.0012
  682MPD2    C510142   1.711   4.300  10.842  0.5428 -0.5111 -0.3661
  682MPD2     H10143   1.514   3.971  10.885 -1.1502  0.9619  0.7204
  682MPD2    H110144   1.669   4.341  11.047 -1.4166  0.7894 -0.1724
  682MPD2    H210145   1.744   4.255  10.645 -1.4159  0.4127 -0.2852
  682MPD2    H310146   1.764   4.393  10.824 -1.9880  0.6212 -2.0250
  682MPD2     N10147   1.538   4.116  11.108 -0.3882 -0.4134 -0.2769
  682MPD2    H510148   1.582   4.181  11.172 -1.9701 -0.1776  0.5707
  682MPD2    N110149   1.614   4.006  10.642 -0.3871 -0.2714  0.0384
  682MPD2    H710150   1.569   3.919  10.670  0.3855 -0.2759  1.2365
  683TMC3    C110151   1.672   3.957  11.448  0.9004 -0.5669 -0.0986
  683TMC3    C210152   1.706   3.821  11.446 -0.0759 -0.5569 -0.3124
  683TMC3    C310153   1.641   3.747  11.355 -0.7878 -0.2368 -0.1318
  683TMC3    C410154   1.599   4.025  11.353 -0.1348 -0.5848 -0.1190
  683TMC3    C510155   1.532   3.941  11.265  0.1974 -0.2259 -0.1726
  683TMC3    C610156   1.551   3.802  11.265  0.6243  0.7054  0.1374
  683TMC3     C10157   1.738   4.043  11.548  1.0321 -0.0025 -0.2095
  683TMC3     O10158   1.700   4.154  11.560  0.3078  0.2233 -0.3579
  683TMC3     H10159   1.766   3.768  11.519  0.2066 -0.4605 -0.4702
  683TMC3    H110160   1.572   4.130  11.361  0.7346 -0.4115  0.5444
  683TMC3    H210161   1.493   3.745  11.194  0.3418 -0.8682  1.6295
  683TMC3    C710162   1.476   3.997  11.151  0.1868  0.2129  0.2030
  683TMC3    C810163   1.676   3.604  11.335 -0.5873  0.1585 -0.0653
  683TMC3    O110164   1.394   3.929  11.084  0.1689 -0.0845  0.0970
  683TMC3    O210165   1.582   3.527  11.318  0.1133  0.2088  0.1192
  684MPD2     C10166   0.124   3.273  16.463 -0.2163 -0.4127  0.6419
  684MPD2    C110167   0.109   3.330  16.341 -0.5741  0.5044  0.4164
  684MPD2    C210168   0.056   3.461  16.328 -0.1984  0.4844  0.0487
  684MPD2    C310169   0.006   3.530  16.434 -0.6641  0.2276  1.3684
  684MPD2    C410170   0.015   3.472  16.562 -0.2317  0.2321  0.4356
  684MPD2    C510171   0.078   3.351  16.570 -0.4861 -0.2540  0.0663
  684MPD2     H10172   0.052   3.511  16.231 -0.4618 -0.6719 -0.5312
  684MPD2    H110173   4.728   3.529  16.652 -0.6458 -0.8388  1.0114
  684MPD2    H210174   0.173   3.176  16.475 -0.5124 -0.8660 -1.6882
  684MPD2    H310175   0.092   3.317  16.672  2.0287 -0.4567 -0.3597
  684MPD2     N10176   4.707   3.663  16.438  0.2528  0.4933  0.2807
  684MPD2    H510177   4.695   3.699  16.532 -0.0966  0.3193  0.3047
  684MPD2    N110178   0.146   3.270  16.219  0.0039  0.2825 -0.3306
  684MPD2    H710179   0.160   3.327  16.136  2.1448 -0.3379 -0.4114
  685TMC3    C110180   0.203   3.097  16.066 -0.1531  0.9086  0.7434
  685TMC3    C210181   0.138   3.155  15.964 -0.0073 -0.6412  0.0516
  685TMC3    C310182   0.168   3.134  15.834 -0.3242 -0.7053  1.3707
  685TMC3    C410183   0.320   3.029  16.039  0.3582  0.2009  0.1568
  685TMC3    C510184   0.345   3.011  15.903  0.3207  0.0959 -0.4103
  685TMC3    C610185   0.275   3.058  15.796  0.6611  1.1527  0.5900
  685TMC3     C10186   0.198   3.138  16.203  0.8195  1.1671 -0.4267
  685TMC3     O10187   0.238   3.057  16.285  0.3304 -0.1839  0.0927
  685TMC3     H10188   0.045   3.205  15.989  1.8865  1.3319  3.1033
  685TMC3    H110189   0.386   2.998  16.119  0.3677 -1.0291 -0.3361
  685TMC3    H210190   0.301   3.025  15.696  1.2288 -1.6423  1.6557
  685TMC3    C710191   0.482   3.011  15.880 -0.1194 -0.0879 -0.0004
  685TMC3    C810192   0.070   3.163  15.733  0.3962  0.2252 -0.2077
  685TMC3    O110193   0.526   2.953  15.784  0.2443  0.2867 -0.8274
  685TMC3    O210194   0.076   3.085  15.638  0.5913  0.3191 -0.5095
  686MPD2     C10195   1.503   3.498  15.200  0.4303 -0.2659  0.2714
  686MPD2    C110196   1.555   3.428  15.306 -0.3962 -0.0980 -0.2422
  686MPD2    C210197   1.625   3.311  15.281  0.4252 -0.3407 -0.5710
  686MPD2    C310198   1.640   3.257  15.152 -0.1657 -0.2605 -0.2923
  686MPD2    C410199   1.590   3.336  15.055 -0.0219  0.1233  0.2095
  686MPD2    C510200   1.522   3.447  15.081 -0.2518  0.0052  0.0392
  686MPD2     H10201   1.680   3.263  15.362  0.8426  1.1750  0.0310
  686MPD2    H110202   1.608   3.319  14.950  0.2310 -0.7787  0.3972
  686MPD2    H210203   1.453   3.593  15.214  1.5146  0.3100  0.2082
  686MPD2    H310204   1.489   3.511  15.000  0.7190  0.1379 -0.2511
  686MPD2     N10205   1.707   3.127  15.124  0.1023 -0.3255  0.5067
  686MPD2    H510206   1.726   3.116  15.025 -1.9262  0.8354 -0.0191
  686MPD2    N110207   1.534   3.473  15.437 -0.6834  0.0222 -0.5961
  686MPD2    H710208   1.470   3.551  15.447 -1.2608 -0.2601 -2.0835
  687TMC3    C110209   1.679   3.017  15.343  0.3356  0.1617  0.5602
  687TMC3    C210210   1.547   3.039  15.365  0.2665  0.3372 -0.0558
  687TMC3    C310211   1.513   3.059  15.498  0.2099  0.2716  0.7272
  687TMC3    C410212   1.774   3.000  15.438  0.2493  0.5015 -0.4032
  687TMC3    C510213   1.729   3.008  15.567 -0.4221 -0.0932  0.4915
  687TMC3    C610214   1.606   3.047  15.598 -0.4983  0.0520  0.2934
  687TMC3     C10215   1.733   3.022  15.204 -0.1342 -0.1688 -0.3958
  687TMC3     O10216   1.782   2.916  15.165 -0.5840 -0.1335  0.5993
  687TMC3     H10217   1.474   3.035  15.286  0.7397 -0.7399 -0.4422
  687TMC3    H110218   1.876   3.000  15.401 -0.7304 -0.6426 -3.0172
  687TMC3    H210219   1.568   3.047  15.699  0.8618  2.5851  0.7853
  687TMC3    C710220   1.797   2.939  15.677 -0.3247  0.6372  0.0241
  687TMC3    C810221   1.393   3.128  15.529  0.6668 -0.4990 -0.6725
  687TMC3    O110222   1.775   2.971  15.792 -0.0086 -0.3997  0.4270
  687TMC3    O210223   1.366   3.109  15.646 -0.4408  0.8357  0.0789
  688MPD2     C10224   0.702   2.312  17.225 -0.1855  0.1560  0.2173
  688MPD2    C110225   0.755   2.196  17.281 -0.1561 -0.3153  0.5242
  688MPD2    C210226   0.874   2.143  17.237 -0.8552 -0.0853 -0.0188
  688MPD2    C310227   0.953   2.217  17.149 -0.3816 -0.9092 -0.5063
  688MPD2    C410228   0.904   2.337  17.095  1.0537 -0.6226 -0.1377
  688MPD2    C510229   0.775   2.380  17.133 -0.9065  1.1109  0.0725
  688MPD2     H10230   0.905   2.046  17.274 -0.3468 -0.2442 -0.8715
  688MPD2    H110231   0.963   2.397  17.027  0.1840  1.0038  0.5493
  688MPD2    H210232   0.606   2.354  17.253 -0.8451 -1.2046 -0.0145
  688MPD2    H310233   0.731   2.472  17.096 -3.1198 -0.5209 -1.3826
  688MPD2     N10234   1.074   2.167  17.089 -0.8385  0.1524  0.5367
  688MPD2    H510235   1.123   2.220  17.018 -0.6479 -2.1947 -1.0977
  688MPD2    N110236   0.680   2.132  17.389  0.0739 -0.2525  0.0761
  688MPD2    H710237   0.714   2.042  17.421 -0.3039 -0.8514 -1.2245
  689TMC3    C110238   0.551   2.104  17.581  0.6326 -0.3364 -0.3275
  689TMC3    C210239   0.505   2.165  17.694  0.4287  0.2590 -0.6092
  689TMC3    C310240   0.459   2.079   0.052 -0.5413  0.9828  0.1025
  689TMC3    C410241   0.524   1.976  17.555  0.5279 -0.5296  0.2233
  689TMC3    C510242   0.454   1.898  17.648  0.9746 -0.8073 -0.7821
  689TMC3    C610243   0.436   1.946   0.039 -0.0475 -0.1881  0.5228
  689TMC3     C10244   0.586   2.193  17.472 -0.5717  0.3805 -0.1464
  689TMC3     O10245   0.546   2.308  17.481  0.1696  0.1256  0.2922
  689TMC3     H10246   0.501   2.272  17.711  0.0592 -0.0144  0.9763
  689TMC3    H110247   0.554   1.925  17.465  1.1970 -2.0929  1.3296
  689TMC3    H210248   0.390   1.884   0.115  0.8156 -1.6711 -0.1558
  689TMC3    C710249   0.427   1.763  17.627  1.0664 -0.4561  1.1704
  689TMC3    C810250   0.406   2.128   0.181  0.8619  0.2609 -0.3880
  689TMC3    O110251   0.429   1.691  17.726  0.4896  0.4566  0.1997
  689TMC3    O210252   0.343   2.049   0.252  0.6333 -0.2698 -0.1174
  690MPD2     C10253   3.242   4.262  15.832 -0.6688  0.4817  0.1559
  690MPD2    C110254   3.193   4.193  15.720  0.5213 -0.0794 -0.6941
  690MPD2    C210255   3.281   4.180  15.610  0.2442  0.2744 -0.0362
  690MPD2    C310256   3.403   4.245  15.610  0.0865 -0.5711  0.0098
  690MPD2    C410257   3.447   4.324  15.724 -0.3038  1.7195 -1.2500
  690MPD2    C510258   3.368   4.322  15.835  0.0234  0.1070 -0.3429
  690MPD2     H10259   3.235   4.129  15.527 -0.2999 -1.4348  1.3336
  690MPD2    H110260   3.546   4.367  15.737 -0.5808  1.4998  1.7149
  690MPD2    H210261   3.184   4.269  15.924  1.1873 -0.3218  1.4060
  690MPD2    H310262   3.405   4.362  15.928  0.5280 -0.4523 -0.3058
  690MPD2     N10263   3.474   4.252  15.490 -0.1533  0.1328 -0.1026
  690MPD2    H510264   3.426   4.215  15.409  0.7682 -1.6409  0.1630
  690MPD2    N110265   3.076   4.110  15.722 -0.0775 -0.1458  0.5055
  690MPD2    H710266   3.059   4.042  15.649  1.2432 -0.7737  0.7763
  691TMC3    C110267   2.889   4.024  15.828 -0.4453  0.6821  0.2957
  691TMC3    C210268   2.754   4.057  15.834 -0.4220  0.1249 -0.2581
  691TMC3    C310269   2.665   3.957  15.853 -0.2607 -0.0724 -0.0814
  691TMC3    C410270   2.925   3.891  15.837 -0.2071 -0.4546 -0.0427
  691TMC3    C510271   2.831   3.797  15.867 -0.2185 -0.0797  0.4538
  691TMC3    C610272   2.699   3.826  15.874  0.2419  0.7605 -0.1404
  691TMC3     C10273   2.985   4.130  15.826  0.1087  0.1950 -0.3692
  691TMC3     O10274   2.958   4.235  15.888  0.2255 -0.3524  0.0275
  691TMC3     H10275   2.721   4.160  15.834 -0.3573  0.1455 -3.3483
  691TMC3    H110276   3.029   3.862  15.828 -0.1253 -1.8734  5.2953
  691TMC3    H210277   2.628   3.755  15.914 -0.4029  2.5411  1.8986
  691TMC3    C710278   2.871   3.662  15.905  0.6411 -0.4440  0.0811
  691TMC3    C810279   2.523   3.994  15.843  0.1253 -0.0947  0.4508
  691TMC3    O110280   2.982   3.646  15.956 -0.3545 -0.0784  0.2012
  691TMC3    O210281   2.506   4.107  15.819  0.0560  0.4234  0.0160
  692TMC3    C110282   4.351   0.227  15.740  0.3811  0.2306 -0.0189
  692TMC3    C210283   4.424   0.277  15.842  0.3726  0.4678  0.4848
  692TMC3    C310284   4.507   0.190  15.908  0.1317 -0.3525 -0.1692
  692TMC3    C410285   4.369   0.101  15.689  0.0004 -0.0767 -0.2966
  692TMC3    C510286   4.466   0.021  15.748 -0.4019 -0.3902 -0.3085
  692TMC3    C610287   4.538   0.066  15.851  0.8440  0.3566  0.0025
  692TMC3     C10288   4.215   0.271  15.738 -0.5196  0.0394 -0.8199
  692TMC3     O10289   4.130   0.178  15.741  0.1705  0.3361 -0.4725
  692TMC3     H10290   4.382   0.361  15.896 -1.3118 -0.5729  0.7699
  692TMC3    H110291   4.308   0.064  15.608 -3.3687  2.8732  0.8668
  692TMC3    H210292   4.604   0.007  15.914  3.5857  1.0222 -2.2198
  692TMC3    C710293   4.475   4.616  15.701 -0.1205 -0.0736 -0.5226
  692TMC3    C810294   4.605   0.251  15.996 -0.4191  0.2568  0.6399
  692TMC3    O110295   4.439   4.591  15.586  0.1793  0.4238 -0.0667
  692TMC3    O210296   4.671   0.174  16.060 -0.2452  0.1502 -0.3899
  693MPD2     C10297   4.195   3.512  10.775  0.1031  0.5895  0.1367
  693MPD2    C110298   4.152   3.422  10.865 -0.1466 -0.3024  0.5019
  693MPD2    C210299   4.244   3.370  10.953 -0.0833  0.1731  0.3692
  693MPD2    C310300   4.373   3.415  10.966  0.0002  0.0361 -0.3093
  693MPD2    C410301   4.414   3.502  10.864  0.0251 -0.0918  0.1006
  693MPD2    C510302   4.325   3.544  10.770 -0.3321 -0.1222  0.4734
  693MPD2     H10303   4.213   3.288  11.017 -2.5279  0.6187 -0.2243
  693MPD2    H110304   4.512   3.546  10.878 -0.0826 -0.0692  0.7914
  693MPD2    H210305   4.128   3.552  10.700  0.2747 -0.6849 -0.6932
  693MPD2    H310306   4.361   3.608  10.690 -1.0820 -0.6231 -0.2569
  693MPD2     N10307   4.467   3.366  11.058  0.4508 -0.0782 -0.4104
  693MPD2    H510308   4.565   3.387  11.044  0.1675  2.7505  1.7410
  693MPD2    N110309   4.021   3.367  10.872  0.0772 -0.5008 -0.5182
  693MPD2    H710310   4.004   3.311  10.956  1.1827  0.3585  0.2658
  694TMC3    C110311   3.806   3.297  10.795  0.3549 -0.2519 -0.8990
  694TMC3    C210312   3.767   3.210  10.702  0.5075  0.1603 -0.0755
  694TMC3    C310313   3.675   3.118  10.743  0.8778  0.3802  0.0376
  694TMC3    C410314   3.790   3.287  10.927  0.3528 -0.2319  0.4920
  694TMC3    C510315   3.709   3.184  10.965 -0.5890 -0.0849  0.2367
  694TMC3    C610316   3.640   3.105  10.872 -0.0780 -0.5893 -1.3700
  694TMC3     C10317   3.923   3.377  10.771 -0.3657  0.3348 -0.7517
  694TMC3     O10318   3.937   3.416  10.658  0.0453 -0.0884  0.1639
  694TMC3     H10319   3.791   3.222  10.597  1.0115  1.6804  0.2110
  694TMC3    H110320   3.811   3.368  10.996 -1.7644 -0.7584  1.7700
  694TMC3    H210321   3.567   3.031  10.903 -0.3826  0.8981  1.5108
  694TMC3    C710322   3.681   3.167  11.110 -0.4086 -0.7037  0.3995
  694TMC3    C810323   3.611   3.043  10.639  0.6433 -0.8021 -0.1157
  694TMC3    O110324   3.711   3.260  11.186  0.8114  0.0637  0.7564
  694TMC3    O210325   3.675   3.011  10.543 -0.4577 -0.3570 -0.2715
  695MPD2     C10326   0.549   0.217  13.572  0.4914 -0.0860 -1.0675
  695MPD2    C110327   0.453   0.165  13.654  0.1033  0.5815 -0.0194
  695MPD2    C210328   0.320   0.194  13.635  0.2389  0.5633  0.0481
  695MPD2    C310329   0.276   0.273  13.533 -0.3683  0.2623  0.0387
  695MPD2    C410330   0.365   0.314  13.437  0.3422  0.3447 -0.0815
  695MPD2    C510331   0.497   0.286  13.467 -0.4760 -0.1623 -0.4439
  695MPD2     H10332   0.255   0.149  13.711  0.0902  0.8579  0.0939
  695MPD2    H110333   0.339   0.370  13.348 -2.3824 -1.2139 -0.2572
  695MPD2    H210334   0.654   0.191  13.574  0.1329 -1.3995  0.4804
  695MPD2    H310335   0.573   0.322  13.398  1.3542 -1.4174  0.9035
  695MPD2     N10336   0.136   0.284  13.519 -0.8546 -0.3701  0.0103
  695MPD2    H510337   0.086   0.252  13.601  1.7694  0.7645  2.0502
  695MPD2    N110338   0.482   0.089  13.773 -0.2002  0.2750 -0.0007
  695MPD2    H710339   0.399   0.055  13.819  0.7583  1.7162  2.7908
  696TMC3    C110340   4.662   0.341  13.437 -0.0765  0.0692 -0.7532
  696TMC3    C210341   4.617   0.238  13.509  0.1604  0.2189  0.1772
  696TMC3    C310342   4.486   0.240  13.556 -0.6542 -0.0220 -0.3273
  696TMC3    C410343   4.578   0.445  13.398  0.0824 -0.2448 -0.6314
  696TMC3    C510344   4.445   0.436  13.431  0.2005 -0.2312 -0.9248
  696TMC3    C610345   4.402   0.341  13.517 -0.2071  0.1066  0.3134
  696TMC3     C10346   0.069   0.366  13.436  0.5530 -0.2566 -0.1340
  696TMC3     O10347   0.098   0.464  13.365 -0.0112 -0.3250  0.2691
  696TMC3     H10348   4.681   0.154  13.531 -0.3615 -0.0562  0.6412
  696TMC3    H110349   4.611   0.519  13.327 -0.8505 -0.4772 -1.3118
  696TMC3    H210350   4.296   0.345  13.538 -0.6032 -0.2122 -1.6482
  696TMC3    C710351   4.375   0.568  13.432 -0.5593  0.4551 -0.8351
  696TMC3    C810352   4.483   0.219  13.700  0.0666  0.0123  0.4515
  696TMC3    O110353   4.265   0.578  13.378 -0.0308  0.0973 -0.3842
  696TMC3    O210354   4.591   0.201  13.750  0.5864  0.1011  0.0526
  697MPD2     C10355   3.857   1.991  15.371  0.1250  0.0189 -0.3800
  697MPD2    C110356   3.964   1.946  15.293  1.1062  0.0977  0.7273
  697MPD2    C210357   4.025   2.043  15.209 -0.0796 -0.3944  0.2023
  697MPD2    C310358   3.969   2.173  15.200  0.2033 -0.1744 -0.1103
  697MPD2    C410359   3.866   2.211  15.277  0.0782 -0.2068 -0.5051
  697MPD2    C510360   3.805   2.115  15.356 -0.3736  0.0283  0.1119
  697MPD2     H10361   4.124   2.027  15.169  1.0842  0.7817  2.5992
  697MPD2    H110362   3.828   2.313  15.275 -0.1487 -0.2891 -0.4179
  697MPD2    H210363   3.813   1.926  15.445  1.8428 -0.3743  0.3020
  697MPD2    H310364   3.723   2.140  15.421 -0.6884 -0.2152 -0.1923
  697MPD2     N10365   4.038   2.274  15.127  0.5494 -0.2354 -0.1475
  697MPD2    H510366   4.107   2.239  15.061 -0.1581 -0.1388 -0.9237
  697MPD2    N110367   4.014   1.809  15.321 -0.1713 -0.3999 -0.1418
  697MPD2    H710368   3.952   1.749  15.374 -0.4302 -1.4335 -1.6270
  698TMC3    C110369   4.103   2.468  15.023  0.5037 -0.2172 -0.2452
  698TMC3    C210370   4.182   2.573  15.061 -0.0644 -0.5419  0.0215
  698TMC3    C310371   4.296   2.600  14.987  0.0145 -0.1749 -0.4718
  698TMC3    C410372   4.130   2.392  14.908 -0.0218  0.4955 -0.0541
  698TMC3    C510373   4.234   2.442  14.834  0.6200 -0.3099  0.2285
  698TMC3    C610374   4.325   2.537  14.868 -0.8717 -0.1338  0.5383
  698TMC3     C10375   4.027   2.412  15.139  0.9172 -0.1637 -0.4722
  698TMC3     O10376   3.996   2.482  15.234 -0.6103 -0.0595  0.5823
  698TMC3     H10377   4.160   2.624  15.154 -2.2102 -0.3235 -0.6023
  698TMC3    H110378   4.080   2.299  14.883 -0.8094  0.9576 -0.2082
  698TMC3    H210379   4.421   2.554  14.821 -0.7234  0.3651  1.0191
  698TMC3    C710380   4.252   2.373  14.712  0.0526 -0.4303  0.5556
  698TMC3    C810381   4.398   2.659  15.060 -0.3237  0.4535  0.4015
  698TMC3    O110382   4.154   2.323  14.657  0.1239  0.9756  0.0379
  698TMC3    O210383   4.388   2.649  15.184 -0.1215 -0.3216  0.7634
  699TMC3    C110384   4.619   0.405  13.009 -0.3055  0.5562 -0.7246
  699TMC3    C210385   4.668   0.288  13.057 -0.2580  0.1276  1.0108
  699TMC3    C310386   4.588   0.212  13.135  0.1757  0.3281  0.6035
  699TMC3    C410387   4.482   0.432  13.016 -0.1359  1.0998 -0.6704
  699TMC3    C510388   4.400   0.345  13.075  0.0695 -0.5865  0.4776
  699TMC3    C610389   4.454   0.236  13.133  0.4565 -0.0988  0.6603
  699TMC3     C10390   4.699   0.497  12.936  0.4843  0.0344 -0.6567
  699TMC3     O10391   0.083   0.499  12.965 -0.5636  0.0567 -0.0794
  699TMC3     H10392   0.041   0.278  13.046 -0.6916 -1.6318 -1.5927
  699TMC3    H110393   4.436   0.527  12.987 -1.2325  0.4664 -1.0128
  699TMC3    H210394   4.391   0.155  13.167 -0.4021 -0.0520 -0.8355
  699TMC3    C710395   4.259   0.367  13.093  0.4718  0.6257 -0.5201
  699TMC3    C810396   4.627   0.087  13.191 -0.0061  0.0215  0.1156
  699TMC3    O110397   4.200   0.312  13.186  0.3408 -0.7515  0.2517
  699TMC3    O210398   4.540   0.004  13.216  0.4166 -0.6344 -0.4409
  700TMC3    C110399   3.272   2.630  17.045 -0.1120 -0.5303 -0.4712
  700TMC3    C210400   3.185   2.531  17.061 -0.3758 -0.6786 -0.2583
  700TMC3    C310401   3.188   2.460  17.176  0.1261  0.2348  0.2071
  700TMC3    C410402   3.370   2.667  17.132  0.3439  0.1214  0.4319
  700TMC3    C510403   3.374   2.595  17.247 -0.4626  0.3609 -0.7678
  700TMC3    C610404   3.282   2.496  17.275 -0.0973 -0.4860 -0.3390
  700TMC3     C10405   3.259   2.711  16.926  0.0630 -0.1095 -0.3753
  700TMC3     O10406   3.160   2.689  16.860  0.5602 -0.5021  0.5660
  700TMC3     H10407   3.116   2.494  16.986 -1.3398 -0.7052  0.6272
  700TMC3    H110408   3.457   2.730  17.115  0.5118  0.7704  3.6488
  700TMC3    H210409   3.281   2.436  17.365 -1.7943 -1.5932 -1.1017
  700TMC3    C710410   3.435   2.673  17.344 -0.4094  0.8376 -0.1857
  700TMC3    C810411   3.150   2.323  17.170 -0.4342  0.4081 -0.4412
  700TMC3    O110412   3.456   2.790  17.324  0.7712 -0.3236  0.3516
  700TMC3    O210413   3.035   2.298  17.135 -0.7306 -0.0033 -0.3315
  701TMC3    C110414   3.484   1.416  15.334 -0.2630  0.1234 -0.4190
  701TMC3    C210415   3.567   1.360  15.246 -0.6154 -0.1452  0.2992
  701TMC3    C310416   3.693   1.405  15.240 -0.6623 -0.5359 -0.1073
  701TMC3    C410417   3.523   1.517  15.421  0.8204  0.0584 -0.2017
  701TMC3    C510418   3.656   1.562  15.414  0.1771 -0.1439 -0.5387
  701TMC3    C610419   3.736   1.502  15.327  0.2722 -0.0467  0.2033
  701TMC3     C10420   3.369   1.346  15.385 -0.3717 -0.0380  0.0025
  701TMC3     O10421   3.290   1.422  15.445 -0.4454 -0.3953  0.3694
  701TMC3     H10422   3.534   1.290  15.170 -0.8950  1.2586 -0.8820
  701TMC3    H110423   3.467   1.561  15.502 -2.9334 -1.4820 -1.9503
  701TMC3    H210424   3.838   1.539  15.325  0.0997  0.4047 -0.2536
  701TMC3    C710425   3.720   1.631  15.522 -0.3876  0.8324 -0.3963
  701TMC3    C810426   3.794   1.345  15.153 -0.2722  0.0685  0.0352
  701TMC3    O110427   3.814   1.704  15.495  0.4379  0.3710  0.4499
  701TMC3    O210428   3.908   1.374  15.185  1.0053  0.0143 -0.3491
  702MPD2     C10429   3.520   3.515  10.655  0.1554  0.5985  0.0795
  702MPD2    C110430   3.470   3.577  10.765  0.6858 -1.1859  0.4982
  702MPD2    C210431   3.455   3.717  10.769  0.8116  0.0338  0.0785
  702MPD2    C310432   3.505   3.787  10.660  0.2939  0.0777  0.4446
  702MPD2    C410433   3.561   3.722  10.553 -0.0200 -0.4078 -0.0501
  702MPD2    C510434   3.583   3.584  10.554  0.2232  0.2027  0.6446
  702MPD2     H10435   3.419   3.761  10.861  0.0981 -0.3335 -0.0199
  702MPD2    H110436   3.586   3.777  10.463 -3.7987 -0.5173 -1.1805
  702MPD2    H210437   3.539   3.408  10.655 -1.0699  0.4117  4.3926
  702MPD2    H310438   3.626   3.534  10.468  0.5762  1.1842  0.2511
  702MPD2     N10439   3.498   3.922  10.662 -0.2478 -0.2089 -0.4280
  702MPD2    H510440   3.551   3.967  10.588  0.6524 -0.1156  0.2794
  702MPD2    N110441   3.438   3.507  10.881 -0.4188 -0.0961  0.2166
  702MPD2    H710442   3.415   3.569  10.959 -1.4560 -3.4332  2.5618
  703TMC3    C110443   3.451   4.148  10.730 -0.0194 -0.6391  0.2763
  703TMC3    C210444   3.349   4.235  10.762 -0.1228  0.1564  0.1120
  703TMC3    C310445   3.368   4.364  10.736 -0.1677 -0.1348  0.2962
  703TMC3    C410446   3.576   4.189  10.678  0.2286 -0.6017 -0.1032
  703TMC3    C510447   3.590   4.323  10.670  0.9040  0.0950 -0.5286
  703TMC3    C610448   3.494   4.417  10.702 -0.2920 -0.3504 -0.5083
  703TMC3     C10449   3.424   4.004  10.751  0.1235 -0.4434  0.1542
  703TMC3     O10450   3.323   3.978  10.817 -0.4373  0.2428  0.2251
  703TMC3     H10451   3.253   4.193  10.792  2.0708 -2.1664  3.7988
  703TMC3    H110452   3.655   4.114  10.678 -0.4681 -1.3301 -1.0481
  703TMC3    H210453   3.524   4.521  10.704 -0.3998 -0.3174 -0.6343
  703TMC3    C710454   3.703   4.378  10.602  0.2940 -0.1846  0.2111
  703TMC3    C810455   3.297   4.462  10.820 -0.1056  0.1960 -0.2450
  703TMC3    O110456   3.743   4.490  10.639 -0.2041 -0.0372 -0.0352
  703TMC3    O210457   3.366   4.528  10.899 -0.3542 -0.9176 -0.4937
  704TMC3    C110458   1.331   1.977  11.908  0.2611  0.6527  0.2046
  704TMC3    C210459   1.263   1.937  11.799  0.1776 -1.0261 -0.4041
  704TMC3    C310460   1.254   1.806  11.761  0.1219 -0.0002 -0.8913
  704TMC3    C410461   1.405   1.886  11.977  0.3992 -0.4566 -0.4135
  704TMC3    C510462   1.408   1.759  11.928  0.1946  0.7061  0.1582
  704TMC3    C610463   1.334   1.714  11.823  0.0033 -0.1521  0.2700
  704TMC3     C10464   1.236   2.053  11.990 -0.1494  0.0321 -0.3609
  704TMC3     O10465   1.207   2.010  12.100 -0.4361  0.6848 -0.1356
  704TMC3     H10466   1.204   2.008  11.742 -0.6767  0.4246  2.2814
  704TMC3    H110467   1.443   1.904  12.077  2.1420  0.0445 -1.1621
  704TMC3    H210468   1.307   1.609  11.827 -0.3577 -0.1283 -1.2893
  704TMC3    C710469   1.456   1.656  12.020  0.7587  0.2002  0.2963
  704TMC3    C810470   1.121   1.773  11.725  0.2179  0.0806  0.1168
  704TMC3    O110471   1.427   1.669  12.139 -0.2623  0.4109  0.1034
  704TMC3    O210472   1.040   1.854  11.756 -0.2172 -0.1313 -0.1139
  705MPD2     C10473   0.012   4.388  16.497 -0.5536  0.3163  0.1227
  705MPD2    C110474   0.036   4.520  16.523  0.0129 -0.1803  0.0424
  705MPD2    C210475   4.664   4.600  16.550 -0.3261  0.0040 -0.5735
  705MPD2    C310476   4.533   4.553  16.547  0.3458  0.0773  0.1937
  705MPD2    C410477   4.514   4.415  16.524 -0.1472 -0.0715 -0.1578
  705MPD2    C510478   4.622   4.335  16.509 -0.0163  0.3330 -0.3366
  705MPD2     H10479   4.682   4.707  16.545 -0.8073  0.1495  0.9013
  705MPD2    H110480   4.413   4.380  16.508 -0.6068  1.5930 -0.8997
  705MPD2    H210481   0.088   4.311  16.490 -0.3074  0.4948  0.8043
  705MPD2    H310482   4.607   4.231  16.479  0.2091 -0.6432  2.8965
  705MPD2     N10483   4.420   4.624  16.589  0.3238  0.0034 -0.0983
  705MPD2    H510484   4.330   4.582  16.568  0.0711 -0.5809  2.1778
  705MPD2    N110485   0.159   4.580  16.497 -0.0014 -0.2693 -0.2588
  705MPD2    H710486   0.181   4.675  16.526 -1.0528  0.1470 -0.8059
  706TMC3    C110487   0.598   4.663  16.356 -0.5307  0.2035 -0.0644
  706TMC3    C210488   0.588   0.058  16.390 -0.4513  0.0055  0.1767
  706TMC3    C310489   0.464   0.106  16.412 -0.5500 -0.3126  0.0401
  706TMC3    C410490   0.498   4.571  16.380 -0.4010  0.1216  0.0453
  706TMC3    C510491   0.371   4.624  16.402  0.1023 -0.4492 -0.0961
  706TMC3    C610492   0.352   0.027  16.419  0.4399 -0.6274 -0.4683
  706TMC3     C10493   0.719   4.625  16.280 -0.8839 -0.1179  0.5196
  706TMC3     O10494   0.833   4.634  16.330  0.1026  0.4690  0.2313
  706TMC3     H10495   0.667   0.123  16.355  1.0935 -0.6618  2.3889
  706TMC3    H110496   0.512   4.464  16.370  3.4546  0.4433  2.1615
  706TMC3    H210497   0.256   0.077  16.430  0.8415  0.6973 -3.0069
  706TMC3    C710498   0.266   4.530  16.425  0.0450 -0.7394  0.9245
  706TMC3    C810499   0.423   0.232  16.359 -0.1704  0.0208 -0.7117
  706TMC3    O110500   0.285   4.417  16.381 -0.2169 -0.4635  0.3696
  706TMC3    O210501   0.335   0.244  16.273  0.9515 -0.1344 -0.3335
  707TMC3    C110502   1.392   2.618   1.241 -0.1417 -0.3669  0.4221
  707TMC3    C210503   1.392   2.484   1.238 -0.1293  0.2104 -0.7250
  707TMC3    C310504   1.274   2.421   1.263  0.2654 -0.1246 -0.3291
  707TMC3    C410505   1.278   2.694   1.255 -0.0075 -0.1365  0.2530
  707TMC3    C510506   1.155   2.627   1.246 -1.0417 -0.1674  0.3358
  707TMC3    C610507   1.155   2.493   1.261  0.3565 -0.2294 -0.4423
  707TMC3     C10508   1.527   2.677   1.260  0.0782 -0.1301 -0.4860
  707TMC3     O10509   1.621   2.609   1.225  0.1382  0.4938  0.1331
  707TMC3     H10510   1.490   2.436   1.240 -0.7501 -0.9589  1.0639
  707TMC3    H110511   1.289   2.802   1.253  0.6044 -0.1845  1.5100
  707TMC3    H210512   1.070   2.426   1.260  0.2235 -0.0798  0.9751
  707TMC3    C710513   1.034   2.705   1.266 -0.0509  0.0175  0.2253
  707TMC3    C810514   1.258   2.273   1.276  0.8055  0.5428  0.3049
  707TMC3    O110515   0.942   2.662   1.338 -0.2059  0.5420  0.4127
  707TMC3    O210516   1.170   2.218   1.339  0.3549  0.2396  0.2699
  708MPD2     C10517   3.237   3.460  13.746  0.6978  0.1295 -0.5719
  708MPD2    C110518   3.159   3.419  13.853 -0.7244 -0.6477 -0.9347
  708MPD2    C210519   3.219   3.381  13.974  0.6810 -0.1496  0.2969
  708MPD2    C310520   3.353   3.385  13.982  0.4175 -0.4162 -0.0843
  708MPD2    C410521   3.430   3.420  13.874 -0.5116  0.0741 -0.3263
  708MPD2    C510522   3.370   3.472  13.763  0.3606  0.0137 -0.0268
  708MPD2     H10523   3.141   3.349  14.042 -0.9778  1.0876 -1.0132
  708MPD2    H110524   3.537   3.424  13.892 -0.3585 -0.9657 -1.0488
  708MPD2    H210525   3.196   3.495  13.652 -0.8578 -0.8707 -0.2601
  708MPD2    H310526   3.432   3.521  13.690 -2.0276  1.9873 -0.7214
  708MPD2     N10527   3.421   3.339  14.097 -0.0715 -0.6535  0.2261
  708MPD2    H510528   3.520   3.357  14.115 -1.1960  2.8311  2.9090
  708MPD2    N110529   3.022   3.398  13.856 -0.7073  0.2150  0.3226
  708MPD2    H710530   2.981   3.367  13.943  1.0439 -1.4487  0.5455
  709TMC3    C110531   2.804   3.394  13.791 -0.8801  0.5956 -0.3952
  709TMC3    C210532   2.776   3.281  13.720  0.6187 -0.3974 -0.7404
  709TMC3    C310533   2.724   3.176  13.779 -0.0065 -0.3336 -0.5684
  709TMC3    C410534   2.778   3.395  13.923 -1.1518  0.6652  0.2643
  709TMC3    C510535   2.724   3.284  13.981  0.3176  0.7357 -0.1537
  709TMC3    C610536   2.703   3.172  13.912  0.3845 -0.8015 -0.3568
  709TMC3     C10537   2.940   3.424  13.756  0.0783  0.0338  0.8034
  709TMC3     O10538   2.967   3.459  13.642  0.1123  0.2493  0.2199
  709TMC3     H10539   2.800   3.283  13.614  1.5112  1.4619 -0.5057
  709TMC3    H110540   2.810   3.482  13.980 -1.9949  1.1151  0.0524
  709TMC3    H210541   2.682   3.075  13.957  4.1866 -0.5769  1.8008
  709TMC3    C710542   2.803   3.257  14.097 -0.5697  0.7942 -0.1631
  709TMC3    C810543   2.654   3.077  13.694  0.5642 -0.4285  0.0452
  709TMC3    O110544   2.902   3.332  14.100 -0.0239 -1.2770  0.1313
  709TMC3    O210545   2.566   3.008  13.739  0.7317  0.2224  0.2943
  710TMC3    C110546   3.951   4.577   0.051 -0.4619 -0.1591  1.3422
  710TMC3    C210547   4.018   4.639  17.682  0.6070 -0.6204  0.1627
  710TMC3    C310548   4.149   4.605  17.673  0.2141 -1.0482  0.0156
  710TMC3    C410549   4.000   4.480   0.138 -0.0241  0.1536 -0.0046
  710TMC3    C510550   4.126   4.442   0.099 -0.6226 -0.3254  0.1467
  710TMC3    C610551   4.204   4.509   0.012  0.3979  0.1017  0.7967
  710TMC3     C10552   3.814   4.606   0.077 -0.5487 -0.1053 -0.5118
  710TMC3     O10553   3.736   4.616  17.718  0.9990 -0.1440  0.2442
  710TMC3     H10554   3.968   4.716  17.624  0.6148  0.4278  1.5219
  710TMC3    H110555   3.936   4.430   0.210 -0.3032 -0.7252 -0.8501
  710TMC3    H210556   4.310   4.490   0.003  0.4216  0.4180  0.3816
  710TMC3    C710557   4.185   4.347   0.192 -0.0250 -0.2689  0.3419
  710TMC3    C810558   4.235   4.654  17.567  0.4450  0.7081 -0.7330
  710TMC3    O110559   4.105   4.291   0.261 -0.5976 -0.0070  0.4850
  710TMC3    O210560   4.351   4.612  17.557  0.3057  0.4947 -0.2971
  711TMC3    C110561   4.121   0.452  15.005 -0.2440  0.1930  0.4199
  711TMC3    C210562   4.193   0.369  15.078 -0.4169  0.1501  0.1470
  711TMC3    C310563   4.195   0.395  15.211 -0.3367  0.1451  0.1102
  711TMC3    C410564   4.054   0.560  15.056 -0.4471 -0.3822 -0.1852
  711TMC3    C510565   4.068   0.598  15.185  0.5395  0.8950 -0.2615
  711TMC3    C610566   4.144   0.513  15.268 -0.1073 -0.7370  0.0607
  711TMC3     C10567   4.092   0.405  14.872 -0.2654 -1.0748  0.2371
  711TMC3     O10568   3.999   0.461  14.820  0.2642  0.1702 -0.2540
  711TMC3     H10569   4.241   0.276  15.049 -0.8245 -0.3382  1.0236
  711TMC3    H110570   3.991   0.612  14.984 -0.9440 -1.4026 -0.4878
  711TMC3    H210571   4.153   0.541  15.373 -0.3876 -2.9940  0.7033
  711TMC3    C710572   4.080   0.742  15.204 -0.1488  0.2752 -0.0242
  711TMC3    C810573   4.310   0.331  15.283 -0.1588  0.1282  0.0096
  711TMC3    O110574   4.142   0.774  15.305 -0.7120 -0.1983  0.4637
  711TMC3    O210575   4.336   0.214  15.264  0.8517 -0.2635 -0.1414
  712MPD2     C10576   1.046   1.605  13.664 -0.4699 -0.0051 -0.0860
  712MPD2    C110577   0.934   1.677  13.705  0.6814  0.4065 -0.0541
  712MPD2    C210578   0.959   1.792  13.786  0.3384  0.6008 -0.1126
  712MPD2    C310579   1.086   1.841  13.810 -0.5746  0.3475 -0.1444
  712MPD2    C410580   1.195   1.766  13.764  0.6033  0.1650  0.1846
  712MPD2    C510581   1.169   1.647  13.694  0.0130 -0.3287 -0.1018
  712MPD2     H10582   0.878   1.852  13.825 -0.2840  0.0837 -0.6244
  712MPD2    H110583   1.298   1.793  13.783 -0.0266  0.7112  2.7886
  712MPD2    H210584   1.030   1.525  13.591  0.3302 -1.0781  0.9132
  712MPD2    H310585   1.252   1.599  13.643 -0.2324 -1.7076  0.8123
  712MPD2     N10586   1.113   1.959  13.878  0.3659 -0.2339 -0.2806
  712MPD2    H510587   1.213   1.971  13.885  0.3744 -0.1391 -0.5526
  712MPD2    N110588   0.793   1.656  13.676 -0.6308 -0.1976  0.3210
  712MPD2    H710589   0.720   1.713  13.717 -1.0122  1.1150 -2.1470
  713TMC3    C110590   1.074   2.166  14.001  0.6109  0.3998  0.7522
  713TMC3    C210591   1.211   2.200  14.010  0.1910 -0.5564 -1.0130
  713TMC3    C310592   1.229   2.314  14.080 -0.3348 -0.4566  0.1536
  713TMC3    C410593   0.969   2.256  14.031 -0.4025  1.1263 -0.1845
  713TMC3    C510594   1.006   2.374  14.092  0.3330  0.2611  0.6416
  713TMC3    C610595   1.136   2.396  14.127 -0.2134  0.2241 -0.1603
  713TMC3     C10596   1.023   2.054  13.925  0.2093  0.0680 -0.2693
  713TMC3     O10597   0.905   2.062  13.897  0.1570  0.3185 -0.0767
  713TMC3     H10598   1.287   2.146  13.954  2.0836 -1.0585  2.0448
  713TMC3    H110599   0.863   2.240  14.023 -0.3247  1.5058 -2.0148
  713TMC3    H210600   1.159   2.475  14.197  2.9013 -0.5796 -0.2804
  713TMC3    C710601   0.924   2.503  14.092 -0.1549  0.0845  0.7557
  713TMC3    C810602   1.354   2.380  14.063 -0.0891  0.3859 -1.0829
  713TMC3    O110603   0.977   2.604  14.136 -0.2426 -0.0135  0.0658
  713TMC3    O210604   1.366   2.502  14.073  0.5446  0.5855  0.3823
  714MPD2     C10605   2.702   0.252   1.820  0.8387 -0.1362  0.2948
  714MPD2    C110606   2.742   0.195   1.696  0.3516  0.4083  0.0617
  714MPD2    C210607   2.665   0.219   1.584  0.6479 -0.5528 -0.0909
  714MPD2    C310608   2.560   0.312   1.587 -0.8471 -0.0339  0.1629
  714MPD2    C410609   2.528   0.372   1.712 -0.3712  0.7441 -0.4780
  714MPD2    C510610   2.601   0.346   1.824 -0.7280 -0.1783  0.2150
  714MPD2     H10611   2.698   0.180   1.488 -0.4978 -0.5714 -0.4782
  714MPD2    H110612   2.452   0.446   1.733 -0.8056  0.9945 -2.8685
  714MPD2    H210613   2.769   0.240   1.904  2.1447  1.5039 -0.5034
  714MPD2    H310614   2.589   0.403   1.915 -1.6015  4.0401 -2.5930
  714MPD2     N10615   2.486   0.334   1.464 -0.1550 -0.0067 -0.0432
  714MPD2    H510616   2.520   0.289   1.380 -1.1098 -2.4419  0.8625
  714MPD2    N110617   2.853   0.110   1.707  0.1758 -0.0218 -0.7400
  714MPD2    H710618   2.890   0.091   1.799 -0.0920 -0.1799 -0.6633
  715TMC3    C110619   3.019   4.690   1.635  0.4181 -0.6829 -1.2793
  715TMC3    C210620   3.055   4.590   1.549 -0.2668 -0.4015 -0.0209
  715TMC3    C310621   3.190   4.572   1.531  0.5447 -0.4703  0.3892
  715TMC3    C410622   3.114   0.028   1.705 -0.0179 -0.6532 -0.0633
  715TMC3    C510623   3.249   0.009   1.678  0.2295 -0.1134  0.7835
  715TMC3    C610624   3.291   4.649   1.587  0.4421 -0.2174  0.2461
  715TMC3     C10625   2.890   0.022   1.610 -0.5608  1.0961 -0.3468
  715TMC3     O10626   2.827   4.730   1.506  0.4616 -0.4089  0.0327
  715TMC3     H10627   2.981   4.536   1.490 -1.5299 -0.2211  1.4037
  715TMC3    H110628   3.088   0.116   1.763  2.3307 -0.1367  0.1806
  715TMC3    H210629   3.396   4.634   1.568  0.6864  1.1897  0.4454
  715TMC3    C710630   3.340   0.099   1.740  0.4637  0.2918 -0.0327
  715TMC3    C810631   3.233   4.465   1.438  1.0650 -0.1585 -0.2667
  715TMC3    O110632   3.445   0.119   1.678  0.2377  0.0612  0.4166
  715TMC3    O210633   3.156   4.416   1.359  0.3526  0.2248  0.0867
  716MPD2     C10634   2.779   4.074  10.348 -0.1274  0.1720  0.3557
  716MPD2    C110635   2.787   4.040  10.216 -0.1290 -0.0077 -0.2382
  716MPD2    C210636   2.801   3.907  10.187  0.3836 -0.2373 -0.2688
  716MPD2    C310637   2.797   3.811  10.281 -0.2269 -0.7179  0.5453
  716MPD2    C410638   2.799   3.844  10.417 -0.5263  0.0930  0.4557
  716MPD2    C510639   2.784   3.979  10.447  0.1222 -0.6477  0.1378
  716MPD2     H10640   2.805   3.867  10.086  3.3845 -0.7848  0.0827
  716MPD2    H110641   2.809   3.768  10.494 -1.5349 -1.0983 -0.6018
  716MPD2    H210642   2.773   4.181  10.370 -2.5613  0.0599  0.2362
  716MPD2    H310643   2.794   4.013  10.549 -2.6222  1.0632 -0.1430
  716MPD2     N10644   2.817   3.683  10.215 -0.1293 -0.0141 -0.1910
  716MPD2    H510645   2.807   3.680  10.114  0.8032  0.2999 -0.2983
  716MPD2    N110646   2.789   4.149  10.127 -0.5363 -0.3750 -0.5005
  716MPD2    H710647   2.800   4.244  10.160  2.6349 -0.2966 -1.7765
  717TMC3    C110648   2.817   3.455  10.186  0.5709  0.5622  0.2094
  717TMC3    C210649   2.755   3.460  10.068  0.1775  0.5321 -0.8220
  717TMC3    C310650   2.780   3.358   9.971  0.7117  0.0392  0.2069
  717TMC3    C410651   2.909   3.353  10.212  0.3154  0.4950  0.0291
  717TMC3    C510652   2.930   3.257  10.119 -0.4577  0.3933 -0.2262
  717TMC3    C610653   2.872   3.257   9.993  0.0670 -0.3100  0.6094
  717TMC3     C10654   2.831   3.566  10.281  0.7585  0.7282 -0.8783
  717TMC3     O10655   2.876   3.550  10.394 -0.0024  0.2372 -0.1534
  717TMC3     H10656   2.682   3.539  10.056  0.8725  1.4028  0.7626
  717TMC3    H110657   2.965   3.348  10.305 -1.9389 -0.8352  1.3294
  717TMC3    H210658   2.875   3.179   9.918 -0.0748 -1.0108  1.3411
  717TMC3    C710659   3.043   3.169  10.135 -0.3729 -0.7235 -0.5277
  717TMC3    C810660   2.674   3.340   9.872 -0.1090 -0.5229 -0.0827
  717TMC3    O110661   3.120   3.202  10.223 -0.0012 -0.4976 -0.0122
  717TMC3    O210662   2.572   3.396   9.906  0.0600 -0.3454  0.1798
  718MPD2     C10663   2.457   1.628  12.892  0.0788 -0.8800  0.7161
  718MPD2    C110664   2.380   1.723  12.838  0.0363 -0.1722 -0.1808
  718MPD2    C210665   2.277   1.687  12.759  0.6315 -0.2499 -0.0680
  718MPD2    C310666   2.251   1.558  12.723  0.5419  1.0989  0.2652
  718MPD2    C410667   2.335   1.460  12.781 -0.5216  0.2351  1.4793
  718MPD2    C510668   2.435   1.495  12.862  0.5265  0.2192 -0.0716
  718MPD2     H10669   2.210   1.766  12.726 -0.1895 -0.3212  1.4322
  718MPD2    H110670   2.325   1.353  12.765  2.1740 -0.2769  3.3879
  718MPD2    H210671   2.547   1.644  12.951  0.8343  2.7755 -1.3773
  718MPD2    H310672   2.494   1.414  12.904 -0.2209  0.2038  0.9623
  718MPD2     N10673   2.152   1.533  12.627 -0.2191  0.0933  0.1539
  718MPD2    H510674   2.108   1.615  12.587  1.2719  0.9364  0.2532
  718MPD2    N110675   2.377   1.860  12.868 -0.0756 -0.1045  0.4635
  718MPD2    H710676   2.303   1.920  12.833 -1.2063 -2.2378 -0.7959
  719TMC3    C110677   2.425   2.073  12.943  0.3838  0.2463  0.2159
  719TMC3    C210678   2.289   2.097  12.940 -0.0015 -0.2359  1.0075
  719TMC3    C310679   2.249   2.181  12.845  0.7271 -0.5194  0.3985
  719TMC3    C410680   2.518   2.145  12.874 -0.6097 -0.3339 -0.2105
  719TMC3    C510681   2.474   2.259  12.811  0.3468 -0.1891  0.2201
  719TMC3    C610682   2.339   2.271  12.791 -0.3354  0.2576 -0.5475
  719TMC3     C10683   2.469   1.930  12.936 -0.3995 -0.2836  0.8141
  719TMC3     O10684   2.582   1.897  12.968 -0.0971  0.4827 -0.0165
  719TMC3     H10685   2.219   2.033  12.994  1.7310 -3.0244 -0.0632
  719TMC3    H110686   2.624   2.125  12.885 -0.6351  0.7403  2.0087
  719TMC3    H210687   2.311   2.339  12.711  0.8833 -0.0279 -1.2144
  719TMC3    C710688   2.558   2.364  12.757 -0.0449  0.6632  0.5126
  719TMC3    C810689   2.152   2.113  12.756 -0.2841  0.6322  0.1155
  719TMC3    O110690   2.514   2.437  12.672  0.2464  0.0253  0.2319
  719TMC3    O210691   2.121   1.999  12.793  0.3682 -0.0392 -0.0803
  720MPD2     C10692   0.936   3.938  13.513 -0.3509  0.5087 -0.2854
  720MPD2    C110693   0.932   4.070  13.548  0.0175 -0.0805 -0.6867
  720MPD2    C210694   0.999   4.103  13.663  1.0102  0.2087 -0.5814
  720MPD2    C310695   1.082   4.009  13.735 -0.6273  0.0271  0.3199
  720MPD2    C410696   1.084   3.877  13.693 -0.6451 -0.4839  0.5527
  720MPD2    C510697   1.008   3.848  13.588 -0.1518 -0.0166  0.0276
  720MPD2     H10698   1.001   4.207  13.692 -0.6403 -0.0073  0.3097
  720MPD2    H110699   1.140   3.794  13.733 -2.1470 -1.1472  1.3126
  720MPD2    H210700   0.897   3.900  13.419 -2.4046 -1.1172  1.2198
  720MPD2    H310701   1.034   3.755  13.540  2.3573  0.2476  0.8771
  720MPD2     N10702   1.159   4.045  13.848  0.3764 -0.1211 -0.3254
  720MPD2    H510703   1.153   4.139  13.886 -1.5789  0.2048 -1.4232
  720MPD2    N110704   0.866   4.173  13.474 -0.3310 -0.2744 -0.3381
  720MPD2    H710705   0.867   4.271  13.501 -0.3802  0.1855 -2.0190
  721TMC3    C110706   1.351   4.029  14.010 -0.3571  0.5523  0.8952
  721TMC3    C210707   1.280   4.036  14.131 -0.2780 -1.2689 -0.1081
  721TMC3    C310708   1.351   4.024  14.250 -0.8397  0.1088 -0.3973
  721TMC3    C410709   1.482   3.992  14.010 -0.1511  0.7431  0.5149
  721TMC3    C510710   1.545   3.974  14.127 -0.0628  0.0068 -0.8765
  721TMC3    C610711   1.485   3.984  14.247 -0.1191 -0.0810 -0.2857
  721TMC3     C10712   1.277   3.973  13.894  0.0581 -0.0667  0.3222
  721TMC3     O10713   1.322   3.870  13.850  0.0324  0.6365 -0.4328
  721TMC3     H10714   1.173   4.050  14.138  0.2411  2.1290  0.9920
  721TMC3    H110715   1.532   3.957  13.920 -1.8514 -1.2938  0.3900
  721TMC3    H210716   1.551   3.987  14.333  1.9699 -0.3802 -1.8690
  721TMC3    C710717   1.677   3.917  14.123 -0.4564  0.1801 -0.3535
  721TMC3    C810718   1.279   4.044  14.380  0.0435 -0.0488  0.0607
  721TMC3    O110719   1.736   3.930  14.018  0.1808  0.2337  0.1192
  721TMC3    O210720   1.312   3.968  14.469 -0.4957 -0.1234 -0.2675
  722MPD2     C10721   4.700   2.369  13.068  0.4604 -0.6362 -0.5139
  722MPD2    C110722   4.683   2.491  13.116 -0.2726 -0.3292  0.3467
  722MPD2    C210723   4.565   2.556  13.082 -0.5727  0.1390 -0.1493
  722MPD2    C310724   4.471   2.509  12.995  0.1442 -0.1955 -0.2888
  722MPD2    C410725   4.488   2.380  12.953  0.1234 -0.0159 -0.0502
  722MPD2    C510726   4.603   2.319  12.989  0.7229  0.1756  0.6563
  722MPD2     H10727   4.557   2.659  13.114 -2.3632 -0.7372  2.1884
  722MPD2    H110728   4.410   2.333  12.894 -0.4010  4.3295 -2.7440
  722MPD2    H210729   0.051   2.311  13.101  1.1230  0.6453 -0.0164
  722MPD2    H310730   4.616   2.216  12.956  1.9427 -0.1058  2.0308
  722MPD2     N10731   4.357   2.589  12.971  0.0227 -0.2321  0.2054
  722MPD2    H510732   4.363   2.680  13.016 -1.6526  0.6874 -1.4286
  722MPD2    N110733   0.047   2.561  13.188  0.0058 -0.3749  0.6862
  722MPD2    H710734   0.021   2.658  13.206 -1.0587 -0.6561  0.6424
  723TMC3    C110735   4.179   2.673  12.865  0.1600  0.6219  0.0142
  723TMC3    C210736   4.046   2.655  12.854  1.1543  0.1697 -0.0808
  723TMC3    C310737   3.968   2.766  12.873  0.4521  0.1521 -1.0297
  723TMC3    C410738   4.234   2.795  12.857 -0.5619 -0.5116  0.6164
  723TMC3    C510739   4.157   2.900  12.889  0.8054 -0.1182  0.4892
  723TMC3    C610740   4.025   2.892  12.886 -0.3861  0.0567 -0.1034
  723TMC3     C10741   4.256   2.558  12.897  0.8365 -0.1084  0.1289
  723TMC3     O10742   4.210   2.453  12.851 -0.4030  0.1218  0.4421
  723TMC3     H10743   4.004   2.555  12.858 -1.5139  1.2119 -1.5213
  723TMC3    H110744   4.342   2.806  12.850 -0.5127 -1.9992 -0.9300
  723TMC3    H210745   3.965   2.981  12.901  2.2079  1.7421  0.0778
  723TMC3    C710746   4.217   3.033  12.863  0.1206  0.1265 -0.0304
  723TMC3    C810747   3.825   2.770  12.851 -0.1053 -0.1991 -0.5600
  723TMC3    O110748   4.313   3.025  12.781  0.0478  0.0756 -0.2368
  723TMC3    O210749   3.762   2.876  12.860 -0.0321  0.2403 -0.3233
  724TMC3    C110750   0.405   1.041  10.835  0.4184  0.2215  0.4593
  724TMC3    C210751   0.366   1.133  10.741  0.0245  0.6145  0.0342
  724TMC3    C310752   0.470   1.202  10.681  0.2795 -0.0914  0.1861
  724TMC3    C410753   0.529   1.034  10.890 -0.3915 -0.0092 -0.6795
  724TMC3    C510754   0.623   1.094  10.820  0.5163  0.2063  0.4237
  724TMC3    C610755   0.600   1.169  10.711  0.1222 -0.0703  0.3584
  724TMC3     C10756   0.311   0.937  10.877 -0.4010  0.6521 -0.7722
  724TMC3     O10757   0.344   0.865  10.969 -0.0289  0.1860 -0.4977
  724TMC3     H10758   0.265   1.144  10.705  0.5762  0.5939 -1.5450
  724TMC3    H110759   0.559   0.967  10.970 -2.6762 -1.6817 -1.2362
  724TMC3    H210760   0.678   1.216  10.653 -0.4442  1.2615  0.6751
  724TMC3    C710761   0.762   1.059  10.844  0.1387 -0.0515  0.3411
  724TMC3    C810762   0.437   1.321  10.607  0.4893  0.1623  0.1025
  724TMC3    O110763   0.818   1.062  10.738 -0.1164  0.3253 -0.2839
  724TMC3    O210764   0.329   1.309  10.556 -0.1300  0.2646  0.7249
  725TMC3    C110765   1.879   3.966  12.872 -0.5349 -0.2174 -0.1414
  725TMC3    C210766   1.781   4.053  12.821  0.3253  0.1337 -0.1338
  725TMC3    C310767   1.682   3.988  12.752 -0.8214  1.0956 -0.3753
  725TMC3    C410768   1.886   3.827  12.849 -0.1536 -0.2959  0.6792
  725TMC3    C510769   1.785   3.777  12.778 -0.6343 -0.1393  0.0692
  725TMC3    C610770   1.679   3.855  12.732  0.4781  0.0989  0.0387
  725TMC3     C10771   1.995   4.034  12.934 -0.7210  0.3574  0.3339
  725TMC3     O10772   1.963   4.143  12.981 -0.0804  0.7934  0.6027
  725TMC3     H10773   1.789   4.161  12.833  0.7565  0.0820  0.0229
  725TMC3    H110774   1.965   3.770  12.897 -0.7921 -0.4598  1.5482
  725TMC3    H210775   1.588   3.812  12.692 -0.6242  3.0935 -0.7010
  725TMC3    C710776   1.790   3.642  12.730  0.0704 -0.3555  0.1900
  725TMC3    C810777   1.577   4.079  12.707 -0.0747 -0.4297  0.3395
  725TMC3    O110778   1.694   3.600  12.667  0.1919  0.7306  0.1643
  725TMC3    O210779   1.459   4.051  12.728  0.2947  0.0196  0.7270
  726MPD2     C10780   4.441   1.254  10.519  0.1665  0.4179  0.2124
  726MPD2    C110781   4.358   1.309  10.427 -0.1763  0.2095 -0.1441
  726MPD2    C210782   4.242   1.234  10.386  0.4062 -0.3605 -0.1409
  726MPD2    C310783   4.206   1.116  10.441  0.8336 -0.2404 -0.5788
  726MPD2    C410784   4.284   1.063  10.544  0.0817  0.0665 -0.8814
  726MPD2    C510785   4.400   1.132  10.576  0.0865  0.1731  0.3664
  726MPD2     H10786   4.183   1.276  10.306  0.2093  0.2093  0.3062
  726MPD2    H110787   4.269   0.967  10.591  0.3360  1.3368  1.7983
  726MPD2    H210788   4.535   1.297  10.552 -0.2491  1.1840  0.3783
  726MPD2    H310789   4.461   1.080  10.649 -0.0914 -1.0201 -0.3342
  726MPD2     N10790   4.086   1.045  10.405 -0.0084  0.1253 -0.7795
  726MPD2    H510791   4.075   0.959  10.457 -2.2883 -0.4019 -2.1263
  726MPD2    N110792   4.369   1.436  10.376  0.3574  0.5220  0.2107
  726MPD2    H710793   4.301   1.468  10.307  0.5686  0.9393  0.1981
  727TMC3    C110794   4.429   1.664  10.366  0.4779 -0.4515 -0.2173
  727TMC3    C210795   4.423   1.783  10.439  0.6180 -0.4204  0.5631
  727TMC3    C310796   4.398   1.901  10.378  0.0945  0.5797 -0.4413
  727TMC3    C410797   4.413   1.663  10.229  0.1396 -0.4529  0.4433
  727TMC3    C510798   4.395   1.784  10.171 -0.9746  0.4708 -0.6566
  727TMC3    C610799   4.383   1.904  10.239  0.0279 -0.2658  0.2369
  727TMC3     C10800   4.440   1.540  10.436  0.2103 -0.4251  0.3710
  727TMC3     O10801   4.491   1.553  10.548  0.1165  0.4362 -0.2619
  727TMC3     H10802   4.444   1.775  10.545 -0.2152  0.6423  0.7974
  727TMC3    H110803   4.400   1.570  10.174  2.0444 -0.9729  0.8511
  727TMC3    H210804   4.364   1.993  10.180 -1.2331  0.1318  1.2384
  727TMC3    C710805   4.433   1.803  10.032  0.2233 -0.9335  0.1040
  727TMC3    C810806   4.379   2.020  10.447  0.1750 -0.2859  0.0768
  727TMC3    O110807   4.387   1.902   9.978  0.2450 -0.3618  0.5479
  727TMC3    O210808   4.403   2.020  10.565 -0.3105  0.5656  0.3143
  728TMC3    C110809   3.625   4.330  15.333  0.2990  0.4527 -0.4535
  728TMC3    C210810   3.752   4.320  15.284 -0.4885 -0.1901  0.2996
  728TMC3    C310811   3.777   4.311  15.149 -0.2299 -0.1998  0.3663
  728TMC3    C410812   3.524   4.362  15.246  0.4044  0.5491  0.5779
  728TMC3    C510813   3.546   4.368  15.112  0.0226  0.5519 -0.1905
  728TMC3    C610814   3.670   4.333  15.059 -0.0986  0.4934 -0.4071
  728TMC3     C10815   3.598   4.311  15.470 -0.7673  0.1723 -0.3967
  728TMC3     O10816   3.689   4.341  15.546 -0.4018 -0.5232 -0.6065
  728TMC3     H10817   3.826   4.295  15.360  1.3910  0.8535 -1.1916
  728TMC3    H110818   3.430   4.392  15.290  0.5448 -2.0172  2.6646
  728TMC3    H210819   3.685   4.309  14.954  3.3469  1.0856 -0.0415
  728TMC3    C710820   3.431   4.380  15.029  0.6160  0.2626 -0.1768
  728TMC3    C810821   3.915   4.339  15.110 -0.2221  0.2287  0.3563
  728TMC3    O110822   3.320   4.355  15.078 -0.2315 -0.2165  0.0777
  728TMC3    O210823   3.997   4.323  15.199  0.4493  0.6853 -0.0740
  729MPD2     C10824   0.654   1.025  16.564 -0.1510 -0.1669 -0.7425
  729MPD2    C110825   0.768   0.949  16.600 -0.2798 -0.2858 -0.1604
  729MPD2    C210826   0.770   0.890  16.724 -0.1403 -0.9178 -0.1394
  729MPD2    C310827   0.669   0.904  16.814  0.1035 -0.7436  0.3793
  729MPD2    C410828   0.557   0.978  16.777 -0.1597 -0.0630 -0.1842
  729MPD2    C510829   0.550   1.028  16.653  0.1148  0.2137  0.0209
  729MPD2     H10830   0.861   0.834  16.745  0.6251  0.2137 -0.4141
  729MPD2    H110831   0.466   0.981  16.836  0.7071  1.8237  1.0569
  729MPD2    H210832   0.646   1.083  16.473  0.9969 -1.2635 -1.5460
  729MPD2    H310833   0.460   1.082  16.626 -0.5552  0.8413  3.6143
  729MPD2     N10834   0.678   0.867  16.953 -0.3359  0.6198  0.0714
  729MPD2    H510835   0.616   0.911  17.020 -0.4965 -0.7729  0.8367
  729MPD2    N110836   0.876   0.955  16.511  0.1262 -0.4626  0.0256
  729MPD2    H710837   0.877   1.035  16.449 -1.3916 -0.5655 -0.1303
  730TMC3    C110838   0.824   0.825  17.131 -0.0834 -0.0253  0.0632
  730TMC3    C210839   0.956   0.794  17.165 -0.0110 -0.5957 -0.0348
  730TMC3    C310840   1.021   0.875  17.249  0.8399  0.5987 -0.7256
  730TMC3    C410841   0.766   0.934  17.190 -0.3671  0.6304 -0.2929
  730TMC3    C510842   0.837   1.013  17.273  0.6973 -0.1810 -0.1601
  730TMC3    C610843   0.961   0.985  17.310 -0.2805  0.1823  0.6893
  730TMC3     C10844   0.784   0.797  16.993 -0.3962 -0.2183 -0.2380
  730TMC3     O10845   0.859   0.724  16.937  0.4251  0.2877  0.0060
  730TMC3     H10846   1.007   0.712  17.114 -0.7297 -1.0590 -0.0004
  730TMC3    H110847   0.661   0.959  17.178 -0.6912 -1.4859 -2.0425
  730TMC3    H210848   1.010   1.045  17.385  0.0629  2.1862 -1.1559
  730TMC3    C710849   0.780   1.147  17.290 -0.2571 -0.2001 -0.2627
  730TMC3    C810850   1.159   0.873  17.214 -0.2226 -0.3736  0.6681
  730TMC3    O110851   0.710   1.187  17.192  0.2289 -0.0257 -0.3282
  730TMC3    O210852   1.223   0.774  17.188  0.0650 -0.6919  0.0016
  731MPD2     C10853   1.202   3.543  12.326 -0.7786 -0.5729  0.1100
  731MPD2    C110854   1.336   3.567  12.329  0.4167  0.4271 -0.3563
  731MPD2    C210855   1.399   3.570  12.456  0.0541 -0.6510  0.5259
  731MPD2    C310856   1.332   3.535  12.572 -0.6248 -0.1996  0.0979
  731MPD2    C410857   1.197   3.509  12.565  0.4193 -0.5820  0.0055
  731MPD2    C510858   1.133   3.505  12.442 -0.3819 -0.4495  0.6199
  731MPD2     H10859   1.506   3.589  12.466 -0.1211  1.6881 -1.7197
  731MPD2    H110860   1.141   3.465  12.647 -0.7006 -0.4991 -0.7150
  731MPD2    H210861   1.153   3.527  12.231  3.0493 -0.0713 -1.9344
  731MPD2    H310862   1.030   3.472  12.437 -0.8150  1.0324 -0.0038
  731MPD2     N10863   1.396   3.526  12.697 -0.4983  0.1254  0.0365
  731MPD2    H510864   1.496   3.547  12.692 -0.2196 -1.7096 -2.0551
  731MPD2    N110865   1.405   3.591  12.212  0.4388  0.2532 -0.6831
  731MPD2    H710866   1.349   3.586  12.128  0.9205 -2.5589 -0.8578
  732TMC3    C110867   1.569   3.671  12.057 -0.0919 -0.2769  0.3466
  732TMC3    C210868   1.486   3.756  11.994 -0.3182 -0.5552  0.4245
  732TMC3    C310869   1.511   3.783  11.868 -0.4433 -0.4700  0.9555
  732TMC3    C410870   1.693   3.630  12.010 -0.6970 -0.2238 -0.5595
  732TMC3    C510871   1.715   3.664  11.876 -0.1245 -0.5368 -0.3439
  732TMC3    C610872   1.626   3.732  11.801  0.2955  0.2718  0.3915
  732TMC3     C10873   1.535   3.637  12.197  0.1739 -0.0683  0.7462
  732TMC3     O10874   1.628   3.611  12.271 -0.4176 -0.3175 -0.1228
  732TMC3     H10875   1.390   3.789  12.032 -1.2143 -0.8221 -1.6144
  732TMC3    H110876   1.744   3.552  12.065  1.0140  1.3929  0.1289
  732TMC3    H210877   1.648   3.752  11.697  2.1850 -1.0799  0.5425
  732TMC3    C710878   1.841   3.623  11.828 -0.0517 -0.4991  0.4820
  732TMC3    C810879   1.419   3.859  11.785 -0.4020  0.3338  0.1293
  732TMC3    O110880   1.853   3.622  11.707 -0.2048 -0.7071 -0.3221
  732TMC3    O210881   1.427   3.858  11.662 -0.1802 -0.1301 -0.2209
  733TMC3    C110882   1.778   1.433  12.429  0.9428  0.3107 -0.6825
  733TMC3    C210883   1.884   1.382  12.499  0.2272  0.5557 -0.6351
  733TMC3    C310884   2.003   1.449  12.479 -0.7525 -0.1691 -0.4550
  733TMC3    C410885   1.797   1.532  12.335  0.3668 -0.8347  0.5055
  733TMC3    C510886   1.915   1.597  12.313 -0.5383 -0.1666  0.4298
  733TMC3    C610887   2.018   1.564  12.397 -0.1100  0.1298  0.1784
  733TMC3     C10888   1.661   1.456  12.510  0.8006 -0.5627  0.3399
  733TMC3     O10889   1.603   1.554  12.477  0.2917  0.0558  0.2669
  733TMC3     H10890   1.867   1.316  12.583 -1.5674  2.8674  0.8379
  733TMC3    H110891   1.712   1.554  12.271 -1.0044 -2.9416  1.6011
  733TMC3    H210892   2.117   1.608  12.384  0.8417 -2.5645 -1.5129
  733TMC3    C710893   1.890   1.742  12.295 -0.0613  0.1871  0.5133
  733TMC3    C810894   2.112   1.414  12.570  0.4310  0.2112  0.0897
  733TMC3    O110895   1.786   1.784  12.244 -0.9577 -0.3935  0.0305
  733TMC3    O210896   2.105   1.308  12.634  0.2784 -0.0647  0.1061
  734MPD2     C10897   0.043   4.163  12.416 -0.5679 -0.3139 -0.8072
  734MPD2    C110898   4.640   4.172  12.418 -0.1665  0.5273  0.1834
  734MPD2    C210899   4.576   4.257  12.330 -0.2364 -0.2141 -0.2242
  734MPD2    C310900   4.644   4.345  12.252  0.5763  0.1989 -0.2895
  734MPD2    C410901   0.045   4.326  12.239  0.6059 -0.2931  0.4006
  734MPD2    C510902   0.113   4.244  12.322  0.1045  1.0059  0.6636
  734MPD2     H10903   4.469   4.272  12.330 -0.2837 -0.5568 -0.6224
  734MPD2    H110904   0.107   4.386  12.173 -0.4266 -0.3054 -0.5964
  734MPD2    H210905   0.111   4.095  12.467  1.2389  2.0466 -0.0611
  734MPD2    H310906   0.220   4.227  12.308 -0.2265 -0.5298 -0.0599
  734MPD2     N10907   4.568   4.431  12.161  0.6709 -0.3910 -0.2012
  734MPD2    H510908   4.468   4.419  12.169  0.5394  1.9606  1.7982
  734MPD2    N110909   4.582   4.084  12.523 -0.1126  0.0540 -0.6377
  734MPD2    H710910   4.642   4.033  12.586  2.5399  1.2066 -2.2439
  735TMC3    C110911   4.406   3.948  12.600 -0.0064  0.1121  0.7255
  735TMC3    C210912   4.297   3.905  12.534  0.0119 -0.4445 -0.5354
  735TMC3    C310913   4.294   3.786  12.479 -0.7527  0.2912 -0.4889
  735TMC3    C410914   4.507   3.852  12.632 -0.2527 -0.2674 -0.0539
  735TMC3    C510915   4.505   3.733  12.574  0.3405 -0.0485 -0.3105
  735TMC3    C610916   4.396   3.694  12.498 -0.3443 -0.5268 -0.0594
  735TMC3     C10917   4.445   4.062  12.531  0.4213  0.5986 -0.0477
  735TMC3     O10918   4.367   4.113  12.454 -0.3618 -0.6620 -0.0006
  735TMC3     H10919   4.214   3.972  12.515  0.3231 -0.0038 -0.3369
  735TMC3    H110920   4.603   3.887  12.668 -0.1463  0.1665 -0.7610
  735TMC3    H210921   4.407   3.606  12.435  1.6126 -0.3186  0.0084
  735TMC3    C710922   4.631   3.715  12.506  0.4943  0.4764  0.0912
  735TMC3    C810923   4.222   3.774  12.354  0.2270 -0.1425 -0.4676
  735TMC3    O110924   4.683   3.816  12.466 -0.1747 -0.3875  0.6379
  735TMC3    O210925   4.209   3.661  12.304  0.0661 -0.1796 -0.5923
  736MPD2     C10926   0.074   3.400  12.430 -0.4906  0.5073 -0.4594
  736MPD2    C110927   0.058   3.536  12.444  0.3032  0.0384  0.3226
  736MPD2    C210928   0.163   3.623  12.404 -0.3816  0.5619  0.0448
  736MPD2    C310929   0.279   3.570  12.345  0.4480  0.1979 -0.8536
  736MPD2    C410930   0.289   3.434  12.333 -0.5295  0.1267  0.1462
  736MPD2    C510931   0.192   3.350  12.378 -0.0140 -0.1346  0.2411
  736MPD2     H10932   0.145   3.730  12.417 -0.2582  0.9198 -2.6331
  736MPD2    H110933   0.368   3.394  12.270 -0.5292 -1.2878  1.0516
  736MPD2    H210934   0.015   3.317  12.464  2.0242 -0.5459  1.3658
  736MPD2    H310935   0.194   3.242  12.365  0.9709  0.0017 -0.7403
  736MPD2     N10936   0.380   3.650  12.288  0.2971 -0.0974 -0.0668
  736MPD2    H510937   0.454   3.607  12.234 -0.3356  0.8770 -1.6923
  736MPD2    N110938   4.679   3.581  12.511 -0.1599  0.1172 -0.4405
  736MPD2    H710939   4.622   3.504  12.544  1.2654 -2.0672 -3.0845
  737TMC3    C110940   0.476   3.845  12.210 -0.0765 -0.1748  0.3960
  737TMC3    C210941   0.430   3.961  12.159  0.5895 -0.2393  0.3979
  737TMC3    C310942   0.445   3.986  12.024 -0.1397 -0.0394 -0.0666
  737TMC3    C410943   0.555   3.759  12.130 -0.3867 -0.1598  0.7033
  737TMC3    C510944   0.553   3.781  11.992 -0.7192  0.4222  0.0975
  737TMC3    C610945   0.503   3.889  11.937 -0.0950  0.3624 -0.3434
  737TMC3     C10946   0.376   3.787  12.292 -0.1205  0.0744  0.1066
  737TMC3     O10947   0.305   3.859  12.363  0.1467 -0.6804 -1.1584
  737TMC3     H10948   0.385   4.032  12.227 -0.6048 -0.3663 -0.2629
  737TMC3    H110949   0.581   3.660  12.165 -1.2287 -0.0142  1.7358
  737TMC3    H210950   0.477   3.890  11.831  1.0243  1.8140 -0.6047
  737TMC3    C710951   0.631   3.689  11.910 -0.5747 -0.7975 -0.2381
  737TMC3    C810952   0.390   4.112  11.981  0.0078  0.4802 -0.5788
  737TMC3    O110953   0.670   3.586  11.963  0.2334  0.1043 -0.2697
  737TMC3    O210954   0.349   4.188  12.071 -0.3267  0.0546 -0.2738
  738MPD2     C10955   4.651   2.760  15.170  0.3634 -0.1212 -0.6837
  738MPD2    C110956   4.620   2.775  15.035  0.6930  0.1472  0.0668
  738MPD2    C210957   4.713   2.824  14.943 -0.4735 -0.4906  0.4998
  738MPD2    C310958   0.102   2.857  14.988 -0.2724  0.9676  0.5033
  738MPD2    C410959   0.132   2.835  15.119  0.4912  0.3539 -0.3386
  738MPD2    C510960   0.044   2.779  15.207  0.1014  0.2514 -0.3400
  738MPD2     H10961   4.686   2.836  14.839 -0.0426  2.2137  0.7126
  738MPD2    H110962   0.231   2.861  15.155 -0.2857 -0.9077  2.7332
  738MPD2    H210963   4.586   2.708  15.240  2.0389 -1.4858 -0.1347
  738MPD2    H310964   0.076   2.773  15.310  1.3885  1.1748 -0.6939
  738MPD2     N10965   0.204   2.914  14.917 -0.0708 -0.5981  0.5014
  738MPD2    H510966   0.278   2.958  14.971  0.9412 -1.8254  0.1002
  738MPD2    N110967   4.501   2.720  14.988 -0.1564  0.6213 -0.3783
  738MPD2    H710968   4.496   2.721  14.887 -1.7722  1.7746 -0.2890
  739TMC3    C110969   0.315   2.999  14.723  0.4468 -0.5123  0.5603
  739TMC3    C210970   0.319   2.983  14.589 -0.5260 -0.4206  0.0718
  739TMC3    C310971   0.369   3.084  14.519  0.4232  0.2988 -0.0399
  739TMC3    C410972   0.355   3.115  14.785 -0.0512 -0.2832 -0.2091
  739TMC3    C510973   0.404   3.218  14.707 -0.3484 -0.5581  0.1410
  739TMC3    C610974   0.404   3.209  14.572 -0.0623 -0.5971 -0.3156
  739TMC3     C10975   0.202   2.924  14.774  0.4492  0.1197  0.6668
  739TMC3     O10976   0.136   2.859  14.693 -0.2807 -0.3169 -0.7390
  739TMC3     H10977   0.277   2.900  14.533  2.7892 -2.5760  0.7674
  739TMC3    H110978   0.340   3.139  14.890  0.3642  1.1247 -0.4712
  739TMC3    H210979   0.458   3.288  14.522  0.0244  1.5192  3.1169
  739TMC3    C710980   0.384   3.345  14.773 -0.2918  0.1891  0.8313
  739TMC3    C810981   0.341   3.083  14.375 -0.0341 -0.3939  0.1251
  739TMC3    O110982   0.366   3.347  14.897  0.2782 -0.4116 -0.0097
  739TMC3    O210983   0.245   3.019  14.336 -0.3956  0.2850  0.4033
  740TMC3    C110984   0.639   4.276  14.234 -0.4912 -0.1610  0.1567
  740TMC3    C210985   0.652   4.168  14.310 -0.4339 -0.6804  0.3692
  740TMC3    C310986   0.771   4.100  14.313 -0.5637  0.1281  0.3041
  740TMC3    C410987   0.741   4.319  14.155  0.0851  0.2998 -0.1157
  740TMC3    C510988   0.864   4.247  14.159 -0.4519  0.2600  0.1904
  740TMC3    C610989   0.879   4.141  14.244  0.1101  0.4388 -0.8326
  740TMC3     C10990   0.506   4.330  14.207  0.5303 -0.8994  0.5442
  740TMC3     O10991   0.487   4.390  14.100  0.5991 -0.0383 -0.0956
  740TMC3     H10992   0.572   4.112  14.356  0.4430 -0.6923  1.8877
  740TMC3    H110993   0.741   4.417  14.108 -0.1704  1.3340  2.0468
  740TMC3    H210994   0.974   4.090  14.254 -0.6267 -0.6754  0.4936
  740TMC3    C710995   0.990   4.297  14.105 -0.0846 -0.7034 -0.1093
  740TMC3    C810996   0.794   3.987  14.405  0.2411 -0.1776 -0.0099
  740TMC3    O110997   1.089   4.268  14.176 -0.5438 -0.9442 -0.4434
  740TMC3    O210998   0.883   3.907  14.386 -0.3473 -0.0462  0.1463
  741TMC3    C110999   0.249   3.725  13.774 -0.4554 -0.8411 -0.4060
  741TMC3    C211000   0.146   3.641  13.795  1.1094  0.5333 -0.2179
  741TMC3    C311001   0.153   3.558  13.903 -0.8036  0.6656 -0.3720
  741TMC3    C411002   0.360   3.723  13.854  0.0976 -0.1653  0.2132
  741TMC3    C511003   0.372   3.630  13.955 -0.3909  0.3905  0.9636
  741TMC3    C611004   0.271   3.545  13.980  0.1955 -0.4107 -0.0050
  741TMC3     C11005   0.232   3.851  13.708  0.1560 -0.1454  0.0310
  741TMC3     O11006   0.331   3.917  13.679 -0.2069  0.2054  0.0050
  741TMC3     H11007   0.062   3.640  13.726  1.0198 -0.4303 -0.0949
  741TMC3    H111008   0.441   3.794  13.844  0.2758 -0.4825 -0.5640
  741TMC3    H211009   0.271   3.472  14.060 -2.6621  0.0016  0.3777
  741TMC3    C711010   0.494   3.613  14.032 -0.8786 -0.2406  0.4148
  741TMC3    C811011   0.031   3.487  13.938  0.0899  0.0969 -0.3588
  741TMC3    O111012   0.486   3.557  14.137  0.1378 -0.2295 -0.4956
  741TMC3    O211013   4.664   3.534  13.899 -0.1292 -0.1640  0.3489
  742TMC3    C111014   0.007   1.999  15.463  0.6420  0.4439 -0.7772
  742TMC3    C211015   4.703   1.997  15.330 -0.9908 -0.2419  0.1797
  742TMC3    C311016   0.055   2.052  15.234 -0.4775  0.0993 -0.0507
  742TMC3    C411017   0.121   2.047  15.506 -0.2367  0.3371  0.2652
  742TMC3    C511018   0.199   2.107  15.409 -0.5312  0.3298  0.5800
  742TMC3    C611019   0.174   2.105  15.275  0.0609  0.0295 -0.1609
  742TMC3     C11020   4.669   1.916  15.557  0.8224 -0.1290  0.5510
  742TMC3     O11021   0.002   1.845  15.628 -0.5547 -0.1982 -0.2474
  742TMC3     H11022   4.632   1.924  15.293 -0.5768 -0.0289 -1.0485
  742TMC3    H111023   0.159   2.035  15.607  1.1621  1.4905 -0.1093
  742TMC3    H211024   0.248   2.144  15.205 -1.4955  2.9060 -0.1888
  742TMC3    C711025   0.338   2.121  15.442 -0.2097 -0.2525 -0.4039
  742TMC3    C811026   0.031   2.022  15.093 -0.1346 -0.0619  0.3211
  742TMC3    O111027   0.414   2.100  15.352 -0.6653 -0.5334  0.6622
  742TMC3    O211028   4.665   1.953  15.073  0.1723 -0.0978  0.1623
  743MPD2     C11029   2.560   1.840   1.213  0.0584 -0.6747  0.3084
  743MPD2    C111030   2.507   1.929   1.117  0.0290 -0.4043  0.0500
  743MPD2    C211031   2.592   2.031   1.075  0.6475 -0.2248  0.0178
  743MPD2    C311032   2.716   2.049   1.132  0.4529 -0.3725 -0.2166
  743MPD2    C411033   2.760   1.962   1.229  0.0009  0.6410 -0.5444
  743MPD2    C511034   2.687   1.855   1.268 -0.0401  0.3454  0.1518
  743MPD2     H11035   2.551   2.097   0.999  0.8601  0.6009  0.6230
  743MPD2    H111036   2.850   1.971   1.289  1.0960 -2.6188 -1.7165
  743MPD2    H211037   2.512   1.752   1.256 -1.2766 -1.4364 -2.7167
  743MPD2    H311038   2.731   1.790   1.342  0.6678 -2.1193 -2.4247
  743MPD2     N11039   2.788   2.167   1.105  0.5130 -0.2395 -0.0113
  743MPD2    H511040   2.745   2.231   1.040  0.2152 -0.7947 -0.3648
  743MPD2    N111041   2.381   1.919   1.068  0.5197  0.4930  0.1397
  743MPD2    H711042   2.352   1.981   0.993  1.6889  0.0920 -0.6512
  744TMC3    C111043   2.150   1.863   1.050 -0.4810  0.6604 -0.3055
  744TMC3    C211044   2.043   1.842   1.127  0.0875  0.2000 -0.7970
  744TMC3    C311045   1.922   1.840   1.065 -0.0215 -0.2606  0.1888
  744TMC3    C411046   2.142   1.880   0.911 -0.5863  0.4239 -0.0624
  744TMC3    C511047   2.022   1.878   0.850  1.0376  0.3282  0.1779
  744TMC3    C611048   1.908   1.868   0.936 -0.1811 -0.3818  0.5878
  744TMC3     C11049   2.277   1.846   1.123  0.4024 -1.2121  0.2530
  744TMC3     O11050   2.269   1.794   1.235  0.1933  0.3823  0.5640
  744TMC3     H11051   2.039   1.802   1.228  2.3267 -0.5199 -1.0010
  744TMC3    H111052   2.238   1.878   0.861 -1.2144 -0.7430 -1.2126
  744TMC3    H211053   1.808   1.864   0.895  0.4009  0.6062 -0.9357
  744TMC3    C711054   2.026   1.908   0.713 -0.1689 -0.7499  0.5056
  744TMC3    C811055   1.806   1.816   1.148 -0.1759 -0.6779 -1.1455
  744TMC3    O111056   1.923   1.869   0.664  0.1120  0.0287  0.1537
  744TMC3    O211057   1.816   1.753   1.252 -0.7085 -0.2828 -0.2865
  745TMC3    C111058   0.599   1.556  13.589 -0.8487  0.6627 -0.6293
  745TMC3    C211059   0.529   1.598  13.697  0.3307  0.3684 -0.2884
  745TMC3    C311060   0.399   1.619  13.683  0.5557 -0.3226 -0.3277
  745TMC3    C411061   0.546   1.539  13.465  0.2860 -0.0324 -0.2730
  745TMC3    C511062   0.414   1.572  13.456  0.3136 -0.1012 -0.3433
  745TMC3    C611063   0.338   1.597  13.567 -0.3607 -0.2136  0.4744
  745TMC3     C11064   0.747   1.558  13.595 -0.0740  0.0529  0.1084
  745TMC3     O11065   0.809   1.473  13.531 -0.6417 -0.2849  0.4087
  745TMC3     H11066   0.575   1.593  13.795 -1.5667  2.1866  0.6811
  745TMC3    H111067   0.603   1.506  13.378 -2.4272 -1.8079 -1.3726
  745TMC3    H211068   0.233   1.619  13.549 -0.4912 -1.3107 -0.1299
  745TMC3    C711069   0.382   1.650  13.340 -0.3314  1.0076  0.4636
  745TMC3    C811070   0.329   1.694  13.783 -0.5720  0.7419  0.5016
  745TMC3    O111071   0.264   1.684  13.319  0.0013 -0.8814  0.4913
  745TMC3    O211072   0.211   1.704  13.768 -0.1856 -0.2160  0.0773
  746TMC3    C111073   3.351   3.499  11.209 -0.0705  0.0334 -0.2154
  746TMC3    C211074   3.439   3.449  11.117 -0.7105  0.5307 -0.2617
  746TMC3    C311075   3.393   3.350  11.032  1.0991 -0.4035 -0.0355
  746TMC3    C411076   3.222   3.462  11.208  0.4432 -0.3451 -0.0424
  746TMC3    C511077   3.179   3.369  11.113  0.2371  0.0902  0.2073
  746TMC3    C611078   3.268   3.302  11.033  0.4692  0.5791 -0.3242
  746TMC3     C11079   3.373   3.626  11.266  0.2096 -0.4832 -0.2732
  746TMC3     O11080   3.272   3.670  11.328  0.2959  0.5182  0.4782
  746TMC3     H11081   3.542   3.484  11.112  0.0678 -1.5936  0.6577
  746TMC3    H111082   3.161   3.483  11.294  0.5830  3.1325 -0.8186
  746TMC3    H211083   3.236   3.232  10.956  0.9231  1.1366 -1.0206
  746TMC3    C711084   3.034   3.378  11.066  0.8681 -0.1426 -0.0539
  746TMC3    C811085   3.436   3.378  10.900  0.2928  0.3749 -0.5072
  746TMC3    O111086   3.006   3.301  10.973 -0.0331  0.0247 -0.0112
  746TMC3    O211087   3.426   3.296  10.808  0.0885 -0.4547  0.3700
  747TMC3    C111088   0.990   3.934  10.966 -0.0687 -0.0279  0.2901
  747TMC3    C211089   0.965   3.816  11.031  0.0209  0.2166  0.5365
  747TMC3    C311090   0.994   3.807  11.166 -0.0590  0.0206  0.3504
  747TMC3    C411091   1.042   4.037  11.039 -0.6387  0.1267  0.5477
  747TMC3    C511092   1.072   4.020  11.172  0.2656 -0.0936  0.1133
  747TMC3    C611093   1.042   3.910  11.237  0.2944  0.3304 -0.4110
  747TMC3     C11094   0.955   3.961  10.828  0.1951 -0.3697 -0.5386
  747TMC3     O11095   0.957   4.076  10.785 -0.2140  0.2682  0.0932
  747TMC3     H11096   0.910   3.734  10.986 -0.3307  0.9675 -0.4024
  747TMC3    H111097   1.060   4.129  10.986  0.7374  0.5982  1.8283
  747TMC3    H211098   1.070   3.894  11.341 -0.4529 -1.1663 -0.4279
  747TMC3    C711099   1.162   4.111  11.239  0.1412 -1.2541  0.0357
  747TMC3    C811100   0.951   3.697  11.244 -0.0299 -0.6524  0.0191
  747TMC3    O111101   1.174   4.097  11.360 -0.2082  0.5570  0.4361
  747TMC3    O211102   0.942   3.585  11.191 -0.0136 -0.3449 -0.3940
  748MPD2     C11103   1.738   3.424   0.979  0.9167 -0.2058 -0.2802
  748MPD2    C111104   1.714   3.554   0.943 -0.0142  0.3978  0.5396
  748MPD2    C211105   1.798   3.655   0.989  0.4035  0.4687 -0.2026
  748MPD2    C311106   1.919   3.630   1.047  0.5063 -0.0513  0.0926
  748MPD2    C411107   1.948   3.495   1.079 -1.1031 -0.8150  0.8313
  748MPD2    C511108   1.851   3.396   1.047  0.2682  0.0463 -0.1760
  748MPD2     H11109   1.781   3.760   0.968  0.6067  1.0349  2.4731
  748MPD2    H111110   2.039   3.476   1.135  0.1308  1.0308 -0.5102
  748MPD2    H211111   1.666   3.347   0.952  0.8521 -0.1187 -0.3556
  748MPD2    H311112   1.876   3.293   1.068  0.2673  0.3384  1.2704
  748MPD2     N11113   2.008   3.732   1.089  0.8534  0.2486  0.2877
  748MPD2    H511114   2.096   3.699   1.126  1.8170  1.2099 -1.1667
  748MPD2    N111115   1.591   3.581   0.874 -0.4450  0.1229 -0.5335
  748MPD2    H711116   1.520   3.509   0.884 -0.9759  0.9317  1.6431
  749TMC3    C111117   2.102   3.943   1.141 -0.3882  0.1898  0.0059
  749TMC3    C211118   2.172   3.877   1.245  0.5320 -0.4299  1.3091
  749TMC3    C311119   2.263   3.950   1.308  1.0138  0.9295 -0.7856
  749TMC3    C411120   2.113   4.073   1.114  0.0308  0.1001  0.3194
  749TMC3    C511121   2.213   4.141   1.186 -0.1972  0.1347  0.0027
  749TMC3    C611122   2.285   4.083   1.290 -1.0183 -0.1234 -0.7836
  749TMC3     C11123   1.992   3.869   1.079  0.0388 -0.2868  0.4095
  749TMC3     O11124   1.902   3.936   1.032 -0.1907 -0.1448 -0.3846
  749TMC3     H11125   2.154   3.772   1.268  2.4904 -1.2700 -1.0112
  749TMC3    H111126   2.053   4.115   1.035 -0.5087 -2.2155 -0.4891
  749TMC3    H211127   2.356   4.133   1.355 -2.3934 -1.3327  1.6391
  749TMC3    C711128   2.284   4.249   1.117 -0.3569 -0.4515 -0.2857
  749TMC3    C811129   2.362   3.877   1.394  0.2500 -0.4730  0.3009
  749TMC3    O111130   2.344   4.332   1.181 -0.3231 -0.1330  0.0735
  749TMC3    O211131   2.385   3.919   1.502 -0.7562  0.1104 -0.3056
  750MPD2     C11132   3.324   0.941  11.136  0.2906  0.0639  0.4800
  750MPD2    C111133   3.227   0.886  11.212  0.0546 -0.2347 -0.0701
  750MPD2    C211134   3.128   0.804  11.151 -0.3134 -0.1916 -0.0353
  750MPD2    C311135   3.144   0.773  11.018 -0.5656  0.4222 -0.2293
  750MPD2    C411136   3.254   0.815  10.947 -0.0525  0.7117  0.3335
  750MPD2    C511137   3.342   0.909  11.002  0.4595 -0.5360 -0.4491
  750MPD2     H11138   3.053   0.756  11.213 -0.3250  1.9792  1.6471
  750MPD2    H111139   3.252   0.789  10.842  2.5296 -0.4385  0.5879
  750MPD2    H211140   3.395   1.009  11.180  0.6962 -0.9950  1.4774
  750MPD2    H311141   3.421   0.945  10.938 -0.4103 -1.7372 -2.2207
  750MPD2     N11142   3.054   0.691  10.941  0.0276  0.4571  0.4392
  750MPD2    H511143   3.085   0.670  10.847  0.8674 -2.1602  1.3040
  750MPD2    N111144   3.231   0.928  11.347 -0.0712  0.3078 -0.6474
  750MPD2    H711145   3.288   1.009  11.370 -0.8830  0.5740  0.3847
  751TMC3    C111146   2.895   0.512  10.918 -0.6186  0.7167 -0.3253
  751TMC3    C211147   2.770   0.465  10.917 -0.3026 -0.1853 -0.2916
  751TMC3    C311148   2.738   0.357  10.839 -0.3526 -0.4563 -0.4641
  751TMC3    C411149   2.987   0.446  10.843 -0.3358 -0.0771  0.4500
  751TMC3    C511150   2.955   0.337  10.775 -0.8101  0.2489 -0.6384
  751TMC3    C611151   2.831   0.296  10.764 -0.3444 -0.5068  0.6892
  751TMC3     C11152   2.936   0.632  10.993 -0.9117 -0.1476 -0.0736
  751TMC3     O11153   2.879   0.654  11.098 -0.2049 -0.0099  0.2290
  751TMC3     H11154   2.699   0.503  10.990  1.5855 -1.6342  2.3179
  751TMC3    H111155   3.092   0.466  10.860 -0.5721  1.1179  0.5215
  751TMC3    H211156   2.805   0.219  10.693  2.2847  0.3188 -1.1581
  751TMC3    C711157   3.065   0.257  10.727  0.0393 -0.8559 -0.0780
  751TMC3    C811158   2.612   0.292  10.849  0.3374 -0.4717  0.6898
  751TMC3    O111159   3.168   0.319  10.696 -0.3045  0.4361  0.1348
  751TMC3    O211160   2.595   0.205  10.765  0.1408 -0.6641 -0.3146
  752TMC3    C111161   1.365   0.356  17.319  0.1299 -0.2642  0.2461
  752TMC3    C211162   1.388   0.228  17.357 -0.0969 -0.1409  0.7698
  752TMC3    C311163   1.293   0.171  17.443 -0.1070 -0.4207 -0.5756
  752TMC3    C411164   1.259   0.433  17.371  0.1125 -0.9620 -0.4253
  752TMC3    C511165   1.172   0.374  17.458 -0.5795  0.0091  0.2815
  752TMC3    C611166   1.182   0.238  17.486  0.6804 -0.3875 -0.2660
  752TMC3     C11167   1.460   0.401  17.230 -0.7755  0.2714 -0.2843
  752TMC3     O11168   1.570   0.345  17.228  0.5422 -0.0207  0.3893
  752TMC3     H11169   1.462   0.161  17.316 -1.5149 -0.1603 -1.7301
  752TMC3    H111170   1.254   0.540  17.352 -2.4850 -1.2749 -1.5295
  752TMC3    H211171   1.103   0.196  17.547  0.5427  1.0015  0.4894
  752TMC3    C711172   1.050   0.439  17.482 -0.6476 -0.6979  0.0916
  752TMC3    C811173   1.315   0.042  17.496  0.2904 -0.1777  0.2534
  752TMC3    O111174   0.948   0.376  17.468  0.0453  0.5674  0.6286
  752TMC3    O211175   1.397   4.700  17.443  0.4339 -0.0745  0.2672
  753TMC3    C111176   3.559   1.753  13.182  0.6111 -0.5482 -0.0475
  753TMC3    C211177   3.650   1.703  13.273  0.0780  0.0859 -0.1744
  753TMC3    C311178   3.719   1.583  13.238  0.3904 -0.3016  0.4437
  753TMC3    C411179   3.517   1.688  13.072 -0.1417 -0.0329 -0.3576
  753TMC3    C511180   3.569   1.565  13.043 -0.1900  0.6435 -0.4307
  753TMC3    C611181   3.668   1.512  13.129 -0.5527  0.2507 -0.0508
  753TMC3     C11182   3.524   1.896  13.199  0.6884 -0.4728  0.0961
  753TMC3     O11183   3.600   1.960  13.267 -0.2011 -0.0167 -0.1823
  753TMC3     H11184   3.692   1.766  13.350 -1.3865  1.6766 -0.6772
  753TMC3    H111185   3.446   1.732  13.004 -2.6217 -1.4569  1.3202
  753TMC3    H211186   3.722   1.422  13.101 -2.2541 -0.8473  0.2344
  753TMC3    C711187   3.511   1.472  12.943  0.0128 -0.6428  0.3621
  753TMC3    C811188   3.846   1.544  13.300 -0.0534 -0.2633 -0.4882
  753TMC3    O111189   3.439   1.526  12.858 -0.5951 -0.7398 -0.9931
  753TMC3    O211190   3.920   1.469  13.235  0.6892  0.1881 -0.3309
  754MPD2     C11191   3.138   0.263  13.259  0.1181  0.0825  0.9974
  754MPD2    C111192   3.121   0.131  13.235  0.1949  0.3602  0.3385
  754MPD2    C211193   2.987   0.090  13.218 -0.2467 -0.0982  0.3439
  754MPD2    C311194   2.882   0.186  13.227 -0.5147  0.1718 -0.4983
  754MPD2    C411195   2.904   0.317  13.255 -0.5242  0.4343  0.2275
  754MPD2    C511196   3.035   0.357  13.279 -0.5966  0.2445 -0.6031
  754MPD2     H11197   2.968   4.720  13.202 -0.3400  0.0782 -0.6561
  754MPD2    H111198   2.825   0.389  13.271 -2.7637 -1.8581 -0.6441
  754MPD2    H211199   3.239   0.300  13.268  0.3321 -0.0591 -0.8347
  754MPD2    H311200   3.051   0.462  13.298  1.1657 -0.3904  1.4160
  754MPD2     N11201   2.747   0.144  13.213  0.7908 -0.0298  0.6037
  754MPD2    H511202   2.678   0.219  13.213  0.7047 -0.1084  1.2267
  754MPD2    N111203   3.229   0.042  13.213  0.0819 -0.0297  0.3315
  754MPD2    H711204   3.318   0.083  13.186  0.3113  0.1416  1.3329
  755MPD2     C11205   1.920   0.521  13.197  0.1618  0.4788  0.2864
  755MPD2    C111206   1.948   0.418  13.290  0.1487  0.1374  0.5861
  755MPD2    C211207   2.068   0.343  13.277  0.2250 -0.2822  0.6089
  755MPD2    C311208   2.152   0.361  13.173  0.3548 -0.2318  0.2327
  755MPD2    C411209   2.137   0.473  13.093  0.2889 -0.0260  0.5354
  755MPD2    C511210   2.025   0.552  13.111  0.0697 -0.1180  0.3799
  755MPD2     H11211   2.083   0.262  13.349 -0.5112  0.1357  1.2428
  755MPD2    H111212   2.209   0.497  13.016  2.0788 -1.9925  1.5945
  755MPD2    H211213   1.835   0.587  13.202  0.3118  0.4726  2.9604
  755MPD2    H311214   2.003   0.642  13.055  1.2929 -1.2113 -1.8600
  755MPD2     N11215   2.243   0.258  13.129  0.0754  0.1150 -0.1890
  755MPD2    H511216   2.311   0.279  13.056 -1.4972 -1.0281 -2.0054
  755MPD2    N111217   1.856   0.371  13.392 -0.1939  0.3563  0.7482
  755MPD2    H711218   1.873   0.291  13.453  0.1998 -0.3906 -0.3515
  756MPD2     C11219   2.627   1.977   9.516 -0.6655  0.0693  0.0998
  756MPD2    C111220   2.529   1.929   9.601 -0.4301  0.6035 -0.1043
  756MPD2    C211221   2.396   1.973   9.586 -0.3249  0.3957 -0.1442
  756MPD2    C311222   2.363   2.060   9.479  0.1564 -0.0162  0.1595
  756MPD2    C411223   2.469   2.114   9.407  0.2624 -0.6381 -0.7191
  756MPD2    C511224   2.601   2.074   9.423 -0.2206 -0.2911  0.1935
  756MPD2     H11225   2.313   1.945   9.650 -0.8216  0.5997 -0.6971
  756MPD2    H111226   2.456   2.182   9.324  0.0063  0.5498  0.3012
  756MPD2    H211227   2.731   1.946   9.527 -0.8591 -1.1558 -1.4639
  756MPD2    H311228   2.687   2.097   9.361  0.1822  0.2479  0.9453
  756MPD2     N11229   2.227   2.099   9.463 -0.1144 -0.3447  1.2769
  756MPD2    H511230   2.160   2.049   9.519 -0.3912 -2.9395 -1.3908
  756MPD2    N111231   2.574   1.845   9.708 -0.7541  0.0477  0.1681
  756MPD2    H711232   2.667   1.804   9.700 -1.1162 -0.8369  0.4066
  757MPD2     C11233   1.832   1.373   9.390 -0.3349  0.2122 -0.3553
  757MPD2    C111234   1.963   1.415   9.404  0.1577  0.1136 -0.2962
  757MPD2    C211235   1.989   1.541   9.358 -0.2435  0.3490  0.1338
  757MPD2    C311236   1.892   1.626   9.296  0.3511 -0.1818  0.7096
  757MPD2    C411237   1.769   1.572   9.268 -0.1749 -0.6351  0.3737
  757MPD2    C511238   1.747   1.451   9.321 -0.9211 -0.0463 -0.1266
  757MPD2     H11239   2.082   1.591   9.383  0.5760 -0.3605 -1.4909
  757MPD2    H111240   1.687   1.615   9.213  0.4729 -0.6617 -0.6289
  757MPD2    H211241   1.793   1.277   9.422  1.8946 -0.9817 -1.1990
  757MPD2    H311242   1.652   1.406   9.294 -0.4078 -1.0863 -0.2123
  757MPD2     N11243   1.937   1.761   9.263 -0.7600 -0.7844  0.5563
  757MPD2    H511244   2.032   1.780   9.292  0.1251 -2.4103 -1.2632
  757MPD2    N111245   2.056   1.328   9.468 -0.0480 -0.2208  0.3311
  757MPD2    H711246   2.029   1.252   9.530  1.4057 -1.1276 -0.1629
  758MPD2     C11247   2.616   4.520  15.986 -0.3573 -0.1972  0.0576
  758MPD2    C111248   2.642   4.625  16.064 -0.2410  0.3959 -0.5864
  758MPD2    C211249   2.550   4.674  16.154 -0.3460  0.3552  0.2199
  758MPD2    C311250   2.432   4.603  16.169  0.2620  0.2330 -0.7258
  758MPD2    C411251   2.399   4.490  16.097 -0.6308  0.3696  0.4603
  758MPD2    C511252   2.497   4.449  16.008 -0.3591 -0.1467  0.0519
  758MPD2     H11253   2.575   0.020  16.222  1.5208  0.4375 -0.5797
  758MPD2    H111254   2.308   4.435  16.116 -0.8085  0.3366 -0.4964
  758MPD2    H211255   2.695   4.493  15.917  0.1140  1.2324  0.0576
  758MPD2    H311256   2.485   4.357  15.952  0.9061  0.2464 -0.8783
  758MPD2     N11257   2.347   4.644  16.274  0.1021  0.3417  0.2706
  758MPD2    H511258   2.269   4.580  16.284 -0.2254  0.6626 -0.2442
  758MPD2    N111259   2.778   4.663  16.077 -0.3350  0.0019  0.5666
  758MPD2    H711260   2.852   4.617  16.025 -0.0880  1.1721 -0.1138
  759MPD2     C11261   0.791   3.136  10.365  0.3831 -0.5752 -0.1923
  759MPD2    C111262   0.898   3.133  10.455 -0.5226  0.6976 -0.6033
  759MPD2    C211263   0.998   3.232  10.436  0.4817  0.6826 -0.5032
  759MPD2    C311264   0.980   3.337  10.343  0.4035  0.5571  0.7244
  759MPD2    C411265   0.874   3.323  10.251 -0.3247 -0.3401 -0.0826
  759MPD2    C511266   0.785   3.225  10.256 -0.1916  0.6442 -0.6951
  759MPD2     H11267   1.085   3.225  10.501 -1.2733  0.5245  1.8209
  759MPD2    H111268   0.855   3.394  10.172 -1.4878 -0.0961  0.3983
  759MPD2    H211269   0.693   3.091  10.378 -0.1615  0.4983 -0.6106
  759MPD2    H311270   0.699   3.226  10.190  0.6053  1.2258 -1.7313
  759MPD2     N11271   1.065   3.456  10.369  0.1411  0.1902  0.3010
  759MPD2    H511272   1.133   3.446  10.444  1.0610 -0.7117 -0.6539
  759MPD2    N111273   0.913   3.040  10.569  0.4427  0.3218 -0.4375
  759MPD2    H711274   0.986   3.056  10.638 -0.4648 -1.3166  0.8878
  760MPD2     C11275   1.422   0.786  11.962 -0.3954  0.3777  0.2589
  760MPD2    C111276   1.551   0.749  11.951  0.2872 -0.1231  0.6510
  760MPD2    C211277   1.597   0.623  11.979  0.7849  0.4288 -0.4615
  760MPD2    C311278   1.501   0.530  12.035 -0.0549  0.8649  0.1456
  760MPD2    C411279   1.365   0.565  12.047  0.7423 -0.6870 -0.0176
  760MPD2    C511280   1.329   0.697  12.021 -0.4440 -0.0606 -0.1395
  760MPD2     H11281   1.703   0.606  11.964  0.9845  1.0627  0.2621
  760MPD2    H111282   1.289   0.498  12.085  1.0703 -0.8479  0.3413
  760MPD2    H211283   1.390   0.884  11.930 -1.3682 -0.2270 -0.6230
  760MPD2    H311284   1.227   0.730  12.041 -0.6529  0.5768 -2.2237
  760MPD2     N11285   1.530   0.399  12.070  0.0258 -0.4218  0.0554
  760MPD2    H511286   1.454   0.348  12.113  0.2694  0.6460  1.7313
  760MPD2    N111287   1.643   0.836  11.888  0.8866  0.2624  0.3346
  760MPD2    H711288   1.732   0.793  11.867 -0.6973 -1.1882 -3.4287
  761MPD2     C11289   2.177   0.139  11.071  0.3745  0.4337  0.0289
  761MPD2    C111290   2.273   0.067  10.998  0.2629 -0.1658 -0.5046
  761MPD2    C211291   2.384   0.139  10.953 -0.2108 -0.0017 -0.0743
  761MPD2    C311292   2.406   0.276  10.980 -0.2262 -0.5995 -0.1399
  761MPD2    C411293   2.308   0.340  11.048  0.3946 -0.6276  0.2333
  761MPD2    C511294   2.200   0.275  11.097 -0.2009  0.1693 -0.0276
  761MPD2     H11295   2.467   0.084  10.911 -0.0759  0.1259  0.0282
  761MPD2    H111296   2.318   0.445  11.072 -0.4088 -0.8784  1.6458
  761MPD2    H211297   2.085   0.091  11.100  0.7521 -0.8164 -0.8732
  761MPD2    H311298   2.126   0.320  11.163  0.7647  0.8983  0.5387
  761MPD2     N11299   2.523   0.346  10.940 -1.2101 -0.2587 -0.1893
  761MPD2    H511300   2.544   0.439  10.974 -0.3377 -0.2109 -0.8465
  761MPD2    N111301   2.256   4.662  10.990 -1.1777  0.3209 -0.0068
  761MPD2    H711302   2.175   4.618  11.033 -0.8662 -0.2669 -0.0188
  762MPD2     C11303   2.906   4.483  11.157 -0.5695 -0.5569  0.1103
  762MPD2    C111304   2.858   4.422  11.038  0.5368  0.7917  0.1344
  762MPD2    C211305   2.947   4.399  10.934 -0.6468 -0.1275 -0.1566
  762MPD2    C311306   3.076   4.444  10.945  0.0911  0.1125 -0.1957
  762MPD2    C411307   3.121   4.517  11.053 -0.4408 -0.0316  0.2084
  762MPD2    C511308   3.034   4.531  11.157  0.3718 -0.3427 -0.1019
  762MPD2     H11309   2.912   4.347  10.846  0.0611  0.5684 -0.8509
  762MPD2    H111310   3.224   4.550  11.066 -0.9097  0.8346  1.6404
  762MPD2    H211311   2.839   4.500  11.241  2.2589  0.1108  2.2057
  762MPD2    H311312   3.070   4.573  11.251 -1.0308 -0.1758  0.3642
  762MPD2     N11313   3.170   4.408  10.846 -0.1740  0.0991  0.5737
  762MPD2    H511314   3.144   4.343  10.773  2.4417 -0.3359  0.0035
  762MPD2    N111315   2.729   4.365  11.050  0.3652  0.0044  0.2384
  762MPD2    H711316   2.673   4.383  11.133  0.8162  2.4829 -0.0006
  763MPD2     C11317   4.327   4.653  16.124  0.0101 -0.2838 -0.4904
  763MPD2    C111318   4.233   4.731  16.047  0.1717  0.5654 -0.2717
  763MPD2    C211319   4.211   0.134  16.085  0.2220  0.0688 -0.0066
  763MPD2    C311320   4.279   0.183  16.193 -0.0619  0.8827  0.1899
  763MPD2    C411321   4.373   0.114  16.266 -0.5021 -0.6512  0.4987
  763MPD2    C511322   4.394   4.718  16.228 -0.1705  0.3095  0.0521
  763MPD2     H11323   4.135   0.187  16.028  0.0686  1.0243  1.0887
  763MPD2    H111324   4.430   0.158  16.347  0.2505 -0.3167 -0.2112
  763MPD2    H211325   4.355   4.550  16.106  1.9372  0.5927 -2.4785
  763MPD2    H311326   4.474   4.662  16.276  0.8813  0.1072 -1.9452
  763MPD2     N11327   4.273   0.312  16.249 -0.5587 -0.4896 -0.3928
  763MPD2    H511328   4.307   0.324  16.344  0.9642  0.9770 -1.1075
  763MPD2    N111329   4.158   4.670  15.939 -0.2350  0.0282 -0.1373
  763MPD2    H711330   4.090   4.728  15.891  0.5537  0.8404 -0.2691
  764MPD2     C11331   2.527   1.888   0.262 -0.5263 -0.0561  0.2439
  764MPD2    C111332   2.417   1.849   0.196  0.4967 -0.5651  0.3095
  764MPD2    C211333   2.338   1.754   0.251 -0.0796 -0.0129 -0.0614
  764MPD2    C311334   2.353   1.705   0.376 -0.0318  0.1545  0.3997
  764MPD2    C411335   2.471   1.742   0.443 -0.8897  0.4255 -0.4256
  764MPD2    C511336   2.553   1.841   0.389 -0.1238 -0.0998  0.0633
  764MPD2     H11337   2.248   1.722   0.199 -1.4428  0.0418  2.2483
  764MPD2    H111338   2.501   1.697   0.538 -2.8069  0.9435  0.4176
  764MPD2    H211339   2.592   1.967   0.225  0.4722 -0.7851  0.4281
  764MPD2    H311340   2.651   1.866   0.429 -0.1077  0.3739 -0.2724
  764MPD2     N11341   2.257   1.608   0.429 -0.6225  0.6382  0.8912
  764MPD2    H511342   2.176   1.593   0.370  1.6481 -0.0896 -2.0736
  764MPD2    N111343   2.384   1.883   0.065 -0.5757 -0.0033 -1.1937
  764MPD2    H711344   2.296   1.851   0.024 -1.8332  0.8590  0.8805
  765MPD2     C11345   2.024   3.905  15.809  0.5211 -0.3583  0.8956
  765MPD2    C111346   2.097   4.013  15.849  0.2978 -0.0486  0.1814
  765MPD2    C211347   2.232   4.010  15.864  0.0224 -0.1346 -0.1601
  765MPD2    C311348   2.294   3.899  15.816  0.5808  0.1642 -0.2055
  765MPD2    C411349   2.231   3.785  15.781  0.1896 -0.2415 -1.2214
  765MPD2    C511350   2.096   3.792  15.777  0.0188  0.2965 -0.4538
  765MPD2     H11351   2.284   4.097  15.902 -0.4371 -0.5297  1.3686
  765MPD2    H111352   2.275   3.687  15.770 -0.4808 -0.8010  1.0781
  765MPD2    H211353   1.916   3.910  15.809  0.5445  0.3091  0.2396
  765MPD2    H311354   2.046   3.699  15.752  1.7268 -0.7562  0.0424
  765MPD2     N11355   2.438   3.888  15.818 -0.2175  0.5620  0.2928
  765MPD2    H511356   2.476   3.796  15.800 -2.6229 -0.7441  2.0051
  765MPD2    N111357   2.019   4.121  15.882  0.1966  0.1395 -0.4000
  765MPD2    H711358   1.918   4.107  15.882  0.3240 -0.8075  0.7200
  766MPD2     C11359   1.548   4.309  15.473 -0.8869 -0.5244 -0.4736
  766MPD2    C111360   1.685   4.319  15.499  0.3949 -0.3001  0.4620
  766MPD2    C211361   1.772   4.278  15.394 -0.6405  0.7969  0.3025
  766MPD2    C311362   1.719   4.219  15.277  0.0904 -0.0143  0.3975
  766MPD2    C411363   1.583   4.217  15.249  0.0781  0.3707  0.5981
  766MPD2    C511364   1.503   4.270  15.350  1.2021  0.4503 -0.5691
  766MPD2     H11365   1.878   4.290  15.412 -1.1077  1.5322  2.5686
  766MPD2    H111366   1.539   4.183  15.157  1.5734 -0.2533  0.1192
  766MPD2    H211367   1.476   4.344  15.546  0.8271  2.1453 -0.0788
  766MPD2    H311368   1.396   4.264  15.338  0.8415  1.4876  2.1800
  766MPD2     N11369   1.805   4.181  15.171 -0.2058  0.4396 -0.7845
  766MPD2    H511370   1.766   4.138  15.088  0.8064  1.0847 -1.5920
  766MPD2    N111371   1.736   4.357  15.621  0.2932 -0.0995  0.2675
  766MPD2    H711372   1.837   4.351  15.631  0.4621  0.2168 -1.2048
  767MPD2     C11373   1.596   4.634  15.261 -0.1340  0.2820  0.8205
  767MPD2    C111374   1.715   4.598  15.200 -0.0153  0.5406  0.2795
  767MPD2    C211375   1.714   4.535  15.079 -0.1166 -0.3519 -0.4518
  767MPD2    C311376   1.598   4.522  15.007  0.4794  0.0989  1.0362
  767MPD2    C411377   1.484   4.586  15.050  0.0091  0.4264 -0.5570
  767MPD2    C511378   1.483   4.628  15.181  0.4019  0.1463 -0.0775
  767MPD2     H11379   1.808   4.495  15.043 -0.1870 -0.1000 -0.9192
  767MPD2    H111380   1.403   4.606  14.981  0.7627  3.8150 -0.4956
  767MPD2    H211381   1.594   4.692  15.352  1.7513  0.4901  0.7273
  767MPD2    H311382   1.390   4.671  15.216 -0.7154 -1.3559 -1.1665
  767MPD2     N11383   1.601   4.465  14.875 -0.1235 -0.1076  0.0927
  767MPD2    H511384   1.684   4.426  14.833  0.0714  0.8997 -0.4494
  767MPD2    N111385   1.832   4.618  15.276 -0.5131  0.2497 -0.1812
  767MPD2    H711386   1.819   4.640  15.374  1.2955  1.1948 -0.1440
  768MPD2     C11387   2.477   2.689  10.896  0.3703  0.9652  0.2398
  768MPD2    C111388   2.539   2.810  10.909  0.4053 -0.2348  0.7927
  768MPD2    C211389   2.671   2.813  10.945  0.4145  0.0706  0.5042
  768MPD2    C311390   2.744   2.700  10.971 -1.0365  0.6022 -0.0928
  768MPD2    C411391   2.685   2.580  10.952 -0.2416  0.5252  0.0091
  768MPD2    C511392   2.553   2.577  10.910 -0.3087  0.5856  0.0421
  768MPD2     H11393   2.716   2.909  10.968  1.8985 -0.0801 -1.7446
  768MPD2    H111394   2.743   2.489  10.960  0.7689  1.1308 -0.4392
  768MPD2    H211395   2.371   2.668  10.884  0.9276 -2.2760  1.0637
  768MPD2    H311396   2.499   2.483  10.916  0.7913  0.1373  2.7151
  768MPD2     N11397   2.874   2.712  11.035 -0.5566 -0.1803 -0.0446
  768MPD2    H511398   2.920   2.630  11.074 -0.0359  0.0959 -0.0693
  768MPD2    N111399   2.471   2.936  10.911 -0.0399  0.3848  0.1301
  768MPD2    H711400   2.514   3.025  10.934 -2.9050  1.7206  0.2459
  769MPD2     C11401   3.938   1.111  14.727  0.2238 -0.3689  0.2578
  769MPD2    C111402   3.805   1.117  14.725 -0.2301  0.7496 -0.4093
  769MPD2    C211403   3.740   1.184  14.825  0.1324 -0.4729  0.4394
  769MPD2    C311404   3.807   1.233  14.931  0.2774  0.0918  0.7824
  769MPD2    C411405   3.944   1.207  14.940  0.2150  0.3345 -0.0438
  769MPD2    C511406   4.014   1.158  14.832  0.0961  0.0365  0.4711
  769MPD2     H11407   3.633   1.193  14.814  0.1545 -0.4138  0.2722
  769MPD2    H111408   3.994   1.231  15.033  0.1748 -1.9119  0.5428
  769MPD2    H211409   3.994   1.056  14.652 -1.2133  2.0322 -2.5895
  769MPD2    H311410   4.116   1.123  14.845 -0.6460 -2.4573 -0.5499
  769MPD2     N11411   3.736   1.301  15.035 -0.0050  0.2807 -0.1410
  769MPD2    H511412   3.646   1.343  15.013 -0.8352 -0.6056  1.5475
  769MPD2    N111413   3.745   1.054  14.611  0.0884 -0.3705  0.2838
  769MPD2    H711414   3.814   1.005  14.556  1.6892 -0.0368  1.9587
  770MPD2     C11415   3.681   0.135  14.744  1.0223  0.2411  0.4298
  770MPD2    C111416   3.555   0.180  14.767  0.3982 -0.0366 -0.2993
  770MPD2    C211417   3.510   0.302  14.705 -1.0219 -1.0724 -0.2306
  770MPD2    C311418   3.603   0.376  14.630  0.2837 -0.1896  0.7152
  770MPD2    C411419   3.734   0.331  14.616  0.1581  0.2196 -0.4410
  770MPD2    C511420   3.765   0.207  14.666 -0.1557 -0.6990 -0.4151
  770MPD2     H11421   3.407   0.333  14.713 -0.7104 -0.2689  0.7125
  770MPD2    H111422   3.804   0.391  14.560  1.1895 -0.4048  0.1957
  770MPD2    H211423   3.716   0.050  14.802  0.3592  0.3296  0.9692
  770MPD2    H311424   3.864   0.166  14.651 -0.5300 -0.8318 -2.4701
  770MPD2     N11425   3.555   0.502  14.580 -0.4118  0.2780  0.2716
  770MPD2    H511426   3.460   0.531  14.600 -0.1311  0.6086  1.1295
  770MPD2    N111427   3.479   0.097  14.857 -0.0094  0.1012 -0.9764
  770MPD2    H711428   3.524   0.014  14.895  1.8438  1.6173  0.1000
  771MPD2     C11429   4.449   3.854  13.874 -0.4090 -0.4067 -0.4938
  771MPD2    C111430   4.370   3.963  13.838  0.4087 -0.1233  0.0422
  771MPD2    C211431   4.243   3.947  13.781 -0.3934  0.6415  0.4977
  771MPD2    C311432   4.198   3.826  13.737 -0.6923 -0.0348  0.0287
  771MPD2    C411433   4.277   3.714  13.767 -0.2403  0.1972 -0.2425
  771MPD2    C511434   4.397   3.729  13.843  0.8496 -0.2863  0.1617
  771MPD2     H11435   4.170   4.027  13.777  0.2040  1.1757  0.3289
  771MPD2    H111436   4.249   3.614  13.735  0.3769  0.9873 -3.2703
  771MPD2    H211437   4.547   3.861  13.920  1.2353  0.5191 -4.1487
  771MPD2    H311438   4.444   3.635  13.867  1.3553  0.1962  1.0776
  771MPD2     N11439   4.082   3.830  13.652 -0.0049  0.1149  0.4125
  771MPD2    H511440   4.051   3.918  13.613  0.2428 -0.4549 -1.1104
  771MPD2    N111441   4.420   4.095  13.852 -0.2976  0.2020 -0.0860
  771MPD2    H711442   4.365   4.167  13.806  0.3368  2.0934  2.1102
  772MPD2     C11443   4.040   4.586  13.709  0.2878 -0.2361  0.3553
  772MPD2    C111444   4.074   4.523  13.829 -0.0462  0.2213  0.4409
  772MPD2    C211445   3.975   4.468  13.906 -0.4303  0.3917 -0.3486
  772MPD2    C311446   3.842   4.491  13.867 -0.1188 -0.5019 -0.0312
  772MPD2    C411447   3.817   4.564  13.753 -0.4005 -0.5653  0.0242
  772MPD2    C511448   3.912   4.615  13.672 -0.6760  0.1690  0.0104
  772MPD2     H11449   4.001   4.390  13.977 -2.7663  0.2698  0.3539
  772MPD2    H111450   3.714   4.580  13.722 -0.6806 -0.9135  0.7697
  772MPD2    H211451   4.116   4.602  13.634  0.2428 -1.5451  0.0214
  772MPD2    H311452   3.893   4.668  13.579  0.4771  1.5049  0.5405
  772MPD2     N11453   3.732   4.426  13.930 -0.4847 -0.4945 -0.1296
  772MPD2    H511454   3.641   4.432  13.886 -0.3991 -0.0935 -0.2467
  772MPD2    N111455   4.209   4.502  13.872 -0.0438 -0.4267 -0.5684
  772MPD2    H711456   4.219   4.451  13.959  0.7342 -0.3068 -0.5937
  773MPD2     C11457   2.779   0.246   0.654 -0.7197 -0.0972 -0.2698
  773MPD2    C111458   2.755   0.179   0.537 -0.1667  0.1864  0.5622
  773MPD2    C211459   2.804   0.048   0.529  0.5773 -0.0494 -0.2159
  773MPD2    C311460   2.884   4.734   0.629  0.2929 -0.0236 -0.0223
  773MPD2    C411461   2.915   0.068   0.746 -0.4932  0.5596  0.0728
  773MPD2    C511462   2.863   0.195   0.755  0.2141  0.0730  0.3432
  773MPD2     H11463   2.801   4.721   0.439 -0.4123 -0.1409 -0.1194
  773MPD2    H111464   2.985   0.034   0.822  0.3165  0.6919 -0.6086
  773MPD2    H211465   2.746   0.345   0.680  1.8098 -0.0510  2.7148
  773MPD2    H311466   2.900   0.262   0.832  0.7920 -0.8056  0.8272
  773MPD2     N11467   2.922   4.599   0.611 -0.0958  0.3377 -0.4850
  773MPD2    H511468   2.882   4.560   0.527 -1.6394  0.8412  0.0077
  773MPD2    N111469   2.673   0.233   0.427  0.7821  0.7418 -0.0606
  773MPD2    H711470   2.666   0.174   0.344 -0.2241 -1.3867  1.5205
  774MPD2     C11471   2.542   3.995  13.480  0.7441  0.1892  0.1884
  774MPD2    C111472   2.581   4.058  13.600  0.4803 -0.1873  0.0665
  774MPD2    C211473   2.689   4.139  13.593  0.5675  0.8165 -0.4116
  774MPD2    C311474   2.762   4.162  13.476  0.3706  0.1869  0.0929
  774MPD2    C411475   2.719   4.096  13.359  0.3822 -0.0630 -0.5077
  774MPD2    C511476   2.613   4.013  13.364 -0.2597 -0.4449  0.6076
  774MPD2     H11477   2.721   4.175  13.690  1.4616  1.0682 -0.7971
  774MPD2    H111478   2.769   4.106  13.264  3.5055 -0.4357  1.0882
  774MPD2    H211479   2.459   3.925  13.482 -0.9010  2.0796 -1.1819
  774MPD2    H311480   2.578   3.970  13.271 -0.0778 -2.1867  1.3390
  774MPD2     N11481   2.877   4.248  13.484  0.1935 -0.0405  0.3895
  774MPD2    H511482   2.897   4.294  13.572  1.6865 -0.6427  0.3617
  774MPD2    N111483   2.519   4.045  13.727  0.2423 -0.4803  0.1476
  774MPD2    H711484   2.563   4.101  13.799 -0.7826 -0.1388  0.5012
  775MPD2     C11485   3.681   0.953  15.433  0.3879 -0.9219  0.7365
  775MPD2    C111486   3.665   1.081  15.485 -0.3142 -0.5952  0.5325
  775MPD2    C211487   3.768   1.172  15.481  0.8175  0.4999  0.5445
  775MPD2    C311488   3.890   1.132  15.428  0.2791  0.2945  0.3405
  775MPD2    C411489   3.912   0.998  15.386  0.1169 -0.0879 -0.0940
  775MPD2    C511490   3.807   0.909  15.381 -0.2775  0.8714 -0.2070
  775MPD2     H11491   3.748   1.276  15.504  0.6002  0.7799 -0.8911
  775MPD2    H111492   4.007   0.978  15.338 -1.3460  0.8589 -3.3736
  775MPD2    H211493   3.596   0.887  15.436 -0.5272  0.2467  0.6738
  775MPD2    H311494   3.814   0.809  15.340 -1.1035  0.4987  0.5508
  775MPD2     N11495   4.003   1.216  15.414  0.4490  0.1626  0.1159
  775MPD2    H511496   4.088   1.179  15.374  0.1589  1.4432 -1.6889
  775MPD2    N111497   3.548   1.104  15.570  0.4841 -0.2448 -0.0807
  775MPD2    H711498   3.477   1.032  15.558  0.3752  0.2780 -2.5577
  776MPD2     C11499   3.462   1.471  11.950 -0.3426  0.1550 -0.3929
  776MPD2    C111500   3.404   1.440  11.826 -0.8065  0.3470  0.2231
  776MPD2    C211501   3.401   1.535  11.724 -0.3025 -0.8095 -0.0243
  776MPD2    C311502   3.439   1.666  11.751 -0.1181 -0.3867 -0.1015
  776MPD2    C411503   3.485   1.697  11.878 -0.2699 -0.1293  0.7785
  776MPD2    C511504   3.504   1.599  11.975  0.7303  0.5597  0.8813
  776MPD2     H11505   3.360   1.508  11.628 -0.4448 -1.2545  0.1610
  776MPD2    H111506   3.498   1.802  11.897  1.7392 -0.0130 -1.2315
  776MPD2    H211507   3.466   1.398  12.030  0.9280  0.2572 -0.3586
  776MPD2    H311508   3.548   1.628  12.070  2.5572  1.0374 -0.1160
  776MPD2     N11509   3.436   1.774  11.655  0.9952 -0.2226  0.0061
  776MPD2    H511510   3.478   1.860  11.689 -1.4050  1.3212 -0.9823
  776MPD2    N111511   3.350   1.309  11.809 -0.3478  0.2567  0.2279
  776MPD2    H711512   3.352   1.246  11.889 -1.7403 -1.2010 -0.9001
  777MPD2     C11513   2.396   3.148   0.590 -0.6201  0.4784 -0.9081
  777MPD2    C111514   2.500   3.073   0.624  0.5367 -0.3592 -0.0048
  777MPD2    C211515   2.516   2.945   0.569 -0.6210  0.2437  0.4569
  777MPD2    C311516   2.430   2.898   0.476  0.1284 -0.5031  0.5946
  777MPD2    C411517   2.326   2.978   0.438  0.4025  0.5270  0.2069
  777MPD2    C511518   2.303   3.093   0.504  0.3583 -0.3397  0.5041
  777MPD2     H11519   2.604   2.888   0.595 -2.3764 -2.3003  0.8182
  777MPD2    H111520   2.250   2.945   0.368 -2.5234  3.0270  2.1984
  777MPD2    H211521   2.378   3.244   0.636  1.2011  0.8672 -1.0500
  777MPD2    H311522   2.218   3.151   0.470  0.5842 -0.7136 -0.6996
  777MPD2     N11523   2.449   2.777   0.419 -0.6721 -0.1236 -0.5508
  777MPD2    H511524   2.532   2.726   0.451 -0.2951 -0.9290 -2.7984
  777MPD2    N111525   2.592   3.130   0.713 -0.4050  0.3744  0.4472
  777MPD2    H711526   2.564   3.211   0.766 -2.0656  0.7462 -0.9917
  778MPD2     C11527   4.170   4.008  14.803  0.3638  0.1080  0.5966
  778MPD2    C111528   4.163   3.879  14.752  0.0948 -0.3456  0.6771
  778MPD2    C211529   4.190   3.863  14.616  0.0433  0.4995  0.1155
  778MPD2    C311530   4.230   3.967  14.539 -0.5662 -0.5420 -0.2757
  778MPD2    C411531   4.249   4.094  14.593  0.1777  0.1129  0.4784
  778MPD2    C511532   4.201   4.115  14.721  0.0746 -0.2379  0.1946
  778MPD2     H11533   4.188   3.761  14.580 -1.0555  0.2340  0.9250
  778MPD2    H111534   4.275   4.171  14.522  0.7884  0.3927  1.0003
  778MPD2    H211535   4.133   4.033  14.902 -0.6865 -2.4085  0.8353
  778MPD2    H311536   4.197   4.218  14.754 -2.3967 -0.9051  1.9330
  778MPD2     N11537   4.274   3.932  14.408  0.5001  0.4180  0.6377
  778MPD2    H511538   4.253   3.836  14.385 -0.1620  0.7973 -0.3643
  778MPD2    N111539   4.113   3.764  14.817 -0.2173  0.2098  0.2169
  778MPD2    H711540   4.097   3.684  14.758  2.0606  1.1156 -1.6252
  779MPD2     C11541   3.811   2.540  13.612 -1.1898 -0.3607  0.1531
  779MPD2    C111542   3.923   2.556  13.688 -0.1356 -0.3982 -0.1039
  779MPD2    C211543   3.964   2.690  13.716  1.0057  0.9340  0.0311
  779MPD2    C311544   3.890   2.797  13.677  0.5519 -0.7746 -0.0726
  779MPD2    C411545   3.769   2.775  13.615 -0.6169  0.5680  0.2320
  779MPD2    C511546   3.731   2.646  13.589 -0.0191  0.0883 -0.7934
  779MPD2     H11547   4.048   2.702  13.783  1.5943 -2.4701 -0.1029
  779MPD2    H111548   3.698   2.853  13.591 -1.5831 -0.8025 -1.3367
  779MPD2    H211549   3.786   2.436  13.590 -0.6766  0.0986 -2.5673
  779MPD2    H311550   3.635   2.628  13.541  1.8026 -3.2246 -3.1821
  779MPD2     N11551   3.940   2.928  13.714  0.0702 -0.9175 -0.2675
  779MPD2    H511552   4.021   2.926  13.776 -0.1813 -1.6475  0.0526
  779MPD2    N111553   3.984   2.438  13.742 -0.7417 -0.6093 -0.4502
  779MPD2    H711554   3.941   2.350  13.719 -0.1781 -0.5927 -1.5822
  780MPD2     C11555   3.239   2.222   1.064 -0.0794 -0.3505  0.0134
  780MPD2    C111556   3.181   2.163   0.956  0.3583  0.1818  0.4274
  780MPD2    C211557   3.201   2.226   0.841 -0.1452  0.0125  0.3159
  780MPD2    C311558   3.263   2.345   0.822 -0.0528  0.7998  0.5384
  780MPD2    C411559   3.324   2.406   0.933 -0.4171  0.2884  0.4848
  780MPD2    C511560   3.313   2.339   1.047 -0.5642  0.2957 -0.7773
  780MPD2     H11561   3.170   2.191   0.744  1.8851  1.0194 -0.7078
  780MPD2    H111562   3.377   2.500   0.923  0.5397 -0.6405 -3.1594
  780MPD2    H211563   3.230   2.197   1.169  0.7449  0.6116  0.3091
  780MPD2    H311564   3.366   2.379   1.133 -1.2297 -1.7959  0.6183
  780MPD2     N11565   3.264   2.391   0.693 -0.3957 -0.2267 -0.4545
  780MPD2    H511566   3.226   2.335   0.617  0.8133 -1.4167 -0.1844
  780MPD2    N111567   3.111   2.042   0.967 -0.1949 -0.4340  0.4423
  780MPD2    H711568   3.105   1.993   1.056 -0.7087 -1.3767 -0.1117
  781MPD2     C11569   1.047   0.444  11.847  0.7382  0.0719  0.1473
  781MPD2    C111570   1.067   0.357  11.947  0.1401  0.7401  0.5976
  781MPD2    C211571   1.160   0.254  11.943  0.3213 -0.0472  0.0479
  781MPD2    C311572   1.241   0.243  11.830  0.0089 -0.6412  0.8686
  781MPD2    C411573   1.227   0.339  11.723  0.2897 -0.8570  0.0860
  781MPD2    C511574   1.117   0.428  11.726 -0.1006 -0.2550  0.8026
  781MPD2     H11575   1.194   0.194  12.027 -2.9263  0.6511  1.8900
  781MPD2    H111576   1.288   0.336  11.633 -0.5251 -1.2863 -0.4548
  781MPD2    H211577   0.973   0.522  11.859  0.4652  0.1040 -1.7311
  781MPD2    H311578   1.102   0.497  11.644 -0.9275 -1.3829 -0.0074
  781MPD2     N11579   1.340   0.146  11.807  0.2418  0.0934  0.5160
  781MPD2    H511580   1.393   0.155  11.721  1.5761  0.6579  1.3925
  781MPD2    N111581   0.995   0.384  12.068  0.0583  0.2855  0.1064
  781MPD2    H711582   0.951   0.475  12.073 -1.5373 -0.2703 -3.4450
  782MPD2     C11583   3.672   0.338   9.910 -0.8312  0.2847  0.5127
  782MPD2    C111584   3.694   0.327  10.047 -0.6763  0.3402  0.3665
  782MPD2    C211585   3.685   0.444  10.118 -0.4815  0.4550  0.3455
  782MPD2    C311586   3.671   0.570  10.054  0.2765 -0.1158 -0.4034
  782MPD2    C411587   3.650   0.576   9.921 -0.6000  0.0056 -0.2350
  782MPD2    C511588   3.659   0.456   9.853  0.0151  0.0452 -0.5611
  782MPD2     H11589   3.695   0.440  10.226  1.6805  0.2262  0.1373
  782MPD2    H111590   3.626   0.666   9.866 -0.1305 -0.5673 -1.3743
  782MPD2    H211591   3.676   0.246   9.853 -0.4011  1.4930 -1.4066
  782MPD2    H311592   3.626   0.465   9.750 -0.7203 -0.6335 -0.3825
  782MPD2     N11593   3.671   0.681  10.143  0.0719  0.6472  0.3844
  782MPD2    H511594   3.696   0.664  10.239  1.7556  0.0559 -0.1551
  782MPD2    N111595   3.711   0.212  10.116  0.3227  0.3260 -0.5136
  782MPD2    H711596   3.713   0.224  10.217 -0.0472  2.5530 -0.7701
  783MPD2     C11597   3.016   4.638  10.623 -0.3427 -0.6129  0.5609
  783MPD2    C111598   3.082   0.021  10.639  0.4215 -0.1325  0.5062
  783MPD2    C211599   3.211   0.036  10.582 -0.3571 -0.4301  0.0482
  783MPD2    C311600   3.276   4.667  10.515 -0.6746  0.3727 -0.0567
  783MPD2    C411601   3.205   4.552  10.503 -0.3991  0.1884 -0.5434
  783MPD2    C511602   3.080   4.537  10.559  0.6087  0.5877  0.0011
  783MPD2     H11603   3.265   0.125  10.612  0.7779 -0.8272 -0.8096
  783MPD2    H111604   3.243   4.473  10.440  1.4301  1.7326 -1.3785
  783MPD2    H211605   2.921   4.609  10.667 -0.8547  0.8976  0.4207
  783MPD2    H311606   3.030   4.444  10.535 -0.3131  0.6878  1.4913
  783MPD2     N11607   3.406   4.680  10.465 -0.5432  0.3716 -0.2803
  783MPD2    H511608   3.452   0.034  10.483 -0.0917  0.0548  0.1397
  783MPD2    N111609   3.024   0.126  10.720  0.5292 -0.0812  0.1470
  783MPD2    H711610   2.940   0.104  10.773  0.0612 -0.8202 -0.9162
  784MPD2     C11611   0.702   0.549   0.425  0.3419 -0.0124  0.0057
  784MPD2    C111612   0.672   0.613   0.546  0.2156  0.1559  1.0781
  784MPD2    C211613   0.542   0.671   0.563 -0.0034 -0.6410  0.3271
  784MPD2    C311614   0.455   0.677   0.450 -0.5037  0.1568 -0.6683
  784MPD2    C411615   0.487   0.615   0.335 -0.0631 -0.4666  0.6367
  784MPD2    C511616   0.612   0.551   0.324  0.1727 -0.3912  0.4942
  784MPD2     H11617   0.512   0.708   0.660 -3.3590 -1.1100 -0.5452
  784MPD2    H111618   0.420   0.603   0.251  0.6431 -1.3408  0.1899
  784MPD2    H211619   0.793   0.490   0.417  0.5923  0.2572  0.8591
  784MPD2    H311620   0.633   0.486   0.240 -2.1592  0.3981 -0.6997
  784MPD2     N11621   0.322   0.730   0.456  0.3329 -0.4963  0.0209
  784MPD2    H511622   0.263   0.729   0.373  1.4703  1.0664 -0.8224
  784MPD2    N111623   0.759   0.610   0.655 -0.3597 -0.0163  0.8370
  784MPD2    H711624   0.740   0.675   0.731  1.6234  0.1106  1.2108
  785MPD2     C11625   0.518   4.497  10.114 -0.1346 -0.0137 -0.9525
  785MPD2    C111626   0.551   4.589  10.212  0.2289  0.5775 -0.8496
  785MPD2    C211627   0.470   4.708  10.215 -0.1152  0.0336 -0.4915
  785MPD2    C311628   0.372   0.004  10.117  0.0656 -0.8775  0.6121
  785MPD2    C411629   0.355   4.645  10.015 -0.2868 -0.1190  0.1834
  785MPD2    C511630   0.423   4.525  10.022  0.0048 -0.3130 -0.1393
  785MPD2     H11631   0.497   0.051  10.285 -0.8530  0.1036 -0.2785
  785MPD2    H111632   0.289   4.650   9.929  1.8507  0.8741 -1.4006
  785MPD2    H211633   0.569   4.401  10.111 -1.6339 -0.9123  2.0446
  785MPD2    H311634   0.416   4.460   9.935  0.3118 -0.9702  0.3314
  785MPD2     N11635   0.319   0.134  10.107 -0.4348 -0.6297  0.1510
  785MPD2    H511636   0.345   0.194  10.185  2.5826 -4.5672  2.1475
  785MPD2    N111637   0.656   4.559  10.301 -0.1825  0.1827  0.1278
  785MPD2    H711638   0.716   4.480  10.281  0.2227  0.9980 -1.8326
  786MPD2     C11639   0.116   2.024  14.583 -0.2291 -0.2757 -0.3595
  786MPD2    C111640   0.048   1.931  14.662 -0.0226 -0.4591 -0.1925
  786MPD2    C211641   0.043   1.954  14.803 -0.2786  0.1633 -0.3222
  786MPD2    C311642   0.101   2.066  14.858 -0.3527  0.3951  0.6234
  786MPD2    C411643   0.160   2.157  14.775 -0.4237  0.0179  0.0128
  786MPD2    C511644   0.162   2.137  14.639 -0.0752  0.1833 -0.5086
  786MPD2     H11645   4.731   1.877  14.864 -0.1632 -0.0356 -0.4855
  786MPD2    H111646   0.198   2.244  14.827  0.5107  1.4358 -3.0886
  786MPD2    H211647   0.142   2.008  14.479  0.4914  2.0309 -0.5326
  786MPD2    H311648   0.205   2.213  14.574  1.0527  0.2909  0.3626
  786MPD2     N11649   0.110   2.084  15.002 -0.2296 -0.5836 -0.6098
  786MPD2    H511650   0.173   2.156  15.037 -0.2365 -0.6720 -0.4150
  786MPD2    N111651   4.713   1.813  14.618  0.1479 -0.1770  0.0798
  786MPD2    H711652   4.672   1.761  14.695  1.8038  0.1514  1.1714
  787MPD2     C11653   0.270   1.311  14.903 -0.0191  0.0203 -0.2340
  787MPD2    C111654   0.225   1.266  14.778 -0.2795 -0.4959  0.2635
  787MPD2    C211655   0.293   1.158  14.722  0.8361 -0.5166 -0.2216
  787MPD2    C311656   0.383   1.083  14.800  0.6881  0.3020  0.6672
  787MPD2    C411657   0.414   1.120  14.932 -0.0765  0.5397  0.2995
  787MPD2    C511658   0.354   1.235  14.979  0.0250  0.5998 -0.2247
  787MPD2     H11659   0.270   1.129  14.620  1.5762  0.3321 -0.6300
  787MPD2    H111660   0.474   1.065  15.003  2.1213  0.1157 -1.8741
  787MPD2    H211661   0.218   1.398  14.943 -2.0950 -0.8340 -1.0513
  787MPD2    H311662   0.385   1.272  15.076 -4.4586 -1.2737  1.8660
  787MPD2     N11663   0.458   0.980  14.737 -0.6977 -0.6969  0.1142
  787MPD2    H511664   0.454   0.967  14.636 -1.6891  0.6325 -0.0090
  787MPD2    N111665   0.131   1.347  14.706  0.1704 -1.0952 -0.1972
  787MPD2    H711666   0.111   1.434  14.754 -0.5732 -1.0579 -0.5823
  788MPD2     C11667   1.694   0.385   1.034  0.0327 -0.3569  0.2389
  788MPD2    C111668   1.735   0.301   0.937 -0.6527 -0.5036  0.5303
  788MPD2    C211669   1.798   0.350   0.826 -0.3612  0.2462 -0.3978
  788MPD2    C311670   1.808   0.493   0.816 -0.0111  0.3448 -0.3368
  788MPD2    C411671   1.794   0.574   0.927 -0.0496  0.0365 -0.4048
  788MPD2    C511672   1.736   0.516   1.037  0.1959 -0.0456  0.3251
  788MPD2     H11673   1.821   0.276   0.751 -0.1813  1.0836 -1.1686
  788MPD2    H111674   1.813   0.680   0.925 -1.3686  0.2816  0.4851
  788MPD2    H211675   1.630   0.352   1.115  1.1001 -3.1581 -0.0672
  788MPD2    H311676   1.710   0.580   1.120  1.6548 -0.0667  0.8055
  788MPD2     N11677   1.825   0.561   0.692 -0.1548 -0.2200 -0.5674
  788MPD2    H511678   1.806   0.661   0.687 -2.9896 -0.6380  1.6428
  788MPD2    N111679   1.709   0.166   0.928  0.9739  0.3935 -0.0926
  788MPD2    H711680   1.759   0.101   0.869  1.4475  0.9203 -0.2685
  789MPD2     C11681   2.008   4.695  16.300  0.2114  0.2388 -0.2012
  789MPD2    C111682   1.939   4.621  16.392  0.3155  0.1311  0.3629
  789MPD2    C211683   1.858   4.681  16.490  0.1294  0.9010 -0.2531
  789MPD2    C311684   1.846   0.082  16.489 -0.4264 -0.1300 -0.4966
  789MPD2    C411685   1.911   0.158  16.395 -0.0344  0.2590 -0.1424
  789MPD2    C511686   1.998   0.094  16.307 -0.2021  0.2856 -0.0614
  789MPD2     H11687   1.796   4.616  16.551  1.3744  0.1927  0.2606
  789MPD2    H111688   1.896   0.265  16.386  3.2127  0.8321  1.2753
  789MPD2    H211689   2.069   4.653  16.221  0.0438  0.8591 -0.6616
  789MPD2    H311690   2.054   0.155  16.238  1.1149  0.6107  1.2992
  789MPD2     N11691   1.754   0.150  16.570  0.2571  0.2906  0.0179
  789MPD2    H511692   1.755   0.250  16.559  0.8479  0.2823 -0.0130
  789MPD2    N111693   1.940   4.483  16.386 -0.4745  0.3094  0.0784
  789MPD2    H711694   1.871   4.431  16.439 -2.0661  1.6215 -0.7000
  790MPD2     C11695   3.291   0.971  13.344  0.5653 -0.5063 -0.6086
  790MPD2    C111696   3.270   1.096  13.286  0.5713  0.0918  0.4098
  790MPD2    C211697   3.207   1.095  13.164  0.6626 -0.0168  0.1255
  790MPD2    C311698   3.179   0.975  13.100  0.2912  0.2945 -0.5270
  790MPD2    C411699   3.219   0.857  13.158  0.4945  0.0108 -0.2609
  790MPD2    C511700   3.272   0.853  13.282 -0.0951 -0.2463  0.2554
  790MPD2     H11701   3.166   1.185  13.118 -1.7657 -1.6505 -0.9061
  790MPD2    H111702   3.215   0.759  13.114 -0.3444 -0.7058  1.4209
  790MPD2    H211703   3.316   0.959  13.449 -0.1614  0.9798 -0.2688
  790MPD2    H311704   3.276   0.750  13.316  1.4271 -0.2506  0.0414
  790MPD2     N11705   3.100   0.974  12.980 -0.2893  0.6146 -0.0460
  790MPD2    H511706   3.083   1.062  12.933 -0.9715  0.4680 -0.0710
  790MPD2    N111707   3.314   1.219  13.345 -0.4088  1.1956 -0.2663
  790MPD2    H711708   3.371   1.196  13.426  0.1580  0.3077 -0.9204
  791MPD2     C11709   2.665   0.587  12.251 -0.3424 -0.6999 -0.0682
  791MPD2    C111710   2.647   0.629  12.381 -0.1402 -0.5360 -0.6342
  791MPD2    C211711   2.529   0.586  12.439 -0.5821 -0.0321  0.4485
  791MPD2    C311712   2.438   0.501  12.378  0.2523  0.3284  0.0153
  791MPD2    C411713   2.462   0.451  12.254 -0.3188  0.4282  0.0903
  791MPD2    C511714   2.575   0.499  12.188  0.1999  0.2617 -0.5212
  791MPD2     H11715   2.506   0.617  12.540  1.4023 -0.1389  0.9267
  791MPD2    H111716   2.396   0.384  12.200  1.2287  0.4576 -1.8190
  791MPD2    H211717   2.760   0.612  12.204 -0.4186 -0.0379  0.1315
  791MPD2    H311718   2.606   0.464  12.090 -0.2744 -3.8348  0.7678
  791MPD2     N11719   2.323   0.467  12.455 -0.8557 -0.1899  0.0140
  791MPD2    H511720   2.307   0.516  12.542  1.0918 -2.3912  1.6106
  791MPD2    N111721   2.739   0.707  12.452  0.1987  0.9588 -0.6570
  791MPD2    H711722   2.816   0.742  12.395 -0.5514  0.7718 -1.7881
  792MPD2     C11723   3.056   1.217  11.235  0.7939  0.5644 -0.5196
  792MPD2    C111724   3.107   1.225  11.104 -0.0654  0.3470 -0.1851
  792MPD2    C211725   3.036   1.171  10.999 -0.7195 -0.2936  0.1631
  792MPD2    C311726   2.915   1.104  11.019 -0.1613  0.2266  0.6586
  792MPD2    C411727   2.863   1.100  11.148 -0.4013  0.2624  0.5846
  792MPD2    C511728   2.929   1.165  11.251  0.2233  0.0645  0.2578
  792MPD2     H11729   3.088   1.157  10.905 -1.3245 -2.5737  0.1744
  792MPD2    H111730   2.765   1.055  11.161  0.1793 -1.7400 -1.9955
  792MPD2    H211731   3.102   1.269  11.318  1.0455  2.4249 -1.8084
  792MPD2    H311732   2.887   1.171  11.351 -1.0063  2.0193 -0.3804
  792MPD2     N11733   2.835   1.046  10.917  0.3235 -0.2107  0.4370
  792MPD2    H511734   2.742   1.019  10.948  0.2954  0.0043  0.5400
  792MPD2    N111735   3.248   1.256  11.087  0.0504 -0.1063  0.0447
  792MPD2    H711736   3.304   1.270  11.171 -1.0364  1.4810  0.5076
  793MPD2     C11737   2.230   1.354  10.364  0.1499  0.1731 -0.0292
  793MPD2    C111738   2.363   1.333  10.333  0.5903  0.3558 -0.2391
  793MPD2    C211739   2.433   1.237  10.404  0.2448  0.1979  0.7773
  793MPD2    C311740   2.377   1.165  10.500 -0.5164  1.2122  0.3398
  793MPD2    C411741   2.250   1.191  10.541 -0.5564  0.9105  0.2510
  793MPD2    C511742   2.180   1.284  10.467  0.1842 -0.4679 -0.0177
  793MPD2     H11743   2.537   1.219  10.377  0.0417  0.8469 -0.4551
  793MPD2    H111744   2.193   1.136  10.615 -0.8989 -3.0120 -2.9093
  793MPD2    H211745   2.173   1.438  10.326 -0.7050  0.1157  1.1341
  793MPD2    H311746   2.078   1.308  10.497 -0.0180 -0.2609 -0.8878
  793MPD2     N11747   2.457   1.070  10.562 -0.0883  0.8981 -0.0852
  793MPD2    H511748   2.552   1.072  10.527 -0.5816 -2.3994 -1.5957
  793MPD2    N111749   2.431   1.412  10.243  0.4084 -0.1091 -0.2550
  793MPD2    H711750   2.529   1.391  10.229  0.1524 -0.3099 -1.7585
  794MPD2     C11751   2.129   0.855   0.120  0.1664 -0.4125  0.1587
  794MPD2    C111752   2.195   0.784   0.019  0.1020 -0.0093 -0.1153
  794MPD2    C211753   2.191   0.823  17.622  0.1087 -0.5417  0.2994
  794MPD2    C311754   2.108   0.931  17.589 -0.4522 -0.1324 -0.5644
  794MPD2    C411755   2.042   1.005  17.689  0.3404 -0.9297  0.0460
  794MPD2    C511756   2.050   0.963   0.083  0.0620  0.0046  0.2524
  794MPD2     H11757   2.243   0.768  17.545 -1.2947 -0.5962 -0.6121
  794MPD2    H111758   1.975   1.086  17.665  0.9419 -0.4745 -0.0885
  794MPD2    H211759   2.138   0.835   0.226  2.9273 -1.4487 -0.2732
  794MPD2    H311760   1.988   1.017   0.154  0.4040 -1.4378  1.6587
  794MPD2     N11761   2.073   0.970  17.458  0.4165 -1.0883 -0.8840
  794MPD2    H511762   2.011   1.050  17.447 -1.3859 -2.2018  1.0756
  794MPD2    N111763   2.282   0.678   0.050 -0.5034  0.2530  0.2929
  794MPD2    H711764   2.328   0.629  17.711 -0.3877  1.5459 -0.4585
  795MPD2     C11765   0.583   2.835  13.894  0.5493  0.1168  0.4651
  795MPD2    C111766   0.559   2.714  13.840  0.4974  0.3285 -0.0918
  795MPD2    C211767   0.631   2.595  13.880 -0.0174  0.5100 -1.0512
  795MPD2    C311768   0.731   2.619  13.969  0.4677  0.0966 -0.4986
  795MPD2    C411769   0.748   2.738  14.024  0.5405  0.2091 -0.4181
  795MPD2    C511770   0.676   2.844  13.990  0.4338  0.0694 -0.0597
  795MPD2     H11771   0.619   2.500  13.829 -0.7781 -0.5969  1.1748
  795MPD2    H111772   0.823   2.756  14.100  1.5697  0.8217 -1.5841
  795MPD2    H211773   0.531   2.928  13.875 -1.7500 -1.3420 -0.2882
  795MPD2    H311774   0.688   2.939  14.041 -1.5085  0.0024  0.5344
  795MPD2     N11775   0.818   2.504  14.003  0.2482  0.3510  0.3012
  795MPD2    H511776   0.802   2.413  13.963  0.8044  0.6028 -0.4887
  795MPD2    N111777   0.456   2.709  13.738  0.1539 -0.8392 -0.0808
  795MPD2    H711778   0.411   2.799  13.730 -0.7102 -1.2513  0.1816
  796MPD2     C11779   4.540   4.122  15.822 -0.6035  0.1655 -0.2034
  796MPD2    C111780   4.609   4.198  15.925 -0.0241 -0.1750 -0.0090
  796MPD2    C211781   4.606   4.333  15.917  0.1635  0.7389 -0.8604
  796MPD2    C311782   4.544   4.397  15.807  0.9335  0.4659  0.6161
  796MPD2    C411783   4.488   4.324  15.714 -0.0485 -0.0655 -0.5720
  796MPD2    C511784   4.478   4.186  15.724  0.8970  0.1043 -0.4118
  796MPD2     H11785   4.654   4.389  15.996 -0.5165 -0.0356  0.1138
  796MPD2    H111786   4.430   4.377  15.640 -2.1202 -2.5807 -0.7376
  796MPD2    H211787   4.552   4.014  15.816  2.9122  0.5221  0.8284
  796MPD2    H311788   4.424   4.137  15.643  0.8906 -1.6278  0.6403
  796MPD2     N11789   4.531   4.536  15.802 -0.3931 -0.0814  0.9312
  796MPD2    H511790   4.561   4.589  15.883 -1.2953  0.6401  0.7917
  796MPD2    N111791   4.665   4.122  16.031  0.0570 -0.5243 -0.0867
  796MPD2    H711792   4.659   4.021  16.023 -0.3008 -0.3356 -2.1783
  797MPD2     C11793   0.752   3.694  17.517  0.6754 -1.0194  0.0314
  797MPD2    C111794   0.785   3.822  17.546 -0.4482 -0.1093 -0.3844
  797MPD2    C211795   0.710   3.920  17.493  0.1371 -0.5799 -0.8477
  797MPD2    C311796   0.606   3.899  17.409 -0.1805  0.2325  0.5983
  797MPD2    C411797   0.576   3.774  17.376  0.4906 -0.1933 -0.6750
  797MPD2    C511798   0.656   3.672  17.427  0.1317 -0.4210  0.9484
  797MPD2     H11799   0.748   4.019  17.515  2.1428 -1.5002 -0.1578
  797MPD2    H111800   0.503   3.751  17.299 -0.8498 -0.2836  0.6240
  797MPD2    H211801   0.799   3.607  17.563  2.3742  0.3920  0.9500
  797MPD2    H311802   0.635   3.568  17.403 -1.4563 -0.6469  3.2461
  797MPD2     N11803   0.548   4.010  17.353  0.6483  0.1562  0.4856
  797MPD2    H511804   0.473   3.992  17.287  1.7662 -1.4235 -0.3512
  797MPD2    N111805   0.889   3.861  17.637  0.3118 -0.8155  0.1651
  797MPD2    H711806   0.904   3.960  17.653  0.7096 -0.5271 -2.0930
  798MPD2     C11807   0.880   4.626  17.607 -0.6344  0.4269  0.3226
  798MPD2    C111808   0.839   4.502  17.555 -0.5634  0.1484 -0.0888
  798MPD2    C211809   0.913   4.386  17.580  0.4258 -0.1321 -0.2466
  798MPD2    C311810   1.012   4.391  17.675  0.6108  0.2148  0.2079
  798MPD2    C411811   1.056   4.509  17.729  0.1414 -0.1720 -0.3123
  798MPD2    C511812   0.998   4.629  17.687  0.1105  0.3560 -0.0919
  798MPD2     H11813   0.871   4.294  17.541  1.4588 -1.1262  1.0210
  798MPD2    H111814   1.146   4.501   0.051  0.1792  2.6062  0.0416
  798MPD2    H211815   0.825   4.713  17.575 -0.7630  0.7358  1.3895
  798MPD2    H311816   1.049   4.723  17.704  0.8507 -0.0853  0.1573
  798MPD2     N11817   1.061   4.265  17.706  0.0007  0.1308  0.6661
  798MPD2    H511818   1.024   4.187  17.653 -0.9965  1.9695 -1.3535
  798MPD2    N111819   0.724   4.476  17.474  0.3200 -0.5112 -0.1089
  798MPD2    H711820   0.707   4.381  17.441  0.1497 -0.7395  0.6481
  799MPD2     C11821   0.128   0.710  14.860  0.4595  0.2157  0.9442
  799MPD2    C111822   0.060   0.636  14.767  0.1051 -0.0838 -0.3867
  799MPD2    C211823   4.729   0.700  14.670 -0.0835 -0.3788  0.7212
  799MPD2    C311824   4.734   0.835  14.656 -0.4684 -0.5750 -0.6623
  799MPD2    C411825   0.064   0.913  14.748 -0.3460  0.3212 -0.0811
  799MPD2    C511826   0.124   0.851  14.853 -0.2168 -0.3414 -0.0010
  799MPD2     H11827   4.670   0.639  14.602  1.2561  0.7177 -1.4045
  799MPD2    H111828   0.082   1.018  14.729  1.9659 -0.6823 -3.5331
  799MPD2    H211829   0.171   0.663  14.948 -0.7611 -0.5688  1.1108
  799MPD2    H311830   0.184   0.909  14.923 -3.4330 -0.2655  2.7204
  799MPD2     N11831   4.682   0.905  14.544  0.0488  0.1012  0.0940
  799MPD2    H511832   4.719   0.999  14.533 -3.1266  1.3077 -0.1928
  799MPD2    N111833   0.061   0.491  14.768  0.2153  0.3783  0.5256
  799MPD2    H711834   4.732   0.448  14.702 -1.4570 -0.7971  2.8784
  800MPD2     C11835   0.339   1.993  14.213 -0.3876  0.0733  0.6632
  800MPD2    C111836   0.461   1.966  14.166 -0.5969  0.1661 -0.2317
  800MPD2    C211837   0.482   1.894  14.051  0.4956  0.6045 -0.3102
  800MPD2    C311838   0.382   1.830  13.987  0.4770 -0.0184 -0.0415
  800MPD2    C411839   0.251   1.854  14.033  0.8484  0.6131  0.4777
  800MPD2    C511840   0.239   1.940  14.140  0.3201  1.3778  0.1771
  800MPD2     H11841   0.581   1.891  14.006  0.5822 -0.4405 -0.0568
  800MPD2    H111842   0.163   1.797  14.005  2.0217 -1.3145  0.7298
  800MPD2    H211843   0.310   2.032  14.310 -1.4666 -0.2557  0.4749
  800MPD2    H311844   0.140   1.949  14.183 -0.4464 -2.3989 -0.7808
  800MPD2     N11845   0.412   1.749  13.875 -0.4705 -0.0659 -0.3059
  800MPD2    H511846   0.510   1.737  13.850 -0.4659  0.3520 -0.4869
  800MPD2    N111847   0.565   2.020  14.248  0.4389  0.1808 -0.0700
  800MPD2    H711848   0.536   2.078  14.327  0.9958 -1.4946  1.3601
  801MPD2     C11849   0.776   2.688  14.398 -0.1041 -0.1690 -0.4340
  801MPD2    C111850   0.707   2.578  14.353  0.1665  0.1832  0.2731
  801MPD2    C211851   0.577   2.586  14.308 -0.4421  0.5552 -0.1325
  801MPD2    C311852   0.517   2.710  14.304  0.2357 -0.9651 -0.2628
  801MPD2    C411853   0.591   2.826  14.337 -0.0499 -0.4734 -0.5841
  801MPD2    C511854   0.718   2.814  14.391  1.1088  0.1013 -0.0534
  801MPD2     H11855   0.528   2.491  14.292 -0.8305  1.4014 -3.9633
  801MPD2    H111856   0.555   2.927  14.322  1.5878  0.3846  1.3426
  801MPD2    H211857   0.881   2.688  14.423 -0.2869 -1.1422  0.3698
  801MPD2    H311858   0.780   2.902  14.406  2.4529 -0.5900 -1.5870
  801MPD2     N11859   0.382   2.727  14.273  0.5776  0.3032 -0.2717
  801MPD2    H511860   0.354   2.825  14.265 -0.9343 -0.0906  0.2495
  801MPD2    N111861   0.761   2.444  14.343 -0.0012  0.3002 -0.0001
  801MPD2    H711862   0.706   2.380  14.287 -2.2926  0.6506  1.8191
  802MPD2     C11863   4.041   2.675  17.696 -0.1694  1.6462  0.0488
  802MPD2    C111864   4.141   2.769  17.693 -0.5733 -0.3873 -0.6136
  802MPD2    C211865   4.240   2.756  17.600  0.0644 -0.0693 -0.4095
  802MPD2    C311866   4.242   2.657  17.510  0.6105  0.4880  0.0959
  802MPD2    C411867   4.134   2.567  17.507  0.5545 -0.3331  0.0755
  802MPD2    C511868   4.032   2.579  17.603  0.0505 -0.0711  0.1119
  802MPD2     H11869   4.330   2.813  17.614 -0.5783  0.9736 -0.5167
  802MPD2    H111870   4.120   2.498  17.425  0.7375  1.8208 -1.7506
  802MPD2    H211871   3.961   2.699   0.027 -1.0650  2.8210 -1.4170
  802MPD2    H311872   3.944   2.517  17.614 -0.1941 -0.3055 -3.0787
  802MPD2     N11873   4.355   2.645  17.424 -0.3933 -0.0926  0.1274
  802MPD2    H511874   4.431   2.712  17.432  0.7198 -1.4511  0.8187
  802MPD2    N111875   4.122   2.880   0.041  0.2512 -0.3879 -0.0603
  802MPD2    H711876   4.042   2.886   0.103 -0.1407  1.0026 -0.6805
  803MPD2     C11877   0.599   1.343  12.686 -0.3929  0.3840  0.2150
  803MPD2    C111878   0.680   1.345  12.570 -0.7629 -0.9392 -0.1733
  803MPD2    C211879   0.798   1.281  12.570 -0.1714 -1.2275 -0.3999
  803MPD2    C311880   0.851   1.223  12.687  1.2776  0.0455 -0.1995
  803MPD2    C411881   0.769   1.208  12.802 -0.3288  0.5041  0.3160
  803MPD2    C511882   0.639   1.265  12.795 -0.1499 -0.1432  0.0984
  803MPD2     H11883   0.858   1.283  12.480  1.8038  0.7729  0.9521
  803MPD2    H111884   0.797   1.150  12.889 -1.0960 -0.3164  0.0163
  803MPD2    H211885   0.503   1.393  12.695  0.4973  2.0219  0.6754
  803MPD2    H311886   0.574   1.266  12.881 -1.8990 -0.7949 -1.2268
  803MPD2     N11887   0.986   1.176  12.690 -0.0027  0.0077 -0.2867
  803MPD2    H511888   1.009   1.128  12.777  3.3333  0.7162 -0.7978
  803MPD2    N111889   0.631   1.404  12.455 -0.4767  0.1651 -0.0317
  803MPD2    H711890   0.695   1.408  12.377 -0.8067  1.6954 -0.2216
  804MPD2     C11891   0.369   2.701  17.113 -1.2574  0.2354 -0.3293
  804MPD2    C111892   0.422   2.621  17.218 -0.8848  0.4267  0.6151
  804MPD2    C211893   0.532   2.666  17.291 -0.2704  1.0553 -0.1592
  804MPD2    C311894   0.590   2.785  17.252 -0.6716 -0.4327  0.2095
  804MPD2    C411895   0.546   2.858  17.140  0.0423 -0.3751  0.3355
  804MPD2    C511896   0.437   2.815  17.071 -0.3797 -0.4636 -0.5661
  804MPD2     H11897   0.584   2.602  17.362 -1.4344  1.6536  1.2478
  804MPD2    H111898   0.589   2.952  17.108  1.8832 -0.9746  1.0367
  804MPD2    H211899   0.285   2.677  17.049 -0.8281  0.6539 -1.0565
  804MPD2    H311900   0.390   2.874  16.993 -0.8985  1.2142  1.0124
  804MPD2     N11901   0.711   2.824  17.315  0.9251 -0.6964  0.2387
  804MPD2    H511902   0.732   2.774  17.400  1.6361 -1.2612 -0.2662
  804MPD2    N111903   0.374   2.490  17.244  0.0846 -0.3319 -0.8319
  804MPD2    H711904   0.423   2.444  17.320  0.8295 -0.1154 -1.1745
  805MPD2     C11905   4.558   0.277  15.446 -0.0370 -0.7320  0.5866
  805MPD2    C111906   4.483   0.395  15.451 -0.6569  0.3132  0.1778
  805MPD2    C211907   4.527   0.499  15.535 -0.2578  0.4369  0.2056
  805MPD2    C311908   4.643   0.488  15.619  0.4900 -0.0268  0.0803
  805MPD2    C411909   4.705   0.364  15.621 -0.1725  0.4150  0.1031
  805MPD2    C511910   4.661   0.262  15.538  0.4646 -0.1406 -0.7948
  805MPD2     H11911   4.471   0.592  15.542  1.0444  1.4019 -1.8531
  805MPD2    H111912   0.060   0.341  15.677  1.0100  0.6975 -1.6884
  805MPD2    H211913   4.548   0.191  15.381 -1.0188  0.3407 -0.6796
  805MPD2    H311914   4.712   0.167  15.546 -0.0889 -0.4039 -0.3906
  805MPD2     N11915   4.680   0.597  15.705  1.1659  0.0185 -0.1908
  805MPD2    H511916   4.628   0.684  15.702  1.6616  0.2847 -0.9781
  805MPD2    N111917   4.364   0.420  15.376 -0.4690 -0.3857  0.5544
  805MPD2    H711918   4.321   0.511  15.384  2.4171  1.1395 -1.3768
  806MPD2     C11919   4.480   0.423   0.458 -0.5551 -0.1039  0.1321
  806MPD2    C111920   4.444   0.554   0.475 -0.1703  0.1724 -0.2551
  806MPD2    C211921   4.429   0.638   0.366  0.4753  0.0914 -0.1632
  806MPD2    C311922   4.475   0.599   0.239  0.2252  0.0369  0.4339
  806MPD2    C411923   4.513   0.469   0.222  0.2885  0.4793 -0.4382
  806MPD2    C511924   4.506   0.385   0.326  0.0160 -0.0722  0.0423
  806MPD2     H11925   4.392   0.738   0.384  0.1790  0.1545 -1.1007
  806MPD2    H111926   4.557   0.431   0.130 -0.1463 -1.5206  0.1745
  806MPD2    H211927   4.486   0.355   0.542 -0.5263 -0.5125 -0.2013
  806MPD2    H311928   4.534   0.281   0.309  2.2518  0.5080  0.1794
  806MPD2     N11929   4.481   0.688   0.133  0.4314  0.5446 -0.3652
  806MPD2    H511930   4.428   0.774   0.143  0.0169  0.2705 -0.2191
  806MPD2    N111931   4.441   0.592   0.610  0.4416  0.7328 -0.6080
  806MPD2    H711932   4.475   0.519   0.672 -1.9470  0.0239 -0.1252
  807MPD2     C11933   4.116   0.530   1.302 -0.5561  0.4370 -0.2686
  807MPD2    C111934   4.211   0.466   1.226 -0.5718  0.0214 -0.1119
  807MPD2    C211935   4.226   0.331   1.227  0.6566 -0.2280  0.7228
  807MPD2    C311936   4.153   0.252   1.310  0.2931 -0.1052  0.4333
  807MPD2    C411937   4.061   0.314   1.395 -0.6721 -0.0885 -0.7525
  807MPD2    C511938   4.049   0.452   1.392 -0.0089  0.2157  0.2030
  807MPD2     H11939   4.302   0.285   1.166 -0.9827 -1.7214 -0.1944
  807MPD2    H111940   3.994   0.259   1.461 -0.5129  1.0874  0.3844
  807MPD2    H211941   4.093   0.636   1.298 -0.9003  0.4133  1.1117
  807MPD2    H311942   3.979   0.498   1.461 -1.9062  1.2262 -2.4181
  807MPD2     N11943   4.167   0.110   1.306  0.3655  0.2984  0.4761
  807MPD2    H511944   4.228   0.067   1.237  0.1991 -0.3946  0.7653
  807MPD2    N111945   4.298   0.547   1.146  0.4040 -0.0052  0.5055
  807MPD2    H711946   4.376   0.497   1.104 -0.4898 -1.2610  0.3381
  808MPD2     C11947   1.074   2.102   9.780  0.1229 -0.1867  0.4764
  808MPD2    C111948   0.993   2.073   9.878  0.2992  0.4243 -0.5519
  808MPD2    C211949   0.874   2.145   9.890 -0.0580 -0.4825  0.0389
  808MPD2    C311950   0.842   2.262   9.816 -0.1938  0.4974  0.3004
  808MPD2    C411951   0.933   2.289   9.723 -0.0973  0.8496  0.7888
  808MPD2    C511952   1.042   2.207   9.691 -0.2121  0.1021 -0.1436
  808MPD2     H11953   0.821   2.124   9.983  1.0329 -1.4929  0.4296
  808MPD2    H111954   0.915   2.375   9.659 -1.6456 -0.0601 -0.0092
  808MPD2    H211955   1.166   2.050   9.756 -0.3575  1.0810 -4.1411
  808MPD2    H311956   1.095   2.235   9.602 -1.0388 -1.4353 -1.1316
  808MPD2     N11957   0.729   2.346   9.827 -0.7225 -0.0212 -0.4859
  808MPD2    H511958   0.734   2.431   9.772 -1.6388  0.1458 -0.3228
  808MPD2    N111959   1.008   1.986   9.989  0.6332  0.1802 -0.4707
  808MPD2    H711960   0.934   1.991  10.058  1.3850  0.9199  0.2855
  809MPD2     C11961   0.687   3.269   9.866 -0.4482  0.3052  0.0038
  809MPD2    C111962   0.762   3.150   9.878 -0.0800  0.9878 -0.2160
  809MPD2    C211963   0.692   3.031   9.870 -0.1376 -0.1810 -0.0550
  809MPD2    C311964   0.554   3.026   9.860 -0.2664 -0.3699  0.0872
  809MPD2    C411965   0.482   3.148   9.871  0.1288 -0.1145 -0.2870
  809MPD2    C511966   0.549   3.267   9.870 -0.6759 -0.2871 -1.1908
  809MPD2     H11967   0.755   2.944   9.886 -0.0291  0.0260  0.6160
  809MPD2    H111968   0.374   3.151   9.880  0.1911 -0.5936  0.6756
  809MPD2    H211969   0.729   3.369   9.865  0.8577 -0.2628 -1.7831
  809MPD2    H311970   0.489   3.357   9.876 -0.3481 -0.0278 -1.7891
  809MPD2     N11971   0.494   2.901   9.868 -0.3681 -0.0363 -0.2973
  809MPD2    H511972   0.396   2.893   9.890 -0.7354 -1.6869 -2.5266
  809MPD2    N111973   0.899   3.143   9.910 -0.7517  0.8285 -0.5814
  809MPD2    H711974   0.943   3.051   9.905 -0.6623  0.7831  0.8166
  810MPD2     C11975   4.710   1.920  11.277 -0.6460  0.4978  0.7971
  810MPD2    C111976   4.687   1.925  11.137  1.0221 -0.2311 -1.1396
  810MPD2    C211977   4.641   2.051  11.082  0.5075 -0.7974 -0.3445
  810MPD2    C311978   4.611   2.165  11.158  0.0605 -0.0911 -0.0320
  810MPD2    C411979   4.638   2.149  11.292 -0.3735 -0.4854 -0.1507
  810MPD2    C511980   4.685   2.031  11.345  0.3822  0.2287 -0.0650
  810MPD2     H11981   4.636   2.069  10.975  2.9061 -2.4242 -0.7431
  810MPD2    H111982   4.631   2.227  11.367  0.3456 -0.3392 -0.2322
  810MPD2    H211983   0.010   1.829  11.324  5.0183  1.4795 -1.4906
  810MPD2    H311984   4.704   2.013  11.450  2.2173 -0.6871 -0.5515
  810MPD2     N11985   4.590   2.293  11.097 -0.2771  0.3464  0.1559
  810MPD2    H511986   4.580   2.291  10.996 -1.0288  2.7654  0.1820
  810MPD2    N111987   4.712   1.821  11.048  0.2695  0.3701 -0.2700
  810MPD2    H711988   4.709   1.848  10.951 -2.3587 -0.2759 -0.3807
  811MPD2     C11989   0.102   1.659  10.260 -0.4028 -0.3672 -0.1758
  811MPD2    C111990   0.073   1.733  10.373 -0.2372  0.0273 -0.1263
  811MPD2    C211991   0.038   1.865  10.360  0.7722  0.2304  0.2461
  811MPD2    C311992   0.038   1.928  10.236  0.1138  0.2021 -0.0714
  811MPD2    C411993   0.065   1.848  10.129  0.9087 -0.6464 -0.2449
  811MPD2    C511994   0.091   1.716  10.137  0.9389  0.6788  0.3844
  811MPD2     H11995   0.006   1.928  10.442 -1.8714  1.4658 -1.7443
  811MPD2    H111996   0.067   1.902  10.035 -1.9805 -1.7393 -0.9423
  811MPD2    H211997   0.133   1.556  10.277 -0.4449 -0.3075  0.2732
  811MPD2    H311998   0.119   1.655  10.051 -0.4089  2.8919 -1.6178
  811MPD2     N11999   4.728   2.064  10.226 -0.4011  0.0462  0.5630
  811MPD2    H512000   4.715   2.113  10.314  1.6768 -1.4479  1.6900
  811MPD2    N112001   0.070   1.662  10.501  0.4839 -0.7866  0.6102
  811MPD2    H712002   0.094   1.563  10.498 -2.5504 -1.5625  1.4564
  812MPD2     C12003   3.329   1.664  12.270  0.1228  0.5067 -0.1270
  812MPD2    C112004   3.428   1.744  12.322  0.7575 -0.3198 -0.6751
  812MPD2    C212005   3.536   1.675  12.383 -0.4985 -0.0222 -0.1837
  812MPD2    C312006   3.534   1.535  12.405 -0.0243 -0.4102  0.2984
  812MPD2    C412007   3.429   1.464  12.348 -0.2715  0.1861 -0.2104
  812MPD2    C512008   3.321   1.527  12.287  0.0828  0.6073  0.0631
  812MPD2     H12009   3.619   1.729  12.428 -0.1384 -0.3481 -0.4574
  812MPD2    H112010   3.423   1.357  12.334  2.5303  0.0204 -0.2124
  812MPD2    H212011   3.242   1.714  12.228  1.9247  2.5121 -1.4728
  812MPD2    H312012   3.238   1.469  12.248 -1.5714  1.2819  2.5555
  812MPD2     N12013   3.639   1.471  12.472  0.1914  0.1580  0.0102
  812MPD2    H512014   3.700   1.534  12.523 -0.7226  0.5371  0.6321
  812MPD2    N112015   3.411   1.880  12.299 -0.4552  0.5277 -0.1901
  812MPD2    H712016   3.330   1.912  12.248 -2.2120 -2.0316  1.0273
  813MPD2     C12017   2.379   2.976  12.829  0.0583  0.0586 -0.2798
  813MPD2    C112018   2.462   3.081  12.844  0.4998  0.1618 -0.0230
  813MPD2    C212019   2.442   3.158  12.960 -0.2100  0.1859 -0.6964
  813MPD2    C312020   2.336   3.130  13.049 -0.9061  0.5107 -0.1164
  813MPD2    C412021   2.246   3.036  13.015  0.4212 -0.5229  0.0240
  813MPD2    C512022   2.263   2.962  12.902 -0.2938 -0.1389 -0.8859
  813MPD2     H12023   2.505   3.242  12.988 -1.9424  1.0841  0.5315
  813MPD2    H112024   2.157   3.013  13.072  0.3902 -0.5226 -0.0246
  813MPD2    H212025   2.394   2.909  12.745  0.9412 -1.0594  0.7608
  813MPD2    H312026   2.197   2.878  12.883 -0.8787  0.5082 -1.7159
  813MPD2     N12027   2.330   3.221  13.157 -0.4771 -0.3927  0.6884
  813MPD2    H512028   2.417   3.270  13.176 -0.5799 -0.2641  0.8214
  813MPD2    N112029   2.577   3.095  12.760 -0.0559 -0.3732  0.9212
  813MPD2    H712030   2.599   3.015  12.701  0.1651 -0.1285  0.6765
  814MPD2     C12031   3.545   3.681  12.506 -0.0521  0.6136 -0.1003
  814MPD2    C112032   3.525   3.802  12.448 -0.0614  0.5788 -0.2146
  814MPD2    C212033   3.557   3.906  12.530 -0.0098  0.6445  0.4915
  814MPD2    C312034   3.612   3.891  12.659 -0.0950  0.6149 -0.0918
  814MPD2    C412035   3.622   3.763  12.710 -0.3026 -0.5100  0.3436
  814MPD2    C512036   3.592   3.655  12.633 -0.4667  0.0780 -0.0785
  814MPD2     H12037   3.533   4.002  12.485  0.6523  0.1084 -0.9758
  814MPD2    H112038   3.665   3.749  12.808  2.5678 -1.3030 -1.0134
  814MPD2    H212039   3.520   3.595  12.444  1.2785 -0.2225  0.5267
  814MPD2    H312040   3.605   3.554  12.669 -3.0623 -0.0562  0.4562
  814MPD2     N12041   3.649   3.994  12.747 -0.4327 -0.2753  0.4800
  814MPD2    H512042   3.669   3.971  12.844 -1.1144 -0.6719  0.5230
  814MPD2    N112043   3.475   3.837  12.325  0.1552  0.3874 -0.1088
  814MPD2    H712044   3.463   3.932  12.293  3.8772  1.1958  0.8829
  815MPD2     C12045   3.801   3.058  12.177  0.3764 -0.1301 -0.1798
  815MPD2    C112046   3.759   2.927  12.154 -0.1621 -0.8887 -0.1460
  815MPD2    C212047   3.625   2.895  12.159  0.3949 -0.0896 -0.4323
  815MPD2    C312048   3.533   2.986  12.209 -0.3894  0.3194 -0.9704
  815MPD2    C412049   3.581   3.111  12.241  0.4860 -0.4762  0.5363
  815MPD2    C512050   3.709   3.150  12.224 -0.3415  0.1614  0.4626
  815MPD2     H12051   3.583   2.796  12.146  0.2261 -0.3415  2.0729
  815MPD2    H112052   3.507   3.186  12.268  0.2619 -0.7685  0.7334
  815MPD2    H212053   3.907   3.080  12.182  0.6969 -1.2208 -1.9519
  815MPD2    H312054   3.739   3.250  12.254 -0.7024 -0.4308  2.7806
  815MPD2     N12055   3.398   2.946  12.225 -0.1735  0.2294 -0.9583
  815MPD2    H512056   3.374   2.850  12.202  1.8875 -0.4029 -0.4498
  815MPD2    N112057   3.858   2.834  12.108 -0.3578 -0.0926 -0.1276
  815MPD2    H712058   3.949   2.874  12.087 -0.6769  1.0066  0.5803
  816MPD2     C12059   3.146   2.031  17.126 -0.7807 -0.3333 -0.6033
  816MPD2    C112060   3.257   2.107  17.130  0.8556 -0.3457  0.4251
  816MPD2    C212061   3.374   2.046  17.084 -0.2285 -0.0626 -0.9723
  816MPD2    C312062   3.384   1.920  17.047  0.6114  0.0987 -0.8625
  816MPD2    C412063   3.269   1.842  17.058  1.1433  0.1241 -0.7145
  816MPD2    C512064   3.146   1.897  17.101  0.0217  0.1312 -0.4131
  816MPD2     H12065   3.461   2.109  17.068  1.6217 -1.5723  3.1918
  816MPD2    H112066   3.271   1.744  17.014 -1.6008 -0.1593 -0.2306
  816MPD2    H212067   3.043   2.064  17.141 -1.2286 -2.0127  0.0341
  816MPD2    H312068   3.061   1.830  17.099 -0.1802  0.4047 -1.1805
  816MPD2     N12069   3.501   1.875  16.989 -0.4201 -0.2407  0.4289
  816MPD2    H512070   3.572   1.946  16.974  1.2579 -1.5545  2.1234
  816MPD2    N112071   3.259   2.241  17.164 -0.1636 -0.2628  0.1983
  816MPD2    H712072   3.349   2.287  17.176 -0.1837 -0.3708  0.7791
  817MPD2     C12073   3.482   4.117  10.082  0.0757  0.3966  0.2354
  817MPD2    C112074   3.592   4.144  10.008  0.5673 -0.3281  0.3332
  817MPD2    C212075   3.593   4.251   9.920 -0.3446  0.1521  0.1061
  817MPD2    C312076   3.493   4.348   9.918  0.0398 -0.2430  0.7999
  817MPD2    C412077   3.381   4.325  10.000 -0.2418  0.1647  0.8486
  817MPD2    C512078   3.381   4.202  10.076 -0.4656  0.5798  0.2763
  817MPD2     H12079   3.678   4.262   9.854  2.0684 -3.2856  2.6493
  817MPD2    H112080   3.299   4.395  10.004 -0.3440 -0.0025  1.5990
  817MPD2    H212081   3.475   4.029  10.144 -1.2244  0.6567  0.4455
  817MPD2    H312082   3.297   4.181  10.141 -1.1202  0.1553 -0.6875
  817MPD2     N12083   3.515   4.457   9.835  0.2130  0.5917  0.2167
  817MPD2    H512084   3.590   4.456   9.767  2.4148  1.0178  2.6444
  817MPD2    N112085   3.709   4.068  10.014 -0.1232  0.2383  0.1726
  817MPD2    H712086   3.787   4.101   9.958  1.6792  0.4955  2.8122
  818MPD2     C12087   2.160   3.748  10.061  0.5245 -0.7745 -0.3387
  818MPD2    C112088   2.080   3.644  10.093  0.3896  0.0097 -0.0588
  818MPD2    C212089   2.131   3.516  10.102 -0.4098  0.0574 -0.4365
  818MPD2    C312090   2.264   3.494  10.079 -0.3165 -0.4946 -0.4958
  818MPD2    C412091   2.346   3.607  10.063  0.6847 -0.0889 -0.1056
  818MPD2    C512092   2.296   3.735  10.047  0.0027 -0.0996 -0.2639
  818MPD2     H12093   2.064   3.432  10.118  0.6561 -0.4637  1.3461
  818MPD2    H112094   2.449   3.583  10.042  1.0450  1.6150 -0.2400
  818MPD2    H212095   2.138   3.854  10.069 -0.9082 -1.2095  1.7221
  818MPD2    H312096   2.358   3.821  10.024  0.1641 -0.1915 -0.1784
  818MPD2     N12097   2.330   3.365  10.075 -0.7466 -0.2392  0.2832
  818MPD2    H512098   2.428   3.364  10.048 -0.2462  1.5378  2.0248
  818MPD2    N112099   1.951   3.667  10.149 -0.5829 -0.1808  0.1913
  818MPD2    H712100   1.887   3.589  10.163 -0.6242 -0.0190  0.9431
  819MPD2     C12101   0.337   0.935  15.669 -0.2986 -0.3813 -0.4812
  819MPD2    C112102   0.321   0.798  15.632 -1.3793 -0.2088 -0.3519
  819MPD2    C212103   0.401   0.709  15.702  0.1997 -0.2068  0.3921
  819MPD2    C312104   0.481   0.756  15.803 -0.2426 -0.9149  0.0160
  819MPD2    C412105   0.486   0.882  15.834  0.3642  0.0094 -0.5824
  819MPD2    C512106   0.413   0.976  15.775  0.3996 -0.2785  0.4234
  819MPD2     H12107   0.403   0.601  15.689  0.8860 -0.2648  0.9849
  819MPD2    H112108   0.537   0.911  15.925 -0.6104 -0.0450 -0.0178
  819MPD2    H212109   0.269   1.011  15.633 -1.7418 -0.4365  2.1245
  819MPD2    H312110   0.420   1.081  15.800 -2.7015  0.0507 -0.1418
  819MPD2     N12111   0.573   0.660  15.861 -0.5146  0.0183  0.0222
  819MPD2    H512112   0.552   0.564  15.838 -0.5189  0.1100 -0.3744
  819MPD2    N112113   0.232   0.764  15.526  0.1652 -0.1436  0.0865
  819MPD2    H712114   0.180   0.836  15.476  1.6104  1.1658  0.4978
  820MPD2     C12115   4.212   0.867  14.889 -0.7472  0.2585  0.1823
  820MPD2    C112116   4.209   0.833  15.023  0.0797 -0.0342  0.0782
  820MPD2    C212117   4.332   0.805  15.084  0.2675 -0.4664  0.4339
  820MPD2    C312118   4.448   0.807  15.003  0.3716  0.0091 -0.2082
  820MPD2    C412119   4.444   0.838  14.867  0.4385 -0.0225  0.6205
  820MPD2    C512120   4.322   0.872  14.813 -0.2197 -0.0082  0.1009
  820MPD2     H12121   4.341   0.773  15.187  2.8570 -0.0963  0.3111
  820MPD2    H112122   4.537   0.847  14.813 -0.6282 -1.1112 -1.3968
  820MPD2    H212123   4.118   0.883  14.836 -0.4988  0.5956 -0.1556
  820MPD2    H312124   4.315   0.891  14.706 -0.4464 -0.2487  0.0724
  820MPD2     N12125   4.576   0.770  15.053 -0.8416  0.2022 -0.6377
  820MPD2    H512126   4.651   0.759  14.985 -2.9450  0.1552 -2.9392
  820MPD2    N112127   4.087   0.809  15.083 -0.4298  0.6074  0.0720
  820MPD2    H712128   4.010   0.793  15.018  0.1015  0.4329 -0.5126
  821MPD2     C12129   0.409   1.865  13.126 -0.7837  0.5056  0.3000
  821MPD2    C112130   0.514   1.794  13.183  0.3970  0.8866  0.0126
  821MPD2    C212131   0.642   1.815  13.138 -0.2188  0.1851 -0.4360
  821MPD2    C312132   0.665   1.910  13.051  0.0366  0.2854  0.3686
  821MPD2    C412133   0.567   1.986  12.998  0.7591 -0.4114  0.1901
  821MPD2    C512134   0.440   1.961  13.034  0.1661  0.1430  0.1913
  821MPD2     H12135   0.718   1.753  13.185 -2.5263 -2.0751  0.3090
  821MPD2    H112136   0.588   2.071  12.934  2.7223 -0.6664  0.5013
  821MPD2    H212137   0.306   1.843  13.149 -1.0581 -1.5330 -2.8926
  821MPD2    H312138   0.358   2.014  12.989 -0.4688  0.2553  1.4853
  821MPD2     N12139   0.802   1.925  13.009  0.5052  0.0387 -0.3701
  821MPD2    H512140   0.817   2.006  12.948  1.0760  1.1966  1.3031
  821MPD2    N112141   0.499   1.701  13.281 -0.3666 -0.5108 -0.0077
  821MPD2    H712142   0.587   1.665  13.315  0.8558  2.2156 -0.2837
  822MPD2     C12143   1.260   2.017  15.740 -0.2094 -0.1633  0.3919
  822MPD2    C112144   1.281   1.997  15.877 -0.5266 -0.2485  0.3564
  822MPD2    C212145   1.214   2.074  15.960 -0.5597 -0.8131 -0.4043
  822MPD2    C312146   1.120   2.176  15.926  0.7843  0.3177 -0.4722
  822MPD2    C412147   1.093   2.179  15.791  0.1812  0.4703 -0.3528
  822MPD2    C512148   1.163   2.104  15.697  0.2348 -0.5968 -0.9121
  822MPD2     H12149   1.239   2.050  16.063 -0.7681  0.3625 -0.0792
  822MPD2    H112150   1.006   2.232  15.753  1.6406  1.2661 -2.6601
  822MPD2    H212151   1.317   1.958  15.670 -1.9917 -0.1760 -1.0502
  822MPD2    H312152   1.133   2.099  15.593 -0.6171 -1.1337 -0.6425
  822MPD2     N12153   1.054   2.259  16.023  0.0084 -0.4554  0.6285
  822MPD2    H512154   1.068   2.236  16.121  1.8047  1.4552  0.8092
  822MPD2    N112155   1.355   1.890  15.932 -0.0689  0.3804  0.0547
  822MPD2    H712156   1.374   1.907  16.030 -0.6231  0.8676  0.0793
  823MPD2     C12157   0.557   2.491  16.696  0.1166  0.2013  1.4138
  823MPD2    C112158   0.629   2.406  16.621  0.2823  0.0037  0.3000
  823MPD2    C212159   0.660   2.280  16.668  0.1078  0.0793 -0.0260
  823MPD2    C312160   0.641   2.252  16.801  0.0744 -0.2063  1.0028
  823MPD2    C412161   0.571   2.345  16.878  0.1006  0.2892  0.3241
  823MPD2    C512162   0.524   2.457  16.825  0.5324 -0.4857  0.8987
  823MPD2     H12163   0.699   2.202  16.603 -2.5831 -0.7414 -0.6650
  823MPD2    H112164   0.549   2.320  16.981  2.4404  0.7981  0.9379
  823MPD2    H212165   0.535   2.591  16.660 -1.6522 -1.0131 -0.8362
  823MPD2    H312166   0.478   2.531  16.890 -1.9409 -0.3509 -1.0032
  823MPD2     N12167   0.708   2.148  16.863  0.4475  0.1494  0.2151
  823MPD2    H512168   0.694   2.125  16.961 -1.3275  0.8009  0.1133
  823MPD2    N112169   0.673   2.449  16.494 -0.2840 -0.2620 -0.3101
  823MPD2    H712170   0.671   2.550  16.484  0.4567 -0.2543 -0.4094
  824MPD2     C12171   1.417   0.999  15.934  0.2472  0.0994 -0.2561
  824MPD2    C112172   1.511   1.089  15.892  0.2710  0.7502  0.0830
  824MPD2    C212173   1.619   1.056  15.815 -0.1420 -0.0115 -0.8643
  824MPD2    C312174   1.645   0.917  15.790  0.0221  0.4265 -0.5688
  824MPD2    C412175   1.551   0.824  15.835  0.3571  1.0372  0.3992
  824MPD2    C512176   1.439   0.867  15.898  0.1903  0.3303 -0.6499
  824MPD2     H12177   1.689   1.120  15.762 -1.3710  1.9121 -0.1859
  824MPD2    H112178   1.568   0.719  15.816  0.5645  0.5118  3.5071
  824MPD2    H212179   1.323   1.024  15.982  0.5575 -1.1674  1.0093
  824MPD2    H312180   1.365   0.801  15.942  1.1041 -0.6874 -0.6310
  824MPD2     N12181   1.768   0.888  15.722 -0.0024  0.3009 -0.0600
  824MPD2    H512182   1.828   0.969  15.708 -0.8326  0.7972 -0.7446
  824MPD2    N112183   1.487   1.215  15.950  0.2799  1.0805  0.0194
  824MPD2    H712184   1.413   1.227  16.017  0.2328  1.7421 -0.1511
  825MPD2     C12185   2.523   1.043  15.333 -0.0241 -0.0051 -0.1322
  825MPD2    C112186   2.408   1.082  15.394 -0.4736  0.8411  0.0749
  825MPD2    C212187   2.386   1.210  15.436  0.2936  0.0083  0.4141
  825MPD2    C312188   2.479   1.307  15.402 -0.2276  0.0564  0.0035
  825MPD2    C412189   2.586   1.271  15.328  0.1768  0.0517  0.1611
  825MPD2    C512190   2.614   1.136  15.305 -0.0920 -0.3149 -0.7340
  825MPD2     H12191   2.300   1.241  15.495  1.0451 -0.8326  1.9459
  825MPD2    H112192   2.654   1.345  15.288 -1.5507  2.3313  1.4619
  825MPD2    H212193   2.547   0.939  15.313 -0.2050  0.0942 -0.8372
  825MPD2    H312194   2.715   1.123  15.268  0.3987 -1.9024  1.1840
  825MPD2     N12195   2.458   1.440  15.430  0.4955 -0.4433 -0.4530
  825MPD2    H512196   2.529   1.507  15.403  1.9461 -0.5329  3.1165
  825MPD2    N112197   2.324   0.968  15.417 -0.3469 -0.1607 -0.1706
  825MPD2    H712198   2.365   0.876  15.415 -1.6231 -0.7604  1.1833
  826MPD2     C12199   1.930   0.426  13.751 -0.0250  0.6596  0.0568
  826MPD2    C112200   1.963   0.538  13.675  0.1858 -0.0035 -0.4227
  826MPD2    C212201   1.867   0.643  13.675 -0.1382 -0.0566 -0.1363
  826MPD2    C312202   1.748   0.630  13.748 -0.0915 -0.5040  0.5603
  826MPD2    C412203   1.724   0.518  13.826 -0.1023  0.5855  0.3281
  826MPD2    C512204   1.817   0.424  13.824 -0.9218 -0.1242  0.1389
  826MPD2     H12205   1.885   0.732  13.616 -0.0273  0.0148  0.0056
  826MPD2    H112206   1.636   0.495  13.886  0.4972 -1.1963  0.5453
  826MPD2    H212207   2.001   0.344  13.751 -0.7007  0.0787  1.8267
  826MPD2    H312208   1.791   0.333  13.878  0.2193  0.9604  2.4908
  826MPD2     N12209   1.655   0.734  13.760 -0.0172 -0.2783  0.1077
  826MPD2    H512210   1.575   0.722  13.821 -0.5890  0.3825 -0.5100
  826MPD2    N112211   2.082   0.544  13.603 -0.0686 -0.0015  0.4647
  826MPD2    H712212   2.158   0.482  13.631  2.7407  3.5826  0.6566
  827MPD2     C12213   2.739   2.627   9.916 -0.3670 -0.4326  0.8985
  827MPD2    C112214   2.765   2.540  10.020 -0.1405 -0.3222  0.5774
  827MPD2    C212215   2.659   2.499  10.097 -0.3923  0.6492  0.0547
  827MPD2    C312216   2.526   2.524  10.053 -0.0818 -0.1370 -1.2762
  827MPD2    C412217   2.507   2.606   9.945 -0.4986 -0.2353 -0.0815
  827MPD2    C512218   2.615   2.655   9.879  0.4475 -0.6106 -0.2805
  827MPD2     H12219   2.667   2.442  10.189  1.5355 -0.9979 -1.1542
  827MPD2    H112220   2.412   2.644   9.910 -0.6729  0.4317  1.1277
  827MPD2    H212221   2.826   2.673   9.871 -0.1527  0.4500  2.1900
  827MPD2    H312222   2.605   2.726   9.798  0.9710  0.2197  0.3856
  827MPD2     N12223   2.424   2.468  10.138 -0.1416 -0.1560  0.2338
  827MPD2    H512224   2.445   2.426  10.228  2.2011  0.0116 -0.2567
  827MPD2    N112225   2.906   2.526  10.045  0.0064 -0.1850  0.0149
  827MPD2    H712226   2.970   2.575   9.984 -2.2742  0.1185 -2.1498
  828MPD2     C12227   1.688   2.129  12.056 -0.2130 -0.0925  0.6116
  828MPD2    C112228   1.638   2.252  12.085  0.4963  0.9361 -0.2053
  828MPD2    C212229   1.708   2.361  12.038  0.3514 -0.1803  0.2503
  828MPD2    C312230   1.807   2.350  11.937  0.2807 -0.8480 -0.0036
  828MPD2    C412231   1.842   2.223  11.908 -0.5879  0.3155 -0.0576
  828MPD2    C512232   1.794   2.113  11.972 -0.4435  0.0542  0.3939
  828MPD2     H12233   1.659   2.453  12.069  0.0870 -0.2858  0.1474
  828MPD2    H112234   1.917   2.211  11.830  0.3350  0.5297  0.8078
  828MPD2    H212235   1.654   2.042  12.111  1.4188  0.5120  2.5678
  828MPD2    H312236   1.831   2.016  11.942 -0.7551  0.6094 -1.7244
  828MPD2     N12237   1.870   2.463  11.875  0.3814  0.4592 -0.2391
  828MPD2    H512238   1.942   2.433  11.810  0.3558 -1.6177  0.6883
  828MPD2    N112239   1.519   2.281  12.154  0.1171 -0.1009  0.1058
  828MPD2    H712240   1.479   2.374  12.151 -0.8404 -0.5557 -1.0705
  829MPD2     C12241   0.995   2.983  12.119  0.1481  0.5809 -0.2333
  829MPD2    C112242   0.909   2.901  12.191 -0.3592 -0.0432  0.2697
  829MPD2    C212243   0.957   2.772  12.226  0.2971  0.0429  0.2230
  829MPD2    C312244   1.086   2.734  12.199  0.2399  0.1495 -0.1350
  829MPD2    C412245   1.168   2.819  12.125 -0.0015  0.0099 -0.7266
  829MPD2    C512246   1.124   2.944  12.090  0.2463 -0.3229 -0.2771
  829MPD2     H12247   0.892   2.692  12.260  0.7328 -0.3719  0.0827
  829MPD2    H112248   1.268   2.786  12.098  0.3839  0.7632 -0.2148
  829MPD2    H212249   0.961   3.076  12.076  1.1421  1.8443  1.7449
  829MPD2    H312250   1.197   3.011  12.046  0.0428  1.8214  2.6621
  829MPD2     N12251   1.137   2.611  12.232  0.3741  0.0089 -0.1537
  829MPD2    H512252   1.226   2.589  12.187  0.3012 -0.2716 -0.1589
  829MPD2    N112253   0.777   2.947  12.221  0.2154 -0.0143  0.4971
  829MPD2    H712254   0.753   3.038  12.185  0.5411 -0.7190 -1.4691
  830MPD2     C12255   0.870   0.356  15.448 -0.1062 -0.1500  0.2590
  830MPD2    C112256   0.950   0.386  15.551  0.5903  0.0396  0.3989
  830MPD2    C212257   1.073   0.450  15.523 -0.2700  0.2140 -1.1611
  830MPD2    C312258   1.098   0.492  15.397  0.8516 -0.2512 -0.2583
  830MPD2    C412259   1.018   0.454  15.290  0.2745 -0.1013 -0.2470
  830MPD2    C512260   0.896   0.398  15.323  0.6948  0.0564 -0.2908
  830MPD2     H12261   1.133   0.476  15.610 -1.3388  2.3131 -1.0684
  830MPD2    H112262   1.036   0.479  15.186  1.2071 -0.3186 -0.1344
  830MPD2    H212263   0.776   0.312  15.480 -1.1326 -0.5890 -3.3212
  830MPD2    H312264   0.823   0.381  15.245  1.2521 -0.8300 -0.6160
  830MPD2     N12265   1.212   0.565  15.370 -0.7926 -0.1974 -0.2155
  830MPD2    H512266   1.219   0.586  15.271 -1.6827  1.5778  0.1070
  830MPD2    N112267   0.899   0.352  15.676  0.0490  0.5985 -0.2830
  830MPD2    H712268   0.801   0.325  15.673  0.3151 -0.4735  0.4414
  831MPD2     C12269   1.263   2.377  16.409  0.1699 -0.3803 -0.5147
  831MPD2    C112270   1.295   2.261  16.338  0.5904  0.1819  0.5482
  831MPD2    C212271   1.198   2.164  16.327 -0.8296 -0.4594 -0.0242
  831MPD2    C312272   1.075   2.174  16.393  0.1101  0.3001 -0.2867
  831MPD2    C412273   1.051   2.274  16.478 -0.4794 -0.0508  0.7131
  831MPD2    C512274   1.145   2.377  16.483  0.0129 -0.0425  0.5069
  831MPD2     H12275   1.222   2.078  16.265 -0.7459 -1.3189  1.2209
  831MPD2    H112276   0.958   2.283  16.533 -1.7175  0.0150 -1.3651
  831MPD2    H212277   1.324   2.465  16.423 -2.4023  1.0026  1.8326
  831MPD2    H312278   1.130   2.473  16.531  1.7343  0.7406 -0.5110
  831MPD2     N12279   0.976   2.073  16.388  0.3490  0.3447 -0.2599
  831MPD2    H512280   0.896   2.093  16.447  0.6750 -1.5722  0.8398
  831MPD2    N112281   1.413   2.259  16.259 -0.6935 -0.0060  0.2560
  831MPD2    H712282   1.465   2.346  16.267  0.0890 -0.6550  2.2907
  832MPD2     C12283   4.467   3.246  17.242  0.1972  1.0999  0.3655
  832MPD2    C112284   4.430   3.378  17.212  0.0329  0.0305 -0.3999
  832MPD2    C212285   4.319   3.393  17.128  0.5296  0.4535 -0.2885
  832MPD2    C312286   4.266   3.281  17.059 -0.1486 -0.0489  0.1273
  832MPD2    C412287   4.318   3.152  17.074 -0.1934 -0.1712 -0.0201
  832MPD2    C512288   4.414   3.136  17.169  0.0010  0.2619  0.1122
  832MPD2     H12289   4.284   3.493  17.104 -1.3038  0.0601  0.7762
  832MPD2    H112290   4.275   3.072  17.015 -0.6189  0.9346 -1.2229
  832MPD2    H212291   4.546   3.222  17.311 -1.5834 -1.6844  1.4563
  832MPD2    H312292   4.458   3.040  17.191 -1.5292 -0.0099  1.9443
  832MPD2     N12293   4.153   3.293  16.966 -0.3929 -0.1422 -0.3123
  832MPD2    H512294   4.114   3.214  16.915  2.6795 -2.5107  1.0210
  832MPD2    N112295   4.515   3.481  17.260 -0.5384  0.4772  0.5882
  832MPD2    H712296   4.577   3.453  17.335 -1.9056 -0.0947  1.4980
  833MPD2     C12297   1.661   0.104  12.665  0.0443 -0.2537 -0.9434
  833MPD2    C112298   1.714   0.181  12.565  0.2944 -0.1803  0.2910
  833MPD2    C212299   1.813   0.113  12.491 -0.6637 -0.2215  0.1883
  833MPD2    C312300   1.855   4.717  12.517  0.9711 -0.2732 -0.5170
  833MPD2    C412301   1.789   4.645  12.621 -0.0916 -0.2904 -0.7058
  833MPD2    C512302   1.693   4.707  12.687 -0.4659 -0.2810 -0.3836
  833MPD2     H12303   1.870   0.175  12.423 -0.2263  0.0639  0.8170
  833MPD2    H112304   1.822   4.548  12.656  0.1205 -0.0199 -0.1581
  833MPD2    H212305   1.592   0.139  12.741 -1.3366 -0.4166 -2.1293
  833MPD2    H312306   1.649   4.659  12.774 -1.1490 -2.4816 -1.9493
  833MPD2     N12307   1.958   4.652  12.443  0.3411 -0.3666 -0.1879
  833MPD2    H512308   1.986   4.559  12.474  0.1373 -0.2994  0.2004
  833MPD2    N112309   1.689   0.319  12.551 -0.3987  0.1472 -0.4816
  833MPD2    H712310   1.624   0.362  12.616 -0.6550 -0.9059 -0.0309
  834MPD2     C12311   2.018   3.933  11.751 -0.0415  0.7335 -0.3385
  834MPD2    C112312   1.920   4.018  11.724 -0.3119  0.2863  0.3316
  834MPD2    C212313   1.899   4.139  11.797  0.1141 -0.3993 -0.4895
  834MPD2    C312314   1.987   4.167  11.899 -0.3819 -0.6073 -0.0188
  834MPD2    C412315   2.085   4.073  11.929  0.1373  0.3453 -0.4904
  834MPD2    C512316   2.099   3.960  11.852  0.9953  0.1861 -0.3326
  834MPD2     H12317   1.825   4.212  11.769  0.4561  0.5913  1.1712
  834MPD2    H112318   2.169   4.088  11.997  0.1436 -2.7554  0.1809
  834MPD2    H212319   2.019   3.836  11.702 -3.5246  0.8975 -0.6816
  834MPD2    H312320   2.183   3.897  11.879  0.6312  0.1623  0.7562
  834MPD2     N12321   1.986   4.299  11.955  0.2057  0.0694  0.1082
  834MPD2    H512322   1.925   4.373  11.922  0.8813  1.7856  2.7131
  834MPD2    N112323   1.842   3.980  11.613  0.6940  0.5300  0.2081
  834MPD2    H712324   1.871   3.891  11.573 -2.0834 -1.8061  3.3433
  835MPD2     C12325   2.542   2.287  11.473  0.2277  0.5339  0.3563
  835MPD2    C112326   2.416   2.345  11.485  0.1140 -0.1777  0.3083
  835MPD2    C212327   2.339   2.306  11.593 -0.0007 -0.8162 -0.2845
  835MPD2    C312328   2.383   2.221  11.697  0.8921  0.4396  0.6901
  835MPD2    C412329   2.509   2.170  11.679 -0.5904 -0.4106  0.6633
  835MPD2    C512330   2.584   2.202  11.570 -0.0620  0.7092 -0.0937
  835MPD2     H12331   2.239   2.347  11.600 -0.7457 -2.7840  0.7323
  835MPD2    H112332   2.569   2.116  11.751 -1.1994 -0.9977  0.7181
  835MPD2    H212333   2.618   2.306  11.397 -0.0381 -0.6644 -0.2193
  835MPD2    H312334   2.684   2.162  11.554 -0.0237  1.0141 -0.6293
  835MPD2     N12335   2.311   2.205  11.814  0.6027  0.0132  0.2699
  835MPD2    H512336   2.361   2.150  11.884  0.6081 -0.5586 -0.1790
  835MPD2    N112337   2.359   2.439  11.395  0.2757 -0.5589  1.1301
  835MPD2    H712338   2.265   2.476  11.409  0.8304  0.2228  2.8398
  836MPD2     C12339   2.095   2.814  12.053  0.0501 -0.3456  0.1429
  836MPD2    C112340   2.068   2.728  12.153 -0.1854  0.0291  0.2588
  836MPD2    C212341   1.965   2.757  12.241 -0.0081 -0.2449  0.7241
  836MPD2    C312342   1.892   2.877  12.228 -0.6275  0.0692 -0.0105
  836MPD2    C412343   1.932   2.964  12.133 -0.0231  0.4646 -0.0448
  836MPD2    C512344   2.038   2.939  12.056  0.0061 -0.2517 -0.4385
  836MPD2     H12345   1.928   2.668  12.290  0.7815 -1.3723 -0.7452
  836MPD2    H112346   1.877   3.055  12.112 -2.6249 -1.2954 -0.7639
  836MPD2    H212347   2.164   2.785  11.976 -0.1505  2.2959 -1.0393
  836MPD2    H312348   2.055   3.006  11.973  0.8098 -1.1161 -0.9698
  836MPD2     N12349   1.769   2.900  12.303  0.4134 -0.5932  0.1094
  836MPD2    H512350   1.719   2.983  12.273 -1.0743 -0.7513  2.1556
  836MPD2    N112351   2.132   2.602  12.150  0.0530  0.3749  0.1946
  836MPD2    H712352   2.197   2.591  12.073 -0.1270  2.0411 -0.1945
  837MPD2     C12353   0.030   2.833  10.466 -0.2332  0.7221 -0.5149
  837MPD2    C112354   4.699   2.812  10.349  0.1383 -0.6574 -0.3967
  837MPD2    C212355   4.670   2.920  10.264  0.5306  0.0508 -0.1228
  837MPD2    C312356   4.694   3.049  10.306  0.5131 -0.3524  0.1155
  837MPD2    C412357   0.020   3.068  10.426  0.7652 -0.2307  0.1763
  837MPD2    C512358   0.059   2.962  10.502  0.0366 -0.0105 -0.7325
  837MPD2     H12359   4.624   2.903  10.167  1.1032  1.9699 -0.7265
  837MPD2    H112360   0.057   3.165  10.458  0.1340  0.3823 -0.9252
  837MPD2    H212361   0.035   2.751  10.537  1.9087  2.3883  1.2589
  837MPD2    H312362   0.096   2.992  10.599 -1.2428 -2.3404  0.4749
  837MPD2     N12363   4.649   3.149  10.221 -0.1696  0.6039 -0.6037
  837MPD2    H512364   4.605   3.127  10.133  1.0224 -0.7312 -0.8617
  837MPD2    N112365   4.663   2.683  10.300 -0.3260 -0.2284  0.0717
  837MPD2    H712366   4.588   2.673  10.232 -0.7062  0.8249  0.3440
  838MPD2     C12367   2.950   0.170  11.251  0.5500 -0.1158 -0.0359
  838MPD2    C112368   2.974   0.262  11.339  0.1729  0.1015  0.6379
  838MPD2    C212369   2.914   0.254  11.462  0.5641  0.0647 -0.1891
  838MPD2    C312370   2.839   0.138  11.493 -0.8345 -0.1047 -1.0459
  838MPD2    C412371   2.820   0.037  11.399  0.1421 -0.0815 -0.1079
  838MPD2    C512372   2.875   0.062  11.274 -0.2034 -0.2337 -0.2218
  838MPD2     H12373   2.919   0.328  11.541  0.0623  1.4973 -1.4946
  838MPD2    H112374   2.765   4.682  11.424 -0.4772 -0.2358 -2.0587
  838MPD2    H212375   2.971   0.187  11.146 -4.5776 -0.5283 -1.1730
  838MPD2    H312376   2.868   4.722  11.196  0.5220  0.0649 -0.5833
  838MPD2     N12377   2.802   0.126  11.629 -0.0038 -0.2996 -0.6256
  838MPD2    H512378   2.810   0.211  11.683 -2.0464 -1.1596  1.0202
  838MPD2    N112379   3.060   0.367  11.318 -0.0382  0.2794  0.1230
  838MPD2    H712380   3.069   0.430  11.397  2.4225  1.6364 -1.2413
  839MPD2     C12381   3.193   0.023  11.803 -0.6523 -0.3361 -0.2801
  839MPD2    C112382   3.230   0.012  11.671 -0.2908  0.0589  0.2502
  839MPD2    C212383   3.287   0.112  11.599  0.0910  0.3966  0.2754
  839MPD2    C312384   3.299   0.239  11.656 -0.3795  0.0863 -0.0547
  839MPD2    C412385   3.243   0.252  11.778 -0.8674 -0.0378 -0.4041
  839MPD2    C512386   3.192   0.147  11.855 -0.1037  0.0438 -0.3269
  839MPD2     H12387   3.333   0.097  11.502 -0.2284  0.1021  0.1718
  839MPD2    H112388   3.231   0.346  11.831 -1.1370  0.5586 -1.5205
  839MPD2    H212389   3.156   4.674  11.860 -3.2448  2.9860  2.9578
  839MPD2    H312390   3.156   0.159  11.957 -0.3436 -2.2168 -0.1396
  839MPD2     N12391   3.336   0.354  11.579  0.3797 -0.7269 -0.1651
  839MPD2    H512392   3.309   0.447  11.609  0.4596 -0.9062  0.4641
  839MPD2    N112393   3.203   4.628  11.599  0.1787  0.0308 -0.0647
  839MPD2    H712394   3.231   4.620  11.502  0.0543 -0.3490 -0.0719
  840MPD2     C12395   3.159   2.957  10.428 -0.2760  0.2811 -0.2291
  840MPD2    C112396   3.268   2.875  10.419 -0.0498  0.0526 -0.6812
  840MPD2    C212397   3.387   2.907  10.483 -0.0558  0.1690  0.4268
  840MPD2    C312398   3.383   3.021  10.567  0.1096  0.1378 -0.3837
  840MPD2    C412399   3.265   3.091  10.585 -0.2307 -0.5423  0.2452
  840MPD2    C512400   3.148   3.061  10.522  0.5724 -0.4325 -0.1208
  840MPD2     H12401   3.465   2.832  10.489 -1.1898 -1.1978 -2.0133
  840MPD2    H112402   3.261   3.179  10.648  0.0054 -0.7916  0.6081
  840MPD2    H212403   3.058   2.940  10.394 -0.7206  1.0516  0.6824
  840MPD2    H312404   3.064   3.128  10.531  0.6066 -0.4997  0.7166
  840MPD2     N12405   3.478   3.061  10.658 -0.3678 -0.4232  0.2073
  840MPD2    H512406   3.459   3.129  10.730 -2.0265 -2.0030  1.2663
  840MPD2    N112407   3.240   2.756  10.342 -0.2576  0.0590  0.3695
  840MPD2    H712408   3.151   2.745  10.294  0.8286 -1.0030 -1.4167
  841MPD2     C12409   2.693   2.309  14.426  0.5339  0.3905  0.4854
  841MPD2    C112410   2.768   2.225  14.516 -0.2106  0.0893 -0.5217
  841MPD2    C212411   2.865   2.285  14.597 -0.0562  0.1953 -0.4838
  841MPD2    C312412   2.887   2.421  14.582 -0.5433  0.1563 -0.6212
  841MPD2    C412413   2.826   2.502  14.489 -0.3461 -0.0158 -0.4082
  841MPD2    C512414   2.721   2.441  14.422  0.1887  1.0307 -0.7807
  841MPD2     H12415   2.926   2.219  14.657  0.0331 -0.2612 -1.0755
  841MPD2    H112416   2.843   2.609  14.478 -1.9088  0.2320 -0.4871
  841MPD2    H212417   2.624   2.257  14.361  0.2031  1.3028  0.1126
  841MPD2    H312418   2.665   2.508  14.357  1.9405  1.0791 -2.2244
  841MPD2     N12419   3.000   2.476  14.657  0.5887  0.4689  0.7540
  841MPD2    H512420   3.044   2.413  14.724  1.4751  2.0293  1.6515
  841MPD2    N112421   2.746   2.085  14.507 -0.0640  0.0560 -0.3024
  841MPD2    H712422   2.691   2.054  14.427  1.2028  1.6024 -1.7903
  842MPD2     C12423   3.587   3.438  16.998 -0.9574 -0.7331  0.0711
  842MPD2    C112424   3.468   3.379  16.979 -0.2252 -0.3121  0.8259
  842MPD2    C212425   3.413   3.299  17.079  0.3351  0.7962 -0.0837
  842MPD2    C312426   3.469   3.281  17.198 -0.2756  0.0604  0.0002
  842MPD2    C412427   3.595   3.343  17.221  0.0348  0.5696 -0.0507
  842MPD2    C512428   3.646   3.422  17.119 -0.8911 -0.2064 -0.8031
  842MPD2     H12429   3.323   3.243  17.058  2.0649 -2.1909  0.5860
  842MPD2    H112430   3.652   3.331  17.312 -1.5933  1.4583  1.0971
  842MPD2    H212431   3.637   3.495  16.921 -1.0735 -0.0780  0.4765
  842MPD2    H312432   3.744   3.467  17.132 -0.8190 -0.5557 -0.1158
  842MPD2     N12433   3.406   3.214  17.300 -0.3602 -0.8950  0.4457
  842MPD2    H512434   3.323   3.157  17.285 -1.3498  1.1245 -1.7854
  842MPD2    N112435   3.404   3.410  16.856  0.1007  0.1140 -0.5774
  842MPD2    H712436   3.467   3.447  16.785  0.4719 -0.6736 -0.6560
  843MPD2     C12437   0.417   4.339  17.737 -0.5198  0.1828 -1.1286
  843MPD2    C112438   0.509   4.243   0.031  0.6033 -0.0194 -0.7012
  843MPD2    C212439   0.627   4.282   0.091 -0.2581 -0.0259 -0.2636
  843MPD2    C312440   0.655   4.414   0.114 -0.0238  0.2481  0.2222
  843MPD2    C412441   0.574   4.508   0.067 -0.0993  0.3034 -0.4778
  843MPD2    C512442   0.450   4.472   0.014  0.5788 -0.0449  0.0645
  843MPD2     H12443   0.700   4.209   0.125 -0.7177 -0.7625 -0.8531
  843MPD2    H112444   0.601   4.613   0.069 -0.1290  0.2685  1.4588
  843MPD2    H212445   0.323   4.309  17.692  0.4636 -0.8669 -2.4878
  843MPD2    H312446   0.377   4.540  17.710 -0.7652 -0.9370  0.9524
  843MPD2     N12447   0.773   4.465   0.177  0.0936  0.1031  0.1268
  843MPD2    H512448   0.787   4.564   0.157  3.5778 -0.1982  1.0910
  843MPD2    N112449   0.470   4.111   0.014  0.3037 -0.0597  0.5041
  843MPD2    H712450   0.382   4.094  17.704  0.5629  0.1690 -0.0513
  844MPD2     C12451   4.087   2.974  16.456  0.1712  0.1248  0.0285
  844MPD2    C112452   4.204   2.923  16.512  0.1068 -0.4235  0.6020
  844MPD2    C212453   4.289   3.009  16.586 -0.7657  0.2930 -0.2306
  844MPD2    C312454   4.250   3.139  16.611  1.4184  0.0757 -0.3217
  844MPD2    C412455   4.136   3.186  16.551 -0.2042  0.1981 -0.7156
  844MPD2    C512456   4.054   3.103  16.468  0.4398  0.4068 -0.0519
  844MPD2     H12457   4.386   2.976  16.619 -1.6694 -0.1113  2.0039
  844MPD2    H112458   4.110   3.291  16.558  0.9694  0.5105 -1.1768
  844MPD2    H212459   4.018   2.906  16.408  2.1658 -2.2647  0.5650
  844MPD2    H312460   3.971   3.142  16.409  1.3745 -0.1061 -1.7006
  844MPD2     N12461   4.339   3.214  16.678  0.3641 -0.0043 -0.1549
  844MPD2    H512462   4.428   3.167  16.694  1.2525  1.6483 -0.2262
  844MPD2    N112463   4.249   2.784  16.497 -0.1021 -0.1105 -0.0953
  844MPD2    H712464   4.345   2.768  16.525  0.6397  3.4792 -0.6019
  845MPD2     C12465   4.472   4.222  16.918  0.1794 -0.1913  0.1091
  845MPD2    C112466   4.425   4.146  17.024 -0.0013 -0.8063  0.2541
  845MPD2    C212467   4.441   4.007  17.008  0.4770 -0.0749 -0.1332
  845MPD2    C312468   4.509   3.953  16.902 -0.1284 -0.1445  0.0988
  845MPD2    C412469   4.569   4.036  16.814  0.1779 -0.3807  0.2538
  845MPD2    C512470   4.545   4.167  16.820  0.1115  0.6281  0.5109
  845MPD2     H12471   4.400   3.936  17.080  2.0009 -1.5072 -0.6796
  845MPD2    H112472   4.623   3.995  16.729  0.3961  0.0029  0.2068
  845MPD2    H212473   4.474   4.330  16.915  3.5570 -0.2382  0.1263
  845MPD2    H312474   4.600   4.229  16.750 -1.4324  0.0874 -1.1698
  845MPD2     N12475   4.524   3.806  16.909  0.0535 -0.2271  0.4250
  845MPD2    H512476   4.466   3.760  16.978  0.9368 -0.1873  1.1883
  845MPD2    N112477   4.359   4.210  17.131 -0.4328 -0.1910  0.1611
  845MPD2    H712478   4.346   4.310  17.131 -0.3337 -0.1823  1.9996
  846MPD2     C12479   1.332   4.449  13.755  0.2881  0.5052 -0.6118
  846MPD2    C112480   1.206   4.458  13.696  0.0200 -1.0313  0.3890
  846MPD2    C212481   1.099   4.441  13.781 -0.2504  0.6814 -0.0506
  846MPD2    C312482   1.106   4.390  13.910 -0.5192  0.0569  0.8194
  846MPD2    C412483   1.239   4.369  13.960  0.5222 -0.5183  0.3881
  846MPD2    C512484   1.350   4.404  13.882 -0.2675 -0.1202 -0.3674
  846MPD2     H12485   1.003   4.464  13.737 -0.0228 -1.9383 -1.9005
  846MPD2    H112486   1.260   4.343  14.063  2.0637 -1.9662 -0.2856
  846MPD2    H212487   1.414   4.486  13.693  0.6319 -2.3237 -1.8283
  846MPD2    H312488   1.450   4.396  13.923 -0.3684  1.7206  0.2589
  846MPD2     N12489   0.989   4.350  13.978  0.0887 -0.0197 -0.0734
  846MPD2    H512490   0.902   4.359  13.928 -0.0508  1.9304  0.4932
  846MPD2    N112491   1.197   4.500  13.565  0.2855  0.0758  0.1842
  846MPD2    H712492   1.274   4.556  13.531  1.4763 -1.0393  1.0276
  847MPD2     C12493   1.447   0.561  14.403  0.2317  0.6465 -0.3142
  847MPD2    C112494   1.501   0.673  14.454 -0.6753 -0.6192 -0.1650
  847MPD2    C212495   1.604   0.669  14.538 -0.7148  0.0809 -0.4133
  847MPD2    C312496   1.655   0.548  14.586 -0.4897  0.1955 -0.3772
  847MPD2    C412497   1.599   0.431  14.533  0.5304 -0.2622 -0.5131
  847MPD2    C512498   1.492   0.440  14.445  0.2531  0.3979 -0.6232
  847MPD2     H12499   1.631   0.759  14.591 -1.5122 -0.4118  0.8189
  847MPD2    H112500   1.640   0.335  14.562  1.4094 -0.0973 -1.2053
  847MPD2    H212501   1.369   0.564  14.327 -0.8381  0.0327  0.7657
  847MPD2    H312502   1.454   0.350  14.397  1.7067 -0.0381 -0.9447
  847MPD2     N12503   1.748   0.562  14.691 -0.3359  0.0289 -0.5432
  847MPD2    H512504   1.773   0.656  14.721 -2.7580  1.3779 -2.8653
  847MPD2    N112505   1.449   0.807  14.437 -1.0402  0.0479 -0.0552
  847MPD2    H712506   1.504   0.882  14.476 -1.7535 -0.0276  1.0979
  848MPD2     C12507   3.896   3.640  16.250  0.2314  0.3508  0.3432
  848MPD2    C112508   3.908   3.689  16.377  0.2403 -0.6423  0.6443
  848MPD2    C212509   3.903   3.831  16.391  0.0989 -0.1349 -0.1799
  848MPD2    C312510   3.890   3.916  16.281 -0.2761  1.1724 -0.3727
  848MPD2    C412511   3.885   3.858  16.158 -0.2636 -0.0388 -0.0235
  848MPD2    C512512   3.884   3.725  16.137 -0.3971 -1.3295  0.2361
  848MPD2     H12513   3.904   3.869  16.493 -0.4401  0.4431 -0.3890
  848MPD2    H112514   3.873   3.911  16.065 -0.4737 -0.4271 -0.2178
  848MPD2    H212515   3.918   3.538  16.221 -2.4886 -0.0999 -0.1147
  848MPD2    H312516   3.876   3.679  16.039 -0.1513  0.6676 -0.7195
  848MPD2     N12517   3.863   4.055  16.281  0.1434  0.3247 -0.0481
  848MPD2    H512518   3.842   4.098  16.192  0.4612 -0.5452 -0.5459
  848MPD2    N112519   3.923   3.606  16.494  0.2901 -0.3434  0.0470
  848MPD2    H712520   3.906   3.657  16.580 -0.0008 -0.0979 -0.1571
  849MPD2     C12521   2.727   3.120  14.427  0.8652 -0.3688  0.2752
  849MPD2    C112522   2.810   3.161  14.322 -0.2568  0.8528  0.3550
  849MPD2    C212523   2.945   3.160  14.335  0.1229 -0.4830  0.2618
  849MPD2    C312524   3.002   3.137  14.460 -0.2999  0.3103 -0.3966
  849MPD2    C412525   2.922   3.094  14.562  0.2799 -0.3004 -0.4015
  849MPD2    C512526   2.782   3.094  14.548  0.3355  0.2156 -0.3482
  849MPD2     H12527   3.004   3.172  14.245 -2.5774  0.7144 -1.3598
  849MPD2    H112528   2.966   3.068  14.658  1.9655 -1.2405 -1.4322
  849MPD2    H212529   2.618   3.118  14.424  0.9844 -2.3858 -3.0954
  849MPD2    H312530   2.710   3.065  14.624 -1.9159  1.0780 -2.1608
  849MPD2     N12531   3.143   3.142  14.464  0.5002  0.4241 -0.3069
  849MPD2    H512532   3.186   3.165  14.375 -0.0507 -0.6225 -0.8394
  849MPD2    N112533   2.743   3.181  14.195 -0.8423 -0.6518  0.7640
  849MPD2    H712534   2.649   3.141  14.190 -0.2837 -1.7311 -1.0747
  850MPD2     C12535   1.303   2.171  15.179  0.1266  0.4048 -0.2482
  850MPD2    C112536   1.287   2.033  15.174 -0.1849  0.6590 -0.4598
  850MPD2    C212537   1.395   1.952  15.146 -0.1471 -0.4820 -0.4538
  850MPD2    C312538   1.512   2.014  15.104 -0.3559  0.2329  0.4882
  850MPD2    C412539   1.519   2.151  15.086 -0.3782 -0.1969 -0.2036
  850MPD2    C512540   1.414   2.227  15.126  0.2625 -0.0044  0.4163
  850MPD2     H12541   1.393   1.851  15.186 -2.0127 -0.3868 -0.3075
  850MPD2    H112542   1.615   2.200  15.074 -0.4516 -0.3589 -1.4350
  850MPD2    H212543   1.232   2.239  15.226  0.8661  1.2531 -0.3495
  850MPD2    H312544   1.425   2.335  15.117 -1.6998  0.2787  1.5978
  850MPD2     N12545   1.631   1.943  15.096 -0.1433  0.0569 -0.5365
  850MPD2    H512546   1.713   1.998  15.073 -1.3545  2.3189  0.5289
  850MPD2    N112547   1.172   1.982  15.227 -0.2579  0.4307  0.5148
  850MPD2    H712548   1.108   2.047  15.273  1.4288  1.8205  0.9098
  851MPD2     C12549   1.556   1.510  15.458 -0.1906  0.4477 -0.6819
  851MPD2    C112550   1.429   1.453  15.459 -0.2871  0.0638  0.1820
  851MPD2    C212551   1.424   1.311  15.473 -0.8772  0.2043  0.6109
  851MPD2    C312552   1.529   1.225  15.477 -0.5044  0.5881  0.1989
  851MPD2    C412553   1.649   1.287  15.477 -0.7308  0.1154  0.0435
  851MPD2    C512554   1.664   1.421  15.472 -0.9423 -0.6978 -0.1447
  851MPD2     H12555   1.322   1.275  15.482 -1.2908  1.4439  0.9061
  851MPD2    H112556   1.737   1.224  15.482 -1.4369 -0.9892 -1.1591
  851MPD2    H212557   1.566   1.617  15.449 -1.0437  0.8134  2.5424
  851MPD2    H312558   1.765   1.459  15.481 -1.5786  0.8937  0.2345
  851MPD2     N12559   1.515   1.088  15.472 -0.0295  0.5499  0.5834
  851MPD2    H512560   1.418   1.061  15.484 -0.2508  2.0236  2.0218
  851MPD2    N112561   1.317   1.539  15.456 -0.4839  0.5049 -0.1012
  851MPD2    H712562   1.334   1.637  15.435 -0.6179  0.6137  0.3097
  852MPD2     C12563   0.732   0.624   9.663  0.2644 -1.2241  0.2963
  852MPD2    C112564   0.754   0.552   9.779  0.1066  0.1807  0.5041
  852MPD2    C212565   0.880   0.521   9.823  0.4120  0.7612  0.4892
  852MPD2    C312566   0.987   0.555   9.746 -0.9514 -0.3518  0.0315
  852MPD2    C412567   0.963   0.625   9.623  0.0749  0.4436 -0.4049
  852MPD2    C512568   0.835   0.649   9.585 -1.3283  0.5340 -0.0534
  852MPD2     H12569   0.897   0.474   9.919  1.5496  1.9450  0.8680
  852MPD2    H112570   1.037   0.643   9.545  0.0611  3.2018  0.2450
  852MPD2    H212571   0.635   0.653   9.625 -0.8241 -2.0367  2.5126
  852MPD2    H312572   0.826   0.699   9.489  1.6111  0.1835 -0.5289
  852MPD2     N12573   1.117   0.524   9.800 -0.2640 -0.2036 -0.6419
  852MPD2    H512574   1.114   0.498   9.898 -1.1718 -0.4833 -0.7395
  852MPD2    N112575   0.649   0.518   9.865  0.0230 -0.1849 -0.0517
  852MPD2    H712576   0.677   0.473   9.952  0.1563 -2.2020 -1.1296
  853MPD2     C12577   3.012   3.395  12.435  0.6453 -0.1021 -0.5424
  853MPD2    C112578   2.942   3.512  12.413 -0.5973  0.4882  0.0766
  853MPD2    C212579   2.890   3.541  12.280 -0.5988  0.4587  0.2148
  853MPD2    C312580   2.910   3.454  12.173  0.4445 -0.1519  0.4046
  853MPD2    C412581   2.987   3.342  12.197 -0.1070 -0.1487  0.3733
  853MPD2    C512582   3.036   3.320  12.323 -0.5097  0.5736 -0.4578
  853MPD2     H12583   2.838   3.633  12.255 -2.5627 -0.5353  0.6291
  853MPD2    H112584   3.009   3.266  12.123 -0.2839  1.7600 -1.6681
  853MPD2    H212585   3.058   3.376  12.532  2.7083  1.7668 -1.1437
  853MPD2    H312586   3.097   3.232  12.340  0.9155  1.9951  1.8059
  853MPD2     N12587   2.858   3.481  12.041 -0.0793  0.2784  0.4536
  853MPD2    H512588   2.898   3.436  11.959 -0.5178 -2.5346  1.7900
  853MPD2    N112589   2.919   3.591  12.525  0.4037  0.3392  0.0569
  853MPD2    H712590   2.943   3.565  12.620  1.5550 -3.1563 -1.1765
  854MPD2     C12591   0.129   4.576  12.936 -0.4937 -0.3864 -0.7318
  854MPD2    C112592   0.050   4.460  12.914 -0.0806 -1.1978 -0.1295
  854MPD2    C212593   0.074   4.353  12.998  0.7984 -0.2349  0.0340
  854MPD2    C312594   0.166   4.354  13.101  0.2317  0.1663 -0.4106
  854MPD2    C412595   0.246   4.465  13.112 -0.0994  0.2472  0.0912
  854MPD2    C512596   0.219   4.577  13.036 -0.4557 -0.1631  0.6343
  854MPD2     H12597   0.031   4.257  12.971 -1.5089  0.5425  0.9475
  854MPD2    H112598   0.326   4.460  13.185 -1.5722  1.5905  1.8015
  854MPD2    H212599   0.109   4.665  12.877 -1.9241 -0.1411  0.1391
  854MPD2    H312600   0.279   4.664  13.060 -1.1001  0.3648  0.3423
  854MPD2     N12601   0.194   4.238  13.176 -0.1344 -0.3593  0.3443
  854MPD2    H512602   0.274   4.240  13.239  0.4507  1.1806 -0.4303
  854MPD2    N112603   4.696   4.458  12.800  0.3598  0.4584 -0.3591
  854MPD2    H712604   4.676   4.549  12.758 -1.9991  0.6263  1.1376
  855MPD2     C12605   4.436   3.440  13.561  0.1497 -0.3476 -0.1315
  855MPD2    C112606   4.569   3.404  13.566 -0.1639  0.0916 -0.5490
  855MPD2    C212607   4.665   3.494  13.525  0.3328  0.2612 -0.2171
  855MPD2    C312608   4.623   3.612  13.459 -0.1700  0.5216  0.1799
  855MPD2    C412609   4.491   3.640  13.453  0.2726 -0.1699  0.3059
  855MPD2    C512610   4.403   3.554  13.500  0.4013 -0.3997  0.4981
  855MPD2     H12611   0.034   3.461  13.523  0.4929  0.6283  2.1606
  855MPD2    H112612   4.455   3.738  13.422  0.4304  0.4324  2.0285
  855MPD2    H212613   4.349   3.382  13.588  1.1957 -0.7040  2.4767
  855MPD2    H312614   4.299   3.582  13.492  0.8254  0.8954 -0.4051
  855MPD2     N12615   4.713   3.691  13.390  0.9590  0.4808  0.0488
  855MPD2    H512616   4.671   3.779  13.360  0.3102 -0.9431 -3.2733
  855MPD2    N112617   4.604   3.274  13.605 -0.4895 -0.5850  0.1960
  855MPD2    H712618   4.703   3.261  13.618 -0.2452 -2.6470 -3.8899
  856MPD2     C12619   2.284   4.052  14.244  0.0911  0.0614  0.2850
  856MPD2    C112620   2.336   4.156  14.162 -0.2960  0.6179 -0.2928
  856MPD2    C212621   2.272   4.204  14.054  0.1138 -0.3831 -0.2973
  856MPD2    C312622   2.142   4.156  14.029  0.2533 -0.5327  0.0287
  856MPD2    C412623   2.077   4.070  14.117 -0.5629  0.3978 -0.1097
  856MPD2    C512624   2.151   4.020  14.220  0.1102 -0.3432  0.7151
  856MPD2     H12625   2.330   4.267  13.987 -1.4157  0.0766 -1.1884
  856MPD2    H112626   1.973   4.041  14.103 -0.8019  0.9448  0.5336
  856MPD2    H212627   2.342   4.007  14.323  2.4561 -2.2828 -2.7686
  856MPD2    H312628   2.103   3.947  14.283 -1.5549 -0.3513 -0.5432
  856MPD2     N12629   2.067   4.225  13.925  0.2800  0.8158 -0.0348
  856MPD2    H512630   1.967   4.214  13.930  0.8567 -2.8250  3.5632
  856MPD2    N112631   2.462   4.215  14.200  0.4983 -0.1452  0.4712
  856MPD2    H712632   2.491   4.291  14.138  0.6008 -1.3245 -0.9431
  857MPD2     C12633   3.404   2.501  12.744 -0.1850 -0.6344  0.0412
  857MPD2    C112634   3.507   2.415  12.763  0.0205  0.6339 -0.3565
  857MPD2    C212635   3.628   2.477  12.800 -0.0252 -0.1775  0.4239
  857MPD2    C312636   3.647   2.610  12.816  0.0410 -0.1781  0.5467
  857MPD2    C412637   3.535   2.691  12.805 -0.1943  0.2122  0.0026
  857MPD2    C512638   3.416   2.636  12.758  0.4432  0.2427 -0.7154
  857MPD2     H12639   3.712   2.415  12.830 -0.0022 -0.7458 -0.8282
  857MPD2    H112640   3.547   2.797  12.825 -0.4685  0.2921 -0.2654
  857MPD2    H212641   3.308   2.462  12.712 -0.4393 -2.6695  3.3093
  857MPD2    H312642   3.326   2.696  12.750  0.4007  0.3748  0.7272
  857MPD2     N12643   3.781   2.641  12.842 -0.5120 -0.4463  0.4979
  857MPD2    H512644   3.850   2.567  12.852  0.0598  0.3202  2.0477
  857MPD2    N112645   3.483   2.274  12.763  0.7670 -0.8297  0.3425
  857MPD2    H712646   3.388   2.239  12.752  0.9563 -1.0620 -0.5601
  858MPD2     C12647   3.876   0.687  16.724 -0.2986  0.0823 -0.1063
  858MPD2    C112648   4.013   0.693  16.735  1.1526 -0.0894  0.2966
  858MPD2    C212649   4.063   0.752  16.846  0.4634 -0.0053 -0.3941
  858MPD2    C312650   3.976   0.821  16.929  0.0692  0.1083 -0.5534
  858MPD2    C412651   3.835   0.829  16.907 -0.2061 -0.6647  0.9699
  858MPD2    C512652   3.785   0.757  16.802 -0.1522  0.5737 -0.5231
  858MPD2     H12653   4.171   0.745  16.856  0.3797 -2.0057 -1.0247
  858MPD2    H112654   3.764   0.890  16.962 -0.4507 -1.2244  1.2796
  858MPD2    H212655   3.829   0.638  16.640 -1.5614 -0.7827  1.1045
  858MPD2    H312656   3.680   0.746  16.780  0.1131  1.2771 -2.1255
  858MPD2     N12657   4.027   0.900  17.035 -0.3100 -1.1216 -0.5988
  858MPD2    H512658   3.967   0.954  17.096  2.5324 -0.5530  1.6497
  858MPD2    N112659   4.088   0.659  16.623 -0.0379  0.2951 -0.6243
  858MPD2    H712660   4.038   0.609  16.551 -2.3013  2.2917 -0.4432
  859MPD2     C12661   2.728   3.042  15.491  0.6285  0.5242  0.2462
  859MPD2    C112662   2.828   3.035  15.590  0.0080  0.5800  0.0127
  859MPD2    C212663   2.852   2.914  15.666  0.0828 -0.0568  0.2552
  859MPD2    C312664   2.773   2.802  15.628  0.0763 -0.5674  0.4257
  859MPD2    C412665   2.687   2.808  15.525 -0.1330 -0.0844 -0.2238
  859MPD2    C512666   2.664   2.926  15.462 -0.4384  0.0841 -0.3208
  859MPD2     H12667   2.925   2.914  15.747 -1.0835  0.9111  1.3034
  859MPD2    H112668   2.629   2.717  15.515 -2.2792  1.1404  0.9923
  859MPD2    H212669   2.716   3.132  15.433  0.2398 -0.5760 -1.3848
  859MPD2    H312670   2.585   2.929  15.388 -0.9394 -0.1958  0.2080
  859MPD2     N12671   2.780   2.682  15.698  0.4624 -0.3274  0.5285
  859MPD2    H512672   2.747   2.602  15.645  2.4674  0.1538 -1.4434
  859MPD2    N112673   2.899   3.154  15.604 -0.2053  0.0974  0.9153
  859MPD2    H712674   2.851   3.230  15.557  0.9870 -0.3536 -1.0365
  860MPD2     C12675   1.176   4.029  11.695  0.0406  0.0601  0.0395
  860MPD2    C112676   1.225   4.012  11.822  0.2541 -0.6598  0.2069
  860MPD2    C212677   1.139   4.043  11.925 -0.3233  0.4960  0.1529
  860MPD2    C312678   1.009   4.093  11.902 -0.1336 -0.5019 -0.3774
  860MPD2    C412679   0.971   4.129  11.775  1.0079 -0.9378 -0.2216
  860MPD2    C512680   1.052   4.086  11.675 -0.6852 -0.1796 -0.7490
  860MPD2     H12681   1.167   4.045  12.029  1.2986 -0.9548 -0.2625
  860MPD2    H112682   0.880   4.180  11.746  1.2558 -0.0410  0.5569
  860MPD2    H212683   1.230   4.002  11.605  0.9826  0.6880  0.4178
  860MPD2    H312684   1.033   4.114  11.572 -0.9001 -3.3744 -1.5790
  860MPD2     N12685   0.929   4.117  12.018 -0.5716  0.0205  0.4058
  860MPD2    H512686   0.965   4.104  12.113 -1.4214  0.4922  0.7899
  860MPD2    N112687   1.338   3.936  11.860 -0.3156 -0.1264  0.4423
  860MPD2    H712688   1.350   3.934  11.961  0.0753  1.7355  0.4232
  861MPD2     C12689   4.084   1.506  11.100 -0.1865 -0.2719  0.9270
  861MPD2    C112690   4.109   1.623  11.174 -0.1821  0.5482 -0.1974
  861MPD2    C212691   4.086   1.751  11.125 -0.3208 -0.5134 -0.0049
  861MPD2    C312692   4.017   1.767  11.003  0.3617 -0.3424  0.4677
  861MPD2    C412693   3.982   1.654  10.934  0.3311  0.4863 -0.1298
  861MPD2    C512694   4.021   1.527  10.976 -0.0210  0.2603  0.0681
  861MPD2     H12695   4.123   1.837  11.179  2.0508 -1.0711 -0.7109
  861MPD2    H112696   3.932   1.657  10.838  0.0800  1.8982  0.0514
  861MPD2    H212697   4.095   1.404  11.135 -3.4263 -1.7516 -2.3829
  861MPD2    H312698   3.997   1.436  10.923  1.8674  0.4124 -1.0275
  861MPD2     N12699   3.975   1.893  10.954  0.2353 -0.4315  0.0569
  861MPD2    H512700   3.930   1.885  10.863 -0.9354  2.0660  0.3927
  861MPD2    N112701   4.147   1.621  11.311 -0.2724 -0.6203 -0.7270
  861MPD2    H712702   4.177   1.709  11.350  0.6801 -0.2447 -2.3395
  862MPD2     C12703   3.629   2.125  10.385  0.1654 -0.3351 -0.1765
  862MPD2    C112704   3.663   2.038  10.486  0.0632 -0.1383 -0.3125
  862MPD2    C212705   3.662   1.903  10.455 -0.5270  0.4722 -0.5081
  862MPD2    C312706   3.640   1.855  10.328 -0.9407 -0.1081 -0.2938
  862MPD2    C412707   3.590   1.943  10.240 -0.2433 -0.0114  0.3049
  862MPD2    C512708   3.585   2.077  10.264 -0.3275 -0.9102  0.1704
  862MPD2     H12709   3.701   1.834  10.529 -0.0323  0.3627 -0.8738
  862MPD2    H112710   3.562   1.908  10.141  2.4974  0.0724 -0.4949
  862MPD2    H212711   3.628   2.231  10.405 -1.8411 -0.2037 -0.8755
  862MPD2    H312712   3.539   2.148  10.196 -1.5503 -0.3339  1.5929
  862MPD2     N12713   3.655   1.713  10.309  0.2345 -0.2576 -0.5056
  862MPD2    H512714   3.718   1.666  10.372 -2.9423 -0.1075  2.7761
  862MPD2    N112715   3.698   2.079  10.619 -0.7680 -0.8630 -0.7706
  862MPD2    H712716   3.736   2.007  10.680 -1.1108 -0.6565 -0.3227
  863MPD2     C12717   2.122   4.316  17.031  0.3130 -0.3274  0.4461
  863MPD2    C112718   2.215   4.365  16.940 -0.0609  0.1431  0.1655
  863MPD2    C212719   2.345   4.360  16.980  0.3076  0.3623  0.0160
  863MPD2    C312720   2.383   4.300  17.097  0.0877 -0.1109  0.7171
  863MPD2    C412721   2.292   4.242  17.183 -0.3773  0.8226 -0.4394
  863MPD2    C512722   2.156   4.248  17.143 -0.1225  0.1511 -0.4533
  863MPD2     H12723   2.423   4.395  16.914 -0.4927  0.2185 -1.0061
  863MPD2    H112724   2.317   4.196  17.277  2.3333  2.3735 -0.4199
  863MPD2    H212725   2.018   4.319  17.000  0.9016  2.1676 -1.2872
  863MPD2    H312726   2.085   4.197  17.206 -2.0009  0.0902 -2.6061
  863MPD2     N12727   2.512   4.303  17.146  0.7139  0.4371 -0.2410
  863MPD2    H512728   2.531   4.239  17.222  0.3171 -0.1717 -0.6500
  863MPD2    N112729   2.172   4.425  16.821  0.5127  0.5014 -0.3139
  863MPD2    H712730   2.076   4.458  16.820 -0.3422 -2.0590 -1.7999
  864MPD2     C12731   2.910   1.355  17.020 -0.0162 -0.8036  0.1485
  864MPD2    C112732   2.960   1.245  16.940 -0.7237 -0.1575 -1.3409
  864MPD2    C212733   3.096   1.252  16.907 -0.6170 -0.1119 -0.6657
  864MPD2    C312734   3.181   1.356  16.949 -0.6030  0.1185  0.3420
  864MPD2    C412735   3.125   1.452  17.030  0.4508  0.2783 -0.0052
  864MPD2    C512736   2.993   1.448  17.058  0.0864  0.4050 -0.4831
  864MPD2     H12737   3.136   1.174  16.843  1.6323  0.9924 -0.5851
  864MPD2    H112738   3.186   1.538  17.055  0.5181  0.0451  0.6390
  864MPD2    H212739   2.808   1.353  17.057 -0.8899 -1.1811 -2.2781
  864MPD2    H312740   2.931   1.527  17.099 -0.9310 -0.3951 -0.4754
  864MPD2     N12741   3.318   1.378  16.920 -0.1138 -0.6310 -0.3109
  864MPD2    H512742   3.355   1.470  16.940 -1.0848 -0.0801 -1.0251
  864MPD2    N112743   2.882   1.138  16.897  0.4832  0.4044 -0.6747
  864MPD2    H712744   2.786   1.146  16.929  0.6569 -2.3050  0.4872
  865MPD2     C12745   3.393   1.689  16.092  0.8453 -0.2933  0.1510
  865MPD2    C112746   3.369   1.560  16.133  0.3927 -0.5922 -0.4685
  865MPD2    C212747   3.415   1.516  16.256 -0.5687  0.0064  0.5006
  865MPD2    C312748   3.472   1.607  16.347 -0.2015 -0.0341 -0.3957
  865MPD2    C412749   3.481   1.740  16.313 -1.0084  0.6697  0.3583
  865MPD2    C512750   3.447   1.778  16.188  0.2907 -0.1786  0.5787
  865MPD2     H12751   3.417   1.411  16.283 -0.0428 -0.1609 -0.1811
  865MPD2    H112752   3.509   1.816  16.385 -2.0113  0.0860  1.3669
  865MPD2    H212753   3.362   1.725  15.994  2.0628  0.3149 -0.0214
  865MPD2    H312754   3.451   1.879  16.148 -0.9192  0.5816  2.4011
  865MPD2     N12755   3.511   1.551  16.474 -0.0558 -0.1536 -1.1766
  865MPD2    H512756   3.490   1.452  16.482 -1.6854  0.4045  1.2769
  865MPD2    N112757   3.319   1.474  16.030 -0.3364 -0.5962 -0.1310
  865MPD2    H712758   3.296   1.509  15.937 -1.1187  0.3855  0.4259
  866MPD2     C12759   4.612   1.935  12.040  0.3818 -0.1176  0.4669
  866MPD2    C112760   4.656   1.948  11.911 -0.1166 -0.5800  0.6698
  866MPD2    C212761   4.591   2.033  11.827  0.8357  0.7672  0.2034
  866MPD2    C312762   4.478   2.093  11.865 -0.4421  1.5666  0.2625
  866MPD2    C412763   4.422   2.063  11.987 -1.0386 -0.0753  0.0304
  866MPD2    C512764   4.496   1.996  12.075  0.4958  0.0300 -0.4758
  866MPD2     H12765   4.623   2.037  11.724 -1.8939 -0.0522 -0.6895
  866MPD2    H112766   4.333   2.113  12.024  0.1462 -0.2370  3.0597
  866MPD2    H212767   4.644   1.863  12.115  0.7552 -1.7680 -1.2783
  866MPD2    H312768   4.455   1.986  12.175  0.2785 -3.1391 -0.9045
  866MPD2     N12769   4.397   2.169  11.782 -0.1999  0.0607 -0.3043
  866MPD2    H512770   4.298   2.180  11.799 -1.1471 -3.6010 -3.3642
  866MPD2    N112771   0.036   1.873  11.881 -0.1948  0.3277  0.0520
  866MPD2    H712772   0.098   1.839  11.953  0.9509  0.0935 -1.0431
  867MPD2     C12773   2.118   1.601  16.909 -0.2445 -0.3030 -0.2597
  867MPD2    C112774   2.100   1.549  17.036 -0.6743  0.0832 -0.3243
  867MPD2    C212775   2.111   1.631  17.146 -0.4752  0.0961 -0.2420
  867MPD2    C312776   2.134   1.768  17.129  0.7308  0.0051 -0.5498
  867MPD2    C412777   2.154   1.816  17.003  0.0990 -0.2216 -0.2519
  867MPD2    C512778   2.145   1.735  16.895  0.4495  0.3876 -0.4998
  867MPD2     H12779   2.109   1.588  17.246 -3.0735  2.2662  0.6523
  867MPD2    H112780   2.178   1.920  16.985  0.6435  0.0313  1.9410
  867MPD2    H212781   2.117   1.541  16.819  0.9876 -1.5959  0.5932
  867MPD2    H312782   2.165   1.772  16.795  1.4484  4.5869  1.2741
  867MPD2     N12783   2.157   1.859  17.239 -0.5487  0.0414 -0.3402
  867MPD2    H512784   2.150   1.957  17.214  4.5069  0.4786 -0.0893
  867MPD2    N112785   2.069   1.412  17.041  0.0963  0.1171  0.2913
  867MPD2    H712786   2.062   1.359  16.955  2.3182  0.5935 -0.1889
  868MPD2     C12787   4.035   0.612  12.943 -0.1587 -0.2036  0.9595
  868MPD2    C112788   4.077   0.532  13.043  0.2289 -0.2423 -0.5471
  868MPD2    C212789   3.996   0.514  13.160  1.0149  0.2763  0.2124
  868MPD2    C312790   3.871   0.569  13.164 -0.4404 -0.1918  0.4968
  868MPD2    C412791   3.833   0.651  13.059 -0.0459 -0.5388 -0.7054
  868MPD2    C512792   3.911   0.670  12.954  0.7968  0.3098  0.3845
  868MPD2     H12793   4.038   0.452  13.239 -0.0703 -1.0527 -0.2540
  868MPD2    H112794   3.744   0.712  13.067 -0.6148 -1.2837 -1.4725
  868MPD2    H212795   4.091   0.634  12.854  0.0425  0.3743  1.2303
  868MPD2    H312796   3.883   0.733  12.870  2.3546  2.0802  1.2115
  868MPD2     N12797   3.800   0.561  13.285 -0.3131 -0.5763  0.2250
  868MPD2    H512798   3.831   0.481  13.338 -1.3199 -0.1403  1.4603
  868MPD2    N112799   4.208   0.472  13.019 -0.1521  0.0671  0.2351
  868MPD2    H712800   4.252   0.487  12.929 -0.8785 -0.3805 -0.1918
  869MPD2     C12801   4.722   2.528  17.506  0.3330 -0.6425 -0.2065
  869MPD2    C112802   4.610   2.501  17.587 -0.0534  0.4864  0.6434
  869MPD2    C212803   4.576   2.591  17.692  0.0353 -0.2092  0.2993
  869MPD2    C312804   4.650   2.709  17.709 -0.0685  0.5421 -0.3994
  869MPD2    C412805   0.025   2.727  17.631  0.1969 -0.3296 -0.4120
  869MPD2    C512806   0.060   2.637  17.540 -0.1902  0.1288 -0.4982
  869MPD2     H12807   4.481   2.570   0.003 -0.6461 -1.2532 -1.4955
  869MPD2    H112808   0.091   2.811  17.651 -0.8603  0.2927  0.4804
  869MPD2    H212809   0.012   2.477  17.414 -0.3082 -1.5061  0.1053
  869MPD2    H312810   0.146   2.674  17.484 -1.2288  2.4362 -0.5491
  869MPD2     N12811   4.625   2.809   0.070  0.0492 -0.3431 -0.0652
  869MPD2    H512812   4.688   2.889   0.073  0.6112 -0.6993 -3.2045
  869MPD2    N112813   4.544   2.377  17.557 -0.1605  0.2044  0.3476
  869MPD2    H712814   4.582   2.315  17.486  0.4739  1.0742 -0.0756
  870MPD2     C12815   0.113   2.143   1.662 -0.0375  0.1890 -0.2456
  870MPD2    C112816   0.033   2.035   1.626 -0.2558  0.1024  0.0264
  870MPD2    C212817   4.647   2.057   1.558 -0.1757 -0.8358  0.7670
  870MPD2    C312818   4.595   2.185   1.547  0.2568  0.1406 -0.7655
  870MPD2    C412819   4.673   2.287   1.588  0.7882  1.2317  0.2945
  870MPD2    C512820   0.064   2.271   1.640  0.0570  0.6847 -0.0195
  870MPD2     H12821   4.584   1.970   1.542 -0.7134 -0.3025  0.0113
  870MPD2    H112822   4.637   2.389   1.581  0.8996  1.2922  0.6073
  870MPD2    H212823   0.209   2.129   1.710 -0.7715 -0.3181  1.0786
  870MPD2    H312824   0.119   2.353   1.686 -0.9248  0.3735  1.7339
  870MPD2     N12825   4.468   2.202   1.490 -0.0844 -0.9018 -0.9130
  870MPD2    H512826   4.416   2.125   1.449  0.1408 -1.2577 -0.5276
  870MPD2    N112827   0.084   1.908   1.663 -0.4748  0.5855  0.6602
  870MPD2    H712828   0.171   1.909   1.715  0.6342  2.4407 -1.2183
  871MPD2     C12829   1.152   1.701  16.448  0.4599  0.1329  0.4209
  871MPD2    C112830   1.131   1.628  16.562  0.1400 -0.6370  0.0752
  871MPD2    C212831   1.141   1.490  16.565 -0.3198 -0.5694  0.5209
  871MPD2    C312832   1.178   1.426  16.446 -0.1915  0.4770 -1.1327
  871MPD2    C412833   1.194   1.496  16.328 -0.1867 -0.2912  0.2272
  871MPD2    C512834   1.176   1.634  16.329  0.4017  0.2769  0.6960
  871MPD2     H12835   1.117   1.437  16.656  1.5936  0.4014  1.5860
  871MPD2    H112836   1.204   1.443  16.234  1.4711  1.1891 -0.4503
  871MPD2    H212837   1.125   1.806  16.442 -0.3189 -0.0909 -0.0023
  871MPD2    H312838   1.188   1.691  16.238 -0.9377  0.9447  0.9367
  871MPD2     N12839   1.201   1.286  16.450 -0.1572  0.0558 -0.5152
  871MPD2    H512840   1.168   1.235  16.531 -2.3318 -1.3141 -2.2508
  871MPD2    N112841   1.090   1.706  16.679  0.3150 -0.0464  0.2462
  871MPD2    H712842   1.090   1.808  16.672 -0.7067 -0.1020 -0.6667
  872MPD2     C12843   2.056   3.645  14.320  0.1763  0.3658 -0.4863
  872MPD2    C112844   2.040   3.698  14.194 -0.3047 -0.4503  0.0255
  872MPD2    C212845   1.923   3.753  14.164 -0.3243  0.0158 -0.0138
  872MPD2    C312846   1.812   3.743  14.242 -0.0372 -0.6142  0.1716
  872MPD2    C412847   1.820   3.666  14.359  0.3781  0.1022  0.6243
  872MPD2    C512848   1.944   3.607  14.389 -0.0434  0.2507  0.7466
  872MPD2     H12849   1.922   3.804  14.068 -1.4853 -0.9926 -0.5308
  872MPD2    H112850   1.740   3.657  14.431  0.9494  0.9495  1.3581
  872MPD2    H212851   2.149   3.598  14.351 -0.5108 -0.0338  0.9483
  872MPD2    H312852   1.959   3.547  14.478  2.9093 -1.5915 -0.9870
  872MPD2     N12853   1.697   3.822  14.222 -0.1762 -0.4152 -0.1049
  872MPD2    H512854   1.626   3.811  14.294  0.6185 -2.3267  0.3817
  872MPD2    N112855   2.153   3.721  14.113 -0.0730  0.0881 -0.2077
  872MPD2    H712856   2.142   3.776  14.029  1.6566  2.0506  0.8312
  873MPD2     C12857   3.212   3.550   0.525 -0.4203  0.3153 -0.6092
  873MPD2    C112858   3.087   3.557   0.590  0.3716 -0.4833 -0.2769
  873MPD2    C212859   2.982   3.474   0.540 -0.7607 -0.2562  0.5997
  873MPD2    C312860   2.995   3.390   0.436 -0.0423  0.2453 -0.4264
  873MPD2    C412861   3.121   3.393   0.376 -1.0460  0.2633 -0.0671
  873MPD2    C512862   3.226   3.461   0.420  0.2622  0.8358 -0.0068
  873MPD2     H12863   2.888   3.474   0.595 -0.8424 -1.7506  0.4592
  873MPD2    H112864   3.147   3.317   0.303 -1.6641 -1.2412  1.2739
  873MPD2    H212865   3.291   3.615   0.560  0.4437 -0.4239 -1.2142
  873MPD2    H312866   3.322   3.433   0.379  1.0426  1.4577  1.3750
  873MPD2     N12867   2.902   3.302   0.391  0.4664  0.4238 -0.1578
  873MPD2    H512868   2.923   3.246   0.310  1.5931 -1.0530  1.1497
  873MPD2    N112869   3.080   3.646   0.700 -0.5015  0.3415  0.5169
  873MPD2    H712870   3.162   3.696   0.733  1.4221 -1.4237 -1.6011
  874MPD2     C12871   3.114   3.942  16.218 -0.1505 -0.1453  0.1695
  874MPD2    C112872   3.192   3.918  16.328  0.2544 -0.6512 -0.4734
  874MPD2    C212873   3.287   4.005  16.376  0.1367 -0.5171 -0.5312
  874MPD2    C312874   3.316   4.122  16.303  0.1547  0.0974  0.5141
  874MPD2    C412875   3.240   4.147  16.192  0.8663 -0.4069  0.3557
  874MPD2    C512876   3.138   4.056  16.156  0.2101  0.3588 -0.0401
  874MPD2     H12877   3.335   3.987  16.472 -1.6807 -1.0173  0.2739
  874MPD2    H112878   3.267   4.232  16.131  3.4595 -0.8146  0.9603
  874MPD2    H212879   3.037   3.874  16.184  0.1561 -0.7989  0.7678
  874MPD2    H312880   3.072   4.081  16.074  1.1949 -0.0154 -0.9661
  874MPD2     N12881   3.421   4.203  16.336 -0.5700 -0.5279 -0.2497
  874MPD2    H512882   3.474   4.171  16.416 -1.8608 -0.2188  0.7316
  874MPD2    N112883   3.174   3.790  16.388 -0.2351 -0.2283 -1.0529
  874MPD2    H712884   3.095   3.733  16.358 -0.2125 -1.6492  1.6281
  875MPD2     C12885   4.541   2.193  14.324 -0.6924 -0.0453  0.8706
  875MPD2    C112886   4.409   2.220  14.336 -0.4445 -1.0911 -0.0117
  875MPD2    C212887   4.354   2.283  14.447 -0.3621 -0.0572 -0.5546
  875MPD2    C312888   4.437   2.300  14.556 -0.5359  0.4643  0.7134
  875MPD2    C412889   4.567   2.270  14.551 -0.5650  0.5795 -0.0673
  875MPD2    C512890   4.624   2.228  14.428 -0.1798  0.9532 -0.0627
  875MPD2     H12891   4.253   2.320  14.445 -1.1585 -2.1537  0.2082
  875MPD2    H112892   4.631   2.311  14.628 -0.0246 -0.8140  0.2302
  875MPD2    H212893   4.580   2.155  14.230  0.0495  1.6612  0.4928
  875MPD2    H312894   4.729   2.199  14.426  0.1407  2.1405 -0.4767
  875MPD2     N12895   4.384   2.351  14.678  0.6002  0.6271 -0.3118
  875MPD2    H512896   4.453   2.367  14.751 -0.3430  1.4643  0.3985
  875MPD2    N112897   4.318   2.199  14.223  0.3010  0.4124  0.2538
  875MPD2    H712898   4.227   2.242  14.235 -0.3212 -1.5232  2.3506
  876MPD2     C12899   3.335   3.229  15.953  0.2719  0.3503 -0.5191
  876MPD2    C112900   3.467   3.245  15.985  0.4951  0.5322 -0.6235
  876MPD2    C212901   3.537   3.146  16.047 -0.2058 -0.0816 -0.5416
  876MPD2    C312902   3.466   3.029  16.085 -0.1232 -0.6278 -0.5246
  876MPD2    C412903   3.338   3.013  16.047 -0.0695 -0.1710 -0.2978
  876MPD2    C512904   3.270   3.112  15.985  0.6567 -0.5068  0.4605
  876MPD2     H12905   3.642   3.144  16.073  0.1701 -1.1468 -2.1012
  876MPD2    H112906   3.284   2.922  16.069 -0.0220  0.4664  2.4448
  876MPD2    H212907   3.271   3.305  15.909 -0.7054 -1.2327 -1.8407
  876MPD2    H312908   3.166   3.105  15.959  0.9386  0.5996 -0.9859
  876MPD2     N12909   3.535   2.925  16.157 -0.0942  0.3690 -0.1831
  876MPD2    H512910   3.636   2.917  16.158 -0.3181 -2.5172  0.5547
  876MPD2    N112911   3.530   3.367  15.963  0.1070 -0.1980 -0.1047
  876MPD2    H712912   3.478   3.445  15.924 -2.3853 -1.2798  1.0836
  877MPD2     C12913   3.276   3.832  15.556  0.0108  0.0500  0.2385
  877MPD2    C112914   3.405   3.840  15.519 -0.0732  0.7093 -0.6481
  877MPD2    C212915   3.444   3.881  15.394 -0.3193  0.5231 -0.3764
  877MPD2    C312916   3.341   3.910  15.305  0.0098 -0.1263 -0.0431
  877MPD2    C412917   3.212   3.883  15.335  0.0018 -0.1268  0.0374
  877MPD2    C512918   3.179   3.850  15.462  0.4086  0.2141  0.1113
  877MPD2     H12919   3.546   3.871  15.360  0.3293  2.2841  1.0272
  877MPD2    H112920   3.133   3.888  15.262  0.7790  1.4869 -0.6977
  877MPD2    H212921   3.249   3.811  15.659 -1.8712  1.4785  0.0311
  877MPD2    H312922   3.080   3.826  15.497  0.5176 -0.5082 -0.0652
  877MPD2     N12923   3.372   3.948  15.170 -0.5646 -0.6759 -0.8810
  877MPD2    H512924   3.291   3.945  15.109  0.3441  1.3041 -2.1676
  877MPD2    N112925   3.508   3.808  15.607 -0.5378  0.0674 -0.3262
  877MPD2    H712926   3.596   3.788  15.561 -0.0509 -0.5468  0.8764
  878MPD2     C12927   2.554   2.938  13.211 -0.2793  0.0572 -0.0352
  878MPD2    C112928   2.680   2.993  13.215  0.1721  0.3281 -0.1236
  878MPD2    C212929   2.738   3.023  13.342 -0.8040 -0.4125  0.1302
  878MPD2    C312930   2.661   3.014  13.455 -0.0424 -0.2380 -0.5107
  878MPD2    C412931   2.533   2.968  13.446  0.2951 -0.4145  0.2067
  878MPD2    C512932   2.486   2.912  13.328  0.0959 -0.2670  0.2110
  878MPD2     H12933   2.843   3.048  13.353 -1.0959  0.9081 -0.1594
  878MPD2    H112934   2.471   2.951  13.533  1.5397  0.8286  1.3247
  878MPD2    H212935   2.507   2.910  13.116  0.9204 -0.2708 -0.5308
  878MPD2    H312936   2.383   2.878  13.321 -0.0022  0.2616 -0.9248
  878MPD2     N12937   2.713   3.072  13.570 -0.7689  0.7353  0.4883
  878MPD2    H512938   2.804   3.116  13.560 -0.8325  1.1287  1.6602
  878MPD2    N112939   2.753   3.009  13.091 -0.1522 -1.1463 -0.1138
  878MPD2    H712940   2.708   2.981  13.004 -0.8584  1.5804 -0.6369
  879MPD2     C12941   3.627   3.863  17.341 -0.5348 -0.2876 -0.1517
  879MPD2    C112942   3.617   3.962  17.256 -0.5869  0.2456 -0.0781
  879MPD2    C212943   3.536   3.949  17.144  0.4061  1.0164  0.8035
  879MPD2    C312944   3.474   3.825  17.118  0.7421 -0.5342  0.6156
  879MPD2    C412945   3.493   3.723  17.212 -0.1418 -0.2831 -0.2787
  879MPD2    C512946   3.561   3.742  17.326 -1.0600 -0.7610 -0.3012
  879MPD2     H12947   3.534   4.035  17.078  4.5156 -0.8422 -1.7633
  879MPD2    H112948   3.443   3.629  17.192 -3.0000  1.5108 -1.7127
  879MPD2    H212949   3.688   3.858  17.430  1.4196 -0.5562 -1.5144
  879MPD2    H312950   3.578   3.657  17.392  2.7902 -0.4490 -0.9137
  879MPD2     N12951   3.383   3.791  17.019 -0.1469  0.4615 -0.1246
  879MPD2    H512952   3.337   3.701  17.025  0.2010  0.2130 -1.1753
  879MPD2    N112953   3.683   4.078  17.301 -0.3181 -0.4830 -0.2633
  879MPD2    H712954   3.717   4.081  17.397 -1.6313 -0.9289  0.2143
  880MPD2     C12955   4.541   1.414   0.010  0.5563  0.4420  0.1619
  880MPD2    C112956   4.491   1.426   0.136  0.1778  0.1959 -0.2322
  880MPD2    C212957   4.511   1.316   0.222 -0.4724  0.1342  0.2602
  880MPD2    C312958   4.574   1.201   0.188  0.0926 -0.3266 -0.0109
  880MPD2    C412959   4.613   1.184   0.058 -0.5668 -0.7557 -0.5427
  880MPD2    C512960   4.599   1.293  17.711  0.3033  0.9118  0.1640
  880MPD2     H12961   4.486   1.326   0.326  0.1734 -2.2584  0.6551
  880MPD2    H112962   4.664   1.095   0.024  2.4923  0.7557 -0.0234
  880MPD2    H212963   4.521   1.493  17.676  0.0219  0.9700  0.8914
  880MPD2    H312964   4.632   1.277  17.609 -0.1845 -0.2969  0.1979
  880MPD2     N12965   4.591   1.105   0.294 -0.5516  0.9331  0.5786
  880MPD2    H512966   4.577   1.150   0.384  0.2186  1.5277  0.4099
  880MPD2    N112967   4.422   1.541   0.170  0.4036  0.5160 -0.8956
  880MPD2    H712968   4.413   1.613   0.099  1.0676  0.7819 -0.7094
  881MPD2     C12969   0.126   2.404   0.080  0.1837 -0.0339  0.6089
  881MPD2    C112970   0.121   2.274   0.027 -0.0811  0.8230 -0.1894
  881MPD2    C212971   0.037   2.185   0.079 -0.4967  0.0082  0.2676
  881MPD2    C312972   4.698   2.209   0.193  0.4033  0.1098  0.9165
  881MPD2    C412973   4.715   2.331   0.253  0.1693 -0.3198  0.4448
  881MPD2    C512974   0.059   2.429   0.196 -0.1568  0.4936  0.7092
  881MPD2     H12975   0.028   2.090   0.027 -1.0986  0.5617 -0.6371
  881MPD2    H112976   4.662   2.354   0.345  0.6201 -0.7590  0.8156
  881MPD2    H212977   0.171   2.487   0.028 -0.3723 -0.0268  0.1288
  881MPD2    H312978   0.069   2.529   0.236 -0.6201  1.1694 -0.8546
  881MPD2     N12979   4.609   2.122   0.253 -0.0870 -0.4393 -0.2434
  881MPD2    H512980   4.567   2.146   0.342  1.3993 -3.8632  1.3960
  881MPD2    N112981   0.171   2.266  17.632 -0.1940 -0.3897  0.0290
  881MPD2    H712982   0.215   2.352  17.601 -0.1615 -0.6297 -0.5895
  882MPD2     C12983   3.436   3.838  14.369  0.2436 -0.0039 -0.2870
  882MPD2    C112984   3.388   3.846  14.494  0.1764  0.1329 -0.9148
  882MPD2    C212985   3.281   3.766  14.528  0.2848  0.2749  0.6256
  882MPD2    C312986   3.213   3.686  14.440  0.2365 -0.0689  0.1650
  882MPD2    C412987   3.258   3.693  14.313 -0.1979 -0.3398 -0.4944
  882MPD2    C512988   3.365   3.765  14.273 -0.0038 -0.2709 -0.0476
  882MPD2     H12989   3.254   3.760  14.633  3.3423 -0.8737  1.3378
  882MPD2    H112990   3.205   3.646  14.230  1.9711 -1.8624 -1.0130
  882MPD2    H212991   3.525   3.893  14.341  0.0594  0.7930  0.7107
  882MPD2    H312992   3.394   3.756  14.169  0.9001 -0.8132  0.2506
  882MPD2     N12993   3.107   3.609  14.478 -0.2961 -0.0513 -0.1169
  882MPD2    H512994   3.043   3.578  14.407  2.0509 -0.1595 -2.1909
  882MPD2    N112995   3.447   3.931  14.594  0.0865  0.0373 -0.1636
  882MPD2    H712996   3.538   3.968  14.569  0.2506  1.1282  1.9827
  883MPD2     C12997   0.260   3.733  16.138 -0.3151 -0.4233  0.3896
  883MPD2    C112998   0.308   3.854  16.087 -0.5751  0.1258  0.7298
  883MPD2    C212999   0.415   3.918  16.146  0.2122 -0.4087 -0.1427
  883MPD2    C313000   0.470   3.874  16.265 -0.0467  0.1905 -0.0386
  883MPD2    C413001   0.418   3.761  16.324 -0.0668  0.5401 -0.7041
  883MPD2    C513002   0.314   3.689  16.258  0.0138 -0.5232  0.0814
  883MPD2     H13003   0.466   4.002  16.100  0.8811  0.2781  1.8569
  883MPD2    H113004   0.468   3.710  16.406  1.7271  0.2997 -1.9585
  883MPD2    H213005   0.168   3.692  16.098  0.1989 -0.9541 -0.2455
  883MPD2    H313006   0.292   3.595  16.309 -2.7108  0.6380  1.0442
  883MPD2     N13007   0.592   3.933  16.312 -0.3038 -0.0232 -0.3788
  883MPD2    H513008   0.631   4.011  16.261 -0.9173  1.7825  1.9565
  883MPD2    N113009   0.273   3.903  15.961 -0.6018 -0.3457  0.4639
  883MPD2    H713010   0.312   3.993  15.937 -0.0520 -0.4965  0.7865
  884MPD2     C13011   2.828   4.373  15.113 -0.4253 -0.3156 -0.1346
  884MPD2    C113012   2.845   4.466  15.214 -0.3324  0.3942 -0.2003
  884MPD2    C213013   2.739   4.484  15.310  0.1387  0.3503  0.1824
  884MPD2    C313014   2.625   4.417  15.296 -0.4072  0.6373 -0.4415
  884MPD2    C413015   2.616   4.312  15.205 -0.4211  0.4484 -0.7520
  884MPD2    C513016   2.720   4.292  15.118 -0.1107  0.3016  0.0536
  884MPD2     H13017   2.745   4.566  15.380 -0.6082  1.5302 -1.1139
  884MPD2    H113018   2.533   4.243  15.199  0.2396 -0.4975  1.2012
  884MPD2    H213019   2.900   4.348  15.035 -0.2114  1.0244 -0.3643
  884MPD2    H313020   2.719   4.215  15.042 -0.5661  1.1716 -0.8220
  884MPD2     N13021   2.509   4.470  15.371  0.3821  0.4894 -0.4403
  884MPD2    H513022   2.522   4.551  15.431  0.8524 -1.1052  1.6077
  884MPD2    N113023   2.958   4.548  15.221 -0.7085  0.0581  0.2216
  884MPD2    H713024   2.967   4.605  15.305  2.0966  1.2014 -0.8454
  885MPD2     C13025   0.219   0.286   0.137  0.1847  0.2232  0.2030
  885MPD2    C113026   0.349   0.243   0.120  0.4898 -0.1006 -0.0081
  885MPD2    C213027   0.406   0.230  17.738 -0.8629  0.5873  0.3697
  885MPD2    C313028   0.341   0.283  17.620 -0.3047 -0.4665  0.2881
  885MPD2    C413029   0.214   0.338  17.637 -0.3742  0.2107 -0.0662
  885MPD2    C513030   0.159   0.334   0.022  0.2441  0.4367  0.2482
  885MPD2     H13031   0.510   0.198  17.731 -1.1117 -0.0629 -0.3794
  885MPD2    H113032   0.150   0.366  17.554  0.3024 -1.4208 -1.1557
  885MPD2    H213033   0.171   0.278   0.234 -1.1062  0.0090 -0.4538
  885MPD2    H313034   0.060   0.379   0.024 -0.1361 -0.4560  1.5725
  885MPD2     N13035   0.408   0.276  17.497  0.0816 -1.2901 -0.2715
  885MPD2    H513036   0.498   0.228  17.497  0.9774  0.3581  0.3472
  885MPD2    N113037   0.412   0.213   0.250  0.4053  0.3634 -0.0856
  885MPD2    H713038   0.360   0.233   0.335 -1.6650  1.4311 -1.5907
  886MPD2     C13039   2.176   3.091  15.267  0.3608 -0.0734  0.6598
  886MPD2    C113040   2.186   3.145  15.388  0.2941 -0.0253  0.1751
  886MPD2    C213041   2.136   3.266  15.417  0.4071 -0.3886 -0.4224
  886MPD2    C313042   2.076   3.337  15.312  0.5556 -0.4143  0.0343
  886MPD2    C413043   2.064   3.281  15.185  0.5998  0.1827  0.2085
  886MPD2    C513044   2.118   3.161  15.167 -0.3814  0.6846 -0.7030
  886MPD2     H13045   2.155   3.311  15.514  0.6596  1.1529 -1.1918
  886MPD2    H113046   2.020   3.337  15.103  0.2285  1.8144  1.5207
  886MPD2    H213047   2.196   2.988  15.238  1.8742  0.7985 -1.4191
  886MPD2    H313048   2.124   3.113  15.070 -2.0598 -0.8705 -0.0170
  886MPD2     N13049   2.056   3.474  15.324  0.5053 -0.0612  0.6758
  886MPD2    H513050   2.030   3.516  15.236 -0.2650 -1.5664  0.1760
  886MPD2    N113051   2.243   3.068  15.494  0.6544 -0.3878 -0.2244
  886MPD2    H713052   2.227   3.104  15.588 -0.5443  0.9449 -0.9558
  887MPD2     C13053   2.758   3.175  16.010 -0.7020  0.6749  0.5718
  887MPD2    C113054   2.682   3.211  15.903 -0.4918 -0.4392 -0.1286
  887MPD2    C213055   2.702   3.342  15.849 -0.1134  0.1781 -1.0316
  887MPD2    C313056   2.784   3.429  15.907 -0.5919 -0.0265  0.1033
  887MPD2    C413057   2.868   3.383  16.005  0.2239  0.1251  0.3540
  887MPD2    C513058   2.858   3.254  16.051 -0.1233 -0.0191 -0.8278
  887MPD2     H13059   2.632   3.388  15.780 -1.7959 -0.1459  0.4498
  887MPD2    H113060   2.958   3.428  16.044 -0.4983  0.2172  1.8925
  887MPD2    H213061   2.748   3.083  16.067 -0.6742  1.0908  1.2577
  887MPD2    H313062   2.915   3.216  16.135 -0.1651  0.2433 -0.6841
  887MPD2     N13063   2.784   3.570  15.863 -0.1763  0.7017  0.5616
  887MPD2    H513064   2.712   3.588  15.793 -0.3557 -2.7880 -0.1817
  887MPD2    N113065   2.594   3.117  15.833  0.3719 -0.0271 -0.1242
  887MPD2    H713066   2.548   3.146  15.747 -0.0108  1.7826  0.6956
  888MPD2     C13067   4.177   3.314  14.706 -0.1503  0.1833  0.5733
  888MPD2    C113068   4.246   3.336  14.822  0.5375 -0.1163 -0.0596
  888MPD2    C213069   4.338   3.439  14.836 -0.1387 -0.1295  0.8569
  888MPD2    C313070   4.361   3.523  14.727  0.2959 -0.2158 -0.3213
  888MPD2    C413071   4.306   3.486  14.604 -0.4639  0.5135 -0.6113
  888MPD2    C513072   4.217   3.384  14.592 -0.0956 -0.1076 -0.1760
  888MPD2     H13073   4.402   3.451  14.923 -1.2134  1.0621  1.4911
  888MPD2    H113074   4.309   3.548  14.515 -0.1027 -1.2474 -1.8244
  888MPD2    H213075   4.107   3.232  14.700 -0.4218  0.5176 -0.7494
  888MPD2    H313076   4.177   3.364  14.493  0.9572 -2.7175 -0.0798
  888MPD2     N13077   4.429   3.646  14.745 -0.1503 -0.5409 -0.3753
  888MPD2    H513078   4.445   3.663  14.844  1.4756 -1.5755 -0.4677
  888MPD2    N113079   4.232   3.257  14.935 -0.0478  0.0590  0.1060
  888MPD2    H713080   4.282   3.277  15.021  1.2870 -1.3588 -0.3315
  889MPD2     C13081   4.253   3.335  12.834  0.5935  0.5061  0.0981
  889MPD2    C113082   4.176   3.275  12.929  0.1749 -0.6747 -0.3226
  889MPD2    C213083   4.128   3.360  13.030 -0.0756 -0.3075  0.0085
  889MPD2    C313084   4.148   3.499  13.023 -0.5275 -0.1503  0.0243
  889MPD2    C413085   4.225   3.556  12.920  0.5788 -0.6532 -0.7284
  889MPD2    C513086   4.276   3.471  12.828  0.2923  0.9493  0.2243
  889MPD2     H13087   4.060   3.312  13.099 -0.6379  1.2007  0.5057
  889MPD2    H113088   4.232   3.663  12.903  0.1026 -0.6419 -0.8556
  889MPD2    H213089   4.286   3.271  12.753  4.1597  0.4464  1.6154
  889MPD2    H313090   4.327   3.507  12.739 -1.3380  0.1158 -1.0415
  889MPD2     N13091   4.070   3.568  13.118 -0.3760 -0.1042 -0.3595
  889MPD2    H513092   4.019   3.522  13.192 -1.1182  1.7046  0.2612
  889MPD2    N113093   4.160   3.134  12.940  0.5759 -0.1601  0.4076
  889MPD2    H713094   4.102   3.099  13.017  0.4209  1.0364  0.8354
  890MPD2     C13095   3.212   4.593  14.613 -0.3116  0.1080  0.7519
  890MPD2    C113096   3.348   4.612  14.603  0.4068  0.0572  0.4626
  890MPD2    C213097   3.429   4.562  14.700  0.2503 -0.2502 -0.3871
  890MPD2    C313098   3.377   4.496  14.811 -0.5107  0.1064  0.3631
  890MPD2    C413099   3.240   4.483  14.824  0.2397 -0.3756  0.1692
  890MPD2    C513100   3.157   4.531  14.721  0.0624  0.4688 -0.1663
  890MPD2     H13101   3.537   4.570  14.694 -0.0990  1.8438 -3.9433
  890MPD2    H113102   3.192   4.432  14.907  0.1121  0.1524  0.4169
  890MPD2    H213103   3.149   4.628  14.532  0.6322 -3.4343 -1.4728
  890MPD2    H313104   3.049   4.535  14.735  0.3431  0.9893  1.8472
  890MPD2     N13105   3.469   4.438  14.906  0.0759  0.6861  0.8264
  890MPD2    H513106   3.565   4.469  14.899  0.2434 -0.3359 -1.1855
  890MPD2    N113107   3.405   4.656  14.480 -0.0922 -0.0281  0.2315
  890MPD2    H713108   3.333   4.700  14.424 -2.3770 -1.0669  2.3859
  891MPD2     C13109   1.294   2.713  16.662  0.4535 -0.1839  0.3555
  891MPD2    C113110   1.329   2.845  16.661  0.1922 -0.3058 -0.1774
  891MPD2    C213111   1.455   2.880  16.704  0.1814  1.5437 -0.1998
  891MPD2    C313112   1.555   2.788  16.723 -1.0527  0.3264 -0.5428
  891MPD2    C413113   1.518   2.650  16.717 -0.1526  0.5154  0.1589
  891MPD2    C513114   1.383   2.617  16.690 -0.5006 -0.1646 -0.5325
  891MPD2     H13115   1.486   2.983  16.717  0.2324  1.3445  1.1899
  891MPD2    H113116   1.588   2.570  16.742 -0.1866  0.2904 -0.4739
  891MPD2    H213117   1.190   2.683  16.651 -0.3086  1.2742  3.4125
  891MPD2    H313118   1.352   2.514  16.683 -1.8664  0.3037 -1.5327
  891MPD2     N13119   1.683   2.839  16.756 -1.0677 -0.3560  0.6101
  891MPD2    H513120   1.693   2.939  16.771 -0.2483 -0.3453 -0.0215
  891MPD2    N113121   1.233   2.938  16.622  0.5970  0.4577 -0.0399
  891MPD2    H713122   1.136   2.909  16.613  0.3605  1.7877 -1.7625
  892MPD2     C13123   2.637   4.245  14.729 -0.2601  0.2202  0.0940
  892MPD2    C113124   2.556   4.148  14.787 -0.3171 -0.0551  0.2750
  892MPD2    C213125   2.592   4.017  14.780  0.1497  0.3311  0.0740
  892MPD2    C313126   2.697   3.976  14.699  0.0525  0.0623  1.1265
  892MPD2    C413127   2.775   4.073  14.636 -0.3336  0.0962 -0.1242
  892MPD2    C513128   2.743   4.201  14.654  0.0090 -0.2845 -0.4729
  892MPD2     H13129   2.540   3.936  14.828 -1.4730  1.7666  0.7266
  892MPD2    H113130   2.854   4.056  14.564  0.6038 -0.0157  0.9376
  892MPD2    H213131   2.608   4.349  14.727  1.4066  0.6255 -1.8881
  892MPD2    H313132   2.808   4.279  14.614 -0.3640 -0.7566 -2.0151
  892MPD2     N13133   2.724   3.842  14.662  0.2535 -0.3768  0.0366
  892MPD2    H513134   2.812   3.826  14.615  1.0806  1.5573  0.9379
  892MPD2    N113135   2.432   4.189  14.829  0.1830  0.4212  0.0459
  892MPD2    H713136   2.407   4.283  14.800  0.5560  0.8918  1.2745
  893MPD2     C13137   3.295   1.893   0.647 -0.1732  0.7084 -0.3978
  893MPD2    C113138   3.392   1.916   0.738  0.6801  0.1437  0.6162
  893MPD2    C213139   3.412   1.823   0.841  0.1418  0.5441  0.7755
  893MPD2    C313140   3.338   1.714   0.861 -0.0896  0.2578 -0.6585
  893MPD2    C413141   3.247   1.683   0.769  0.0785 -0.7079 -0.0162
  893MPD2    C513142   3.223   1.774   0.666 -0.7806  0.6924  0.1691
  893MPD2     H13143   3.496   1.847   0.905 -0.4091  3.6346  0.3619
  893MPD2    H113144   3.189   1.592   0.767 -4.3550  2.1471 -0.7147
  893MPD2    H213145   3.280   1.967   0.569 -0.1768  1.2570  0.1272
  893MPD2    H313146   3.140   1.752   0.599  0.9281 -0.4349 -1.5631
  893MPD2     N13147   3.368   1.621   0.963 -0.2130  0.4617  0.1146
  893MPD2    H513148   3.333   1.526   0.955  0.1023  0.4515 -1.0891
  893MPD2    N113149   3.467   2.037   0.718 -0.0665  0.1170  0.7439
  893MPD2    H713150   3.462   2.078   0.625 -0.4934  2.8054  1.9306
  894MPD2     C13151   1.908   4.554   1.247  0.5135  0.2301 -0.0217
  894MPD2    C113152   1.837   4.667   1.277  0.4713 -0.3513  0.0197
  894MPD2    C213153   1.889   0.057   1.239 -0.1241 -0.5421 -0.6564
  894MPD2    C313154   2.008   0.063   1.171 -0.6622 -0.1233  0.5239
  894MPD2    C413155   2.079   4.680   1.145  0.0114  0.2993  0.0474
  894MPD2    C513156   2.024   4.560   1.182 -0.1313  0.6233  0.3131
  894MPD2     H13157   1.839   0.149   1.267  0.7055 -0.3363  0.1346
  894MPD2    H113158   2.176   4.676   1.098 -1.0119 -0.2836 -2.0317
  894MPD2    H213159   1.873   4.457   1.280  1.7681 -0.4882 -0.7776
  894MPD2    H313160   2.061   4.470   1.133 -0.8871  2.2650 -3.2370
  894MPD2     N13161   2.070   0.191   1.146  0.9775 -0.1813 -0.6085
  894MPD2    H513162   2.027   0.279   1.174  1.7423 -0.0549  0.1727
  894MPD2    N113163   1.726   4.672   1.356  0.0139 -0.1007 -0.2957
  894MPD2    H713164   1.700   0.028   1.395  1.0348  0.0031  0.1262
  895MPD2     C13165   1.975   3.464  13.938  0.3873  0.8794  0.1476
  895MPD2    C113166   1.961   3.454  13.801 -0.4194  0.9174 -0.9325
  895MPD2    C213167   1.910   3.334  13.753 -0.0138  0.1496 -0.5185
  895MPD2    C313168   1.886   3.225  13.838  0.5543 -0.6300  0.1123
  895MPD2    C413169   1.897   3.237  13.975  0.2090  0.4579  0.2006
  895MPD2    C513170   1.936   3.360  14.019  0.4571  0.5026  0.4524
  895MPD2     H13171   1.886   3.328  13.648 -1.1248 -1.1320 -0.1765
  895MPD2    H113172   1.871   3.167  14.053  1.6826 -0.2984  0.0002
  895MPD2    H213173   2.014   3.557  13.977 -0.6498  1.4780 -0.2239
  895MPD2    H313174   1.936   3.379  14.126 -2.6404  1.2149  0.2984
  895MPD2     N13175   1.834   3.105  13.778 -0.2096 -0.7102  0.1696
  895MPD2    H513176   1.805   3.036  13.848  0.3590 -2.1656 -1.0287
  895MPD2    N113177   1.971   3.558  13.707  0.1186  0.7654 -0.6862
  895MPD2    H713178   1.933   3.543  13.614 -0.9044  0.5891 -0.2365
  896MPD2     C13179   3.668   0.904   2.110 -0.0561  0.2540 -0.2397
  896MPD2    C113180   3.652   0.917   1.974  0.4002 -0.1843  0.4683
  896MPD2    C213181   3.537   0.859   1.922 -0.0094 -0.5276 -0.0652
  896MPD2    C313182   3.451   0.788   2.006 -0.2691 -0.9446  0.4682
  896MPD2    C413183   3.473   0.775   2.137  0.1406  0.4407 -0.0359
  896MPD2    C513184   3.582   0.829   2.193  0.0393 -0.7512  0.2576
  896MPD2     H13185   3.520   0.857   1.815  0.8913  1.5562 -0.2592
  896MPD2    H113186   3.406   0.722   2.205  0.0055  1.0767  0.3286
  896MPD2    H213187   3.757   0.946   2.156 -1.1795 -0.3893  2.5596
  896MPD2    H313188   3.592   0.813   2.300  0.9119 -0.0269  0.2881
  896MPD2     N13189   3.336   0.724   1.946  0.0314  0.0062  0.2801
  896MPD2    H513190   3.325   0.737   1.846 -0.8747 -0.1136  0.3655
  896MPD2    N113191   3.752   0.982   1.894 -0.2908 -0.3919  0.0677
  896MPD2    H713192   3.835   1.010   1.946 -0.2701 -0.7277  0.2146
  897MPD2     C13193   0.556   3.215  10.907  0.2470  0.5633  0.4592
  897MPD2    C113194   0.442   3.238  10.834  0.4482 -0.3101  0.7939
  897MPD2    C213195   0.320   3.242  10.910  0.5782  0.9498 -0.5854
  897MPD2    C313196   0.318   3.218  11.041  0.2262  0.0245  0.5976
  897MPD2    C413197   0.441   3.189  11.112  0.2316  0.0066 -0.2388
  897MPD2    C513198   0.560   3.187  11.044 -0.3573 -0.0228 -0.3393
  897MPD2     H13199   0.227   3.282  10.870 -0.1461 -0.5348 -0.4136
  897MPD2    H113200   0.449   3.177  11.220  1.3191  0.1838 -0.3036
  897MPD2    H213201   0.646   3.215  10.847 -0.1559  0.7265 -0.1540
  897MPD2    H313202   0.659   3.171  11.086 -0.0847  1.1555 -0.5453
  897MPD2     N13203   0.194   3.225  11.111  0.5290 -0.7177 -0.8895
  897MPD2    H513204   0.108   3.236  11.058 -0.0751  0.2605  0.2779
  897MPD2    N113205   0.450   3.264  10.696 -0.1741  0.0687  0.9097
  897MPD2    H713206   0.544   3.274  10.659 -1.7075 -0.7293 -3.2148
  898MPD2     C13207   1.313   3.291   0.018 -0.5629 -0.0242 -0.5857
  898MPD2    C113208   1.428   3.264   0.081 -0.3721 -0.0869  0.5034
  898MPD2    C213209   1.514   3.369   0.093  0.2787 -0.1923 -0.0249
  898MPD2    C313210   1.490   3.488   0.034  0.3432  0.0863  0.8620
  898MPD2    C413211   1.374   3.515  17.700  0.3567  0.2712 -0.0965
  898MPD2    C513212   1.280   3.414  17.688  0.1500 -0.5886  0.3133
  898MPD2     H13213   1.596   3.359   0.163  1.4998 -3.0143 -1.8735
  898MPD2    H113214   1.349   3.608  17.650 -1.1688 -1.3221 -2.3235
  898MPD2    H213215   1.234   3.217   0.020  0.2128 -0.7984  0.7187
  898MPD2    H313216   1.186   3.430  17.636 -1.1340 -1.5077  2.3502
  898MPD2     N13217   1.594   3.585   0.050 -0.1083  0.4651  0.2274
  898MPD2    H513218   1.670   3.562   0.113 -0.9534  0.1793  1.1468
  898MPD2    N113219   1.461   3.137   0.142 -0.2905 -0.2355  0.2328
  898MPD2    H713220   1.556   3.128   0.176 -0.1132 -0.3948 -0.2976
  899MPD2     C13221   2.731   3.818  17.224 -0.1767 -0.5360  0.0466
  899MPD2    C113222   2.800   3.899  17.313 -0.6000  0.4000  0.0083
  899MPD2    C213223   2.781   3.880  17.448  0.1767  0.2484 -0.0622
  899MPD2    C313224   2.681   3.796  17.489  0.0547  0.5849  0.3749
  899MPD2    C413225   2.616   3.713  17.397 -0.1314 -1.2300 -0.1247
  899MPD2    C513226   2.629   3.731  17.269 -0.1843  0.3393  0.0934
  899MPD2     H13227   2.823   3.959  17.508  0.9392  0.7897 -1.2976
  899MPD2    H113228   2.553   3.633  17.434 -1.4921 -0.6981 -1.3155
  899MPD2    H213229   2.724   3.835  17.117  2.1183 -0.6776 -0.1272
  899MPD2    H313230   2.580   3.674  17.191  0.1421  0.1512  0.0279
  899MPD2     N13231   2.647   3.785  17.621 -0.0207 -0.6953 -0.4543
  899MPD2    H513232   2.550   3.755  17.631 -0.1684 -0.2614 -0.5486
  899MPD2    N113233   2.863   4.006  17.251  0.1812  0.1796  0.2901
  899MPD2    H713234   2.840   4.032  17.156  0.6087 -1.3608 -0.2326
  900MPD2     C13235   3.492   0.814  12.442  1.4606  0.5596  0.0415
  900MPD2    C113236   3.365   0.770  12.479  0.2992  0.2570 -0.0013
  900MPD2    C213237   3.267   0.843  12.423  0.3498  0.3674 -0.6269
  900MPD2    C313238   3.291   0.938  12.323  0.0636  0.0913 -0.8498
  900MPD2    C413239   3.410   0.972  12.278 -0.2612 -0.0668 -0.3420
  900MPD2    C513240   3.517   0.911  12.348 -0.6529 -0.4575 -0.0269
  900MPD2     H13241   3.162   0.823  12.441  0.3174  0.4881 -0.6843
  900MPD2    H113242   3.438   1.030  12.190  0.4076  1.3731  0.8313
  900MPD2    H213243   3.579   0.775  12.493  0.2859  0.9887  2.3607
  900MPD2    H313244   3.621   0.932  12.327 -1.3692  0.9275 -2.2074
  900MPD2     N13245   3.172   0.991  12.270  0.5018  0.4284 -0.1190
  900MPD2    H513246   3.082   0.958  12.304  1.7896 -1.8983  1.0263
  900MPD2    N113247   3.343   0.669  12.577 -0.1916 -1.0109 -0.2106
  900MPD2    H713248   3.424   0.619  12.613  0.6972  0.6718  0.1436
  901MPD2     C13249   2.791   4.588  12.807  0.1711  0.0055  0.1333
  901MPD2    C113250   2.930   4.580  12.824  0.0730  0.5743 -0.2355
  901MPD2    C213251   2.988   4.695  12.871 -0.0208  0.3881 -0.8663
  901MPD2    C313252   2.920   0.086  12.866  0.1571  0.1349  0.5303
  901MPD2    C413253   2.784   0.087  12.850  0.2268 -0.3855  0.5822
  901MPD2    C513254   2.722   4.706  12.823 -0.0085 -0.8638 -0.4839
  901MPD2     H13255   3.095   4.698  12.888 -0.2698  1.4743  0.4808
  901MPD2    H113256   2.726   0.177  12.836 -0.4388 -0.9580 -0.3844
  901MPD2    H213257   2.729   4.504  12.778  0.4686 -0.5160  1.0281
  901MPD2    H313258   2.615   4.710  12.806 -0.0527 -0.0221 -0.0138
  901MPD2     N13259   3.001   0.203  12.875 -0.4847  0.0202 -0.3584
  901MPD2    H513260   3.099   0.188  12.895 -0.8615 -4.3957 -1.8678
  901MPD2    N113261   2.996   4.461  12.802  0.3271 -1.0328  0.2262
  901MPD2    H713262   2.938   4.396  12.750 -3.2865  1.5066  1.1259
  902MPD2     C13263   1.866   3.370  12.622 -0.0443 -0.2986  0.0254
  902MPD2    C113264   1.954   3.457  12.683  0.1378 -0.0981 -0.5386
  902MPD2    C213265   2.091   3.422  12.686 -0.1310  0.3787  0.1988
  902MPD2    C313266   2.139   3.311  12.621  0.7766  0.4478 -0.9401
  902MPD2    C413267   2.048   3.222  12.563  0.7247 -0.2245  0.6708
  902MPD2    C513268   1.912   3.250  12.574  0.2208 -0.4026  0.2904
  902MPD2     H13269   2.160   3.494  12.729 -0.5879 -1.0248  3.2769
  902MPD2    H113270   2.083   3.124  12.532  2.5881  0.4618  0.5915
  902MPD2    H213271   1.759   3.380  12.632  0.0062  0.2694 -0.0497
  902MPD2    H313272   1.837   3.178  12.542 -0.2989  0.7663 -1.0926
  902MPD2     N13273   2.276   3.301  12.584  0.5103  0.0184  0.7062
  902MPD2    H513274   2.298   3.229  12.516  1.0124  1.4128 -0.6138
  902MPD2    N113275   1.920   3.587  12.736 -0.2206  0.5150  0.3191
  902MPD2    H713276   1.996   3.648  12.762  0.5188 -0.0850 -0.4236
  903MPD2     C13277   2.352   3.538  11.862 -0.7542 -1.0142  0.5836
  903MPD2    C113278   2.311   3.590  11.982  0.6942  0.5142 -0.5341
  903MPD2    C213279   2.175   3.617  11.995 -0.5108  0.1699 -0.5477
  903MPD2    C313280   2.074   3.591  11.898 -0.0476  0.0691 -0.3001
  903MPD2    C413281   2.122   3.544  11.783  0.4846 -0.0706 -0.2971
  903MPD2    C513282   2.258   3.517  11.764 -0.6303 -0.6136 -0.1818
  903MPD2     H13283   2.147   3.659  12.091 -0.4752  0.6202 -0.7332
  903MPD2    H113284   2.063   3.519  11.696  2.7263 -3.1928 -0.9397
  903MPD2    H213285   2.456   3.512  11.845 -0.5562  0.5913 -0.6988
  903MPD2    H313286   2.292   3.482  11.667 -0.7039 -1.3661  0.0578
  903MPD2     N13287   1.941   3.634  11.919  0.1371 -0.0943 -0.4652
  903MPD2    H513288   1.921   3.676  12.009 -1.9016  3.8198 -2.7418
  903MPD2    N113289   2.405   3.593  12.084 -0.5588  0.0986 -0.5748
  903MPD2    H713290   2.501   3.574  12.058  0.0421  1.9298  0.2350
  904MPD2     C13291   1.274   2.405  14.498 -0.1582  0.2631 -0.3034
  904MPD2    C113292   1.313   2.532  14.467  0.1252  0.1072 -0.0785
  904MPD2    C213293   1.446   2.561  14.443 -0.5973  0.4613 -0.1838
  904MPD2    C313294   1.534   2.456  14.428 -0.0480 -0.3098  1.3979
  904MPD2    C413295   1.497   2.331  14.479 -0.0459  0.0175 -0.3526
  904MPD2    C513296   1.369   2.308  14.502  0.7161  0.0930 -0.3714
  904MPD2     H13297   1.480   2.654  14.398 -6.3919  1.8541 -1.5992
  904MPD2    H113298   1.566   2.250  14.500 -0.1537  0.3373  1.2683
  904MPD2    H213299   1.175   2.371  14.525 -0.4027 -0.2519 -1.8487
  904MPD2    H313300   1.341   2.206  14.524  3.0604  0.6165  4.9326
  904MPD2     N13301   1.656   2.476  14.358 -0.0678  0.1061 -0.6499
  904MPD2    H513302   1.674   2.564  14.312 -1.7198  0.8979  0.2109
  904MPD2    N113303   1.216   2.634  14.457 -0.1615  0.1103  0.4091
  904MPD2    H713304   1.121   2.600  14.452  0.2416 -0.9219 -0.3854
  905MPD2     C13305   1.123   2.625  13.829 -0.1360  0.1926  0.0077
  905MPD2    C113306   1.189   2.740  13.876 -0.3616 -0.1689  0.4909
  905MPD2    C213307   1.294   2.781  13.804 -0.6853 -0.1203 -0.2542
  905MPD2    C313308   1.344   2.712  13.694 -1.0025 -0.0377  0.4309
  905MPD2    C413309   1.273   2.600  13.651 -0.1102 -0.0012 -0.9624
  905MPD2    C513310   1.171   2.556  13.718 -0.0308  0.4961 -0.3740
  905MPD2     H13311   1.351   2.870  13.829  1.5584 -1.8252  0.6821
  905MPD2    H113312   1.298   2.540  13.564  0.6923  0.1828 -0.8584
  905MPD2    H213313   1.036   2.585  13.880  0.3210 -1.0354 -0.1838
  905MPD2    H313314   1.110   2.474  13.682  0.5774 -0.9027  1.8006
  905MPD2     N13315   1.457   2.766  13.624  0.4675 -0.4369 -0.0020
  905MPD2    H513316   1.493   2.854  13.658 -0.7530  0.1443 -0.2101
  905MPD2    N113317   1.148   2.806  13.994  0.4007 -0.0048 -0.3167
  905MPD2    H713318   1.078   2.745  14.035  0.1921 -1.2427 -2.4617
  906MPD2     C13319   3.621   3.042  11.380  0.4643 -0.4660 -0.4998
  906MPD2    C113320   3.601   2.984  11.261 -0.5537 -0.1501  0.1732
  906MPD2    C213321   3.553   2.853  11.266 -1.4145 -0.6659 -0.2303
  906MPD2    C313322   3.509   2.774  11.370  0.2052  0.0324  0.1337
  906MPD2    C413323   3.517   2.844  11.486 -0.2571  0.4511 -0.1169
  906MPD2    C513324   3.575   2.972  11.492  0.7623 -0.7726 -0.4681
  906MPD2     H13325   3.546   2.814  11.165  2.2750  0.0055 -0.7262
  906MPD2    H113326   3.490   2.808  11.585 -2.5162  0.3205 -0.7709
  906MPD2    H213327   3.668   3.138  11.395 -0.0528  0.0209 -2.0032
  906MPD2    H313328   3.580   3.020  11.589 -1.8452 -0.4979 -0.4867
  906MPD2     N13329   3.477   2.639  11.366  0.0769 -0.7096 -0.1356
  906MPD2    H513330   3.441   2.602  11.454 -0.6160  1.0573  0.3119
  906MPD2    N113331   3.638   3.038  11.132  0.3793 -0.8754  0.4322
  906MPD2    H713332   3.657   2.979  11.051  2.1165  1.3531 -0.7780
  907MPD2     C13333   2.444   1.973  16.030  0.0440 -0.3060  0.0543
  907MPD2    C113334   2.481   1.848  15.971 -0.2663  0.4444 -0.4211
  907MPD2    C213335   2.565   1.765  16.035 -0.4949 -0.4278 -0.4729
  907MPD2    C313336   2.612   1.796  16.161  0.9929 -0.1070 -0.0328
  907MPD2    C413337   2.582   1.917  16.218  0.3531 -0.6292  0.1861
  907MPD2    C513338   2.497   2.001  16.154  0.7241  0.4681 -0.3229
  907MPD2     H13339   2.595   1.671  15.991  1.3434  0.1401 -0.4427
  907MPD2    H113340   2.623   1.953  16.312  0.0429  0.4224 -0.0794
  907MPD2    H213341   2.397   2.055  15.978 -1.2699 -0.4282  1.0337
  907MPD2    H313342   2.487   2.100  16.198 -1.7201  0.0829  0.0126
  907MPD2     N13343   2.700   1.707  16.220  0.3751 -0.2551 -0.2654
  907MPD2    H513344   2.724   1.628  16.160 -0.8755 -1.7642  1.2328
  907MPD2    N113345   2.449   1.816  15.837 -0.0903 -0.1931  0.0653
  907MPD2    H713346   2.468   1.723  15.801 -1.2689 -0.6520  0.6131
  908MPD2     C13347   0.016   3.001   9.790 -0.5262  0.1658  0.0593
  908MPD2    C113348   0.069   2.908   9.878 -0.3782 -0.4773 -0.4735
  908MPD2    C213349   0.130   2.953   9.994  0.1715 -0.2441 -0.5454
  908MPD2    C313350   0.163   3.088  10.008  0.1952  0.5818 -0.6326
  908MPD2    C413351   0.130   3.175   9.903 -0.2344  0.0958 -0.5696
  908MPD2    C513352   0.047   3.136   9.803 -1.0204 -0.1372 -0.5717
  908MPD2     H13353   0.171   2.888  10.071  0.2762  1.3364  0.7383
  908MPD2    H113354   0.160   3.279   9.905  0.4322 -0.0921 -0.8586
  908MPD2    H213355   4.688   2.976   9.706 -2.0711 -0.2376  1.3265
  908MPD2    H313356   0.015   3.208   9.728 -0.2728  0.6032 -0.1958
  908MPD2     N13357   0.231   3.136  10.121  0.1224 -0.0259 -0.5184
  908MPD2    H513358   0.252   3.066  10.192 -2.0022  0.9253  1.0482
  908MPD2    N113359   0.053   2.774   9.839  0.4191 -0.3231 -0.2624
  908MPD2    H713360   0.023   2.759   9.743 -1.7564 -0.7944  0.4881
  909MPD2     C13361   0.637   1.012  11.472 -0.1014 -0.9303 -0.0699
  909MPD2    C113362   0.562   1.130  11.492  0.3609  0.4872 -0.8112
  909MPD2    C213363   0.508   1.142  11.623  0.0465 -0.6909  0.2575
  909MPD2    C313364   0.519   1.046  11.721 -1.0548  1.0825  0.4128
  909MPD2    C413365   0.571   0.927  11.687 -0.0888  0.2871  0.1963
  909MPD2    C513366   0.641   0.920  11.563 -1.0471 -0.0097  1.0320
  909MPD2     H13367   0.482   1.238  11.667  3.1331  1.2259 -2.0641
  909MPD2    H113368   0.577   0.844  11.756  4.1412 -2.5871 -3.6299
  909MPD2    H213369   0.686   0.986  11.379 -0.2944 -0.5737 -0.2723
  909MPD2    H313370   0.695   0.830  11.539 -0.8390  0.0214  1.3869
  909MPD2     N13371   0.477   1.077  11.852 -0.1312 -0.3809 -0.9461
  909MPD2    H513372   0.439   1.170  11.862 -0.6375 -0.5441 -1.3581
  909MPD2    N113373   0.560   1.238  11.395  0.5415 -0.2029 -0.1254
  909MPD2    H713374   0.528   1.328  11.432  0.0237  0.7161 -2.7963
  910MPD2     C13375   1.935   2.613  16.481  0.5219 -0.0338 -0.4502
  910MPD2    C113376   1.977   2.547  16.366 -0.5843 -0.2099  0.4894
  910MPD2    C213377   1.936   2.586  16.240  0.0492  0.2186  0.6463
  910MPD2    C313378   1.824   2.673  16.232  0.0174  0.7216  0.1883
  910MPD2    C413379   1.778   2.731  16.347 -0.2683 -0.2671 -0.3201
  910MPD2    C513380   1.844   2.713  16.462  0.0208 -0.0797  0.1009
  910MPD2     H13381   1.976   2.536  16.153 -1.1002  0.7922 -0.2168
  910MPD2    H113382   1.695   2.801  16.335  1.8257  2.1280 -0.8161
  910MPD2    H213383   1.967   2.602  16.584  0.5007 -1.2449 -0.5789
  910MPD2    H313384   1.805   2.776  16.541  1.3707 -0.5972  1.1835
  910MPD2     N13385   1.753   2.691  16.111 -0.6688  0.0890 -0.2485
  910MPD2    H513386   1.681   2.762  16.120 -2.4619 -1.9044  1.0277
  910MPD2    N113387   2.056   2.427  16.362 -0.2177  0.3749 -0.0779
  910MPD2    H713388   2.091   2.398  16.272  0.0500  2.4615 -0.6603
  911MPD2     C13389   4.595   3.122  16.164 -0.1510  0.2033 -0.3848
  911MPD2    C113390   4.566   3.116  16.307  0.1800 -0.3767  0.1995
  911MPD2    C213391   4.482   3.215  16.361 -0.4049 -0.1585 -0.3535
  911MPD2    C313392   4.420   3.311  16.278 -0.3657  0.3723 -0.2519
  911MPD2    C413393   4.448   3.319  16.145  0.4855  0.1122  0.0016
  911MPD2    C513394   4.531   3.215  16.089  0.1111 -0.3785  0.0709
  911MPD2     H13395   4.472   3.223  16.469 -1.6104 -0.4434 -0.4510
  911MPD2    H113396   4.407   3.398  16.082  2.4182  0.6133 -0.6209
  911MPD2    H213397   4.656   3.050  16.111 -2.1286 -1.5414 -0.2732
  911MPD2    H313398   4.543   3.218  15.981  1.1534 -0.4332  0.1899
  911MPD2     N13399   4.348   3.414  16.352 -0.3695 -0.0985  0.0583
  911MPD2    H513400   4.368   3.414  16.452  1.4388  0.5810 -0.3041
  911MPD2    N113401   4.644   3.018  16.382  0.1161 -0.1131  0.0602
  911MPD2    H713402   4.699   2.958  16.322 -1.0419 -2.2730  1.1333
  912MPD2     C13403   4.388   3.046  15.841  0.1803 -0.5596  0.2743
  912MPD2    C113404   4.281   3.041  15.925  0.0957 -0.1349  0.7243
  912MPD2    C213405   4.263   2.921  15.993  0.7858 -0.3809  0.5890
  912MPD2    C313406   4.351   2.819  15.980 -0.5703  0.7756 -0.6858
  912MPD2    C413407   4.459   2.827  15.893  0.0753 -0.0785 -0.2450
  912MPD2    C513408   4.482   2.949  15.829 -0.2218  0.3775 -0.1681
  912MPD2     H13409   4.189   2.903  16.070 -2.0821  2.5765 -1.4118
  912MPD2    H113410   4.531   2.748  15.877 -0.8871 -0.8591 -0.7322
  912MPD2    H213411   4.411   3.140  15.791 -1.3788 -1.0412 -1.3004
  912MPD2    H313412   4.570   2.953  15.766 -0.8767 -1.4844 -1.1912
  912MPD2     N13413   4.339   2.712  16.067 -0.2526 -0.4526 -0.1623
  912MPD2    H513414   4.275   2.730  16.143 -0.9361 -4.1060  0.1192
  912MPD2    N113415   4.204   3.159  15.935 -0.2068  0.0366  0.2419
  912MPD2    H713416   4.249   3.239  15.890  0.7950 -0.9710 -0.5574
  913MPD2     C13417   0.626   4.202  10.573  0.0614 -0.5984  0.3769
  913MPD2    C113418   0.618   4.299  10.670 -0.3996 -0.3978  0.5071
  913MPD2    C213419   0.528   4.404  10.662  0.1125  0.1279  0.0775
  913MPD2    C313420   0.442   4.414  10.556  0.1441 -0.9517  0.3456
  913MPD2    C413421   0.448   4.319  10.461 -0.1450  0.0900 -0.5934
  913MPD2    C513422   0.542   4.214  10.464 -0.6664 -0.1795  0.4748
  913MPD2     H13423   0.517   4.469  10.747 -2.1450 -1.0007  0.6575
  913MPD2    H113424   0.380   4.335  10.378 -2.5991 -0.4329  1.3358
  913MPD2    H213425   0.694   4.118  10.571  0.8265  0.0554 -1.2977
  913MPD2    H313426   0.557   4.157  10.373  0.0153 -1.7367  1.5550
  913MPD2     N13427   0.359   4.521  10.537 -0.2932  0.4614 -0.1902
  913MPD2    H513428   0.314   4.529  10.447  1.4101 -1.1277 -1.1828
  913MPD2    N113429   0.701   4.277  10.776  0.3633  0.1339 -0.7610
  913MPD2    H713430   0.743   4.187  10.790  0.3588  0.3048  0.3020
  914MPD2     C13431   3.100   4.268  12.004 -0.2004 -0.3574 -0.4515
  914MPD2    C113432   3.066   4.371  12.085 -0.2298  0.1442  0.4444
  914MPD2    C213433   3.101   4.367  12.222  0.5894  0.2628 -0.4514
  914MPD2    C313434   3.152   4.248  12.278 -0.2595  0.0021  0.0267
  914MPD2    C413435   3.180   4.140  12.191 -0.5328 -0.5760  0.6478
  914MPD2    C513436   3.161   4.156  12.058 -0.5652 -0.0264 -0.4849
  914MPD2     H13437   3.074   4.447  12.290 -0.0913 -0.1080 -0.2843
  914MPD2    H113438   3.233   4.050  12.223  0.7509  0.2679  0.8825
  914MPD2    H213439   3.092   4.272  11.896  0.7318  2.1150 -0.4200
  914MPD2    H313440   3.202   4.077  11.996  2.5157  1.7289 -0.6928
  914MPD2     N13441   3.185   4.241  12.414  0.3156 -0.0707  0.2303
  914MPD2    H513442   3.191   4.332  12.460  0.1799 -0.1150  0.3361
  914MPD2    N113443   3.005   4.479  12.028 -0.5033 -0.5566 -0.0220
  914MPD2    H713444   3.000   4.474  11.926 -0.0247  0.2619 -0.0860
  915MPD2     C13445   0.910   4.344  15.892  0.0088 -0.0567 -0.9914
  915MPD2    C113446   0.784   4.388  15.864 -0.0668  0.1305  0.0417
  915MPD2    C213447   0.701   4.446  15.962  0.3766  0.2282 -0.3924
  915MPD2    C313448   0.763   4.501  16.074 -0.3640 -0.7567  0.1650
  915MPD2    C413449   0.898   4.462  16.094 -0.1049 -1.0192 -0.1658
  915MPD2    C513450   0.968   4.387  16.009  0.0888 -0.2342  0.3099
  915MPD2     H13451   0.597   4.471  15.942  0.7407  1.9718 -0.0959
  915MPD2    H113452   0.950   4.492  16.184  0.1575 -0.4811 -0.4940
  915MPD2    H213453   0.970   4.300  15.813  1.7611  1.8087 -0.7234
  915MPD2    H313454   1.073   4.359  16.008 -0.7717 -3.4610 -1.1271
  915MPD2     N13455   0.685   4.576  16.162 -0.2256  0.1330  0.1222
  915MPD2    H513456   0.596   4.610  16.126 -1.4843 -2.7419  0.4828
  915MPD2    N113457   0.727   4.353  15.737  0.3949 -0.5648 -0.3376
  915MPD2    H713458   0.782   4.292  15.677  2.4360  0.2583  0.7253
  916MPD2     C13459   4.025   2.720  15.876 -0.3697 -0.5279  0.2089
  916MPD2    C113460   3.992   2.632  15.974  0.1224  0.0390  0.5663
  916MPD2    C213461   4.035   2.499  15.968  0.0931 -0.3447 -0.0486
  916MPD2    C313462   4.099   2.452  15.858 -0.1608 -0.4749  0.4461
  916MPD2    C413463   4.127   2.540  15.754  0.1525 -0.3722  0.3197
  916MPD2    C513464   4.095   2.673  15.771  0.2190  0.4745  0.0674
  916MPD2     H13465   3.998   2.429  16.042  0.8892 -0.6867  0.0206
  916MPD2    H113466   4.175   2.506  15.664  1.4865  0.2054  0.8153
  916MPD2    H213467   4.002   2.826  15.871  1.1198 -0.0993  2.2321
  916MPD2    H313468   4.107   2.746  15.692 -0.5611 -0.2462 -0.7210
  916MPD2     N13469   4.128   2.317  15.843 -0.8656  0.3151  0.0595
  916MPD2    H513470   4.109   2.257  15.922  1.5904 -0.9501 -0.2954
  916MPD2    N113471   3.916   2.677  16.090  0.0821 -0.1111 -0.6873
  916MPD2    H713472   3.873   2.770  16.087  1.5059  0.5227 -1.4718
  917MPD2     C13473   3.695   0.163  11.102  0.2925  0.5999 -0.0391
  917MPD2    C113474   3.746   0.214  11.216 -0.2116 -0.4081 -0.1169
  917MPD2    C213475   3.830   0.324  11.205 -0.1023  0.4497 -0.2102
  917MPD2    C313476   3.851   0.394  11.087  0.1352  0.2003  0.4046
  917MPD2    C413477   3.784   0.348  10.979 -0.4899  0.0935  0.0020
  917MPD2    C513478   3.710   0.232  10.989 -0.4884 -1.3439 -0.3969
  917MPD2     H13479   3.872   0.368  11.295  2.4422  2.2141 -2.2671
  917MPD2    H113480   3.794   0.411  10.891 -1.2311 -0.2522 -0.3236
  917MPD2    H213481   3.630   0.077  11.103  1.0816 -0.0099 -2.1497
  917MPD2    H313482   3.656   0.194  10.903  2.5157 -1.4681 -2.2256
  917MPD2     N13483   3.922   0.520  11.073 -0.5456 -0.0241  0.2832
  917MPD2    H513484   3.913   0.573  10.987 -0.5577 -0.2480  0.1467
  917MPD2    N113485   3.717   0.152  11.341 -0.1656 -0.6124 -0.8834
  917MPD2    H713486   3.657   0.071  11.333 -0.1787 -0.7188  0.2278
  918MPD2     C13487   3.710   0.595  12.221 -0.4227 -0.0487  0.3217
  918MPD2    C113488   3.813   0.551  12.137 -0.1560 -0.5400  0.0905
  918MPD2    C213489   3.798   0.443  12.057 -0.5826  0.4012 -0.1539
  918MPD2    C313490   3.673   0.382  12.040  0.0897 -0.7437 -0.7985
  918MPD2    C413491   3.572   0.425  12.119 -0.2501  0.1223 -1.3072
  918MPD2    C513492   3.590   0.531  12.209  1.1629 -0.3579  0.2941
  918MPD2     H13493   3.887   0.413  12.002 -0.4045  0.4985  0.0812
  918MPD2    H113494   3.472   0.385  12.112 -0.5211  0.5389  0.2863
  918MPD2    H213495   3.723   0.669  12.299  2.3006 -0.9289  0.6930
  918MPD2    H313496   3.508   0.557  12.275  0.4104 -1.1771 -0.2999
  918MPD2     N13497   3.662   0.301  11.935  0.3150  0.4363 -0.1943
  918MPD2    H513498   3.736   0.289  11.866 -1.3119 -3.7392 -1.1974
  918MPD2    N113499   3.946   0.600  12.152  0.2478 -0.3086 -0.3205
  918MPD2    H713500   4.007   0.559  12.083 -1.7704 -0.2622 -2.1538
  919MPD2     C13501   0.272   4.342  11.832  0.6420  0.1958  0.0427
  919MPD2    C113502   0.353   4.248  11.775  0.4973  0.2839  0.5469
  919MPD2    C213503   0.379   4.264  11.636 -0.3944  0.2553 -0.0544
  919MPD2    C313504   0.332   4.375  11.559 -0.3972 -0.3124 -0.4174
  919MPD2    C413505   0.256   4.463  11.619  0.3800  1.1167 -0.7346
  919MPD2    C513506   0.224   4.443  11.751 -0.3452 -0.1173  0.1001
  919MPD2     H13507   0.426   4.183  11.581  0.9794  0.3203  1.0404
  919MPD2    H113508   0.211   4.543  11.561  0.2147  1.5978  0.0733
  919MPD2    H213509   0.248   4.343  11.938 -0.7526  3.1401 -0.3035
  919MPD2    H313510   0.168   4.525  11.794  0.0036  0.0555  0.2215
  919MPD2     N13511   0.365   4.400  11.423  0.4849  0.0349  0.4444
  919MPD2    H513512   0.326   4.485  11.382 -0.4568 -0.4902  0.2562
  919MPD2    N113513   0.397   4.131  11.839  0.0521  1.0487  0.9519
  919MPD2    H713514   0.440   4.055  11.787  0.4724  1.7626  0.2634
  920MPD2     C13515   4.695   0.237  10.828 -0.1395 -0.6554  0.4524
  920MPD2    C113516   4.663   0.118  10.779  0.2085  0.2489 -0.5053
  920MPD2    C213517   4.732   0.005  10.825  0.3452 -0.0219 -0.5504
  920MPD2    C313518   0.100   0.014  10.916 -0.5655  0.0891  0.3170
  920MPD2    C413519   0.119   0.138  10.974  0.1113 -0.2894  1.0770
  920MPD2    C513520   0.056   0.246  10.927  0.6857  0.1731  0.6431
  920MPD2     H13521   4.704   4.646  10.779 -0.6040  0.3254 -0.6958
  920MPD2    H113522   0.192   0.151  11.054 -1.5431 -3.0049  3.0474
  920MPD2    H213523   4.642   0.328  10.800  1.1331 -0.6400 -1.9579
  920MPD2    H313524   0.049   0.344  10.973  2.7358  1.2499 -1.3256
  920MPD2     N13525   0.169   4.633  10.944  0.0609  0.4115  0.0182
  920MPD2    H513526   0.131   4.549  10.900  0.2032  2.0927 -3.2932
  920MPD2    N113527   4.561   0.095  10.683  0.4836 -0.5898 -0.4594
  920MPD2    H713528   4.530   0.001  10.663 -1.8419  0.0075  0.4309
  921MPD2     C13529   0.553   3.401  16.800 -0.1848 -0.0952 -0.4394
  921MPD2    C113530   0.600   3.287  16.753  1.0058 -0.2202  0.4153
  921MPD2    C213531   0.512   3.181  16.745 -0.0518  0.6913  0.1169
  921MPD2    C313532   0.381   3.195  16.790  0.0587 -0.4109  0.3155
  921MPD2    C413533   0.338   3.320  16.839 -0.0539  0.7830 -0.0405
  921MPD2    C513534   0.420   3.422  16.843  0.4906  0.0020  0.1613
  921MPD2     H13535   0.543   3.094  16.688 -1.1673  0.6887 -0.4717
  921MPD2    H113536   0.234   3.342  16.864 -0.6408 -0.3635 -1.4263
  921MPD2    H213537   0.615   3.489  16.810  1.7779 -1.4096 -1.1146
  921MPD2    H313538   0.398   3.514  16.896 -0.2954 -0.3398  0.4392
  921MPD2     N13539   0.282   3.087  16.781  0.4707  0.4093 -0.5165
  921MPD2    H513540   0.184   3.110  16.794 -0.0990 -1.7287 -1.0262
  921MPD2    N113541   0.733   3.281  16.699  0.2127 -0.0009  0.1911
  921MPD2    H713542   0.787   3.366  16.706  0.5289 -0.1094 -0.8985
  922MPD2     C13543   1.555   1.142  17.025 -0.2002  0.4216  0.3797
  922MPD2    C113544   1.518   1.200  17.148 -0.3806  0.1222 -0.4125
  922MPD2    C213545   1.406   1.153  17.212  0.4872  0.5772  0.3925
  922MPD2    C313546   1.335   1.044  17.167 -0.0181  0.3279  0.4264
  922MPD2    C413547   1.381   0.975  17.053 -0.5857  0.0109 -0.8121
  922MPD2    C513548   1.485   1.033  16.988 -0.8603 -0.4041  1.1871
  922MPD2     H13549   1.357   1.194  17.300  0.9471 -0.8353  1.3059
  922MPD2    H113550   1.332   0.888  17.013  0.3317 -0.7653 -0.2452
  922MPD2    H213551   1.637   1.184  16.968  0.9985  0.0783  1.8377
  922MPD2    H313552   1.515   0.980  16.898 -0.6387 -0.3211  1.2118
  922MPD2     N13553   1.219   1.000  17.231  0.1854  0.1409 -0.5877
  922MPD2    H513554   1.164   1.074  17.273 -0.1577  0.6986 -2.0132
  922MPD2    N113555   1.578   1.312  17.205 -0.8274 -0.1097 -0.5890
  922MPD2    H713556   1.551   1.321  17.302 -0.5131  0.1376 -0.5259
  923MPD2     C13557   2.448   3.159   9.452  0.4903  0.6719 -0.4328
  923MPD2    C113558   2.397   3.215   9.570  0.4248 -0.1068 -0.3731
  923MPD2    C213559   2.480   3.243   9.676  0.0744  0.0791 -0.1448
  923MPD2    C313560   2.618   3.231   9.659  0.2909  0.4299  0.3278
  923MPD2    C413561   2.670   3.181   9.542 -0.1023 -0.6008  0.0668
  923MPD2    C513562   2.585   3.146   9.440  0.5097  0.3763  0.2401
  923MPD2     H13563   2.442   3.267   9.775 -0.4525 -0.8999 -0.1063
  923MPD2    H113564   2.776   3.159   9.531  0.2661  1.1492  0.0985
  923MPD2    H213565   2.386   3.133   9.367  1.6144  0.3752 -1.1615
  923MPD2    H313566   2.627   3.110   9.346 -2.2375 -0.4952 -0.6562
  923MPD2     N13567   2.709   3.269   9.761 -0.0917  0.5078  0.4173
  923MPD2    H513568   2.807   3.255   9.737  0.1025 -0.3277  1.6844
  923MPD2    N113569   2.256   3.237   9.578 -0.0351 -0.3858  0.4684
  923MPD2    H713570   2.198   3.207   9.500  1.4684  0.3180 -0.9333
  924MPD2     C13571   2.643   0.960  16.077 -0.1038  0.1217 -0.2319
  924MPD2    C113572   2.637   0.982  16.218  0.2191 -0.0056 -0.2102
  924MPD2    C213573   2.732   1.065  16.278 -0.4515  0.0491  0.0333
  924MPD2    C313574   2.818   1.143  16.201  0.0925  0.5880  0.1988
  924MPD2    C413575   2.823   1.112  16.067  0.6223  0.5630 -0.2895
  924MPD2    C513576   2.741   1.020  16.007 -0.9556 -0.2346 -0.4102
  924MPD2     H13577   2.714   1.085  16.383  1.6559  1.2404  0.1655
  924MPD2    H113578   2.902   1.155  16.007  1.2456 -0.3118 -0.0997
  924MPD2    H213579   2.575   0.895  16.022 -1.8425  1.2426  0.5756
  924MPD2    H313580   2.750   0.993  15.902 -0.3115  0.7707 -0.6191
  924MPD2     N13581   2.889   1.247  16.270 -0.0503  0.6314 -0.2759
  924MPD2    H513582   2.883   1.251  16.371 -2.8011  0.1674 -0.4359
  924MPD2    N113583   2.525   0.923  16.277  0.2546 -0.4730 -0.1615
  924MPD2    H713584   2.463   0.875  16.213 -1.0996  1.6976 -0.4681
  925MPD2     C13585   1.041   4.307  14.479 -0.4807  0.8184  0.8343
  925MPD2    C113586   1.116   4.190  14.496 -0.7577  0.3140  0.2990
  925MPD2    C213587   1.103   4.109  14.608 -0.5707  0.0322 -0.0926
  925MPD2    C313588   1.015   4.145  14.710  0.2246 -0.8267  0.7316
  925MPD2    C413589   0.935   4.257  14.693  0.5202 -0.7605 -0.0301
  925MPD2    C513590   0.947   4.337  14.581 -0.2565 -0.6897 -0.0740
  925MPD2     H13591   1.157   4.017  14.622  0.0311  0.6927  1.9082
  925MPD2    H113592   0.857   4.277  14.766 -0.9025  0.3616 -1.8472
  925MPD2    H213593   1.043   4.370  14.391  1.3120 -0.4265 -0.0369
  925MPD2    H313594   0.870   4.413  14.573  0.2461  0.1544  3.0836
  925MPD2     N13595   0.989   4.075  14.833 -0.2697 -0.1121  0.3860
  925MPD2    H513596   0.932   4.125  14.900 -0.1345  1.1092 -0.4081
  925MPD2    N113597   1.207   4.160  14.384  0.0251 -0.6946  0.2352
  925MPD2    H713598   1.197   4.205  14.293 -1.5009  1.2919  1.3836
  926MPD2     C13599   0.635   2.124  13.355 -0.7403 -0.1433  0.1276
  926MPD2    C113600   0.521   2.197  13.325  0.1483 -0.3979 -0.8131
  926MPD2    C213601   0.539   2.286  13.219 -0.1816  0.2059  0.5304
  926MPD2    C313602   0.659   2.299  13.149 -0.0160  0.5361  0.8890
  926MPD2    C413603   0.766   2.231  13.192  0.8794 -0.5066  0.4689
  926MPD2    C513604   0.754   2.142  13.297 -0.2600  0.1355 -0.2361
  926MPD2     H13605   0.455   2.345  13.186  0.5859  0.7910 -0.3704
  926MPD2    H113606   0.861   2.242  13.140  0.7621  1.3863  0.6576
  926MPD2    H213607   0.641   2.050  13.434 -3.2366 -0.2170  0.2471
  926MPD2    H313608   0.846   2.102  13.339  0.3648  0.9851 -0.7983
  926MPD2     N13609   0.668   2.384  13.034  0.1228 -0.5620  0.1588
  926MPD2    H513610   0.747   2.379  12.970 -2.2877 -1.9347 -2.6572
  926MPD2    N113611   0.393   2.174  13.369  0.5681  0.0518 -0.4316
  926MPD2    H713612   0.323   2.237  13.332  0.5934 -0.3330 -1.1367
  927MPD2     C13613   4.138   0.154  17.310 -0.1251  0.9660  0.1619
  927MPD2    C113614   4.217   0.089  17.392 -0.8337  0.0012 -0.1948
  927MPD2    C213615   4.353   0.102  17.383 -0.8765 -0.0876  0.4706
  927MPD2    C313616   4.408   0.162  17.277 -0.1028 -1.0723  0.2798
  927MPD2    C413617   4.325   0.210  17.180  0.0123 -0.1502  0.1070
  927MPD2    C513618   4.189   0.213  17.197  0.2025  0.2108 -0.1206
  927MPD2     H13619   4.414   0.077  17.469  1.0967  1.0494 -0.6034
  927MPD2    H113620   4.364   0.253  17.088 -0.2909  0.7805  0.4248
  927MPD2    H213621   4.032   0.151  17.331 -0.1742  0.0320 -0.2028
  927MPD2    H313622   4.119   0.251  17.123 -0.7131 -0.4405  0.4119
  927MPD2     N13623   4.551   0.156  17.277 -0.3492 -0.3806  0.4249
  927MPD2    H513624   4.594   0.101  17.351  1.2041  0.6028  0.2495
  927MPD2    N113625   4.162   0.005  17.488  0.6575 -0.6953 -0.6662
  927MPD2    H713626   4.061   0.014  17.487  0.9029  2.1384 -0.5441
  928MPD2     C13627   2.056   1.949   0.426 -0.2532  0.5162 -0.1499
  928MPD2    C113628   2.151   1.989   0.516  0.0425  0.6607 -0.3001
  928MPD2    C213629   2.253   2.073   0.479  0.0622  0.2897 -0.1309
  928MPD2    C313630   2.273   2.107   0.347  0.0151  0.0289 -0.5315
  928MPD2    C413631   2.180   2.068   0.257 -0.3691 -0.1400  0.1558
  928MPD2    C513632   2.073   1.994   0.301  0.0806 -0.3047 -0.0807
  928MPD2     H13633   2.333   2.094   0.549 -0.0930  1.3695 -0.2765
  928MPD2    H113634   2.189   2.093   0.152 -0.8615 -0.9818 -0.0886
  928MPD2    H213635   1.978   1.877   0.450 -2.1013  2.0365 -1.6443
  928MPD2    H313636   2.005   1.961   0.223  1.1562 -2.3090 -0.1824
  928MPD2     N13637   2.379   2.187   0.303  0.2950  0.1942 -0.2275
  928MPD2    H513638   2.377   2.217   0.206 -0.5486 -1.0899 -0.6178
  928MPD2    N113639   2.141   1.956   0.655 -0.9651 -0.3206  0.1128
  928MPD2    H713640   2.214   1.986   0.720  0.4360 -0.3070 -1.4575
  929MPD2     C13641   2.782   3.122  10.722 -0.4756  0.3925  0.3287
  929MPD2    C113642   2.818   3.014  10.639 -0.2305  1.0649  0.1272
  929MPD2    C213643   2.784   3.024  10.507 -0.4868  0.8872 -0.4673
  929MPD2    C313644   2.717   3.136  10.452 -0.5287  0.4281  0.0149
  929MPD2    C413645   2.700   3.249  10.535 -0.5777 -0.0034 -0.8699
  929MPD2    C513646   2.730   3.242  10.669  0.5793  0.3628 -0.2267
  929MPD2     H13647   2.797   2.938  10.443 -1.4582  1.9049 -2.0395
  929MPD2    H113648   2.665   3.341  10.489  0.9179  1.0603  0.0950
  929MPD2    H213649   2.812   3.120  10.826 -0.5868 -1.8929  0.3032
  929MPD2    H313650   2.721   3.336  10.723 -1.6067  0.8882 -1.5264
  929MPD2     N13651   2.681   3.153  10.318 -0.4489 -0.2205 -0.1620
  929MPD2    H513652   2.622   3.232  10.296 -0.3624  0.5427  2.3176
  929MPD2    N113653   2.882   2.899  10.694 -0.0048  0.2043  0.0519
  929MPD2    H713654   2.909   2.904  10.792 -0.2620 -1.0279  0.1765
  930MPD2     C13655   4.302   0.303  14.152 -0.4901 -0.0214  0.8894
  930MPD2    C113656   4.415   0.352  14.085  0.3079 -0.5061 -0.7779
  930MPD2    C213657   4.423   0.323  13.951  0.2028 -0.1288  0.5517
  930MPD2    C313658   4.338   0.239  13.888  0.5744  0.0354  0.2202
  930MPD2    C413659   4.234   0.186  13.951 -0.5266  0.2960  0.3464
  930MPD2    C513660   4.218   0.219  14.086 -0.2288 -0.0331  0.3597
  930MPD2     H13661   4.506   0.362  13.892  0.7300  1.1302  2.1221
  930MPD2    H113662   4.157   0.123  13.908 -1.8992 -0.1405  3.4058
  930MPD2    H213663   4.277   0.329  14.254 -0.2739  1.2715  0.6172
  930MPD2    H313664   4.130   0.184  14.140 -0.7341 -1.3788 -1.3474
  930MPD2     N13665   4.358   0.206  13.754  0.2680  0.1639  0.2594
  930MPD2    H513666   4.276   0.166  13.710  0.4625 -1.1044  1.0691
  930MPD2    N113667   4.498   0.451  14.151 -0.3387 -0.4416  0.1707
  930MPD2    H713668   4.466   0.473  14.244  1.4194  1.6437  0.2805
  931MPD2     C13669   4.538   4.250   0.275 -0.5138  0.9550  0.3856
  931MPD2    C113670   4.399   4.254   0.285  0.3279  0.5793 -0.1571
  931MPD2    C213671   4.346   4.180   0.386 -0.0320 -0.1951 -0.5974
  931MPD2    C313672   4.419   4.094   0.468  0.1962 -0.0016 -0.5456
  931MPD2    C413673   4.557   4.083   0.447  0.2128 -0.7040 -0.4094
  931MPD2    C513674   4.611   4.158   0.346 -0.0958 -0.5114 -0.0569
  931MPD2     H13675   4.238   4.169   0.385  0.0685 -1.1977 -0.7519
  931MPD2    H113676   4.613   4.004   0.496  0.6067 -0.6703 -0.8066
  931MPD2    H213677   4.583   4.307   0.195  1.7018 -1.1023  0.1873
  931MPD2    H313678   4.713   4.131   0.319 -0.2347 -1.4048  0.3251
  931MPD2     N13679   4.360   3.998   0.555  0.3294  0.3238  0.4072
  931MPD2    H513680   4.412   3.913   0.574 -1.0546 -0.0436  2.4167
  931MPD2    N113681   4.316   4.321   0.185 -0.7218  0.7659  0.1789
  931MPD2    H713682   4.364   4.355   0.102 -1.2546 -0.1527 -0.5023
  932MPD2     C13683   1.804   3.341  11.265  0.3626 -0.2586 -0.7902
  932MPD2    C113684   1.869   3.460  11.304  0.4649 -0.3452 -0.1772
  932MPD2    C213685   2.008   3.458  11.297  0.1205 -0.4955 -0.0757
  932MPD2    C313686   2.081   3.349  11.257 -0.6010  0.6470  0.1171
  932MPD2    C413687   2.018   3.233  11.208 -0.3326  0.2557  0.0338
  932MPD2    C513688   1.878   3.231  11.221 -0.7244 -0.4300 -0.1651
  932MPD2     H13689   2.061   3.548  11.327  1.4432 -0.7957 -1.4709
  932MPD2    H113690   2.071   3.143  11.180  0.9761  1.0833 -0.1447
  932MPD2    H213691   1.696   3.339  11.251  0.2994  1.3775 -0.5295
  932MPD2    H313692   1.824   3.139  11.204  1.5976 -1.8119  0.0058
  932MPD2     N13693   2.220   3.342  11.257 -0.3730  0.2519  0.2611
  932MPD2    H513694   2.251   3.248  11.234  1.6951  1.2920 -1.1840
  932MPD2    N113695   1.809   3.576  11.357 -0.0569  0.0555  0.2392
  932MPD2    H713696   1.878   3.647  11.379  0.9455 -0.9621  0.4220
  933MPD2     C13697   1.535   1.829   1.264 -0.2405 -0.6326 -0.4743
  933MPD2    C113698   1.595   1.929   1.185 -0.0350 -0.1299  0.0249
  933MPD2    C213699   1.537   2.056   1.182  0.3013  0.9245 -0.0745
  933MPD2    C313700   1.419   2.082   1.245  0.4282 -0.1961 -0.6481
  933MPD2    C413701   1.362   1.985   1.327 -0.2609  0.4795 -0.6567
  933MPD2    C513702   1.416   1.861   1.326 -0.3639 -0.2307  0.0248
  933MPD2     H13703   1.578   2.137   1.121 -1.8429  0.6434 -1.9106
  933MPD2    H113704   1.269   1.995   1.382 -0.3639 -0.3020 -0.6903
  933MPD2    H213705   1.578   1.730   1.272  1.0353  0.0873  1.5392
  933MPD2    H313706   1.375   1.794   1.402  0.0013 -2.9672 -2.2021
  933MPD2     N13707   1.371   2.214   1.220 -0.5939 -0.3875  0.4258
  933MPD2    H513708   1.415   2.275   1.153 -2.2328  0.1983 -0.1102
  933MPD2    N113709   1.714   1.911   1.114  0.2989 -0.2220  0.5909
  933MPD2    H713710   1.739   1.970   1.036  0.1447 -0.0038  0.7077
  934MPD2     C13711   3.480   0.435   2.107  0.2398  0.6193 -0.0077
  934MPD2    C113712   3.527   0.422   1.978  0.4993  0.2525  0.6938
  934MPD2    C213713   3.459   0.341   1.890  0.6647  1.2452  0.4318
  934MPD2    C313714   3.356   0.262   1.928 -0.3247 -0.0002 -0.2664
  934MPD2    C413715   3.311   0.272   2.057  0.3297  0.0234  0.6194
  934MPD2    C513716   3.366   0.365   2.138 -0.6404 -0.2342 -0.0729
  934MPD2     H13717   3.503   0.335   1.791  0.3882 -2.4397  0.5416
  934MPD2    H113718   3.225   0.224   2.102 -0.9103  1.1084 -0.5787
  934MPD2    H213719   3.524   0.493   2.187  2.2211 -1.1344  0.1830
  934MPD2    H313720   3.326   0.373   2.239  2.1342  2.2728  0.8134
  934MPD2     N13721   3.296   0.159   1.852  0.2452  0.0608  0.0924
  934MPD2    H513722   3.211   0.125   1.896  0.5115 -0.5566  0.1333
  934MPD2    N113723   3.636   0.490   1.930  0.3528  0.3092  0.3693
  934MPD2    H713724   3.647   0.483   1.830  0.4361  2.2016  0.2284
  935MPD2     C13725   3.645   4.199   1.271  0.3777  0.5327 -0.6066
  935MPD2    C113726   3.522   4.231   1.208  0.3158  0.5218 -0.0730
  935MPD2    C213727   3.424   4.295   1.280  0.4755  0.0033 -0.3781
  935MPD2    C313728   3.444   4.333   1.409  0.1494  0.3787 -0.5495
  935MPD2    C413729   3.558   4.296   1.470 -0.1439 -0.4520 -0.5608
  935MPD2    C513730   3.660   4.231   1.399 -0.6285 -0.5391 -0.2376
  935MPD2     H13731   3.330   4.322   1.234 -0.0184 -1.1913 -0.0765
  935MPD2    H113732   3.577   4.319   1.574  2.2307  2.0198 -1.5317
  935MPD2    H213733   3.729   4.159   1.216 -0.3603  1.3680 -2.3627
  935MPD2    H313734   3.755   4.204   1.443 -1.9949 -0.8483  2.5302
  935MPD2     N13735   3.354   4.417   1.484 -0.5153 -0.4741  0.1775
  935MPD2    H513736   3.388   4.438   1.577  1.9994  0.3141 -0.9114
  935MPD2    N113737   3.486   4.178   1.079 -0.2260 -0.1383 -0.4117
  935MPD2    H713738   3.389   4.195   1.053 -0.1678 -0.4926 -0.8611
  936MPD2     C13739   1.903   2.036  12.311  0.0470 -0.0797 -0.6435
  936MPD2    C113740   1.970   1.948  12.397 -0.3142 -0.5888  0.1238
  936MPD2    C213741   2.027   1.997  12.506  0.9851  0.1217 -0.4317
  936MPD2    C313742   2.028   2.133  12.539 -0.1455 -0.5126 -0.0206
  936MPD2    C413743   1.957   2.223  12.457  0.0128 -0.0543  0.1728
  936MPD2    C513744   1.893   2.167  12.345 -0.0762  0.2027  0.2327
  936MPD2     H13745   2.081   1.927  12.570 -0.8874 -1.9762 -1.1712
  936MPD2    H113746   1.947   2.327  12.485 -0.6280 -0.4721  1.4705
  936MPD2    H213747   1.859   2.003  12.217  0.0203  0.6940 -0.9081
  936MPD2    H313748   1.843   2.236  12.278  1.0195  0.8720  0.1028
  936MPD2     N13749   2.095   2.185  12.653  0.3320  0.4344 -0.6826
  936MPD2    H513750   2.106   2.286  12.647  1.2066  0.4279  0.8216
  936MPD2    N113751   1.976   1.811  12.371  0.2021  0.2541  0.1322
  936MPD2    H713752   2.050   1.764  12.421  0.4004 -1.1842 -1.4773
  937MPD2     C13753   0.767   3.531  11.698 -0.3899  0.9078 -0.4666
  937MPD2    C113754   0.765   3.668  11.705 -0.4890  0.5198 -0.1241
  937MPD2    C213755   0.798   3.727  11.586  0.2790  0.1913  0.1849
  937MPD2    C313756   0.865   3.662  11.480  0.0618 -0.4505 -0.1222
  937MPD2    C413757   0.876   3.523  11.485 -0.0537  0.6412 -0.6030
  937MPD2    C513758   0.819   3.465  11.594 -0.3790  0.0629 -0.8228
  937MPD2     H13759   0.780   3.833  11.574  0.7455 -0.0409 -2.6173
  937MPD2    H113760   0.924   3.464  11.407  0.9930 -0.8557  1.1823
  937MPD2    H213761   0.726   3.469  11.778 -1.8026  0.4278 -1.5542
  937MPD2    H313762   0.830   3.357  11.582  1.8245 -0.1054  2.5722
  937MPD2     N13763   0.904   3.737  11.367  0.0431  0.3923 -0.1222
  937MPD2    H513764   0.879   3.834  11.379 -0.9473 -0.1214  1.8517
  937MPD2    N113765   0.673   3.739  11.791  0.6350  0.2695  0.0310
  937MPD2    H713766   0.646   3.832  11.758 -0.5467  0.8835  2.7216
  938MPD2     C13767   2.430   4.450   0.666 -0.4648 -0.0551  0.3037
  938MPD2    C113768   2.436   4.504   0.797 -0.3502  0.7004 -0.4150
  938MPD2    C213769   2.410   4.420   0.908 -0.2370 -0.3918 -0.6629
  938MPD2    C313770   2.357   4.292   0.887  0.5547 -0.3828 -0.1467
  938MPD2    C413771   2.343   4.249   0.756  0.1787 -0.0362  0.2827
  938MPD2    C513772   2.379   4.323   0.647  0.2325 -0.8736  0.1823
  938MPD2     H13773   2.412   4.467   1.006 -0.2108  0.0973 -0.8943
  938MPD2    H113774   2.293   4.158   0.727 -0.2469  0.3469 -0.1910
  938MPD2    H213775   2.459   4.502   0.576 -0.4928  0.9392  0.8608
  938MPD2    H313776   2.366   4.275   0.551 -0.7976 -0.8944  0.3352
  938MPD2     N13777   2.282   4.223   0.985  0.2649  0.3937 -0.2587
  938MPD2    H513778   2.239   4.135   0.957 -2.3961  0.6675  2.9383
  938MPD2    N113779   2.484   4.634   0.833  0.0178 -0.0059 -0.8514
  938MPD2    H713780   2.503   4.659   0.929 -0.8011  1.4977 -1.0866
  939MPD2     C13781   3.153   0.369   1.026  0.0895 -0.0738  0.0817
  939MPD2    C113782   3.233   0.478   0.996  0.0588 -0.6993  0.6513
  939MPD2    C213783   3.309   0.475   0.875 -0.2670  0.2693  0.6037
  939MPD2    C313784   3.290   0.372   0.781  0.3095  1.2622  0.4768
  939MPD2    C413785   3.216   0.262   0.823  0.0756  0.0141 -0.1335
  939MPD2    C513786   3.146   0.266   0.939 -0.2000 -0.5587  0.3458
  939MPD2     H13787   3.367   0.561   0.843 -1.1319  0.3409 -0.7993
  939MPD2    H113788   3.200   0.178   0.756 -1.0105  0.1857 -0.0932
  939MPD2    H213789   3.085   0.365   1.110  1.2694  0.4113  1.0536
  939MPD2    H313790   3.086   0.179   0.965 -1.2006  0.5398  1.6892
  939MPD2     N13791   3.363   0.380   0.656  0.1358  0.6213 -0.4728
  939MPD2    H513792   3.425   0.456   0.629  0.1512  1.3111  1.5762
  939MPD2    N113793   3.246   0.577   1.095 -0.8153 -0.6371 -0.4868
  939MPD2    H713794   3.182   0.566   1.172 -0.2201 -0.2239  0.0694
  940MPD2     C13795   2.081   2.076  13.733 -0.8646 -0.2117 -0.4506
  940MPD2    C113796   2.149   1.970  13.796 -1.1870  0.6947  0.3194
  940MPD2    C213797   2.285   1.954  13.779  0.3132 -0.1009 -0.3123
  940MPD2    C313798   2.359   2.046  13.708  0.9765  0.0700 -0.2349
  940MPD2    C413799   2.289   2.149  13.647 -0.5049  0.1702 -0.1877
  940MPD2    C513800   2.148   2.162  13.653 -0.0577  0.3690 -0.5629
  940MPD2     H13801   2.335   1.868  13.822  1.8587  0.5227 -0.8658
  940MPD2    H113802   2.339   2.226  13.590 -0.1003  0.3625  0.4280
  940MPD2    H213803   1.973   2.087  13.740 -0.8672 -0.1697 -0.5574
  940MPD2    H313804   2.098   2.237  13.593 -0.5201  0.7803  0.3234
  940MPD2     N13805   2.502   2.040  13.686  0.1147 -0.2016 -0.0081
  940MPD2    H513806   2.533   2.089  13.603  0.9379 -0.2592  0.2700
  940MPD2    N113807   2.077   1.862  13.861  0.3778 -0.0551 -0.1690
  940MPD2    H713808   2.135   1.786  13.896  3.0015  0.7432 -2.8610
  941MPD2     C13809   1.540   1.399   9.978 -0.4370 -0.7037 -0.0368
  941MPD2    C113810   1.675   1.379   9.965 -0.3033  0.0428  0.4991
  941MPD2    C213811   1.747   1.314  10.056 -0.2065 -0.7944  0.2991
  941MPD2    C313812   1.673   1.256  10.167 -0.1335  0.1693  0.0907
  941MPD2    C413813   1.540   1.277  10.182 -0.9490 -0.8216 -0.2394
  941MPD2    C513814   1.475   1.346  10.084 -0.6505  0.2311  0.3870
  941MPD2     H13815   1.852   1.303  10.030 -0.8711 -1.7869 -1.9906
  941MPD2    H113816   1.489   1.244  10.271 -1.2191 -1.5924 -0.6878
  941MPD2    H213817   1.480   1.469   9.920 -0.0446  0.5468  1.0659
  941MPD2    H313818   1.376   1.384  10.104 -0.5613  0.6348  0.0666
  941MPD2     N13819   1.737   1.179  10.268 -0.5006 -0.0403  0.2919
  941MPD2    H513820   1.680   1.162  10.350  1.4507  1.3177  1.9314
  941MPD2    N113821   1.755   1.425   9.851  0.0014  0.2963  0.0030
  941MPD2    H713822   1.854   1.402   9.861  0.4860  3.1827  1.9481
  942MPD2     C13823   0.774   2.259   9.395  0.6049  0.1087 -0.5080
  942MPD2    C113824   0.676   2.281   9.483  1.2030  0.0648  0.1737
  942MPD2    C213825   0.626   2.406   9.510  0.3783  0.0531  0.3080
  942MPD2    C313826   0.669   2.509   9.428 -0.3102  0.1001 -0.5980
  942MPD2    C413827   0.776   2.489   9.332  0.3285 -0.1113  0.0079
  942MPD2    C513828   0.822   2.362   9.320 -1.2042 -0.3423 -0.0002
  942MPD2     H13829   0.535   2.417   9.568  1.2377  0.0456  1.6586
  942MPD2    H113830   0.823   2.567   9.274  0.2455 -0.7050 -0.8450
  942MPD2    H213831   0.815   2.160   9.378 -4.8575 -2.2925  0.1947
  942MPD2    H313832   0.905   2.345   9.252 -0.8039 -0.5563  0.5350
  942MPD2     N13833   0.623   2.646   9.439  0.7199 -0.2945  0.3722
  942MPD2    H513834   0.673   2.719   9.389 -1.7279  0.6351 -0.7313
  942MPD2    N113835   0.624   2.174   9.558 -0.5229  0.5785  0.3097
  942MPD2    H713836   0.560   2.204   9.631 -0.8149 -1.0700  0.7272
  943MPD2     C13837   1.010   1.186  10.086  0.2840 -0.0782 -0.0088
  943MPD2    C113838   0.955   1.158  10.209  0.0182 -0.0403 -0.6455
  943MPD2    C213839   1.041   1.107  10.305  0.3036  0.1672 -0.1745
  943MPD2    C313840   1.177   1.075  10.282 -0.1860  0.7376  0.7687
  943MPD2    C413841   1.225   1.100  10.154  0.0175 -0.2711  0.7634
  943MPD2    C513842   1.143   1.160  10.061  0.0268 -0.6142 -0.1587
  943MPD2     H13843   1.014   1.105  10.410 -0.0518 -2.0544 -0.3139
  943MPD2    H113844   1.329   1.095  10.123 -0.5352  1.7106 -1.4489
  943MPD2    H213845   0.954   1.230  10.005 -2.6232  0.3065  2.2174
  943MPD2    H313846   1.175   1.173   9.958 -0.4139 -1.7892 -0.4427
  943MPD2     N13847   1.252   1.012  10.386  1.2047  0.1931  0.1107
  943MPD2    H513848   1.210   0.993  10.477  4.3126 -0.8067  1.3293
  943MPD2    N113849   0.814   1.166  10.236  0.0563 -0.6960 -1.1097
  943MPD2    H713850   0.755   1.178  10.155 -0.5076 -1.1579 -0.7675
  944MPD2     C13851   0.538   0.363  11.144  0.3425  0.0474 -0.0553
  944MPD2    C113852   0.572   0.499  11.143  0.7914  0.2317 -0.2467
  944MPD2    C213853   0.469   0.595  11.147  0.2938 -0.4116 -0.1382
  944MPD2    C313854   0.336   0.554  11.151  0.3894  0.3323 -0.2191
  944MPD2    C413855   0.301   0.419  11.158 -0.8763 -0.2688 -0.4443
  944MPD2    C513856   0.404   0.325  11.153  0.6288  0.2529  0.7152
  944MPD2     H13857   0.493   0.701  11.152  0.4119 -0.4068 -0.8331
  944MPD2    H113858   0.200   0.383  11.144 -1.2616 -0.2710  2.2047
  944MPD2    H213859   0.616   0.287  11.140  1.0572  0.9095 -2.0437
  944MPD2    H313860   0.372   0.221  11.156  4.2784 -0.8813  0.9589
  944MPD2     N13861   0.237   0.658  11.158  0.7270 -0.3180 -0.1293
  944MPD2    H513862   0.278   0.750  11.145  1.6311 -0.5710  0.9417
  944MPD2    N113863   0.708   0.521  11.140  0.1893 -0.0605 -0.4520
  944MPD2    H713864   0.764   0.437  11.147  2.2833  1.2649 -1.3896
    1TMC1    C113865   3.710   2.042  14.960  0.0835  0.3209  0.1222
    1TMC1    C213866   3.609   2.037  15.060 -0.2473 -0.3220  0.3354
    1TMC1    C313867   3.580   1.915  15.120 -0.9191 -0.0621  0.5374
    1TMC1    C413868   3.779   1.930  14.920  1.0394 -0.6314  0.6784
    1TMC1    C513869   3.748   1.814  14.984 -0.0448 -0.4107 -0.8784
    1TMC1    C613870   3.656   1.805  15.084 -0.2365 -0.1216  0.4294
    1TMC1     C13871   3.740   2.159  14.884  0.4705  0.0783 -0.1864
    1TMC1     O13872   3.858   2.174  14.852  0.0965 -0.3589 -0.1255
    1TMC1     H13873   3.547   2.124  15.080  0.2445  0.1792 -0.2988
    1TMC1    H113874   3.861   1.943  14.851  1.2112 -0.1054  0.9808
    1TMC1    H213875   3.641   1.707  15.128 -1.1057 -0.3644 -0.3972
    1TMC1    C713876   3.784   1.689  14.924  0.8704 -0.1500 -0.8619
    1TMC1    C813877   3.480   1.912  15.229  0.4137  0.6505 -0.0886
    1TMC1    O113878   3.735   1.581  14.945  0.7701  0.0013 -0.9720
    1TMC1    O213879   3.462   2.010  15.301  0.0310 -0.4125  0.2426
    1TMC1    O313880   3.901   1.709  14.863  0.1469 -0.6446  0.5045
    1TMC1    H313881   3.955   1.786  14.888  0.0222 -1.7672  4.2341
    1TMC1    O513882   3.416   1.791  15.238  0.1822  0.3366  0.3123
    1TMC1    H513883   3.420   1.731  15.160 -0.7867 -0.4395  0.8618
    2MPD2     C13884   3.626   2.564  14.609  0.2298 -0.2530  0.1911
    2MPD2    C113885   3.510   2.487  14.617 -0.4899 -0.1252  0.7716
    2MPD2    C213886   3.520   2.370  14.695  0.2459  0.3942  0.2840
    2MPD2    C313887   3.632   2.340  14.768  0.0648 -0.6919 -0.5448
    2MPD2    C413888   3.747   2.419  14.758  0.5474  0.2518 -0.4946
    2MPD2    C513889   3.739   2.531  14.679 -0.0408 -0.0842 -0.0024
    2MPD2     H13890   3.436   2.301  14.696  0.1304  0.4948 -2.3213
    2MPD2    H113891   3.840   2.404  14.810 -1.2952  1.1483  3.0842
    2MPD2    H213892   3.639   2.645  14.538 -2.6601 -0.3653 -0.4750
    2MPD2    H313893   3.824   2.599  14.674 -0.2655  0.2898  1.3483
    2MPD2     N13894   3.629   2.227  14.846  0.5389  0.3062 -0.1209
    2MPD2    H513895   3.544   2.177  14.866 -0.1155  0.9376 -1.3198
    2MPD2    N113896   3.392   2.502  14.543 -0.5056 -0.3390  0.2159
    2MPD2    H713897   3.324   2.427  14.545 -0.5691 -0.2667  0.7319
    3TMC2    C113898   3.256   2.580  14.365  0.2789  0.8136  0.1800
    3TMC2    C213899   3.187   2.461  14.357 -0.2075 -0.2433  0.5898
    3TMC2    C313900   3.084   2.452  14.273  0.4087 -0.1785  0.3989
    3TMC2    C413901   3.204   2.690  14.299 -0.2432  0.0233 -0.5104
    3TMC2    C513902   3.096   2.670  14.214 -0.0575 -0.0421 -0.6839
    3TMC2    C613903   3.030   2.552  14.197 -0.4982  0.2714 -0.7444
    3TMC2     C13904   3.371   2.611  14.455  0.4179 -0.1871  0.7878
    3TMC2     O13905   3.427   2.717  14.445  0.0021 -0.0368  1.0164
    3TMC2     H13906   3.227   2.366  14.390 -0.2596 -0.0549  1.2022
    3TMC2    H113907   3.255   2.785  14.303 -1.0606  0.3967  0.9751
    3TMC2    H213908   2.936   2.540  14.144 -0.9384 -3.9701  1.0373
    3TMC2    C713909   3.058   2.781  14.130 -0.4045 -0.8959  0.0637
    3TMC2    C813910   3.030   2.312  14.257 -0.0104  0.2761  0.1377
    3TMC2    O113911   3.085   2.893  14.167 -0.2550 -0.7674 -0.5780
    3TMC2    O213912   3.036   2.227  14.343  0.3973 -0.2755 -0.2106
    3TMC2    O513913   3.030   2.294  14.120 -0.8682 -0.2457  0.0374
    3TMC2    H513914   3.063   2.368  14.066  2.9283 -2.2446 -0.3524
    4TMC2    C113915   2.605   2.462  13.298  0.3465  0.1123 -0.0327
    4TMC2    C213916   2.626   2.516  13.173 -0.1824  0.4376  0.4686
    4TMC2    C313917   2.709   2.626  13.169 -0.2476 -0.4629 -0.0630
    4TMC2    C413918   2.664   2.505  13.414 -0.4536  0.1191 -0.4332
    4TMC2    C513919   2.759   2.603  13.405  0.2876  0.1499  0.5360
    4TMC2    C613920   2.782   2.667  13.281 -0.1746 -0.2263 -0.1181
    4TMC2     C13921   2.505   2.352  13.309  0.0066  0.1053  0.2414
    4TMC2     O13922   2.529   2.269  13.395  0.1376 -0.5143 -0.3496
    4TMC2     H13923   2.576   2.474  13.086  0.1179  0.5629  0.2364
    4TMC2    H113924   2.658   2.449  13.507 -1.0888 -0.3536 -0.7569
    4TMC2    H213925   2.850   2.750  13.272  1.7967 -1.6263  1.7331
    4TMC2    C713926   2.809   2.651  13.529  0.5784  0.1018  0.1583
    4TMC2    C813927   2.749   2.684  13.046 -0.4531 -0.1710  0.8626
    4TMC2    O113928   2.768   2.596  13.626  0.0647  0.0147 -0.7634
    4TMC2    O213929   2.854   2.739  13.035 -0.3463  0.0114  0.3873
    4TMC2    O513930   2.636   2.716  12.978  0.1205  0.3963  0.9272
    4TMC2    H513931   2.553   2.674  13.009 -0.2625  1.3161  1.1562
    5MPD2     C13932   2.039   2.170  13.255 -0.4827  0.1664 -0.3369
    5MPD2    C113933   2.041   2.295  13.203 -0.1033  0.2096  0.0025
    5MPD2    C213934   2.165   2.354  13.191 -0.2083  0.5321 -0.0506
    5MPD2    C313935   2.280   2.293  13.230  0.4161 -0.4911  0.4216
    5MPD2    C413936   2.280   2.158  13.274  0.2337  0.2429  0.1865
    5MPD2    C513937   2.151   2.099  13.284  1.0644  0.1734  0.1298
    5MPD2     H13938   2.168   2.460  13.168 -0.0251  0.9792  1.9941
    5MPD2    H113939   2.370   2.099  13.292  0.1527  0.0024 -0.1856
    5MPD2    H213940   1.943   2.123  13.267  0.3800 -1.7538 -0.9588
    5MPD2    H313941   2.127   1.996  13.309  1.8995  0.6162  2.7485
    5MPD2     N13942   2.400   2.371  13.231  0.0317  0.0855 -0.6200
    5MPD2    H513943   2.411   2.458  13.181  0.2261  1.5249  1.9491
    5MPD2    N113944   1.912   2.344  13.165 -0.0252 -0.3717 -0.0583
    5MPD2    H713945   1.829   2.285  13.178  1.7294 -2.5269  1.4025
    6MPD1     C13946   0.493   3.500  13.550  0.3730 -0.0011 -0.1593
    6MPD1    C113947   0.450   3.378  13.508 -0.6658  0.1236 -0.1136
    6MPD1    C213948   0.533   3.267  13.540 -0.0152 -1.1284  0.6122
    6MPD1    C313949   0.644   3.283  13.615  0.6298 -0.4034 -0.0500
    6MPD1    C413950   0.683   3.407  13.659 -0.2577  0.4955 -0.4745
    6MPD1    C513951   0.610   3.511  13.626 -0.3830  1.0257  0.0973
    6MPD1     H13952   0.518   3.177  13.481 -1.2567 -0.1870 -0.5100
    6MPD1    H113953   0.769   3.425  13.721 -0.0796 -0.1650 -0.5329
    6MPD1    H213954   0.430   3.584  13.526  1.2978  0.4122 -1.1345
    6MPD1    H313955   0.641   3.609  13.661 -1.8273 -0.1390  4.6546
    6MPD1     N13956   0.725   3.172  13.661  0.6877 -0.2013  0.3971
    6MPD1    H513957   0.809   3.196  13.712 -0.3646 -0.5267  2.3157
    6MPD1    N113958   0.347   3.375  13.405  0.2140  0.3818  0.1893
    6MPD1    H613959   0.282   3.453  13.403 -0.1972  0.0561  1.0880
    6MPD1    H713960   0.305   3.287  13.372  0.1337  1.3052 -2.2105
    7MPD2     C13961   1.047   2.361  13.426  0.1867  1.2811 -0.7926
    7MPD2    C113962   1.062   2.483  13.358 -1.0467 -0.1757 -0.5933
    7MPD2    C213963   1.151   2.498  13.258 -0.2859 -0.0902 -0.1826
    7MPD2    C313964   1.237   2.393  13.223  0.1665  0.2646  0.0284
    7MPD2    C413965   1.227   2.270  13.287  0.6864  0.1428 -0.0204
    7MPD2    C513966   1.138   2.262  13.390 -0.4789  0.1036  0.1056
    7MPD2     H13967   1.165   2.600  13.226  2.1032 -0.1026  0.8706
    7MPD2    H113968   1.290   2.182  13.286 -0.9078 -0.9929  0.0154
    7MPD2    H213969   0.995   2.343  13.520 -0.8762  2.0976 -1.2232
    7MPD2    H313970   1.126   2.166  13.440 -2.4152 -0.1623 -0.9001
    7MPD2     N13971   1.340   2.420  13.133 -0.8917  0.8455 -0.4857
    7MPD2    H513972   1.347   2.520  13.113 -0.2147  0.9716  0.4137
    7MPD2    N113973   0.996   2.605  13.394  0.1460 -0.3216 -0.2468
    7MPD2    H713974   1.029   2.686  13.343  0.5706 -1.1549 -1.2977
    8TMC3    C113975   1.537   2.407  13.016  0.8092  0.0018  0.0948
    8TMC3    C213976   1.661   2.378  13.062 -0.3237  0.0083  0.4895
    8TMC3    C313977   1.747   2.488  13.077 -0.0525 -0.2084  0.0879
    8TMC3    C413978   1.498   2.536  12.978  0.5571  0.7065 -0.4362
    8TMC3    C513979   1.577   2.639  13.005  0.4834  0.2373 -0.5918
    8TMC3    C613980   1.697   2.613  13.061 -0.5843 -0.2466 -0.6806
    8TMC3     C13981   1.443   2.338  13.095 -0.2949 -0.4926 -0.2893
    8TMC3     O13982   1.466   2.224  13.140 -0.2193 -0.3664  0.1794
    8TMC3     H13983   1.684   2.275  13.085 -1.2292 -0.0049  1.3424
    8TMC3    H113984   1.401   2.545  12.929  1.2496 -0.6379 -2.0574
    8TMC3    H213985   1.759   2.700  13.084 -0.6789 -0.5386  0.7224
    8TMC3    C713986   1.496   2.738  13.071  0.1658 -0.5813  0.5142
    8TMC3    C813987   1.888   2.467  13.111 -0.1876  0.4025 -0.7742
    8TMC3    O113988   1.374   2.714  13.063  0.5132 -0.0880  0.2127
    8TMC3    O213989   1.955   2.569  13.120 -0.2771 -0.7215  0.1202
    9TMC3    C113990   0.811   2.956  13.628  0.2696 -0.1221 -0.1879
    9TMC3    C213991   0.928   3.017  13.610  0.0810 -0.0990 -0.2315
    9TMC3    C313992   1.036   2.945  13.570 -0.0380  0.3280 -0.8655
    9TMC3    C413993   0.794   2.829  13.586  0.2279 -0.0272  0.4637
    9TMC3    C513994   0.907   2.764  13.536  0.3507  0.1330  0.0277
    9TMC3    C613995   1.030   2.816  13.537  0.6852  0.2588  0.4762
    9TMC3     C13996   0.697   3.042  13.627 -0.0939  0.2292 -0.7665
    9TMC3     O13997   0.586   2.989  13.601 -0.4015  0.1046  0.0364
    9TMC3     H13998   0.950   3.118  13.643  1.2466 -0.6761  0.7311
    9TMC3    H113999   0.699   2.777  13.595  0.9483 -1.5278 -0.4809
    9TMC3    H214000   1.120   2.762  13.510  1.1109  0.8144  0.7562
    9TMC3    C714001   0.911   2.623  13.502 -0.1374  0.1808  0.5679
    9TMC3    C814002   1.141   3.032  13.522  0.4616 -0.0708 -0.3121
    9TMC3    O114003   0.846   2.539  13.558  0.3935  0.1489  0.2970
    9TMC3    O214004   1.165   3.136  13.586  0.1240  0.2124  0.6594
   10MPD2     C14005   1.583   3.037  13.259 -1.1576 -0.3617  0.3581
   10MPD2    C114006   1.511   2.923  13.225 -0.2115 -0.2775 -0.3050
   10MPD2    C214007   1.386   2.904  13.279  0.2750 -0.5634 -0.3694
   10MPD2    C314008   1.332   2.999  13.367  0.2469 -0.4201 -0.0964
   10MPD2    C414009   1.400   3.117  13.382 -0.1085 -0.5419 -0.0810
   10MPD2    C514010   1.529   3.130  13.340 -0.0431 -0.5139  0.2338
   10MPD2     H14011   1.339   2.808  13.262 -0.5253 -0.3879  0.8389
   10MPD2    H114012   1.360   3.198  13.442 -0.2120 -1.1470  0.6700
   10MPD2    H214013   1.685   3.049  13.225 -0.8349  1.2439  1.8820
   10MPD2    H314014   1.585   3.217  13.373 -2.3419  1.1694 -0.3126
   10MPD2     N14015   1.208   2.968  13.427  0.3786  0.3059  0.0187
   10MPD2    H514016   1.158   2.884  13.398 -4.8904  1.9884  4.3221
   10MPD2    N114017   1.572   2.827  13.142  0.2343 -0.0773  0.1733
   10MPD2    H714018   1.667   2.849  13.113 -0.1120  1.1767  0.0302
   11MPD2     C14019   3.049   2.938  13.887 -0.5219 -0.9944 -0.6582
   11MPD2    C114020   3.005   2.807  13.890 -0.2635 -0.3407  0.2618
   11MPD2    C214021   2.957   2.755  13.771 -0.0590 -0.1092  0.8243
   11MPD2    C314022   2.947   2.820  13.649 -0.0613  0.4578  0.5524
   11MPD2    C414023   3.001   2.946  13.648  0.1832  0.1957  0.3411
   11MPD2    C514024   3.044   2.997  13.765  0.1491 -0.9461 -0.4716
   11MPD2     H14025   2.931   2.650  13.774 -3.0511  0.6686  1.4530
   11MPD2    H114026   3.002   2.996  13.552 -0.6224 -1.8652 -0.7458
   11MPD2    H214027   3.089   2.999  13.967  1.1991 -1.0100 -1.4962
   11MPD2    H314028   3.105   3.086  13.752 -1.7943  0.6680  1.4200
   11MPD2     N14029   2.896   2.758  13.528 -0.5881  0.4923  0.2700
   11MPD2    H514030   2.921   2.802  13.440  1.8792 -1.1236  0.1447
   11MPD2    N114031   3.016   2.731  14.007  0.8051  0.5502  0.1389
   11MPD2    H714032   2.990   2.633  14.007  0.8024  0.5570 -0.9432
    1MPD1     C14033   2.089   3.608  17.311  0.0161  0.3518 -0.0282
    1MPD1    C114034   2.024   3.498  17.255 -0.8885  0.3718 -0.0909
    1MPD1    C214035   1.883   3.496  17.269  0.5823 -0.7136 -0.1560
    1MPD1    C314036   1.815   3.599  17.332  0.0515 -0.4045  0.1953
    1MPD1    C414037   1.893   3.692  17.401 -0.0457  0.1348  0.2174
    1MPD1    C514038   2.026   3.698  17.389  0.3539 -0.0785  0.5857
    1MPD1     H14039   1.825   3.423  17.214  0.6620 -0.4721 -0.5564
    1MPD1    H114040   1.862   3.782  17.453  0.7190 -0.6243  1.9897
    1MPD1    H214041   2.193   3.631  17.295 -0.5091  3.2445  0.6638
    1MPD1    H314042   2.093   3.769  17.436  1.0105 -0.1017 -0.3194
    1MPD1     N14043   1.675   3.602  17.346 -0.0005 -0.2017  0.0727
    1MPD1    H514044   1.639   3.662  17.419  1.8861  0.6945  0.2555
    1MPD1    N114045   2.088   3.411  17.168 -0.0604 -0.2663 -0.4154
    1MPD1    H614046   2.186   3.400  17.194 -0.7374 -1.9017  1.3819
    1MPD1    H714047   2.040   3.322  17.155  0.4963 -0.7179  0.6014
    2MPD1     C14048   0.628   3.216  17.295  0.7659  0.5704  0.7146
    2MPD1    C114049   0.660   3.266  17.416 -0.2232 -0.0158  0.2086
    2MPD1    C214050   0.780   3.338  17.431  0.2002 -0.0471  0.0334
    2MPD1    C314051   0.877   3.347  17.335 -0.0632 -0.4172 -0.6636
    2MPD1    C414052   0.840   3.290  17.214 -0.0939  0.2705 -0.4722
    2MPD1    C514053   0.715   3.230  17.195 -0.7701 -0.4666  0.4983
    2MPD1     H14054   0.794   3.396  17.522 -1.7974 -0.1927  0.4352
    2MPD1    H114055   0.908   3.286  17.130 -1.3422  1.1417 -1.5194
    2MPD1    H214056   0.544   3.152  17.268 -0.0029  1.4082  1.1123
    2MPD1    H314057   0.696   3.184  17.099 -2.0972  1.4103 -0.1353
    2MPD1     N14058   1.003   3.408  17.359  0.9068 -0.0781 -0.5553
    2MPD1    H514059   1.017   3.455  17.448 -3.5121  0.4022 -0.1162
    2MPD1    N114060   0.568   3.255  17.519 -0.7886 -0.0131 -0.7859
    2MPD1    H614061   0.609   3.255  17.612 -2.2870 -0.5361 -0.1338
    2MPD1    H714062   0.504   3.176  17.510 -2.4057  1.0795  1.0321
    3TMC3    C114063   1.224   3.487  17.323  0.3683  0.0007  0.3289
    3TMC3    C214064   1.187   3.612  17.368  0.4180  0.8023 -0.2770
    3TMC3    C314065   1.279   3.704  17.388 -0.9599  0.2034  0.5392
    3TMC3    C414066   1.352   3.455  17.290  0.0074  0.2661  0.6658
    3TMC3    C514067   1.447   3.548  17.328  0.1772 -0.0980  0.2475
    3TMC3    C614068   1.414   3.672  17.379 -0.2097 -0.2155 -0.2020
    3TMC3     C14069   1.114   3.399  17.271  0.6543  0.5490 -0.4084
    3TMC3     O14070   1.123   3.343  17.162 -0.6175  0.2945  0.0603
    3TMC3     H14071   1.082   3.634  17.377  0.4055  1.7870 -2.8910
    3TMC3    H114072   1.369   3.360  17.241  1.1705  1.7409 -1.7870
    3TMC3    H214073   1.492   3.748  17.381 -1.1412  0.7545 -0.3760
    3TMC3    C714074   1.584   3.522  17.279  0.7185 -0.4579  0.3215
    3TMC3    C814075   1.240   3.843  17.400 -0.6704 -0.0019 -0.0418
    3TMC3    O114076   1.597   3.443  17.187 -0.5136  0.6654  0.0395
    3TMC3    O214077   1.131   3.878  17.370 -0.1800 -0.0782 -0.0648
    4MPD1     C14078   1.408   4.325  17.418  0.0618  0.6966 -0.0824
    4MPD1    C114079   1.495   4.243  17.490 -0.2662  0.0999  0.0630
    4MPD1    C214080   1.469   4.112  17.511  0.1333  0.5297  0.5228
    4MPD1    C314081   1.357   4.055  17.456  0.5229  0.0916  0.1184
    4MPD1    C414082   1.277   4.135  17.381 -0.3072  0.2961  0.0507
    4MPD1    C514083   1.294   4.266  17.366 -0.0531 -0.5718  0.6076
    4MPD1     H14084   1.542   4.043  17.552 -0.7662  0.0648  1.3575
    4MPD1    H114085   1.192   4.092  17.329  0.8950  0.2247 -1.8815
    4MPD1    H214086   1.434   4.427  17.394  1.0230  0.5375  0.2975
    4MPD1    H314087   1.225   4.327  17.308  0.0979 -2.2742 -1.3503
    4MPD1     N14088   1.344   3.915  17.451  0.1850  0.0112 -0.1187
    4MPD1    H514089   1.417   3.865  17.501  0.9120 -0.4585 -1.6386
    4MPD1    N114090   1.622   4.297  17.517  0.0876  0.1691  0.4434
    4MPD1    H614091   1.669   4.256  17.597 -1.7286 -2.0246  0.3897
    4MPD1    H714092   1.616   4.395  17.545 -0.4074 -0.0882  1.2406
    1TCq1    O114093   1.580   3.048  10.903  0.2085 -0.2171  0.8159
    1TCq1    C114094   1.567   3.153  10.987  1.1583  0.4821  0.3253
    1TCq1    O214095   1.589   3.145  11.109  0.1909 -0.5237  0.0924
    1TCq1    C214096   1.551   3.276  10.909  0.0498 -0.2009  0.6342
    1TCq1    C314097   1.453   3.277  10.811 -0.1174  0.3563  0.2456
    1TCq1    C414098   1.428   3.404  10.762  0.1855  0.0548  0.2822
    1TCq1    C514099   1.480   3.517  10.814 -0.0565  0.0144 -0.6317
    1TCq1    C614100   1.574   3.508  10.910 -0.3240 -0.2299  0.4568
    1TCq1    C714101   1.608   3.387  10.965  0.2586 -0.1920 -0.4694
    1TCq1    C814102   1.649   3.631  10.927  0.4591  0.0581 -0.0940
    1TCq1    O414103   1.582   3.735  10.912 -0.2982 -0.3649  0.2286
    1TCq1    C914104   1.310   3.410  10.677  0.2162  0.6140  0.0150
    1TCq1    O514105   1.258   3.305  10.639 -0.1722 -0.3073 -0.1231
    1TCq1    O614106   1.258   3.523  10.655 -0.4055  0.3980 -0.1911
    1TCq1    H114107   1.540   3.062  10.814 -0.2884 -0.8725  0.9321
    1TCq1    H214108   1.412   3.194  10.754  1.0551 -0.2490  0.2952
    1TCq1    H314109   1.464   3.607  10.755 -0.6787  0.7070  0.5993
    1TCq1    H414110   1.679   3.378  11.047  0.7315  0.6981 -0.7836
    2MPD1     C14111   2.060   3.891  11.102  0.7247  0.7292  0.4891
    2MPD1    C114112   2.099   3.759  11.088 -1.1992  0.5527  0.3660
    2MPD1    C214113   2.001   3.673  11.039  0.2469  0.1587  0.3715
    2MPD1    C314114   1.874   3.709  11.005  0.9125 -0.8431  0.0787
    2MPD1    C414115   1.832   3.837  11.027  0.2501  0.1640 -0.3754
    2MPD1    C514116   1.932   3.925  11.068 -0.1869 -0.7907 -0.7496
    2MPD1     H14117   2.031   3.572  11.012  1.0988  0.9155 -1.5605
    2MPD1    H114118   1.731   3.872  11.011  0.6922  2.4754  2.0180
    2MPD1    H214119   2.136   3.959  11.139  2.3021 -0.0582 -1.2586
    2MPD1    H314120   1.907   4.031  11.073  0.6722 -0.6963  1.2316
    2MPD1     N14121   1.783   3.614  10.959  0.3770 -0.4790 -0.2275
    2MPD1    H514122   1.828   3.524  10.947  0.4495 -0.5185  0.3256
    2MPD1    N114123   2.228   3.718  11.123 -0.5278  0.1132  0.2746
    2MPD1    H614124   2.273   3.764  11.202  1.6409  1.5469 -1.7910
    2MPD1    H714125   2.237   3.619  11.145  1.6836  0.6229  1.6962
    1TMC1    C114126   1.863   2.572   0.910  0.1796  0.0465 -0.3004
    1TMC1    C214127   1.799   2.450   0.893  0.2346 -0.4551 -0.8759
    1TMC1    C314128   1.876   2.339   0.899 -0.1289 -0.3039 -0.2459
    1TMC1    C414129   2.001   2.574   0.903  0.3653  0.0561  0.4182
    1TMC1    C514130   2.071   2.453   0.899  0.0854 -0.1620  0.0255
    1TMC1    C614131   2.007   2.334   0.893 -0.2863 -0.0422  0.1113
    1TMC1     C14132   1.783   2.698   0.932 -0.0479  0.0956 -0.6210
    1TMC1     O14133   1.851   2.796   0.958  0.1843 -0.5575 -0.1582
    1TMC1     H14134   1.691   2.441   0.900  0.1733  0.1493 -1.0474
    1TMC1    H114135   2.055   2.667   0.907 -1.6073  1.2063  0.2207
    1TMC1    H214136   2.061   2.243   0.870 -1.8159 -1.1679  0.9202
    1TMC1    C714137   2.213   2.451   0.880  0.2273  0.1789 -0.2325
    1TMC1    C814138   1.800   2.213   0.917 -0.1208 -0.0752  0.3155
    1TMC1    O114139   2.261   2.373   0.805  0.0745  0.4002 -0.0845
    1TMC1    O214140   1.679   2.206   0.899  0.0641 -0.3442  0.0651
    1TMC1    O314141   2.267   2.569   0.928  0.1378  0.2073  0.0775
    1TMC1    H314142   2.229   2.619   1.003  1.6659 -0.0670  1.0348
    1TMC1    O514143   1.869   2.138   0.999  0.1855  0.7451 -0.0191
    1TMC1    H514144   1.951   2.176   1.038  0.9018 -0.0331 -0.7538
    2MPD1     C14145   1.362   2.978   0.976  0.4407 -0.7883 -0.3317
    2MPD1    C114146   1.320   2.849   0.953 -0.0132  0.2457 -0.4746
    2MPD1    C214147   1.420   2.751   0.939 -0.0565  0.7373 -0.6064
    2MPD1    C314148   1.552   2.784   0.934 -0.4235 -1.0553  0.2651
    2MPD1    C414149   1.589   2.917   0.948 -0.1715 -0.5343  0.2380
    2MPD1    C514150   1.495   3.011   0.977 -0.0592 -0.1175  0.9899
    2MPD1     H14151   1.387   2.648   0.928  1.5698  0.1328  0.2101
    2MPD1    H114152   1.692   2.950   0.938 -0.3505  0.3719  1.3381
    2MPD1    H214153   1.290   3.056   0.999  1.7752  1.0212 -2.3590
    2MPD1    H314154   1.533   3.110   0.995  0.9442 -0.3155 -0.0561
    2MPD1     N14155   1.646   2.685   0.914  0.4569 -0.3849  0.2989
    2MPD1    H514156   1.605   2.596   0.887 -1.3129  1.3340 -2.6077
    2MPD1    N114157   1.184   2.812   0.976  0.6309  0.6358 -0.4941
    2MPD1    H614158   1.121   2.884   0.943 -2.2066 -1.7600 -0.2479
    2MPD1    H714159   1.162   2.735   0.914  2.0785  1.1386 -1.6284
    1MPD1     C14160   4.048   3.402  11.863  0.2464 -0.3593  0.2241
    1MPD1    C114161   4.065   3.517  11.791  0.2025 -0.4980 -0.0551
    1MPD1    C214162   4.166   3.599  11.839  0.0570 -0.0045 -0.3433
    1MPD1    C314163   4.251   3.567  11.945 -0.2943 -0.1951 -0.3900
    1MPD1    C414164   4.225   3.452  12.017  0.8175 -1.0448 -0.0918
    1MPD1    C514165   4.136   3.362  11.967 -0.9497  0.1811  1.0988
    1MPD1     H14166   4.160   3.700  11.801  0.6025  0.1424 -0.0417
    1MPD1    H114167   4.301   3.413  12.083 -0.4894 -2.5741  0.5250
    1MPD1    H214168   3.976   3.330  11.828 -0.3279 -0.5781  1.8334
    1MPD1    H314169   4.123   3.263  12.011  0.7654  0.2908  1.8408
    1MPD1     N14170   4.363   3.657  11.977 -0.0692 -0.9482  0.3537
    1MPD1    H514171   4.360   3.743  11.922 -0.5122 -2.4882 -2.0540
    1MPD1    N114172   3.966   3.554  11.701 -0.2119  0.3503  0.0453
    1MPD1    H614173   3.935   3.475  11.646  0.1646 -0.9903  1.7476
    1MPD1    H714174   3.999   3.630  11.642  0.5041 -0.6646 -0.8630
    2MPD1     C14175   3.760   3.038  11.805  0.4217  0.3847  0.0811
    2MPD1    C114176   3.727   3.177  11.801 -0.1381  0.6478 -1.2324
    2MPD1    C214177   3.763   3.246  11.686 -0.7892  0.2612  0.8942
    2MPD1    C314178   3.861   3.202  11.601  0.0739 -0.1747  0.5637
    2MPD1    C414179   3.908   3.075  11.614  0.2570 -0.6082  0.2897
    2MPD1    C514180   3.854   2.991  11.712  0.0960  0.9807  0.3348
    2MPD1     H14181   3.718   3.344  11.683 -2.2964 -0.3974  1.6770
    2MPD1    H114182   3.977   3.036  11.539 -0.3232 -0.1056 -0.5128
    2MPD1    H214183   3.725   2.969  11.881 -1.7559 -1.1398 -2.2676
    2MPD1    H314184   3.900   2.893  11.717 -3.7268 -0.7538  1.2039
    2MPD1     N14185   3.905   3.273  11.487 -0.6151  0.2900  0.1962
    2MPD1    H514186   3.979   3.236  11.428 -0.7717  2.2517 -1.2375
    2MPD1    N114187   3.631   3.234  11.891  0.1231 -0.3010 -0.4744
    2MPD1    H614188   3.631   3.336  11.886  1.4552 -0.2933 -0.4871
    2MPD1    H714189   3.638   3.202  11.987 -0.3639  1.8300  0.2831
    3MPD1     C14190   3.929   3.925  10.617 -0.0446  0.7859 -0.4865
    3MPD1    C114191   3.960   4.007  10.720 -0.1778  1.3561  0.1687
    3MPD1    C214192   3.960   3.954  10.844  0.5679  0.4951 -0.5429
    3MPD1    C314193   3.919   3.823  10.862 -0.4448  0.7002  0.0265
    3MPD1    C414194   3.871   3.744  10.759 -0.5363 -0.0411 -0.1890
    3MPD1    C514195   3.877   3.796  10.628 -0.2098  0.5395  0.7324
    3MPD1     H14196   3.997   4.011  10.929 -1.3110  1.4942 -0.3846
    3MPD1    H114197   3.835   3.642  10.769  2.0413 -1.1301 -1.8319
    3MPD1    H214198   3.942   3.958  10.514 -1.1460  0.7915 -0.6305
    3MPD1    H314199   3.868   3.735  10.539  2.3302 -0.9850  1.5082
    3MPD1     N14200   3.948   3.774  10.992 -0.1286  1.0848  0.2220
    3MPD1    H514201   4.028   3.813  11.042 -1.0573 -1.6085  3.7558
    3MPD1    N114202   4.009   4.135  10.701 -0.1846 -0.3152  0.0493
    3MPD1    H614203   3.983   4.166  10.607  2.1694  4.6251  1.0383
    3MPD1    H714204   3.956   4.203  10.754  0.7230 -0.9358  1.7585
    4MPD2     C14205   4.635   4.195  11.689 -0.2827  0.4281 -0.2844
    4MPD2    C114206   4.720   4.105  11.744  0.6221 -0.2317 -0.1416
    4MPD2    C214207   0.092   4.069  11.663 -0.6804  0.8979  0.4245
    4MPD2    C314208   0.104   4.099  11.533  0.6003  0.2876  1.3791
    4MPD2    C414209   0.015   4.190  11.476  0.2206 -0.1202 -0.4153
    4MPD2    C514210   4.656   4.242  11.557 -0.3744  0.5091  0.9967
    4MPD2     H14211   0.159   3.993  11.703 -1.3860 -0.5408 -1.1106
    4MPD2    H114212   0.019   4.221  11.372  1.9997  0.7994 -0.0773
    4MPD2    H214213   4.552   4.236  11.745 -0.9956  0.1052 -1.1053
    4MPD2    H314214   4.587   4.318  11.521  0.0077  0.1178 -0.5983
    4MPD2     N14215   0.209   4.032  11.467 -0.0245  0.0311 -0.4435
    4MPD2    H514216   0.265   3.963  11.516 -0.0962  0.0020 -0.4028
    4MPD2    N114217   4.707   4.041  11.869  0.1925  0.2522  0.4113
    4MPD2    H714218   0.044   3.973  11.895 -1.2606 -1.0607  0.9684
    5TMC3    C114219   4.606   3.973  12.072  0.2363  0.1631 -0.0184
    5TMC3    C214220   4.506   3.872  12.074 -0.4425  0.9610 -0.1586
    5TMC3    C314221   4.544   3.747  12.107  0.1898  0.5413  0.0630
    5TMC3    C414222   0.001   3.934  12.094 -0.0389  0.6190 -0.0036
    5TMC3    C514223   0.032   3.807  12.126  0.0354  0.4595  0.1344
    5TMC3    C614224   4.669   3.713  12.140  0.2106  0.0369  0.1118
    5TMC3     C14225   4.595   4.053  11.949  0.6127  0.3911 -0.5003
    5TMC3     O14226   4.486   4.103  11.916 -0.3533  0.2879  0.0831
    5TMC3     H14227   4.407   3.886  12.034 -1.2689 -0.7923  1.2497
    5TMC3    H114228   0.077   4.011  12.099  0.0721  0.7322 -3.0252
    5TMC3    H214229   4.696   3.614  12.175  0.8743 -0.1575 -0.9300
    5TMC3    C714230   0.145   3.775  12.047 -0.3857  0.7035  0.1306
    5TMC3    C814231   4.453   3.636  12.082 -0.8647 -0.4357  0.4705
    5TMC3    O114232   0.172   3.857  11.962  0.2863  0.0102 -0.4772
    5TMC3    O214233   4.464   3.536  12.153  0.1033  0.2104  0.0722
    6TMC3    C114234   3.949   3.454  11.344  0.4781 -0.0648  0.3011
    6TMC3    C214235   3.874   3.530  11.254  0.0545 -0.2116  0.2191
    6TMC3    C314236   3.941   3.615  11.168  0.2435 -0.5150  0.2992
    6TMC3    C414237   4.081   3.461  11.352  0.0736  0.3142  0.0473
    6TMC3    C514238   4.148   3.552  11.270 -0.1584  0.6152 -0.3041
    6TMC3    C614239   4.083   3.624  11.171 -0.3242  0.2611 -0.1349
    6TMC3     C14240   3.864   3.396  11.447 -0.1208 -0.1760 -0.8556
    6TMC3     O14241   3.774   3.469  11.492 -0.0539 -0.1760 -0.2821
    6TMC3     H14242   3.768   3.511  11.248  0.2232 -0.4853 -2.0071
    6TMC3    H114243   4.136   3.398  11.421 -0.8739  0.0469  0.5564
    6TMC3    H214244   4.143   3.699  11.120  0.9983 -1.7377 -1.5001
    6TMC3    C714245   4.284   3.592  11.298 -1.1897  0.1748 -0.0329
    6TMC3    C814246   3.880   3.669  11.047 -0.8497  0.0240 -0.0162
    6TMC3    O114247   4.350   3.631  11.203 -0.2903  0.5300 -0.5633
    6TMC3    O214248   3.778   3.614  11.010 -0.2557  0.2480 -0.0385
    7MPD2     C14249   0.359   3.421  11.751 -0.0643  0.0293  0.2706
    7MPD2    C114250   0.355   3.560  11.730 -0.1717 -1.0189  0.3143
    7MPD2    C214251   0.297   3.635  11.822  0.0860  0.0143  0.1990
    7MPD2    C314252   0.238   3.576  11.937  0.1355  0.3981 -1.5166
    7MPD2    C414253   0.242   3.444  11.956 -0.2689  0.3039  0.2707
    7MPD2    C514254   0.305   3.372  11.862 -0.2234  0.7261  0.5079
    7MPD2     H14255   0.283   3.740  11.802  0.5504 -0.0671 -0.5480
    7MPD2    H114256   0.210   3.389  12.044 -1.3685 -1.3230 -1.1328
    7MPD2    H214257   0.411   3.363  11.676  0.4504  0.7496  0.0747
    7MPD2    H314258   0.301   3.265  11.881 -1.2404  0.5099 -1.0114
    7MPD2     N14259   0.160   3.642  12.038  0.8613 -0.4890  0.7949
    7MPD2    H514260   0.113   3.581  12.103  2.1903 -1.2322  1.0620
    7MPD2    N114261   0.407   3.609  11.613  0.0912  0.6107 -0.1705
    7MPD2    H714262   0.435   3.528  11.558  0.1739 -0.8907  2.0709
    8TMC3    C114263   0.388   3.752  11.424  0.3482 -0.6127  0.5555
    8TMC3    C214264   0.306   3.671  11.363 -0.2173  0.0105  0.3258
    8TMC3    C314265   0.222   3.703  11.262 -0.1192 -0.9221 -0.2826
    8TMC3    C414266   0.392   3.876  11.378  0.3468  0.1144  0.3084
    8TMC3    C514267   0.308   3.922  11.281 -0.0033  0.2275 -1.1976
    8TMC3    C614268   0.225   3.834  11.213 -0.6232  0.5997 -0.0659
    8TMC3     C14269   0.399   3.738  11.565 -0.0975 -0.5548 -0.7334
    8TMC3     O14270   0.375   3.844  11.626  1.2513  0.3109  0.4372
    8TMC3     H14271   0.317   3.566  11.387  1.6783 -0.0140 -0.6770
    8TMC3    H114272   0.432   3.955  11.441  1.4748  0.0459 -0.3093
    8TMC3    H214273   0.148   3.869  11.146 -2.0742  1.6161  2.1397
    8TMC3    C714274   0.218   4.031  11.327  0.2815  0.4158 -0.2566
    8TMC3    C814275   0.089   3.656  11.283 -0.3429  0.5569 -0.0855
    8TMC3    O114276   0.158   4.099  11.244  0.8554 -0.1524  0.4445
    8TMC3    O214277   0.004   3.676  11.194  0.7779  0.0667 -0.4909
    9MPD2     C14278   4.682   3.553  11.616  0.0786  0.2596  0.0561
    9MPD2    C114279   4.686   3.577  11.483 -0.3275  0.0748 -0.4071
    9MPD2    C214280   4.565   3.591  11.420  0.0726  0.4893 -0.2401
    9MPD2    C314281   4.447   3.585  11.485  0.4290 -0.1782  0.0260
    9MPD2    C414282   4.450   3.558  11.620 -0.2686  0.5556 -0.6983
    9MPD2    C514283   4.563   3.534  11.680  0.5779 -0.4386  0.4126
    9MPD2     H14284   4.562   3.613  11.314  3.1621  0.4433 -0.3584
    9MPD2    H114285   4.359   3.540  11.677  0.3151  0.0068  0.0596
    9MPD2    H214286   0.039   3.552  11.675 -0.5568 -0.0470  1.0311
    9MPD2    H314287   4.566   3.540  11.789  2.7222  0.5506  0.3004
    9MPD2     N14288   4.311   3.578  11.429  0.1515  0.3344  0.1507
    9MPD2    H514289   4.237   3.550  11.493  1.1071  0.3397  1.2525
    9MPD2    N114290   0.071   3.610  11.417 -0.0882 -0.0805 -0.1755
    9MPD2    H714291   0.148   3.614  11.482 -0.7035 -0.7068  0.5884
    1MPD1     C14292   4.479   2.822  16.797  0.1724 -0.3191 -0.8798
    1MPD1    C114293   4.442   2.712  16.724 -0.3661  0.1826 -0.0113
    1MPD1    C214294   4.341   2.626  16.773  0.0536  0.4820 -1.3562
    1MPD1    C314295   4.274   2.658  16.895  0.9045 -0.0041  0.0330
    1MPD1    C414296   4.311   2.771  16.962 -0.2332  0.8347 -0.2447
    1MPD1    C514297   4.408   2.852  16.913 -0.0629  0.4146  1.0245
    1MPD1     H14298   4.318   2.540  16.712  0.7037 -0.6284 -0.0420
    1MPD1    H114299   4.255   2.794  17.052 -1.7273 -1.4513 -0.5865
    1MPD1    H214300   4.558   2.890  16.767 -1.2783  1.8827  0.2916
    1MPD1    H314301   4.429   2.948  16.958  1.8009  0.3011  0.3907
    1MPD1     N14302   4.181   2.571  16.952 -0.6459 -0.2018 -0.3968
    1MPD1    H514303   4.136   2.605  17.036  0.1714 -0.5813  0.1970
    1MPD1    N114304   4.502   2.683  16.601  0.2958  0.1700 -0.3049
    1MPD1    H614305   4.598   2.717  16.598  0.3684  0.0379  0.6433
    1MPD1    H714306   4.503   2.581  16.594 -1.4968  0.2035 -0.8685
    2TMC2    C114307   3.792   2.287  16.927 -0.4259 -0.5148  0.2925
    2TMC2    C214308   3.804   2.236  17.054  0.1293 -0.1759  0.0720
    2TMC2    C314309   3.913   2.283  17.123 -0.2268 -0.0275 -0.8523
    2TMC2    C414310   3.892   2.368  16.868  0.3600  0.0558 -0.4056
    2TMC2    C514311   3.993   2.413  16.945 -0.3278 -0.1481  0.5096
    2TMC2    C614312   4.003   2.379  17.078  0.8490 -0.1121 -0.8161
    2TMC2     C14313   3.711   2.200  16.837 -0.4749  0.3024 -0.4742
    2TMC2     O14314   3.635   2.121  16.893  0.2255 -0.6070  0.2415
    2TMC2     H14315   3.726   2.167  17.083  0.3297 -1.3439 -2.1699
    2TMC2    H114316   3.880   2.400  16.765 -2.2448  0.9666  0.1798
    2TMC2    H214317   4.085   2.418  17.137 -0.3135 -1.8009  1.8777
    2TMC2    C714318   4.108   2.483  16.877  0.2806  0.0055  0.0818
    2TMC2    C814319   3.939   2.239  17.250 -0.3962  0.3626 -0.3476
    2TMC2    O114320   4.111   2.457  16.758  0.4417  0.1597  0.0523
    2TMC2    O214321   3.983   2.309  17.339  0.4368 -0.1336 -0.1086
    2TMC2    O514322   3.905   2.103  17.247 -0.3713 -0.1761  0.8624
    2TMC2    H514323   3.899   2.074  17.153  0.2455 -0.2407  0.8404
    3MPD1     C14324   3.465   2.131  16.385  0.3642  0.5867 -0.7454
    3MPD1    C114325   3.573   2.211  16.363 -0.1730  0.2103  0.0392
    3MPD1    C214326   3.653   2.243  16.471 -0.5109 -1.1386 -0.2434
    3MPD1    C314327   3.642   2.184  16.597  0.0185  0.9421 -0.8583
    3MPD1    C414328   3.541   2.093  16.619 -0.0927 -0.4577 -0.0550
    3MPD1    C514329   3.451   2.073  16.513  0.3354 -0.2839  0.2233
    3MPD1     H14330   3.745   2.298  16.454 -0.6285 -1.2585 -1.2657
    3MPD1    H114331   3.521   2.039  16.711  1.9754 -0.9486  0.1184
    3MPD1    H214332   3.394   2.104  16.307  0.8139  1.9299 -1.6042
    3MPD1    H314333   3.365   2.007  16.517 -1.0609  1.5957  0.8640
    3MPD1     N14334   3.722   2.233  16.703 -0.3122  0.0223 -0.1045
    3MPD1    H514335   3.785   2.311  16.688  0.6214 -0.5364  0.9508
    3MPD1    N114336   3.579   2.283  16.240 -0.0689  0.0211 -0.1815
    3MPD1    H614337   3.668   2.324  16.213 -0.7782  1.0343 -1.0027
    3MPD1    H714338   3.547   2.225  16.163  0.1296  1.8226 -1.6370
    1TMC1    C114339   2.170   0.955  12.579 -0.4140 -0.2625 -0.0012
    1TMC1    C214340   2.186   1.009  12.450  0.2487 -0.5977  0.0932
    1TMC1    C314341   2.072   1.036  12.385 -0.7442  0.1674  0.1364
    1TMC1    C414342   2.047   0.932  12.636  0.1399 -0.0083 -0.0225
    1TMC1    C514343   1.937   0.971  12.566  0.5476  0.0120  0.4328
    1TMC1    C614344   1.952   1.021  12.441  0.0969  0.5713  0.3873
    1TMC1     C14345   2.296   0.947  12.648 -0.3172 -0.2645  0.4143
    1TMC1     O14346   2.379   0.883  12.590  0.3315 -0.0237  0.3405
    1TMC1     H14347   2.286   1.013  12.407  0.7010 -1.8708  1.0244
    1TMC1    H114348   2.050   0.898  12.739 -0.8454 -1.0113 -0.3223
    1TMC1    H214349   1.861   1.045  12.387 -0.4625  1.0234  1.5451
    1TMC1    C714350   1.812   0.999  12.630 -0.4822  0.1496  0.0065
    1TMC1    C814351   2.068   1.119  12.271  0.3827 -0.8151  0.1114
    1TMC1    O114352   1.746   1.094  12.586 -0.1345  0.2192 -0.1046
    1TMC1    O214353   1.973   1.107  12.192  0.0188 -0.2728  0.2301
    1TMC1    O314354   1.777   0.880  12.673 -0.0477  0.1914  0.2032
    1TMC1    H314355   1.846   0.836  12.726  0.0021 -2.7429 -2.2957
    1TMC1    O514356   2.168   1.208  12.268 -0.1562  0.7091 -0.3949
    1TMC1    H514357   2.224   1.200  12.349  2.5166  3.6870 -1.9813
    2MPD2     C14358   2.523   0.966  12.834  0.3332 -0.4939  0.1246
    2MPD2    C114359   2.396   1.019  12.863  0.7212  0.5118  0.9189
    2MPD2    C214360   2.374   1.066  12.996  0.4466 -0.0948 -0.4068
    2MPD2    C314361   2.473   1.069  13.095  0.6955  0.1580 -0.8641
    2MPD2    C414362   2.599   1.035  13.057  0.8104  0.4034  0.2319
    2MPD2    C514363   2.619   0.980  12.929 -0.4776 -0.7347  0.4720
    2MPD2     H14364   2.276   1.091  13.036  1.3364  4.2618 -0.9980
    2MPD2    H114365   2.686   1.038  13.122  1.3688 -0.6360 -0.4603
    2MPD2    H214366   2.559   0.933  12.737  0.8841  1.5276 -0.3651
    2MPD2    H314367   2.717   0.935  12.913 -0.4501  0.4557 -2.5683
    2MPD2     N14368   2.435   1.105  13.231 -1.0734 -0.0188  0.2804
    2MPD2    H514369   2.340   1.139  13.244 -0.4441  1.8954 -0.2348
    2MPD2    N114370   2.288   1.003  12.775 -0.5179  0.3708  0.3290
    2MPD2    H714371   2.197   1.038  12.805 -1.6492 -2.1106 -0.2773
    3TCq1    O114372   2.431   0.993  13.900 -0.1126  0.2245  0.2955
    3TCq1    C114373   2.515   1.013  13.801 -0.2206  0.1592 -0.0831
    3TCq1    O214374   2.633   0.996  13.805 -0.2627  0.1296  0.3857
    3TCq1    C214375   2.446   1.065  13.687  0.5337 -0.0766  0.3952
    3TCq1    C314376   2.331   1.137  13.707  0.0037  0.1929  0.3428
    3TCq1    C414377   2.287   1.208  13.597  0.4071 -0.5862 -0.2110
    3TCq1    C514378   2.345   1.198  13.474 -0.1298  0.4261 -0.7606
    3TCq1    C614379   2.460   1.121  13.465  0.3769  0.2893 -0.2872
    3TCq1    C714380   2.505   1.046  13.569 -0.4252 -0.5472 -1.0528
    3TCq1    C814381   2.514   1.075  13.336  0.0304 -0.3595  0.2112
    3TCq1    O414382   2.614   1.001  13.338 -0.0189 -0.5282  0.2748
    3TCq1    C914383   2.175   1.303  13.611  0.7778 -0.0822 -0.1380
    3TCq1    O514384   2.132   1.356  13.512 -0.4570 -0.4394 -0.5284
    3TCq1    O614385   2.146   1.342  13.724  0.3723  0.4204 -0.2666
    3TCq1    H114386   2.345   0.964  13.864 -1.6419  0.8844  3.3603
    3TCq1    H214387   2.306   1.178  13.804  1.0176  2.4976 -0.3572
    3TCq1    H314388   2.314   1.263  13.392  0.3348 -0.5030 -1.6744
    3TCq1    H414389   2.588   0.975  13.571  0.2451  0.2460 -0.7371
    1MPD2     C14390   2.167   2.759  14.468  0.2952 -0.3606  0.2881
    1MPD2    C114391   2.160   2.650  14.550 -0.0481 -0.3874  0.2648
    1MPD2    C214392   2.272   2.608  14.624  0.2407 -0.1088  0.1559
    1MPD2    C314393   2.386   2.688  14.624  0.5022  0.3097 -0.1832
    1MPD2    C414394   2.392   2.795  14.546  0.3167 -0.2002  0.4652
    1MPD2    C514395   2.284   2.830  14.472 -0.2889  0.7145 -0.2853
    1MPD2     H14396   2.268   2.525  14.694 -0.3825 -0.1713  0.0460
    1MPD2    H114397   2.484   2.851  14.533 -1.5450  2.5655 -0.6769
    1MPD2    H214398   2.083   2.782  14.403  0.7048  1.1870  0.2905
    1MPD2    H314399   2.292   2.925  14.420 -1.3782  0.5136 -0.8072
    1MPD2     N14400   2.494   2.647  14.703  0.3843  1.0143 -0.4214
    1MPD2    H514401   2.487   2.557  14.749 -0.1359  1.4017  0.2520
    1MPD2    N114402   2.040   2.575  14.548  0.3436 -0.4652  0.7364
    1MPD2    H714403   1.959   2.622  14.510  0.0876 -0.6458  1.0659
    2TMC3    C114404   1.906   2.394  14.617  0.0903 -0.0198 -0.4256
    2TMC3    C214405   1.904   2.266  14.671 -0.4604  0.2697  0.0449
    2TMC3    C314406   1.823   2.244  14.781  0.4603 -0.3728  0.2604
    2TMC3    C414407   1.797   2.478  14.646 -0.7269  0.2001 -0.1220
    2TMC3    C514408   1.711   2.441  14.744  0.7049 -0.4442 -0.0378
    2TMC3    C614409   1.720   2.322  14.818 -0.0219  0.3656 -0.3007
    2TMC3     C14410   2.036   2.445  14.591  0.0317  0.6687 -0.5185
    2TMC3     O14411   2.125   2.365  14.617  0.1169  0.2418  0.0444
    2TMC3     H14412   1.989   2.200  14.658 -1.7261 -1.5290  1.0469
    2TMC3    H114413   1.797   2.582  14.614  0.7936  0.8497  1.9171
    2TMC3    H214414   1.655   2.305  14.902  1.9321 -0.6741  0.9936
    2TMC3    C714415   1.608   2.540  14.769 -0.4648 -0.0220 -0.0774
    2TMC3    C814416   1.885   2.187  14.895  0.6819 -0.1238 -0.1812
    2TMC3    O114417   1.645   2.655  14.773  0.8863 -0.2408 -0.5761
    2TMC3    O214418   1.823   2.128  14.977  0.4037 -0.7464  0.2262
    3TCq1    O114419   0.383   2.676  14.689 -0.2129 -0.1493 -0.8133
    3TCq1    C114420   0.404   2.543  14.649  0.1096  0.1112 -0.7679
    3TCq1    O214421   0.315   2.462  14.628 -0.3001  0.2385 -0.1202
    3TCq1    C214422   0.538   2.496  14.697  0.2981 -0.2980  0.3426
    3TCq1    C314423   0.539   2.361  14.726  0.0804  0.7723  0.4584
    3TCq1    C414424   0.657   2.310  14.755  0.0623 -0.0799 -0.2736
    3TCq1    C514425   0.772   2.387  14.764 -0.6860 -0.1428 -0.0228
    3TCq1    C614426   0.764   2.523  14.727 -0.6267 -0.6097  0.0377
    3TCq1    C714427   0.647   2.575  14.691 -0.3742  0.1645  0.6057
    3TCq1    C814428   0.877   2.609  14.748  0.0288 -0.2591  0.5219
    3TCq1    O414429   0.840   2.722  14.785 -0.1545 -0.8282  0.1211
    3TCq1    C914430   0.665   2.169  14.787 -0.0403 -0.1905  0.3767
    3TCq1    O514431   0.561   2.101  14.786 -0.3337 -0.3153  0.5948
    3TCq1    O614432   0.778   2.119  14.813 -0.2611  0.8990  0.0864
    3TCq1    H114433   0.460   2.702  14.745 -0.4252  0.5018 -0.8315
    3TCq1    H214434   0.449   2.302  14.738 -1.7332  3.7721  1.5138
    3TCq1    H314435   0.864   2.340  14.795 -0.6694  0.3185  0.6246
    3TCq1    H414436   0.632   2.682  14.680  2.3430  0.8954  3.9681
    4MPD2     C14437   1.139   2.734  14.784  0.1213  0.5028  0.7920
    4MPD2    C114438   1.117   2.597  14.786  0.1865 -0.3080  0.0436
    4MPD2    C214439   1.229   2.512  14.794 -0.5636 -0.1479 -0.4686
    4MPD2    C314440   1.361   2.564  14.809  0.0850  0.0293 -0.4502
    4MPD2    C414441   1.367   2.704  14.817 -0.4762  0.0080  0.0920
    4MPD2    C514442   1.261   2.779  14.806 -0.6383 -0.2004 -0.6718
    4MPD2     H14443   1.213   2.405  14.791 -1.1648 -0.0145 -2.0206
    4MPD2    H114444   1.458   2.759  14.839  1.4580 -2.0006 -2.8526
    4MPD2    H214445   1.060   2.807  14.776  0.0370 -0.0331 -3.2234
    4MPD2    H314446   1.274   2.883  14.833 -3.2704 -0.3416  1.1817
    4MPD2     N14447   1.481   2.486  14.793  0.3560  0.4277 -0.3194
    4MPD2    H514448   1.467   2.385  14.786  0.5979  0.4893 -1.8837
    4MPD2    N114449   0.995   2.546  14.734  0.1277  0.5982  0.2699
    4MPD2    H714450   0.991   2.450  14.703 -1.4454  1.3083 -1.7233
    5TMC2    C114451   2.625   2.452  14.945 -0.7839  0.1636 -0.2334
    5TMC2    C214452   2.658   2.538  15.053  0.0726 -0.4294  0.1722
    5TMC2    C314453   2.723   2.662  15.024 -0.1654 -0.2564 -0.1220
    5TMC2    C414454   2.654   2.499  14.817  0.0881  0.0958  0.6239
    5TMC2    C514455   2.711   2.622  14.791  0.0486  0.1693 -0.4555
    5TMC2    C614456   2.753   2.695  14.897  0.2685  0.8357  0.5074
    5TMC2     C14457   2.491   2.395  14.943 -0.1252 -0.3598 -0.5811
    5TMC2     O14458   2.428   2.416  14.838  0.1721 -0.1367  0.4280
    5TMC2     H14459   2.623   2.511  15.152 -1.0939  0.5948  0.0375
    5TMC2    H114460   2.631   2.433  14.734 -2.0033 -0.4346  1.6304
    5TMC2    H214461   2.801   2.788  14.869 -0.8533  0.5447 -2.4187
    5TMC2    C714462   2.620   2.698  14.704  0.6053 -0.8300 -0.3357
    5TMC2    C814463   2.788   2.735  15.133 -0.1987 -0.0295  0.0825
    5TMC2    O114464   2.663   2.806  14.661 -0.3926  0.0855  0.0260
    5TMC2    O214465   2.897   2.784  15.118 -0.5636  0.2866 -0.0254
    5TMC2    O514466   2.738   2.694  15.253 -0.5832  0.3969 -0.4181
    5TMC2    H514467   2.644   2.668  15.248 -0.3024 -0.9617  1.3745
    6MPD2     C14468   2.069   2.138  15.114  0.5675 -0.1439  0.3518
    6MPD2    C114469   2.108   2.198  14.996  0.1549 -0.3917 -0.6626
    6MPD2    C214470   2.232   2.246  14.980 -0.5175  0.3842 -0.0978
    6MPD2    C314471   2.329   2.260  15.078 -0.2351  0.0551 -0.4816
    6MPD2    C414472   2.294   2.213  15.202 -0.0793 -0.2318 -0.0061
    6MPD2    C514473   2.164   2.147  15.215  0.0361 -0.8228 -0.0505
    6MPD2     H14474   2.248   2.292  14.883  2.1341  1.0239  0.6489
    6MPD2    H114475   2.360   2.226  15.287 -1.4001 -0.8884  1.1172
    6MPD2    H214476   1.970   2.096  15.130 -0.1149  1.1852 -0.3983
    6MPD2    H314477   2.131   2.126  15.316 -0.3818 -2.6373 -0.5782
    6MPD2     N14478   2.448   2.327  15.056 -0.0398  0.6464 -0.3899
    6MPD2    H514479   2.502   2.333  15.142 -1.5914  0.6239  0.5771
    6MPD2    N114480   2.018   2.220  14.897 -0.3425 -0.0962  0.2366
    6MPD2    H714481   2.058   2.276  14.821 -1.5504 -0.4980 -0.6982
  945NH4     N114482   3.201   2.897  15.575  0.5585 -0.1197  0.1676
  945NH4     H214483   3.119   2.901  15.639  1.5204  1.3653  1.3236
  945NH4     H314484   3.190   2.969  15.501  1.2418 -0.4957 -0.2974
  945NH4     H414485   3.195   2.803  15.532 -1.1859  0.7051 -1.3774
  945NH4     H514486   3.291   2.909  15.626  0.0357  0.1487  1.0223
  946SOD     NA14487   1.926   4.625   6.423  0.2194 -0.2378 -0.0503
  947SOD     NA14488   0.498   1.983  15.181 -0.0487  0.3642  0.0750
  948SOD     NA14489   1.601   1.895  12.743 -0.4513  0.1811  0.4127
  949SOD     NA14490   2.942   0.162  17.100 -0.0334  0.0892 -0.5354
  950SOD     NA14491   2.125   3.810  10.636 -0.1429  0.4489  0.3761
  951SOD     NA14492   3.379   1.265   5.258  0.1138  0.5363 -0.2253
  952SOD     NA14493   4.127   2.226  12.809 -0.5579  0.3688  0.2249
  953SOL     OW14494   1.967   3.482   4.877 -0.4966  0.0339  0.6663
  953SOL    HW114495   2.016   3.400   4.881  0.8913  0.8393  0.3021
  953SOL    HW214496   1.881   3.455   4.846  0.1883 -2.9003  1.3184
  954SOL     OW14497   4.006   1.357  16.300  0.8658  0.3343  0.2438
  954SOL    HW114498   3.954   1.331  16.376  0.2626 -0.4802 -0.4583
  954SOL    HW214499   4.093   1.348  16.339 -0.0690 -0.0317  2.2610
  955SOL     OW14500   0.073   1.598   5.495  0.4135 -0.5539  0.1463
  955SOL    HW114501   0.122   1.679   5.508 -0.1897 -0.0389 -0.8087
  955SOL    HW214502   0.050   1.628   5.408 -1.3920  0.6797  1.0472
  956SOL     OW14503   0.867   2.003   4.610 -0.6185 -0.4441  0.1090
  956SOL    HW114504   0.853   2.081   4.556 -0.3115  0.2419  1.0209
  956SOL    HW214505   0.781   1.971   4.637 -0.4566 -0.4259  0.6359
  957SOL     OW14506   4.524   2.261   8.083 -0.7541 -0.0986 -0.1483
  957SOL    HW114507   4.584   2.324   8.122 -0.2728  0.1295 -1.2507
  957SOL    HW214508   4.435   2.289   8.104 -1.1686 -0.1851 -1.7779
  958SOL     OW14509   1.381   2.019   9.592  0.5394  0.4513 -0.3745
  958SOL    HW114510   1.438   2.023   9.669  0.1726 -2.5855  0.0720
  958SOL    HW214511   1.436   2.062   9.527  1.2938 -2.0380 -1.3772
  959SOL     OW14512   4.502   2.842   2.192 -0.2748 -0.1076  0.1138
  959SOL    HW114513   4.493   2.885   2.277 -1.1994 -0.2610  0.0964
  959SOL    HW214514   4.564   2.771   2.208 -0.4058 -0.0902  0.6753
  960SOL     OW14515   0.840   2.357   5.100  0.0199 -0.1759 -0.1497
  960SOL    HW114516   0.879   2.438   5.133  1.6475 -1.1548  0.3442
  960SOL    HW214517   0.827   2.383   5.008  0.3145  0.1863 -0.0918
  961SOL     OW14518   3.354   3.841   6.686 -0.3168 -1.0616  0.0580
  961SOL    HW114519   3.409   3.899   6.740 -1.1990  1.0313 -1.2700
  961SOL    HW214520   3.423   3.806   6.629  0.5329 -0.0697  0.4641
  962SOL     OW14521   3.636   4.536   7.631  0.2300  0.1411  0.0904
  962SOL    HW114522   3.561   4.477   7.623  1.1944 -0.9657 -0.8396
  962SOL    HW214523   3.620   4.606   7.567  0.3573  0.9600  0.9695
  963SOL     OW14524   2.830   0.089   8.665  0.1939  0.2632 -0.2509
  963SOL    HW114525   2.922   0.073   8.686  0.5520 -0.8802 -2.6737
  963SOL    HW214526   2.785   0.027   8.723 -0.2689  1.4123  0.6137
  964SOL     OW14527   4.538   2.954   4.943 -0.4550  0.9287  0.2064
  964SOL    HW114528   4.534   3.001   4.860 -0.5132  0.1899 -0.2027
  964SOL    HW214529   4.453   2.912   4.930  0.7761 -1.3584 -0.4363
  965SOL     OW14530   0.559   0.943   8.678 -0.0898 -0.6081 -0.1120
  965SOL    HW114531   0.580   0.995   8.756  2.0614  0.6819 -1.5449
  965SOL    HW214532   0.474   0.982   8.658 -0.5215 -2.0358 -1.0154
  966SOL     OW14533   2.968   2.879   1.677  0.0606 -0.5206  0.2035
  966SOL    HW114534   2.948   2.951   1.737  0.8355  0.4014 -0.6417
  966SOL    HW214535   2.987   2.941   1.606  4.5037  2.7161  4.2094
  967SOL     OW14536   4.721   1.897   7.211  0.3523 -0.6954  0.1614
  967SOL    HW114537   4.627   1.905   7.228  0.0647  0.0470 -1.6958
  967SOL    HW214538   4.723   1.817   7.160  1.7026 -0.0124 -0.8662
  968SOL     OW14539   3.854   3.205   6.965  0.4990 -0.3975  0.1025
  968SOL    HW114540   3.939   3.249   6.960  1.5029 -2.3123  0.5170
  968SOL    HW214541   3.842   3.180   7.057  1.9614  1.6251  0.8405
  969SOL     OW14542   2.998   4.059   3.303  0.1226 -0.0387 -0.6259
  969SOL    HW114543   2.989   4.132   3.363 -0.5585  0.1327 -0.9264
  969SOL    HW214544   3.018   4.101   3.219 -2.1129 -2.0084 -2.1903
  970SOL     OW14545   3.050   2.538   3.363 -0.0919 -0.0865 -0.5209
  970SOL    HW114546   3.006   2.490   3.433  0.0327 -0.3411 -0.6160
  970SOL    HW214547   3.055   2.476   3.290 -5.0404  1.2980 -2.0128
  971SOL     OW14548   2.573   4.147   2.871  0.0171 -0.4521 -0.3797
  971SOL    HW114549   2.663   4.177   2.886  0.7125 -2.4881 -0.4726
  971SOL    HW214550   2.590   4.088   2.798 -0.2587 -1.5112  0.4109
  972SOL     OW14551   3.818   1.655   5.429 -0.0486  0.1114 -0.0039
  972SOL    HW114552   3.913   1.665   5.433 -0.2664  2.3176 -0.2893
  972SOL    HW214553   3.808   1.680   5.337  1.3995  2.9380  0.6022
  973SOL     OW14554   0.418   1.624   7.151 -0.1289  0.1971  0.4016
  973SOL    HW114555   0.473   1.546   7.149  1.1323  1.1009  0.2149
  973SOL    HW214556   0.461   1.677   7.085 -1.5430  0.2657 -0.4743
  974SOL     OW14557   4.189   3.492   5.282  0.2757  0.2424  0.2326
  974SOL    HW114558   4.095   3.506   5.294  0.3587  0.8310  0.2081
  974SOL    HW214559   4.197   3.448   5.197  0.3206 -2.2711  1.5563
  975SOL     OW14560   1.106   0.748   5.292 -1.1304 -0.4995  0.3535
  975SOL    HW114561   1.123   0.842   5.290 -2.3161 -0.3906 -3.9721
  975SOL    HW214562   1.162   0.717   5.222  0.5284  1.5346  0.7572
  976SOL     OW14563   2.767   1.301   7.476  0.1152  0.2330  0.3242
  976SOL    HW114564   2.705   1.345   7.535 -1.2488 -2.3876  0.8242
  976SOL    HW214565   2.771   1.362   7.402  0.4567  1.8629  1.6747
  977SOL     OW14566   2.562   4.127   3.626  0.2006 -0.3485 -0.5802
  977SOL    HW114567   2.520   4.182   3.561  1.2474  2.6044  1.2252
  977SOL    HW214568   2.544   4.177   3.706  0.8765 -1.0895  0.0415
  978SOL     OW14569   3.639   4.025   6.667  0.2289 -0.8556  0.0789
  978SOL    HW114570   3.649   3.944   6.718  0.5530 -1.9491 -1.7048
  978SOL    HW214571   3.609   4.087   6.732  2.6251  1.1278 -0.6834
  979SOL     OW14572   3.036   0.557   3.581  0.4323  0.9462  0.6347
  979SOL    HW114573   2.942   0.556   3.561  0.4277 -2.3097  0.7087
  979SOL    HW214574   3.042   0.645   3.618  1.0943  2.3178 -2.7156
  980SOL     OW14575   1.561   0.022   7.616  0.1578 -0.0767  0.0877
  980SOL    HW114576   1.643   0.018   7.666  0.7266 -1.8132 -0.9834
  980SOL    HW214577   1.529   0.106   7.648  2.1090  0.7139 -0.0485
  981SOL     OW14578   2.887   3.830   8.810  0.3454  0.0157 -0.2057
  981SOL    HW114579   2.860   3.887   8.737  2.2262  0.3833 -0.6286
  981SOL    HW214580   2.808   3.824   8.862  1.5294  0.4624  1.6338
  982SOL     OW14581   2.499   0.029  14.894  0.0697 -0.2169 -0.3618
  982SOL    HW114582   2.592   0.010  14.909 -0.0893 -0.7864 -0.1206
  982SOL    HW214583   2.507   0.087  14.818 -0.9201  0.7179  0.2495
  983SOL     OW14584   2.726   3.297   3.841  0.0283 -0.1288 -0.0228
  983SOL    HW114585   2.684   3.378   3.810  1.8123 -0.0946 -2.3575
  983SOL    HW214586   2.645   3.248   3.832  1.4759 -2.1532 -1.9415
  984SOL     OW14587   2.457   1.005  11.156 -0.7200  0.0676 -0.1466
  984SOL    HW114588   2.514   0.946  11.107  0.1703  0.6804  0.1303
  984SOL    HW214589   2.481   1.092  11.124  0.7358  0.6323  2.4416
  985SOL     OW14590   1.288   2.492   6.208 -0.3856  0.0837  0.0066
  985SOL    HW114591   1.360   2.553   6.193  0.6688 -1.0814  0.3980
  985SOL    HW214592   1.327   2.413   6.243  0.3595  1.4318  2.1877
  986SOL     OW14593   1.124   3.284  16.914  0.3333 -0.1764  0.4298
  986SOL    HW114594   1.055   3.339  16.877  2.0878  0.6665 -1.5939
  986SOL    HW214595   1.114   3.299  17.008 -0.2821 -2.1077  0.6699
  987SOL     OW14596   1.791   0.869  13.166  0.5408 -0.0647  0.4286
  987SOL    HW114597   1.863   0.839  13.222 -1.1292  0.1738  2.7071
  987SOL    HW214598   1.718   0.863  13.228 -0.3320  1.1801 -0.4706
  988SOL     OW14599   3.585   1.712   6.039 -0.0757 -0.3387  0.2206
  988SOL    HW114600   3.516   1.764   6.080 -1.0740  0.1327 -2.0874
  988SOL    HW214601   3.586   1.641   6.103 -0.2301 -0.1255  0.4616
  989SOL     OW14602   3.255   4.626   5.095 -0.3401 -0.5572  0.5533
  989SOL    HW114603   3.212   4.551   5.055  0.4930 -0.7244 -0.0309
  989SOL    HW214604   3.195   4.699   5.077  1.9816  1.0847 -0.4526
  990SOL     OW14605   1.900   1.202  11.277  0.0438  0.2858 -0.0955
  990SOL    HW114606   1.838   1.139  11.240  1.8950 -0.1838 -2.4731
  990SOL    HW214607   1.880   1.284  11.233 -0.0153  0.6172  0.5560
  991SOL     OW14608   0.172   3.344   4.901 -0.2669  0.4795  0.3233
  991SOL    HW114609   0.205   3.256   4.879 -1.1521 -0.1093  1.3582
  991SOL    HW214610   0.108   3.335   4.971  0.1889 -0.2371  0.6555
  992SOL     OW14611   3.107   2.374   3.146 -0.5371  0.3328 -0.5717
  992SOL    HW114612   3.125   2.438   3.077 -1.0218  0.3103 -0.7209
  992SOL    HW214613   3.192   2.331   3.144 -1.3662 -1.2901 -1.4748
  993SOL     OW14614   1.707   1.656   5.398  0.0140 -0.1516 -0.2725
  993SOL    HW114615   1.678   1.728   5.455 -0.8350 -0.5080 -0.2563
  993SOL    HW214616   1.796   1.686   5.380 -0.0957  0.5738  0.3743
  994SOL     OW14617   3.906   1.421   7.876  0.1671 -0.0949  0.3310
  994SOL    HW114618   3.970   1.351   7.887  0.1512 -0.4379 -1.9295
  994SOL    HW214619   3.926   1.460   7.962  2.5932 -0.1962 -0.1919
  995SOL     OW14620   1.976   4.324  14.436  0.3444 -0.0383 -0.2284
  995SOL    HW114621   1.920   4.397  14.464 -1.4226 -1.2882 -0.5164
  995SOL    HW214622   1.910   4.255  14.438  1.2666 -0.8339  1.8649
  996SOL     OW14623   2.389   0.896   2.855  0.0841 -0.5684 -0.3342
  996SOL    HW114624   2.443   0.836   2.907  2.5826 -0.7884 -3.1696
  996SOL    HW214625   2.304   0.852   2.867  0.5295 -0.9173  1.5345
  997SOL     OW14626   2.222   3.173   7.777  0.4441  0.2950 -0.1347
  997SOL    HW114627   2.256   3.238   7.716  1.0414 -0.4685 -0.6169
  997SOL    HW214628   2.170   3.125   7.713  0.3619  0.8104 -0.4567
  998SOL     OW14629   0.107   1.935   3.048 -0.2514  0.1873  0.1502
  998SOL    HW114630   0.080   1.932   3.139  0.1155 -0.6856  0.2355
  998SOL    HW214631   0.194   1.973   3.062 -0.6449  0.9261  0.6072
  999SOL     OW14632   2.155   2.508  15.290 -0.3596 -0.2177 -0.0674
  999SOL    HW114633   2.101   2.461  15.227 -0.0232  0.5248 -0.9037
  999SOL    HW214634   2.155   2.449  15.366 -0.5732 -0.1742 -0.0349
 1000SOL     OW14635   2.681   3.710   1.765  0.1548  0.0680 -0.4226
 1000SOL    HW114636   2.774   3.735   1.772 -0.1887  1.8130 -2.1477
 1000SOL    HW214637   2.646   3.799   1.758 -0.7537 -0.2216  0.5508
 1001SOL     OW14638   4.243   0.618   4.541  0.1119  0.6203  0.1179
 1001SOL    HW114639   4.228   0.531   4.576  1.8443  0.1838 -0.2238
 1001SOL    HW214640   4.315   0.649   4.596 -0.6343 -1.9080  2.4701
 1002SOL     OW14641   1.976   0.739   8.224  0.2211 -0.2647  0.7741
 1002SOL    HW114642   1.932   0.780   8.150  0.5385 -1.9480 -0.3348
 1002SOL    HW214643   1.954   0.648   8.209  2.0283 -0.6379  0.3433
 1003SOL     OW14644   3.658   2.364   3.805 -0.9786 -0.3414 -0.0266
 1003SOL    HW114645   3.736   2.396   3.759 -0.2334 -2.3213 -0.1317
 1003SOL    HW214646   3.588   2.425   3.780 -0.5628  0.5961  1.0826
 1004SOL     OW14647   4.222   3.200  12.474 -0.1214  0.4886 -0.2200
 1004SOL    HW114648   4.149   3.206  12.537 -0.4618  2.5665 -0.8289
 1004SOL    HW214649   4.203   3.273  12.416 -0.1996 -0.5436 -1.4822
 1005SOL     OW14650   1.175   3.865  12.221  0.3675 -0.3243 -0.5531
 1005SOL    HW114651   1.201   3.841  12.310  2.1244 -0.2585 -1.0436
 1005SOL    HW214652   1.149   3.956  12.232 -1.2563 -0.9406  0.5885
 1006SOL     OW14653   3.200   3.704   3.937  0.4131  0.2001 -0.4711
 1006SOL    HW114654   3.163   3.769   3.878  0.4792 -1.0720 -1.9107
 1006SOL    HW214655   3.235   3.639   3.876  0.4227 -0.7682  0.5469
 1007SOL     OW14656   3.802   0.954   8.276 -0.2228 -0.2395  0.2327
 1007SOL    HW114657   3.804   0.965   8.371 -0.1017 -1.4293  0.3666
 1007SOL    HW214658   3.883   1.000   8.251 -1.3056  2.0201  0.8650
 1008SOL     OW14659   4.086   3.512   9.000 -0.1353  0.6398  0.2370
 1008SOL    HW114660   4.019   3.471   9.055 -0.6294  1.3736  0.1768
 1008SOL    HW214661   4.056   3.486   8.913  0.1467  0.6822  0.1267
 1009SOL     OW14662   3.561   3.323  16.460 -0.6362 -0.0544  0.4888
 1009SOL    HW114663   3.597   3.396  16.409  0.4350 -0.6971  0.3084
 1009SOL    HW214664   3.489   3.294  16.403 -1.0768  0.3192  0.8606
 1010SOL     OW14665   2.234   0.272   7.380  0.3777  0.8570  0.1623
 1010SOL    HW114666   2.172   0.344   7.386 -2.1809 -1.3354  0.2842
 1010SOL    HW214667   2.262   0.279   7.289 -0.2787 -1.3902 -0.2112
 1011SOL     OW14668   3.908   2.908   1.846  0.1638  0.0215 -0.0156
 1011SOL    HW114669   3.863   2.992   1.852 -1.5882 -0.8222 -1.6384
 1011SOL    HW214670   3.837   2.847   1.860  1.7284 -2.2186 -1.9399
 1012SOL     OW14671   0.694   4.219  11.555  0.1304 -0.5740 -0.8748
 1012SOL    HW114672   0.621   4.209  11.493 -0.6514  0.5588 -0.1348
 1012SOL    HW214673   0.770   4.256  11.510  0.3696 -2.0044 -1.6436
 1013SOL     OW14674   0.152   4.301   2.886 -0.1200 -0.4494  0.3088
 1013SOL    HW114675   0.107   4.351   2.954  0.9618 -1.3567  1.6983
 1013SOL    HW214676   0.075   4.253   2.854 -0.2193 -0.5178  0.6445
 1014SOL     OW14677   1.345   4.627   4.969 -0.0386  0.8256 -0.1508
 1014SOL    HW114678   1.308   4.575   5.040 -0.5200  1.3692  0.0014
 1014SOL    HW214679   1.293   4.598   4.894  0.4855  0.2028 -0.2772
 1015SOL     OW14680   2.358   2.862   9.296 -0.4587  0.4146  0.2364
 1015SOL    HW114681   2.265   2.878   9.310 -0.8618 -0.9223 -0.8960
 1015SOL    HW214682   2.387   2.834   9.383  0.5919 -2.0236 -0.8964
 1016SOL     OW14683   3.383   2.975  13.992 -0.0305  0.5296 -0.2388
 1016SOL    HW114684   3.308   2.919  14.012  0.3471  0.5152  1.1293
 1016SOL    HW214685   3.344   3.054  14.030  1.0823  1.7800 -1.6858
 1017SOL     OW14686   0.260   0.973   5.706  0.2417 -0.0364 -0.1096
 1017SOL    HW114687   0.272   0.897   5.650 -0.7973 -0.3729  0.1300
 1017SOL    HW214688   0.200   1.027   5.654 -0.8526 -0.2436  0.9366
 1018SOL     OW14689   1.895   0.604   5.980  0.1381 -0.0642  0.2936
 1018SOL    HW114690   1.825   0.639   6.036 -0.9088  0.2838 -1.2519
 1018SOL    HW214691   1.855   0.617   5.894 -0.1713  0.8335  0.5708
 1019SOL     OW14692   0.332   0.022   6.744  0.4381  0.5714 -0.1474
 1019SOL    HW114693   0.370   4.671   6.760 -0.6168  0.3877  1.4495
 1019SOL    HW214694   0.298   0.012   6.655 -0.4179 -2.3231  0.5055
 1020SOL     OW14695   3.565   2.114  16.032 -0.0155  0.3219  0.0024
 1020SOL    HW114696   3.478   2.085  16.059 -0.6055  1.9658 -0.0929
 1020SOL    HW214697   3.584   2.074  15.948 -0.5518  1.5777 -0.7156
 1021SOL     OW14698   1.554   2.371  11.735 -0.4035 -0.0876 -0.1321
 1021SOL    HW114699   1.626   2.359  11.797 -1.4424 -2.4869  0.5889
 1021SOL    HW214700   1.478   2.394  11.788 -0.5496 -2.7443  0.7974
 1022SOL     OW14701   2.927   0.157  12.377  0.3570  0.3047  0.2600
 1022SOL    HW114702   2.853   0.198  12.422  1.1992  0.2031  1.7177
 1022SOL    HW214703   2.994   0.156  12.445  1.2348 -1.7463 -0.6386
 1023SOL     OW14704   3.124   3.515   8.937  0.5402 -0.1636  0.4559
 1023SOL    HW114705   3.163   3.430   8.955  0.5360 -0.2561  0.0184
 1023SOL    HW214706   3.031   3.492   8.937  0.1528  1.3721 -0.1160
 1024SOL     OW14707   2.554   2.975   8.236  0.4010 -0.2539  0.5471
 1024SOL    HW114708   2.603   3.056   8.254  0.2666  0.0714 -0.5618
 1024SOL    HW214709   2.467   3.012   8.220  0.5950 -0.3914 -0.8630
 1025SOL     OW14710   0.531   1.984   3.632  0.2112  0.2808 -0.3823
 1025SOL    HW114711   0.444   1.991   3.672 -0.6037  0.4574 -2.1616
 1025SOL    HW214712   0.548   1.891   3.648  0.0849  0.3844  0.3443
 1026SOL     OW14713   1.936   0.987   4.149 -0.2682  0.1199  0.8983
 1026SOL    HW114714   1.888   0.954   4.224 -2.4379  1.2851  0.0037
 1026SOL    HW214715   1.968   1.072   4.176 -0.9004  0.7515 -0.3414
 1027SOL     OW14716   3.291   1.009  16.252 -0.4784 -0.4880 -0.0695
 1027SOL    HW114717   3.298   1.101  16.230  0.8362 -0.4771  0.3590
 1027SOL    HW214718   3.251   1.012  16.339  1.5907 -0.1535  0.8715
 1028SOL     OW14719   1.192   4.338   9.010 -0.2793 -0.5684  0.5002
 1028SOL    HW114720   1.113   4.290   8.987 -0.0811 -1.1759  1.1064
 1028SOL    HW214721   1.159   4.374   9.092 -0.0052  0.2062  0.2689
 1029SOL     OW14722   3.416   2.669   6.375 -0.1941  0.7822  0.1044
 1029SOL    HW114723   3.443   2.620   6.297 -2.2655 -0.7815  0.3762
 1029SOL    HW214724   3.399   2.593   6.431 -0.6759 -0.4198 -1.6660
 1030SOL     OW14725   0.725   0.508   5.580  0.4956  0.4248  0.1177
 1030SOL    HW114726   0.785   0.520   5.507 -1.1313 -0.0564 -1.3005
 1030SOL    HW214727   0.736   0.413   5.588 -0.1153  0.4618  1.3695
 1031SOL     OW14728   1.554   2.124   6.876 -1.0297 -0.3002 -0.1030
 1031SOL    HW114729   1.606   2.189   6.829 -0.2618 -1.3074 -0.6173
 1031SOL    HW214730   1.592   2.039   6.858 -0.8240 -0.0297 -0.9331
 1032SOL     OW14731   0.391   4.263  13.383 -0.0995  0.2822  0.5244
 1032SOL    HW114732   0.415   4.180  13.425  1.5352  0.4935 -0.0109
 1032SOL    HW214733   0.422   4.322  13.451  1.8257  1.3164 -1.2552
 1033SOL     OW14734   1.001   3.631   5.340 -0.3572 -0.0845  0.1665
 1033SOL    HW114735   1.068   3.605   5.402  0.8393  0.8073 -0.7483
 1033SOL    HW214736   1.046   3.706   5.301 -1.2107  0.6514  0.5809
 1034SOL     OW14737   4.206   1.042   6.289 -0.1831 -0.6495 -0.3334
 1034SOL    HW114738   4.220   0.958   6.245 -0.5643 -1.6402  1.4207
 1034SOL    HW214739   4.294   1.063   6.321 -0.7772  1.8155 -0.3176
 1035SOL     OW14740   2.063   2.612   6.560  0.1676  0.2650  0.3079
 1035SOL    HW114741   2.034   2.681   6.501  1.4481  0.1435 -0.4555
 1035SOL    HW214742   2.060   2.659   6.644  0.1521 -0.9071  0.9616
 1036SOL     OW14743   0.738   1.728   4.899  0.1423 -0.2391  0.2506
 1036SOL    HW114744   0.704   1.786   4.831 -0.8425  1.0792  1.8647
 1036SOL    HW214745   0.658   1.704   4.946  0.1570 -0.1331  0.3292
 1037SOL     OW14746   2.351   2.981   6.182  0.6394  0.3594 -0.2018
 1037SOL    HW114747   2.423   2.986   6.119 -1.5127  1.3142 -2.5460
 1037SOL    HW214748   2.289   3.041   6.142  0.1637  0.3098  0.4754
 1038SOL     OW14749   3.992   1.574   8.604 -0.5079 -0.7040  0.5664
 1038SOL    HW114750   3.907   1.548   8.638  0.1802  0.8665  3.4641
 1038SOL    HW214751   4.044   1.578   8.684  0.2691  0.8300  0.0058
 1039SOL     OW14752   0.729   3.520   7.066  0.2158 -0.4758  0.3112
 1039SOL    HW114753   0.712   3.553   6.978  1.6918  1.2597  0.6973
 1039SOL    HW214754   0.747   3.602   7.112 -2.2109 -1.6864  3.4491
 1040SOL     OW14755   2.764   0.599   4.822 -0.5103 -0.2670 -0.9972
 1040SOL    HW114756   2.673   0.609   4.852 -1.2313 -3.8455 -1.9861
 1040SOL    HW214757   2.805   0.678   4.855 -2.4688  0.4494 -0.2489
 1041SOL     OW14758   2.307   2.648  17.589  0.0849 -0.0281 -0.1343
 1041SOL    HW114759   2.263   2.570  17.554  1.1967  0.3081 -2.2877
 1041SOL    HW214760   2.333   2.685  17.504 -0.1342 -0.2477 -0.2983
 1042SOL     OW14761   0.144   1.946   7.948  0.5493 -0.9644  0.1261
 1042SOL    HW114762   0.211   1.991   7.896 -0.7820  2.0210  1.0007
 1042SOL    HW214763   0.093   1.908   7.877  0.3858 -0.1796 -0.1825
 1043SOL     OW14764   3.165   4.498   6.356 -0.0439 -0.0220 -0.0186
 1043SOL    HW114765   3.139   4.556   6.428  2.4761 -0.2298  1.0534
 1043SOL    HW214766   3.092   4.506   6.294 -0.8566  3.2987  1.3560
 1044SOL     OW14767   2.806   4.360  10.583  0.3778 -0.1646  0.0720
 1044SOL    HW114768   2.759   4.435  10.546  1.6777  1.8699  2.5080
 1044SOL    HW214769   2.744   4.319  10.643  1.1686  0.2055  1.1407
 1045SOL     OW14770   3.548   2.290   3.230 -0.5746 -0.3059  0.3472
 1045SOL    HW114771   3.555   2.330   3.144  3.1840  0.8934  1.2050
 1045SOL    HW214772   3.477   2.343   3.267  0.3570  1.6517 -0.7228
 1046SOL     OW14773   1.190   2.609  17.010  0.0781  0.4741 -0.0929
 1046SOL    HW114774   1.135   2.618  16.932  0.3774 -0.3132 -0.3927
 1046SOL    HW214775   1.231   2.695  17.012 -0.5483  0.7791 -0.3739
 1047SOL     OW14776   0.644   3.459  16.351  0.0085 -0.0603  0.5664
 1047SOL    HW114777   0.677   3.519  16.418 -1.9386 -0.6129  2.0295
 1047SOL    HW214778   0.684   3.501  16.275 -1.0588 -1.9753 -1.0551
 1048SOL     OW14779   1.094   3.921  15.341  0.5875 -0.0571  0.5167
 1048SOL    HW114780   1.053   3.885  15.420  1.9178  0.2392  1.3545
 1048SOL    HW214781   1.062   4.011  15.337 -1.6518 -0.7855  1.8958
 1049SOL     OW14782   0.113   3.767   2.224  0.0703 -0.1260  0.1469
 1049SOL    HW114783   0.166   3.695   2.260  0.0996 -0.6071 -0.8466
 1049SOL    HW214784   0.025   3.745   2.255 -0.8139 -1.8013 -3.5819
 1050SOL     OW14785   1.683   3.272   5.283  0.4410 -0.0596  0.0616
 1050SOL    HW114786   1.774   3.245   5.272 -0.2829 -2.4468  0.0089
 1050SOL    HW214787   1.630   3.199   5.314 -0.7569  1.4665  1.5998
 1051SOL     OW14788   4.543   1.808   6.069  0.0381  0.7028 -0.1362
 1051SOL    HW114789   4.485   1.744   6.028  0.8160 -0.8601  1.1891
 1051SOL    HW214790   4.481   1.867   6.113  0.5123  1.3718 -0.3629
 1052SOL     OW14791   2.695   0.484  13.029 -0.1656 -0.2953 -0.2761
 1052SOL    HW114792   2.753   0.556  13.053 -0.5833  0.0938 -0.4212
 1052SOL    HW214793   2.738   0.458  12.948  0.0134  1.6208 -0.7836
 1053SOL     OW14794   2.901   3.790  10.799 -0.0582 -0.4043  0.3699
 1053SOL    HW114795   2.975   3.794  10.739 -1.1027 -0.1643 -0.8937
 1053SOL    HW214796   2.883   3.696  10.810 -0.6168 -0.5139 -1.4403
 1054SOL     OW14797   2.640   3.923   2.077  0.3036 -0.2234  0.2075
 1054SOL    HW114798   2.546   3.920   2.064 -0.1411  1.1455  3.0056
 1054SOL    HW214799   2.675   3.837   2.054  0.3454  0.6240 -2.8765
 1055SOL     OW14800   3.352   4.109   2.485  0.6445 -0.2248 -0.3546
 1055SOL    HW114801   3.390   4.035   2.437  0.1633 -0.7809  0.1312
 1055SOL    HW214802   3.419   4.129   2.550 -0.2849 -0.9716  0.8242
 1056SOL     OW14803   2.559   1.339   0.560 -0.2960  0.6469 -0.5501
 1056SOL    HW114804   2.524   1.283   0.491 -0.7224  1.9791 -1.3964
 1056SOL    HW214805   2.488   1.398   0.584  0.9208  1.8930 -0.0226
 1057SOL     OW14806   1.617   2.853   4.763 -0.0772 -0.2622  0.4424
 1057SOL    HW114807   1.705   2.837   4.729 -0.3261 -1.6619  0.4576
 1057SOL    HW214808   1.606   2.945   4.740 -1.1359 -0.3979  0.3629
 1058SOL     OW14809   2.443   3.256   1.181 -0.1563  0.4582 -0.0077
 1058SOL    HW114810   2.408   3.291   1.263 -1.9460  0.0896 -0.6258
 1058SOL    HW214811   2.490   3.332   1.146  1.2938 -1.1487 -1.5682
 1059SOL     OW14812   1.303   0.126  12.539 -0.1803 -0.5851 -0.1535
 1059SOL    HW114813   1.365   0.079  12.483  0.3252  1.3481 -1.1977
 1059SOL    HW214814   1.343   0.211  12.553 -1.0279 -0.0655 -0.8776
 1060SOL     OW14815   4.268   2.131   2.509  0.0993 -0.2392  0.0377
 1060SOL    HW114816   4.222   2.070   2.453 -2.5054  1.9355 -0.1779
 1060SOL    HW214817   4.344   2.074   2.520 -0.9605 -1.2575  2.0750
 1061SOL     OW14818   1.091   0.110   3.444  0.3811 -0.7315 -0.4328
 1061SOL    HW114819   1.000   0.123   3.471  0.0543  0.0143 -1.9123
 1061SOL    HW214820   1.118   0.058   3.521  2.8551 -0.3325 -1.0235
 1062SOL     OW14821   3.111   2.873   8.704 -0.5758  0.5482  0.4047
 1062SOL    HW114822   3.179   2.913   8.650  0.6174 -0.2598  1.3029
 1062SOL    HW214823   3.029   2.912   8.675 -0.1568 -0.0787 -1.6307
 1063SOL     OW14824   1.593   0.271   5.485 -0.0515 -0.0558 -0.4285
 1063SOL    HW114825   1.598   0.203   5.418 -1.4257  0.6500 -1.2490
 1063SOL    HW214826   1.567   0.221   5.562  1.1609  1.1364  0.7538
 1064SOL     OW14827   0.573   1.476   5.921  0.0866  0.0518  0.7864
 1064SOL    HW114828   0.639   1.511   5.981  0.5065 -0.5777  0.6911
 1064SOL    HW214829   0.626   1.461   5.843  0.5168 -0.7166  1.2183
 1065SOL     OW14830   4.434   4.329   9.422  0.9087 -0.2858 -0.9154
 1065SOL    HW114831   4.477   4.248   9.392  1.3675 -0.9548  1.6006
 1065SOL    HW214832   4.468   4.338   9.511 -1.7029  0.3325  0.0103
 1066SOL     OW14833   0.118   2.270   8.302  0.5584  0.2645  0.0262
 1066SOL    HW114834   0.031   2.275   8.342  0.5201 -0.0611 -0.0163
 1066SOL    HW214835   0.095   2.241   8.214  0.3915  0.5372 -0.0200
 1067SOL     OW14836   0.280   1.669   2.887 -0.9170 -0.2228 -0.3838
 1067SOL    HW114837   0.242   1.732   2.949  0.1707  1.0654 -1.0336
 1067SOL    HW214838   0.273   1.583   2.929  1.6353 -0.3844 -0.2565
 1068SOL     OW14839   3.588   2.269   5.834 -0.3834 -0.3934  0.4905
 1068SOL    HW114840   3.616   2.249   5.744 -2.6862 -0.1527 -0.2685
 1068SOL    HW214841   3.498   2.296   5.814 -0.3470  0.9003  2.0687
 1069SOL     OW14842   1.791   4.605  10.234 -0.3018  0.6245  0.0728
 1069SOL    HW114843   1.746   4.613  10.150 -1.0267 -0.5503  0.3557
 1069SOL    HW214844   1.823   4.515  10.237 -2.1661 -0.0027  0.9032
 1070SOL     OW14845   4.449   2.680   8.093 -0.1638 -0.1721 -0.5314
 1070SOL    HW114846   4.543   2.700   8.101 -0.4370  1.2798 -0.9570
 1070SOL    HW214847   4.430   2.700   8.001 -0.3155 -2.2556 -0.9644
 1071SOL     OW14848   4.241   1.576   1.937 -0.2499  0.0894  0.5992
 1071SOL    HW114849   4.232   1.517   1.862  2.5934  0.9290 -0.4097
 1071SOL    HW214850   4.336   1.591   1.941 -0.4396  1.6480 -0.8866
 1072SOL     OW14851   2.585   1.721   1.803  0.0999  0.4003  0.1667
 1072SOL    HW114852   2.508   1.728   1.747  2.1213  0.5051 -2.6130
 1072SOL    HW214853   2.639   1.795   1.774  0.8620  0.3502  1.4524
 1073SOL     OW14854   0.929   2.909  10.194  0.3051 -0.1048  0.4829
 1073SOL    HW114855   0.853   2.853  10.209 -1.0590  1.6585  0.1744
 1073SOL    HW214856   0.892   2.996  10.208 -0.4126 -0.4904  0.9877
 1074SOL     OW14857   0.693   4.312   3.684 -0.6413 -0.0337  0.3125
 1074SOL    HW114858   0.614   4.266   3.655 -0.5673 -0.7401  1.2367
 1074SOL    HW214859   0.736   4.241   3.732 -2.4710  0.2963  2.4649
 1075SOL     OW14860   3.115   0.489   6.933 -0.1874  0.1317 -0.2239
 1075SOL    HW114861   3.211   0.492   6.934 -0.2463  2.2707 -0.6200
 1075SOL    HW214862   3.090   0.564   6.879 -0.6844 -0.7668 -1.2346
 1076SOL     OW14863   2.223   1.712   2.988  0.0375  0.5043 -0.0039
 1076SOL    HW114864   2.218   1.771   2.913 -0.5096  0.8412  0.2976
 1076SOL    HW214865   2.205   1.764   3.066 -1.3591 -0.4851  0.3378
 1077SOL     OW14866   3.630   4.543   1.683  0.1290  0.2097  0.3674
 1077SOL    HW114867   3.696   4.488   1.726  0.3845  1.5881  1.7299
 1077SOL    HW214868   3.551   4.496   1.713  0.8852 -0.3774  1.4530
 1078SOL     OW14869   0.007   1.233   5.534 -0.3775  0.2974  0.1762
 1078SOL    HW114870   4.653   1.231   5.569 -1.4668  0.4976 -2.5658
 1078SOL    HW214871   0.048   1.250   5.618  1.8329  0.5350 -0.9450
 1079SOL     OW14872   2.259   1.685  13.965 -0.1937  0.2317  0.5098
 1079SOL    HW114873   2.303   1.600  13.970  2.0861  1.2112 -2.8801
 1079SOL    HW214874   2.296   1.741  14.033 -0.4904 -0.7924  1.5151
 1080SOL     OW14875   0.754   1.780   0.193  0.2718  0.3347  0.2575
 1080SOL    HW114876   0.774   1.861   0.146 -0.6796  1.1817  1.3264
 1080SOL    HW214877   0.737   1.808   0.283 -1.2020  0.8250 -0.1718
 1081SOL     OW14878   2.680   3.841   8.974  0.2463  0.6650  0.4226
 1081SOL    HW114879   2.674   3.874   9.063  0.1603 -0.5433  0.8651
 1081SOL    HW214880   2.675   3.750   9.003 -0.2495  0.6782  0.3855
 1082SOL     OW14881   1.804   2.523   8.103 -0.2472 -0.5880 -0.4867
 1082SOL    HW114882   1.795   2.618   8.089 -0.3018 -0.2238  1.9686
 1082SOL    HW214883   1.775   2.508   8.193 -3.5233  1.6021 -1.1696
 1083SOL     OW14884   3.495   1.078  10.055  0.3588 -0.8062 -0.1203
 1083SOL    HW114885   3.458   1.002  10.011  2.1470 -1.5923 -0.2745
 1083SOL    HW214886   3.464   1.077  10.146  0.4999  1.4699 -0.0399
 1084SOL     OW14887   3.507   1.019   8.001 -0.6696  0.6146 -0.0224
 1084SOL    HW114888   3.599   1.044   7.988 -0.2224 -0.6652  0.6996
 1084SOL    HW214889   3.504   0.927   7.977 -0.2394  0.8021 -0.8182
 1085SOL     OW14890   3.666   3.529  12.012  0.1483  0.2756  0.0666
 1085SOL    HW114891   3.727   3.522  12.086 -1.4985 -1.0254  1.3204
 1085SOL    HW214892   3.703   3.596  11.955  0.9860 -1.0279 -0.9301
 1086SOL     OW14893   2.374   3.557  17.070  1.0360  0.5906  0.1904
 1086SOL    HW114894   2.288   3.579  17.037  0.7014 -0.3238  0.4454
 1086SOL    HW214895   2.423   3.583  16.992  2.4492  1.2222  1.2732
 1087SOL     OW14896   4.083   1.566   6.219 -0.3746  0.6087  0.0713
 1087SOL    HW114897   4.133   1.485   6.210  1.3736  1.6848  0.0737
 1087SOL    HW214898   4.013   1.538   6.278  0.1311  1.1932  0.9570
 1088SOL     OW14899   0.216   0.666   3.649  1.1203  0.6503  0.0062
 1088SOL    HW114900   0.213   0.578   3.688  0.1598 -0.0778 -1.7034
 1088SOL    HW214901   0.187   0.726   3.717 -0.7906 -0.1658 -0.1043
 1089SOL     OW14902   2.964   2.177   9.129 -0.0803  0.0706 -0.5874
 1089SOL    HW114903   3.040   2.122   9.144 -1.0710 -1.1110  0.1512
 1089SOL    HW214904   2.895   2.110   9.127  1.5418 -1.6284 -0.2957
 1090SOL     OW14905   1.836   4.286   8.980  0.4535  0.2869  0.4134
 1090SOL    HW114906   1.886   4.365   8.996  2.3925 -0.7495 -0.5066
 1090SOL    HW214907   1.759   4.311   8.928  1.0381  2.6538  0.7101
 1091SOL     OW14908   4.484   4.687  11.053  0.3252  0.7349  0.4152
 1091SOL    HW114909   4.523   4.617  11.106 -0.5660  1.6601  2.3337
 1091SOL    HW214910   4.471   0.018  11.122 -2.9051  0.3184  0.2337
 1092SOL     OW14911   3.368   2.457   4.228  0.7692 -0.0203 -0.4270
 1092SOL    HW114912   3.417   2.380   4.258  1.9881  0.6564 -0.6652
 1092SOL    HW214913   3.447   2.492   4.187  0.4825 -0.5943 -1.4561
 1093SOL     OW14914   1.932   3.441   6.105  0.1226  0.9401 -0.2568
 1093SOL    HW114915   2.026   3.440   6.124  0.3396  2.3857 -1.2986
 1093SOL    HW214916   1.890   3.456   6.189  3.0383  1.9199  1.0215
 1094SOL     OW14917   1.886   4.254   5.159  0.1928  0.3374 -0.4034
 1094SOL    HW114918   1.953   4.315   5.188 -0.7762  0.6126  1.2332
 1094SOL    HW214919   1.835   4.316   5.107  0.9698 -0.2444 -1.8628
 1095SOL     OW14920   0.451   1.334   0.696  0.3476 -0.1419  0.3739
 1095SOL    HW114921   0.544   1.353   0.684  0.1982  1.0730  1.1210
 1095SOL    HW214922   0.428   1.411   0.748 -0.6619  0.9371 -1.6795
 1096SOL     OW14923   4.126   1.263   9.682 -0.2534 -0.1591  0.3281
 1096SOL    HW114924   4.117   1.251   9.777  0.1959 -0.5039  0.3276
 1096SOL    HW214925   4.039   1.298   9.663  0.4068  2.7777  2.7059
 1097SOL     OW14926   1.457   4.044   2.151  0.2918  0.0981 -0.1017
 1097SOL    HW114927   1.447   4.126   2.199 -1.2002  1.5356 -2.8121
 1097SOL    HW214928   1.425   3.997   2.227 -0.7184 -0.7124 -1.0363
 1098SOL     OW14929   2.879   0.122   7.975  0.5465  0.1749 -0.6508
 1098SOL    HW114930   2.923   0.050   8.020 -0.2239 -0.6239 -1.1722
 1098SOL    HW214931   2.826   0.152   8.049  0.7969 -1.2291  0.0742
 1099SOL     OW14932   2.146   0.020   4.651 -0.2738  0.0438  0.3446
 1099SOL    HW114933   2.065   4.712   4.680 -0.1589 -0.8958 -0.7524
 1099SOL    HW214934   2.200   4.678   4.632 -1.6184 -1.2824  1.8560
 1100SOL     OW14935   3.535   0.146  10.655 -0.5561  0.6221 -0.2532
 1100SOL    HW114936   3.468   0.120  10.718 -0.2651 -0.8596 -0.5522
 1100SOL    HW214937   3.560   0.235  10.680  0.1784  0.3179  0.0832
 1101SOL     OW14938   2.704   4.280   9.561 -0.2627  0.2863 -0.3939
 1101SOL    HW114939   2.651   4.202   9.542  1.0680 -0.3686 -1.3899
 1101SOL    HW214940   2.636   4.325   9.611 -2.8580 -1.7147 -2.0953
 1102SOL     OW14941   3.425   3.308  13.386 -0.2407  0.4260 -0.6722
 1102SOL    HW114942   3.480   3.372  13.433 -0.4085 -0.6570  1.0107
 1102SOL    HW214943   3.486   3.245  13.348 -1.1103 -1.3690  0.9237
 1103SOL     OW14944   0.563   1.770   8.440  0.1896  0.0354  0.2474
 1103SOL    HW114945   0.654   1.745   8.452  1.1593  2.9585 -0.9968
 1103SOL    HW214946   0.523   1.686   8.463  0.5818 -0.1493  0.2425
 1104SOL     OW14947   0.287   1.533   4.763 -0.7177 -0.2673 -0.1806
 1104SOL    HW114948   0.236   1.452   4.754  0.6905 -1.1775 -0.0065
 1104SOL    HW214949   0.318   1.530   4.854 -1.3367  1.7269  0.0834
 1105SOL     OW14950   0.156   2.331   3.526 -0.1585 -0.1058  0.0407
 1105SOL    HW114951   0.182   2.245   3.492 -0.7247 -0.2566 -0.0060
 1105SOL    HW214952   0.115   2.364   3.446  0.0309 -2.8930 -1.2169
 1106SOL     OW14953   0.208   4.549   3.256  0.0998 -0.0635  0.3926
 1106SOL    HW114954   0.186   4.639   3.279  0.1867 -0.5763  2.4648
 1106SOL    HW214955   0.282   4.569   3.198  1.1097 -1.6359  1.1424
 1107SOL     OW14956   3.012   3.259  11.883 -0.4380 -0.1658 -0.0635
 1107SOL    HW114957   3.056   3.235  11.802 -3.3624 -3.0063 -0.7861
 1107SOL    HW214958   2.954   3.184  11.895 -0.2235 -0.1488  1.1460
 1108SOL     OW14959   4.293   0.259   7.752 -0.2157 -0.7668 -0.7457
 1108SOL    HW114960   4.290   0.315   7.829 -0.4870 -3.2481  1.0781
 1108SOL    HW214961   4.383   0.264   7.722  0.5371  1.4228  1.8827
 1109SOL     OW14962   2.808   3.780   2.488  0.3903  0.1167  0.3060
 1109SOL    HW114963   2.752   3.711   2.451  0.3595 -0.0984  0.7546
 1109SOL    HW214964   2.745   3.848   2.512  1.9354  0.9999  1.7996
 1110SOL     OW14965   3.424   1.810  14.861  0.0105  0.1076  0.2355
 1110SOL    HW114966   3.450   1.718  14.853  1.4842  0.6856 -1.4465
 1110SOL    HW214967   3.449   1.842  14.774 -1.0501  3.1516  1.0614
 1111SOL     OW14968   2.740   2.516   8.337 -0.7791 -0.1923 -0.7285
 1111SOL    HW114969   2.679   2.571   8.385 -0.6941 -0.1320 -0.6916
 1111SOL    HW214970   2.700   2.541   8.253 -1.8537 -0.8777 -0.4316
 1112SOL     OW14971   4.423   0.351  16.490  0.5016  1.0561  0.5736
 1112SOL    HW114972   4.513   0.317  16.486  0.6968  1.4120  1.9299
 1112SOL    HW214973   4.441   0.415  16.559 -0.6669  2.4869 -0.4621
 1113SOL     OW14974   1.401   3.399   1.032 -0.0783  0.3098 -0.2994
 1113SOL    HW114975   1.318   3.351   1.024 -0.0774  0.3690 -0.7062
 1113SOL    HW214976   1.432   3.390   1.122 -1.0858  0.6495  0.0826
 1114SOL     OW14977   1.133   1.985   4.987  0.5216 -0.2106  0.7292
 1114SOL    HW114978   1.125   2.013   5.078 -2.1882 -0.4776  0.5464
 1114SOL    HW214979   1.167   1.896   4.997 -1.7894 -1.5939 -3.7014
 1115SOL     OW14980   1.277   2.659   4.442  0.0622 -0.1494  0.0056
 1115SOL    HW114981   1.255   2.748   4.417 -0.0468 -0.1681  0.0359
 1115SOL    HW214982   1.275   2.617   4.356  2.2419 -1.1243  0.4217
 1116SOL     OW14983   0.659   4.264   6.920 -0.0172 -0.5537  0.1478
 1116SOL    HW114984   0.588   4.320   6.952  0.0864  0.5111 -1.4852
 1116SOL    HW214985   0.731   4.325   6.939 -0.0252 -0.3384 -0.5080
 1117SOL     OW14986   3.404   2.110   9.966 -0.5469  0.4488 -0.2285
 1117SOL    HW114987   3.493   2.096   9.934 -0.8998  0.0991 -1.0823
 1117SOL    HW214988   3.397   2.205   9.971  2.6865  0.7007 -0.6520
 1118SOL     OW14989   3.900   1.672   8.066  0.3186  0.0662 -0.3477
 1118SOL    HW114990   3.907   1.703   7.976 -0.5994 -1.2200 -0.8603
 1118SOL    HW214991   3.973   1.716   8.110  0.1955  2.0549 -2.1205
 1119SOL     OW14992   0.575   2.931   8.707  0.0552  0.2365  0.2104
 1119SOL    HW114993   0.620   2.871   8.649 -0.4281  0.6184 -0.5634
 1119SOL    HW214994   0.490   2.888   8.719 -0.3121  0.2162 -2.5137
 1120SOL     OW14995   3.880   2.233   7.415 -0.1779 -0.3272 -0.3070
 1120SOL    HW114996   3.862   2.209   7.324  1.2349 -0.6066 -0.5145
 1120SOL    HW214997   3.910   2.323   7.404 -0.6938  0.0993  1.6268
 1121SOL     OW14998   0.746   4.101   3.901  0.1043 -0.4503  0.1966
 1121SOL    HW114999   0.683   4.033   3.925 -0.8889  0.1460 -0.7350
 1121SOL    HW215000   0.718   4.152   3.977 -1.9579 -1.1977 -0.0582
 1122SOL     OW15001   1.887   1.990  10.510  0.2395  0.0523 -0.2079
 1122SOL    HW115002   1.855   1.973  10.599 -1.1660  2.0742 -0.3417
 1122SOL    HW215003   1.974   2.026  10.526  0.7800 -2.1383  1.8020
 1123SOL     OW15004   1.218   4.529   3.495 -0.4220  0.0157  0.1485
 1123SOL    HW115005   1.207   4.440   3.529 -3.0435 -1.0459 -3.4340
 1123SOL    HW215006   1.287   4.521   3.430  0.0707 -0.0038  0.6747
 1124SOL     OW15007   1.337   1.330   7.228  0.0884 -0.1334  0.9139
 1124SOL    HW115008   1.361   1.419   7.252  0.5598 -0.0748  0.2022
 1124SOL    HW215009   1.420   1.288   7.251  0.2274  0.9834  2.4213
 1125SOL     OW15010   4.731   3.584   6.678 -0.3681  0.6844 -0.8264
 1125SOL    HW115011   0.032   3.653   6.622 -1.5605  4.0836  2.6550
 1125SOL    HW215012   0.072   3.525   6.677  0.3861  1.6544 -0.6225
 1126SOL     OW15013   3.298   4.514  17.074 -0.2296 -0.3970  0.4812
 1126SOL    HW115014   3.264   4.529  17.162  1.1989 -1.7333  1.2594
 1126SOL    HW215015   3.229   4.464  17.030 -1.0609 -0.4053  1.7995
 1127SOL     OW15016   3.258   0.536   8.108 -0.1595  0.0270  0.0161
 1127SOL    HW115017   3.163   0.542   8.111 -0.2973 -1.2533 -1.9749
 1127SOL    HW215018   3.281   0.629   8.115 -1.3702  0.3115  0.1293
 1128SOL     OW15019   4.614   2.938   6.910  0.1407  0.3057 -0.0123
 1128SOL    HW115020   4.687   2.877   6.924  0.2920  0.1738 -1.3597
 1128SOL    HW215021   4.583   2.895   6.830  1.1232 -0.5267  0.0425
 1129SOL     OW15022   1.946   3.991   5.467 -0.2703 -0.5406 -0.4658
 1129SOL    HW115023   1.986   4.058   5.521  0.2141  0.5600 -2.2085
 1129SOL    HW215024   1.969   4.020   5.379 -1.2588 -1.0098 -0.8826
 1130SOL     OW15025   0.528   4.047   9.533 -0.8106  0.0296 -0.4097
 1130SOL    HW115026   0.576   4.124   9.502 -0.1796  0.3253  1.2996
 1130SOL    HW215027   0.602   3.986   9.527  0.5119  1.6926 -0.8601
 1131SOL     OW15028   1.264   4.669  10.024 -0.2129 -1.0168 -0.1842
 1131SOL    HW115029   1.236   4.619  10.101  0.2999 -0.9622  0.0342
 1131SOL    HW215030   1.264   0.021  10.065 -0.1689 -1.2408  0.2987
 1132SOL     OW15031   0.519   1.048   5.074  0.3927 -0.3930 -0.0783
 1132SOL    HW115032   0.613   1.054   5.058  0.5657  0.1771  1.1261
 1132SOL    HW215033   0.491   1.107   5.003 -1.1352 -0.3055  0.6070
 1133SOL     OW15034   4.093   0.626   9.332  0.0647  0.4809  0.5785
 1133SOL    HW115035   4.041   0.628   9.412  0.8287 -0.6484  1.1024
 1133SOL    HW215036   4.087   0.533   9.309  1.6032  0.2945  0.9046
 1134SOL     OW15037   1.194   0.180   2.648 -0.3345 -0.1806  0.4298
 1134SOL    HW115038   1.127   0.177   2.579 -0.9619  1.8095  0.9414
 1134SOL    HW215039   1.244   0.104   2.619  0.1459 -0.3366  1.7017
 1135SOL     OW15040   3.791   3.438   1.700  0.5572  0.4402  0.0548
 1135SOL    HW115041   3.799   3.498   1.626 -0.9498  0.7177  0.1263
 1135SOL    HW215042   3.724   3.485   1.748  0.6344  0.8737 -0.2639
 1136SOL     OW15043   0.808   3.545   3.750 -0.0197  0.6235 -0.2086
 1136SOL    HW115044   0.813   3.626   3.800 -2.7480  0.3253  0.5113
 1136SOL    HW215045   0.720   3.547   3.713 -0.5210  0.4089  0.9888
 1137SOL     OW15046   3.778   3.333   4.562  0.2520 -0.1421  0.3279
 1137SOL    HW115047   3.844   3.298   4.503  0.4903 -0.6619  0.9181
 1137SOL    HW215048   3.762   3.415   4.513  1.0039 -0.2404 -0.0713
 1138SOL     OW15049   2.589   3.171   7.203  0.1952  0.0262  1.2005
 1138SOL    HW115050   2.667   3.119   7.183  0.5512  0.4085  1.5948
 1138SOL    HW215051   2.611   3.248   7.151 -0.9194 -0.7738 -0.4493
 1139SOL     OW15052   0.605   0.541  13.102 -0.3694  0.2413  0.3451
 1139SOL    HW115053   0.522   0.588  13.090 -0.7762 -0.7499 -0.6141
 1139SOL    HW215054   0.584   0.454  13.136 -3.0986  1.3322  1.4631
 1140SOL     OW15055   3.960   1.182   7.309 -0.1521  0.8351  0.5726
 1140SOL    HW115056   3.950   1.245   7.239 -0.8606  2.5076  2.1781
 1140SOL    HW215057   4.054   1.190   7.326  0.2216 -0.1599 -0.9613
 1141SOL     OW15058   1.057   1.053   9.071  0.5746 -0.2706 -0.0000
 1141SOL    HW115059   0.964   1.037   9.088  0.4122 -0.1077 -0.7311
 1141SOL    HW215060   1.077   0.976   9.017 -0.3759 -0.7515  0.3413
 1142SOL     OW15061   4.515   1.946   5.424  0.2206 -0.8402  0.6844
 1142SOL    HW115062   4.431   1.909   5.395 -0.0954  0.1393  0.3391
 1142SOL    HW215063   4.527   1.888   5.499  0.0975 -2.8338 -0.8501
 1143SOL     OW15064   2.952   0.678   4.085 -0.0113 -0.6123 -0.4151
 1143SOL    HW115065   2.916   0.765   4.103 -0.6999 -1.0760  0.4364
 1143SOL    HW215066   3.042   0.691   4.117 -0.1594 -1.7839  0.4901
 1144SOL     OW15067   0.854   3.804   3.879 -0.7423  0.3283  0.0758
 1144SOL    HW115068   0.922   3.866   3.905  0.4684 -1.0754  0.2888
 1144SOL    HW215069   0.788   3.814   3.948 -2.4831  0.8564 -1.6652
 1145SOL     OW15070   3.962   1.280   5.615  0.1280  0.0910 -0.1874
 1145SOL    HW115071   3.910   1.230   5.679 -0.6491  0.8329 -0.2542
 1145SOL    HW215072   3.976   1.207   5.554  2.7068  3.0755 -3.1938
 1146SOL     OW15073   3.894   3.787  16.705  0.0946 -0.2628  0.3958
 1146SOL    HW115074   3.881   3.882  16.709 -1.7897 -0.5755  1.8539
 1146SOL    HW215075   3.856   3.750  16.785 -0.0904  2.8859  1.7613
 1147SOL     OW15076   1.172   3.394   5.754  0.3853 -0.1628 -0.0495
 1147SOL    HW115077   1.255   3.404   5.801  0.0792 -0.9375  0.6454
 1147SOL    HW215078   1.177   3.299   5.749 -1.2258 -0.2885  0.4849
 1148SOL     OW15079   4.174   1.431   5.628  0.2786  0.1577 -0.2372
 1148SOL    HW115080   4.165   1.429   5.723 -0.0072 -1.9526 -0.3061
 1148SOL    HW215081   4.099   1.374   5.612  0.9912 -1.2031  1.3586
 1149SOL     OW15082   1.924   0.196   8.794 -0.1838  0.6075 -0.1418
 1149SOL    HW115083   2.013   0.172   8.821 -0.2025  0.5108 -0.1649
 1149SOL    HW215084   1.935   0.174   8.702 -1.1604 -2.1917  0.4119
 1150SOL     OW15085   2.799   2.457   5.017 -0.0433 -0.0531 -0.0152
 1150SOL    HW115086   2.816   2.384   5.077  1.9055 -1.3377 -2.1301
 1150SOL    HW215087   2.703   2.457   5.018 -0.0346  0.8342  1.8599
 1151SOL     OW15088   1.949   2.391   5.481  0.1690 -0.0647 -0.0186
 1151SOL    HW115089   1.975   2.478   5.452 -3.8880  1.1239  0.0426
 1151SOL    HW215090   2.028   2.339   5.465  0.0015 -0.7524  1.3170
 1152SOL     OW15091   2.369   0.827   0.547  0.2252 -0.3722 -0.0863
 1152SOL    HW115092   2.387   0.839   0.640  0.3735  1.6307 -0.3714
 1152SOL    HW215093   2.454   0.811   0.507  0.6310  3.7507 -0.9633
 1153SOL     OW15094   2.338   0.004   4.987 -0.1731 -0.2012  0.0862
 1153SOL    HW115095   2.273   0.065   5.023  0.6940  0.6473  0.2505
 1153SOL    HW215096   2.415   0.057   5.010  0.1713 -0.8593  0.4630
 1154SOL     OW15097   0.419   3.512  15.907 -0.2868  0.4649 -0.4398
 1154SOL    HW115098   0.353   3.580  15.901 -0.8853 -0.2413 -1.7849
 1154SOL    HW215099   0.498   3.565  15.900 -1.4626  2.2321 -0.2620
 1155SOL     OW15100   2.462   4.568   5.232 -0.4999  0.2756 -0.1453
 1155SOL    HW115101   2.428   4.606   5.313  0.5085  1.7480 -0.4122
 1155SOL    HW215102   2.458   4.643   5.173  1.0748  0.4609 -0.0122
 1156SOL     OW15103   3.687   4.353  13.522  0.4278  0.1863 -0.2550
 1156SOL    HW115104   3.731   4.269  13.536  1.0765  0.7365  0.9974
 1156SOL    HW215105   3.672   4.353  13.428 -0.6124  1.8978 -0.0704
 1157SOL     OW15106   2.163   3.745   5.273  0.0012 -0.3777 -0.1167
 1157SOL    HW115107   2.254   3.716   5.265  0.6827  2.0407 -1.0357
 1157SOL    HW215108   2.165   3.817   5.211 -1.3150  1.0110  1.4702
 1158SOL     OW15109   4.557   0.700   3.041 -0.5505 -0.1339  0.5111
 1158SOL    HW115110   4.536   0.664   2.955 -0.6104 -0.6313  0.7400
 1158SOL    HW215111   4.582   0.619   3.084  0.6826 -0.8818 -1.6153
 1159SOL     OW15112   2.927   0.604   2.989  0.2464 -0.0153  0.0195
 1159SOL    HW115113   3.006   0.576   2.943 -0.7156 -3.4585  0.4449
 1159SOL    HW215114   2.921   0.550   3.068  1.4536 -1.2346 -0.7212
 1160SOL     OW15115   1.213   2.926  15.132  0.0221 -0.8055  0.8359
 1160SOL    HW115116   1.249   2.837  15.132  0.8605 -0.4540 -0.7801
 1160SOL    HW215117   1.283   2.977  15.091  0.9084 -1.9487  0.9298
 1161SOL     OW15118   3.224   2.936   8.064 -0.2830 -0.6751 -0.2467
 1161SOL    HW115119   3.202   2.844   8.049 -0.9100 -0.4669 -0.5872
 1161SOL    HW215120   3.293   2.941   7.997 -2.4505  0.9916 -2.3457
 1162SOL     OW15121   2.021   4.189  16.699 -0.3454  0.4591  0.3917
 1162SOL    HW115122   2.116   4.177  16.690 -0.5491 -0.6396 -0.3573
 1162SOL    HW215123   2.003   4.145  16.782 -1.8886  0.5426  0.0933
 1163SOL     OW15124   2.696   1.498   1.415  0.1253 -0.1727  0.2335
 1163SOL    HW115125   2.622   1.559   1.407 -1.1870 -1.9109 -0.9603
 1163SOL    HW215126   2.648   1.420   1.385  1.3629 -2.4811  4.2573
 1164SOL     OW15127   4.720   4.682   4.420 -0.3227  0.3634  0.3741
 1164SOL    HW115128   4.725   4.595   4.458  0.3831  0.2627  0.0370
 1164SOL    HW215129   4.631   4.706   4.446 -0.7200 -0.6831 -0.0283
 1165SOL     OW15130   3.056   0.081   5.194  0.4986 -0.7153  0.5388
 1165SOL    HW115131   3.082   0.149   5.256 -0.8928 -0.7068  1.1240
 1165SOL    HW215132   2.989   0.026   5.235 -0.4447 -1.6847 -2.2586
 1166SOL     OW15133   3.839   1.533   9.906 -0.3321 -0.2158  0.2442
 1166SOL    HW115134   3.923   1.533   9.860 -0.8795 -1.9873 -0.7550
 1166SOL    HW215135   3.862   1.486   9.986 -2.4301 -2.1610 -0.3013
 1167SOL     OW15136   0.128   1.455  16.201 -0.7327 -0.2470 -0.0944
 1167SOL    HW115137   0.101   1.533  16.250 -0.7253 -0.6993  0.6186
 1167SOL    HW215138   0.047   1.409  16.177 -0.4919  0.2990 -1.9637
 1168SOL     OW15139   0.307   3.596   1.172  0.2874 -0.0118  0.0714
 1168SOL    HW115140   0.376   3.544   1.214  0.4995 -0.4619 -0.8398
 1168SOL    HW215141   0.346   3.618   1.088  2.1452 -2.7303  0.2383
 1169SOL     OW15142   4.473   1.689  10.781 -0.1136  0.1281 -1.1183
 1169SOL    HW115143   4.396   1.744  10.767 -1.8475 -1.5000  2.0725
 1169SOL    HW215144   4.468   1.630  10.706 -1.6108 -2.2788  0.8718
 1170SOL     OW15145   1.588   2.712   8.463 -0.0538 -0.2172 -0.2509
 1170SOL    HW115146   1.530   2.639   8.486  0.1089  0.3664  1.9886
 1170SOL    HW215147   1.611   2.752   8.546  1.8821 -3.8568  0.9739
 1171SOL     OW15148   3.739   1.002  13.907 -0.4571 -0.5348  0.7379
 1171SOL    HW115149   3.657   1.026  13.864 -0.9872  0.5982  2.4165
 1171SOL    HW215150   3.793   1.021  13.830 -1.5544  0.0276  0.1031
 1172SOL     OW15151   4.300   2.234   5.786  0.6534 -0.1396  0.4801
 1172SOL    HW115152   4.317   2.229   5.880 -2.7613  0.3239  1.1263
 1172SOL    HW215153   4.379   2.188   5.759 -0.6521 -1.5087 -1.0012
 1173SOL     OW15154   1.408   1.806  15.456 -0.2511 -0.8224 -0.5261
 1173SOL    HW115155   1.381   1.806  15.548  0.0788  0.0762 -0.4323
 1173SOL    HW215156   1.490   1.855  15.467  0.1200 -1.7622  0.9043
 1174SOL     OW15157   1.353   3.337   5.396  0.2924  0.5638 -0.1481
 1174SOL    HW115158   1.285   3.396   5.426 -0.0568  0.4755 -0.7796
 1174SOL    HW215159   1.301   3.285   5.335  0.1366  0.1460  0.3338
 1175SOL     OW15160   2.840   4.241   6.233  0.0366  0.1217 -0.2792
 1175SOL    HW115161   2.776   4.179   6.267  0.0347  0.9276  1.1655
 1175SOL    HW215162   2.855   4.309   6.298 -1.6009 -0.6228  0.8895
 1176SOL     OW15163   3.400   3.432   4.758 -0.3244  0.4698  0.2125
 1176SOL    HW115164   3.435   3.404   4.673 -0.5541  1.2757 -0.1370
 1176SOL    HW215165   3.448   3.376   4.820  0.2221  3.1103  2.1576
 1177SOL     OW15166   2.648   3.384   6.458 -0.0152  0.4660 -0.0747
 1177SOL    HW115167   2.587   3.320   6.494 -0.7329  1.6300  0.8069
 1177SOL    HW215168   2.587   3.445   6.417 -1.6961 -0.3750  1.2057
 1178SOL     OW15169   3.936   0.477  16.487  0.4902 -0.3894 -0.2159
 1178SOL    HW115170   3.918   0.425  16.409  1.6306  0.3850 -0.9982
 1178SOL    HW215171   3.860   0.453  16.541 -1.5885  2.0968 -2.0950
 1179SOL     OW15172   0.331   3.075  12.788  0.5433  0.2172 -0.6498
 1179SOL    HW115173   0.338   2.986  12.755 -0.0291  1.0854 -3.1395
 1179SOL    HW215174   0.418   3.084  12.828 -0.5141  1.5209  1.3281
 1180SOL     OW15175   4.466   4.091  11.189 -0.1213 -0.2505 -0.3515
 1180SOL    HW115176   4.417   4.169  11.163 -2.7699 -2.1028 -1.0049
 1180SOL    HW215177   4.484   4.048  11.106  0.8669  1.5597 -1.0653
 1181SOL     OW15178   2.889   3.613   9.248 -0.0302  0.1279 -0.1276
 1181SOL    HW115179   2.919   3.598   9.338  2.3674  0.6945 -0.8301
 1181SOL    HW215180   2.880   3.522   9.219  3.7126 -0.0271 -0.8163
 1182SOL     OW15181   3.838   1.347   4.263 -0.1055  0.1788 -0.3625
 1182SOL    HW115182   3.811   1.292   4.337 -1.4960  0.4749 -0.6571
 1182SOL    HW215183   3.752   1.362   4.224 -0.2251 -0.1609 -0.2327
 1183SOL     OW15184   1.945   3.089   2.111 -0.2960  0.0962 -0.2188
 1183SOL    HW115185   1.972   3.161   2.169  0.2347 -0.1932 -0.1097
 1183SOL    HW215186   2.008   3.091   2.039  1.0403 -3.7231  0.8290
 1184SOL     OW15187   0.555   4.244   4.101 -0.0076 -0.5059  0.4251
 1184SOL    HW115188   0.470   4.279   4.127 -0.2680 -1.3258  0.6822
 1184SOL    HW215189   0.610   4.322   4.102  0.6229 -0.9760  1.5954
 1185SOL     OW15190   4.447   3.189   1.856  0.2504 -0.2654  0.1352
 1185SOL    HW115191   4.429   3.170   1.948 -1.0755  0.2763 -0.0038
 1185SOL    HW215192   4.395   3.269   1.842  0.9444  0.1812  0.1083
 1186SOL     OW15193   1.365   3.947   8.674  0.1641 -0.0260 -0.0359
 1186SOL    HW115194   1.288   3.976   8.626 -0.8401 -1.6223  0.6200
 1186SOL    HW215195   1.346   3.954   8.768  3.9257 -0.6943  0.8072
 1187SOL     OW15196   4.377   4.302   2.255 -0.2391  0.5116 -0.6782
 1187SOL    HW115197   4.292   4.344   2.267 -1.8527 -2.9544 -0.0809
 1187SOL    HW215198   4.383   4.309   2.160  0.4330 -1.2656 -0.7754
 1188SOL     OW15199   3.303   2.395   5.174  0.0121 -0.2940 -1.1734
 1188SOL    HW115200   3.329   2.429   5.260  2.7025 -1.3323 -1.5627
 1188SOL    HW215201   3.374   2.438   5.126 -1.3553  1.9496 -1.1667
 1189SOL     OW15202   3.670   1.293   4.971 -0.1892  0.1421 -0.9439
 1189SOL    HW115203   3.737   1.235   5.008  1.0789  1.0633 -1.7923
 1189SOL    HW215204   3.679   1.270   4.879  1.1649 -1.0190 -0.5224
 1190SOL     OW15205   1.769   4.442   6.440 -0.3712  0.3945  0.9404
 1190SOL    HW115206   1.719   4.365   6.413  3.2700 -2.0601  1.1771
 1190SOL    HW215207   1.734   4.449   6.529  0.8722 -0.3452  1.4837
 1191SOL     OW15208   2.465   1.121   8.992  0.4805  0.4104 -0.6014
 1191SOL    HW115209   2.526   1.084   8.929 -0.3845 -3.3711  0.7556
 1191SOL    HW215210   2.474   1.079   9.078  2.0616  1.5340 -0.2270
 1192SOL     OW15211   1.809   2.153   5.880 -0.2644 -0.2948  0.0956
 1192SOL    HW115212   1.883   2.197   5.839  0.3394 -1.4969 -0.1254
 1192SOL    HW215213   1.846   2.142   5.968  0.6620 -0.4677 -0.3057
 1193SOL     OW15214   1.672   3.339   7.100  0.2649  0.0543  0.2746
 1193SOL    HW115215   1.755   3.292   7.092  1.2406  1.4639  1.9890
 1193SOL    HW215216   1.694   3.413   7.044 -1.6972  0.8319  0.5269
 1194SOL     OW15217   1.256   2.327   3.460  0.3537 -0.2025  0.8099
 1194SOL    HW115218   1.166   2.343   3.489 -0.5356 -2.0085 -0.9677
 1194SOL    HW215219   1.243   2.307   3.367 -1.5364 -0.2762  1.0744
 1195SOL     OW15220   3.374   1.209   0.315 -0.4895 -0.0536  0.6436
 1195SOL    HW115221   3.401   1.198   0.224 -0.3811 -1.9166  0.8915
 1195SOL    HW215222   3.384   1.300   0.340  1.4370  0.4189 -1.8752
 1196SOL     OW15223   0.996   4.641   1.879  0.4460  0.4116  0.5695
 1196SOL    HW115224   0.957   4.562   1.917  0.3001  0.4016  0.3952
 1196SOL    HW215225   1.090   4.626   1.888  0.5927  0.8342 -0.3406
 1197SOL     OW15226   1.742   0.700  16.159 -0.2266  0.4498 -0.3564
 1197SOL    HW115227   1.810   0.632  16.160 -0.5374  0.1595  1.3103
 1197SOL    HW215228   1.687   0.674  16.086  0.7585 -0.4608 -0.7783
 1198SOL     OW15229   4.194   4.217   7.181  0.5506 -0.4958  0.0800
 1198SOL    HW115230   4.182   4.305   7.146  0.4828 -0.6036 -0.1751
 1198SOL    HW215231   4.289   4.215   7.183  0.5260 -0.9452  0.7127
 1199SOL     OW15232   0.472   2.898  15.367 -0.3730 -0.0437  0.1129
 1199SOL    HW115233   0.518   2.961  15.422  0.5173 -0.9457  0.3988
 1199SOL    HW215234   0.384   2.918  15.401 -1.3030 -0.9601 -1.7342
 1200SOL     OW15235   3.024   2.669   7.414  0.6032  0.2188  1.0492
 1200SOL    HW115236   2.997   2.675   7.506 -0.3013  1.7974  0.6995
 1200SOL    HW215237   3.053   2.579   7.401 -0.3967  0.2966 -1.7655
 1201SOL     OW15238   1.309   4.046   9.313 -0.5512  0.3419  0.4305
 1201SOL    HW115239   1.259   3.982   9.261 -1.1174  0.5023  0.7701
 1201SOL    HW215240   1.241   4.074   9.375 -1.1787  0.4719 -0.3128
 1202SOL     OW15241   0.232   0.183   6.288 -0.1487 -0.4265  0.2387
 1202SOL    HW115242   0.319   0.145   6.298 -1.3255 -3.2571 -0.2541
 1202SOL    HW215243   0.250   0.270   6.323  1.9660 -1.0923  0.7981
 1203SOL     OW15244   4.461   2.952   5.203 -0.6728 -0.4277 -0.0482
 1203SOL    HW115245   4.503   2.942   5.118 -0.5654 -0.5098  0.0142
 1203SOL    HW215246   4.430   3.042   5.192 -0.1851 -0.4170 -1.3896
 1204SOL     OW15247   0.772   0.585  11.457  0.1634 -0.2182  0.2024
 1204SOL    HW115248   0.753   0.529  11.532  0.7012 -1.1799 -0.3812
 1204SOL    HW215249   0.685   0.610  11.425  0.4289  1.9866  1.1903
 1205SOL     OW15250   2.330   3.503   5.828 -0.6852 -0.1285  0.5743
 1205SOL    HW115251   2.290   3.444   5.764  3.6308  1.2232 -3.3845
 1205SOL    HW215252   2.276   3.579   5.805  0.2484  0.3163 -0.1411
 1206SOL     OW15253   0.372   0.923  11.265  0.0989  0.0584 -0.5357
 1206SOL    HW115254   0.379   0.889  11.354 -0.0061  0.4971 -0.3579
 1206SOL    HW215255   0.465   0.943  11.255  0.1689  0.2259  0.3768
 1207SOL     OW15256   3.082   1.929  11.654 -0.3870  0.1765 -0.9357
 1207SOL    HW115257   2.995   1.965  11.668  0.1238  1.6260 -1.4367
 1207SOL    HW215258   3.132   1.936  11.735  1.5112  0.4326 -2.1073
 1208SOL     OW15259   2.195   0.943  11.157  0.0657  1.2069  0.4387
 1208SOL    HW115260   2.285   0.972  11.165 -0.4647  2.3913  1.9657
 1208SOL    HW215261   2.187   0.924  11.063  0.9603  2.3532  0.1382
 1209SOL     OW15262   2.812   1.418   7.864 -0.0145 -0.7146  0.0377
 1209SOL    HW115263   2.906   1.402   7.868  0.0919 -0.1746 -0.2704
 1209SOL    HW215264   2.814   1.514   7.863  1.1965 -0.7466 -0.7790
 1210SOL     OW15265   0.839   3.619   4.107 -0.0989 -0.5181  0.4126
 1210SOL    HW115266   0.930   3.648   4.111  0.7647 -3.1849  0.0342
 1210SOL    HW215267   0.792   3.692   4.148  0.6795  0.6792 -0.7967
 1211SOL     OW15268   1.314   1.581   5.819 -0.6590  0.1059 -0.1413
 1211SOL    HW115269   1.313   1.499   5.771  4.3640  0.2751 -0.4979
 1211SOL    HW215270   1.319   1.537   5.904  3.3354 -0.2466 -0.5741
 1212SOL     OW15271   4.440   3.242   7.931 -0.3135  0.5787 -0.5575
 1212SOL    HW115272   4.510   3.297   7.896  0.9184  0.0984  1.1334
 1212SOL    HW215273   4.474   3.153   7.924  0.4895  0.8635 -0.1759
 1213SOL     OW15274   1.808   1.607   2.785  0.4102 -0.4929 -0.3099
 1213SOL    HW115275   1.797   1.514   2.804  3.7959 -0.9738 -0.6812
 1213SOL    HW215276   1.792   1.650   2.869  0.1218 -0.4749 -0.3759
 1214SOL     OW15277   4.049   1.638  16.329 -0.3835 -0.3152  0.3599
 1214SOL    HW115278   4.067   1.696  16.254 -1.9428  1.4909  1.4135
 1214SOL    HW215279   4.065   1.552  16.290 -1.9137  0.7636 -2.6566
 1215SOL     OW15280   1.939   0.760   4.525 -0.4525  0.0080 -0.3928
 1215SOL    HW115281   1.935   0.684   4.467 -3.2162  0.7814 -1.1989
 1215SOL    HW215282   2.022   0.737   4.566 -1.0038  0.1864  0.8164
 1216SOL     OW15283   4.136   4.429   7.647 -0.1806  0.4795 -0.2814
 1216SOL    HW115284   4.069   4.454   7.710  0.6954  1.4404  0.2694
 1216SOL    HW215285   4.117   4.494   7.579 -1.1660  2.0813  1.5598
 1217SOL     OW15286   2.840   2.489  11.288 -0.2649  0.3649  0.0102
 1217SOL    HW115287   2.752   2.490  11.251 -0.4827 -0.7029  0.4988
 1217SOL    HW215288   2.871   2.401  11.263 -1.0325 -0.5072  2.1005
 1218SOL     OW15289   3.724   0.947   2.552  0.3907  0.2972  0.2687
 1218SOL    HW115290   3.746   0.911   2.638  2.3750 -0.2566 -0.4609
 1218SOL    HW215291   3.635   0.913   2.542  0.2857  0.8372 -0.5747
 1219SOL     OW15292   1.590   0.130  14.792 -0.4254 -0.0908  0.0899
 1219SOL    HW115293   1.637   0.213  14.784  1.2343 -1.2680 -2.3099
 1219SOL    HW215294   1.602   0.112  14.885 -0.3665  2.5123  0.5840
 1220SOL     OW15295   3.610   3.613   4.745  0.3861  0.3916  0.1983
 1220SOL    HW115296   3.624   3.692   4.797  0.7800 -0.2052  1.0002
 1220SOL    HW215297   3.573   3.549   4.806 -0.1985  1.8490  1.3738
 1221SOL     OW15298   3.116   1.772   9.677 -0.3497 -0.2930  0.2395
 1221SOL    HW115299   3.137   1.840   9.741 -1.3861 -1.4885  1.8295
 1221SOL    HW215300   3.105   1.695   9.733  0.0903 -1.7849 -1.7338
 1222SOL     OW15301   1.062   2.180   3.651 -0.0201  0.1000  0.4465
 1222SOL    HW115302   1.029   2.092   3.668  0.5154 -0.1469  0.2196
 1222SOL    HW215303   0.996   2.245   3.625 -1.9295 -2.3693 -0.8321
 1223SOL     OW15304   0.826   0.147   7.426 -0.0308  0.6033 -0.1152
 1223SOL    HW115305   0.732   0.153   7.445  0.5925  3.0473  2.1666
 1223SOL    HW215306   0.840   0.211   7.357  0.3402  1.8838  1.1530
 1224SOL     OW15307   4.602   1.847  13.021  0.5833  0.2723 -0.1281
 1224SOL    HW115308   4.683   1.808  13.054  0.8240  0.7786 -0.1147
 1224SOL    HW215309   4.564   1.883  13.102 -1.5412 -0.6143 -0.7205
 1225SOL     OW15310   3.646   0.322   4.838  0.8034 -0.1547 -0.5503
 1225SOL    HW115311   3.645   0.238   4.884  1.3772 -0.1696 -0.5744
 1225SOL    HW215312   3.736   0.319   4.808  0.6255  1.3372 -1.2384
 1226SOL     OW15313   4.706   3.043   3.764  0.7437 -1.1580  0.1794
 1226SOL    HW115314   4.616   3.054   3.733  1.4413 -0.6261 -1.6991
 1226SOL    HW215315   4.724   2.954   3.735  1.7242 -1.3124  1.2718
 1227SOL     OW15316   1.308   0.646   4.500  0.9050 -0.4287  0.2098
 1227SOL    HW115317   1.316   0.695   4.582  0.8876  2.1034 -1.3032
 1227SOL    HW215318   1.241   0.707   4.469  1.4449  0.0087 -0.1047
 1228SOL     OW15319   3.935   0.956  14.392 -0.4414  0.2304  0.5094
 1228SOL    HW115320   3.854   0.971  14.343  0.8647  1.9277 -1.1447
 1228SOL    HW215321   3.993   0.968  14.317  3.2682 -0.7556  3.2242
 1229SOL     OW15322   4.178   3.215   8.459 -0.5557 -0.4430 -0.9783
 1229SOL    HW115323   4.209   3.212   8.368  0.4172 -0.2804 -0.6473
 1229SOL    HW215324   4.260   3.198   8.504 -0.5185  1.8482 -0.1829
 1230SOL     OW15325   4.227   0.217   3.739  0.0923  0.0487  0.8640
 1230SOL    HW115326   4.261   0.296   3.782  0.3529  1.7783 -2.5368
 1230SOL    HW215327   4.308   0.178   3.704 -0.6359 -1.4476  0.8545
 1231SOL     OW15328   1.414   1.766   8.512  0.1840  0.4351  0.2006
 1231SOL    HW115329   1.459   1.705   8.570 -1.0975 -0.9517 -0.2582
 1231SOL    HW215330   1.343   1.792   8.571 -0.4913 -0.8117 -0.0514
 1232SOL     OW15331   1.176   3.424   8.659 -0.1227 -0.0809  0.2678
 1232SOL    HW115332   1.265   3.434   8.626 -1.1430  1.4025 -2.0088
 1232SOL    HW215333   1.137   3.505   8.626  0.0098 -1.4381 -3.1215
 1233SOL     OW15334   2.790   3.782   9.531  0.1584  0.2167 -0.1378
 1233SOL    HW115335   2.852   3.853   9.546  0.2406  0.5092 -1.8474
 1233SOL    HW215336   2.848   3.706   9.535 -0.3240 -0.0157  2.2763
 1234SOL     OW15337   2.845   0.437  17.217  0.3666  0.2124  0.6594
 1234SOL    HW115338   2.845   0.475  17.129  0.3669 -0.9079  0.1649
 1234SOL    HW215339   2.801   0.509  17.262  0.6096 -0.1653  1.5063
 1235SOL     OW15340   2.696   3.473   2.522  0.3837  0.8039  0.4613
 1235SOL    HW115341   2.672   3.550   2.469  0.0000  0.3777  0.0162
 1235SOL    HW215342   2.611   3.437   2.547  0.2892  0.1915 -0.7612
 1236SOL     OW15343   0.452   3.375  16.153 -0.0574  0.5365 -0.2163
 1236SOL    HW115344   0.446   3.431  16.075 -1.6829  0.2487 -0.2999
 1236SOL    HW215345   0.500   3.424  16.220 -0.7095  0.8793  0.0013
 1237SOL     OW15346   2.643   0.924   3.893 -0.2069  0.3258 -0.2526
 1237SOL    HW115347   2.548   0.924   3.907 -0.5757  0.1384 -2.6288
 1237SOL    HW215348   2.651   0.951   3.801  3.2116  0.5924  0.1386
 1238SOL     OW15349   2.899   2.458   6.066 -0.3699 -0.1310 -0.0279
 1238SOL    HW115350   2.899   2.554   6.056  1.3511 -0.2508 -1.2337
 1238SOL    HW215351   2.950   2.441   6.145 -0.7982 -0.2659  0.2180
 1239SOL     OW15352   4.059   0.311   8.190 -0.2514  0.3499  0.0521
 1239SOL    HW115353   4.063   0.406   8.191 -0.9923  0.3927 -1.3985
 1239SOL    HW215354   3.965   0.303   8.207 -0.0881 -1.3601  0.2149
 1240SOL     OW15355   1.138   2.457   5.938  0.0549 -0.6156  0.0053
 1240SOL    HW115356   1.176   2.512   6.006  0.5639 -0.5894 -0.2995
 1240SOL    HW215357   1.216   2.408   5.912  0.4340  0.1573 -0.3115
 1241SOL     OW15358   1.857   2.183   2.787 -0.0093  0.5932  0.0624
 1241SOL    HW115359   1.883   2.190   2.879  1.1700 -0.7962 -0.1628
 1241SOL    HW215360   1.853   2.089   2.773 -2.2867  1.2205 -3.5854
 1242SOL     OW15361   4.419   1.633  16.355 -0.3406 -0.0794  0.1769
 1242SOL    HW115362   4.378   1.720  16.359  1.1819  0.7488 -2.5389
 1242SOL    HW215363   4.435   1.625  16.261  2.2152 -1.2245  0.7272
 1243SOL     OW15364   4.670   0.567   8.343  0.2972  0.0067 -0.0548
 1243SOL    HW115365   4.670   0.485   8.392 -0.0636 -1.4074 -2.4003
 1243SOL    HW215366   4.710   0.632   8.400  0.0174  1.2450 -1.2779
 1244SOL     OW15367   1.956   0.178   2.377 -0.0584  0.0885  0.4914
 1244SOL    HW115368   2.048   0.196   2.393 -0.1655  2.2379 -1.4547
 1244SOL    HW215369   1.943   0.148   2.287 -0.7534 -4.8673  2.2165
 1245SOL     OW15370   4.064   4.453   4.625  0.4783  0.1864  0.0321
 1245SOL    HW115371   4.028   4.489   4.706  1.3120  0.2196  0.3856
 1245SOL    HW215372   4.150   4.493   4.613  0.3883  0.5067  0.4641
 1246SOL     OW15373   3.768   4.042  15.423 -0.2849  0.2593  0.5402
 1246SOL    HW115374   3.840   4.046  15.360 -2.1768  0.9251 -1.6052
 1246SOL    HW215375   3.701   4.045  15.354 -2.4259  1.7262  2.7037
 1247SOL     OW15376   0.961   4.727  10.124 -0.4200  0.2348  0.3546
 1247SOL    HW115377   0.925   4.654  10.074  1.7183 -1.6106  1.5108
 1247SOL    HW215378   1.029   4.687  10.178 -0.0765 -0.2602 -0.4544
 1248SOL     OW15379   1.432   1.528   1.474  0.5004 -0.4739 -0.7501
 1248SOL    HW115380   1.412   1.456   1.414 -0.4632 -0.5027 -0.4004
 1248SOL    HW215381   1.364   1.588   1.445  0.1374 -0.2792  0.4899
 1249SOL     OW15382   3.721   3.562   7.580  0.4925  0.1569  0.4242
 1249SOL    HW115383   3.661   3.636   7.581 -1.2351 -1.2221 -0.5300
 1249SOL    HW215384   3.756   3.573   7.668  0.2936  2.6912  0.1699
 1250SOL     OW15385   2.630   1.834   7.490 -0.3967  0.1327  0.2677
 1250SOL    HW115386   2.695   1.775   7.529 -2.3630 -2.9134 -1.0486
 1250SOL    HW215387   2.544   1.791   7.490 -0.3301  0.0107 -1.6706
 1251SOL     OW15388   0.404   4.071   5.612 -0.1632  0.1848  0.5448
 1251SOL    HW115389   0.419   4.005   5.681 -0.3376 -0.1643  0.2464
 1251SOL    HW215390   0.309   4.081   5.619 -0.1926  1.0170 -1.1015
 1252SOL     OW15391   4.705   0.328   3.480 -0.3244 -0.0145 -0.4858
 1252SOL    HW115392   4.698   0.345   3.574 -0.1282  1.1795 -0.6962
 1252SOL    HW215393   4.619   0.298   3.452 -0.1921  0.0459 -0.9443
 1253SOL     OW15394   1.730   4.722   6.364  0.5232 -0.0383 -0.7928
 1253SOL    HW115395   1.676   0.062   6.388 -1.8268 -2.1871  0.5305
 1253SOL    HW215396   1.673   4.645   6.362 -1.8710  1.7319  0.0188
 1254SOL     OW15397   1.948   0.345   9.160  0.4363 -0.1531 -0.4430
 1254SOL    HW115398   1.896   0.411   9.115 -2.5909 -1.8943  0.4963
 1254SOL    HW215399   1.919   0.266   9.113 -0.0329 -0.3898  0.2396
 1255SOL     OW15400   2.503   0.071  12.028  0.2031 -0.0558  0.5124
 1255SOL    HW115401   2.510   0.121  12.110  0.9811  0.4405  0.1469
 1255SOL    HW215402   2.508   4.718  12.066 -1.0657 -0.8134 -1.0720
 1256SOL     OW15403   4.687   0.704   4.985 -0.0721  0.1773  0.0030
 1256SOL    HW115404   0.042   0.673   5.000 -0.2901 -1.1009 -1.3656
 1256SOL    HW215405   4.682   0.777   5.047  1.3425  0.7195 -0.4996
 1257SOL     OW15406   2.543   1.478   6.077  0.2740  0.0200  0.1391
 1257SOL    HW115407   2.475   1.450   6.139 -0.0880 -0.4095 -0.4540
 1257SOL    HW215408   2.490   1.477   5.997  0.8124  3.7647 -0.2749
 1258SOL     OW15409   3.863   3.855  11.367  0.0964 -0.1275 -0.0487
 1258SOL    HW115410   3.917   3.834  11.444 -0.1787 -0.0181  0.1734
 1258SOL    HW215411   3.884   3.948  11.355  2.4484 -0.6748 -0.2988
 1259SOL     OW15412   0.382   2.595  11.005  0.4914  0.1888  0.7942
 1259SOL    HW115413   0.377   2.691  11.002 -0.8642  0.1075  0.4039
 1259SOL    HW215414   0.469   2.590  10.964 -1.0513 -1.7039 -2.2756
 1260SOL     OW15415   3.518   1.197   8.873 -0.2249 -0.7356 -0.1610
 1260SOL    HW115416   3.480   1.247   8.802 -2.2687 -0.2598  1.2815
 1260SOL    HW215417   3.546   1.119   8.825  1.1083  0.5695 -1.5197
 1261SOL     OW15418   2.756   0.070  16.838 -0.1282 -0.1088  0.0433
 1261SOL    HW115419   2.706   0.076  16.756 -0.4928  0.7478  0.3287
 1261SOL    HW215420   2.827   0.127  16.808 -1.9644  2.8828  1.4370
 1262SOL     OW15421   4.433   2.411  12.558  0.4536 -0.2122 -0.4595
 1262SOL    HW115422   4.353   2.461  12.577  0.6979 -0.2865  0.7060
 1262SOL    HW215423   4.439   2.338  12.619 -2.3372 -0.5914 -0.6114
 1263SOL     OW15424   3.803   0.559  14.235 -0.1476 -0.3010  0.1321
 1263SOL    HW115425   3.824   0.609  14.314 -1.0106  0.3238 -0.0259
 1263SOL    HW215426   3.840   0.611  14.163  0.9259 -0.4096  0.6050
 1264SOL     OW15427   3.393   4.395   7.597 -0.3234 -0.2157 -0.5575
 1264SOL    HW115428   3.414   4.330   7.664 -0.0346  0.5739  0.1073
 1264SOL    HW215429   3.354   4.335   7.533 -0.5115  0.6747 -1.2879
 1265SOL     OW15430   0.127   1.285   5.769  0.3402 -0.4902 -0.2847
 1265SOL    HW115431   0.213   1.296   5.810  1.4922 -1.0735 -2.5523
 1265SOL    HW215432   0.093   1.365   5.810  0.5223 -0.7326  0.3385
 1266SOL     OW15433   1.329   3.186   1.984 -0.2128  1.1152 -0.4368
 1266SOL    HW115434   1.382   3.241   1.926  1.3883  0.8782  0.7956
 1266SOL    HW215435   1.386   3.167   2.059  2.7330 -0.7801 -3.1351
 1267SOL     OW15436   2.881   3.693  16.215 -0.1112  0.1739  0.5669
 1267SOL    HW115437   2.810   3.636  16.247 -0.8794  0.7491 -0.1067
 1267SOL    HW215438   2.903   3.651  16.132  1.4252  0.2756  0.9317
 1268SOL     OW15439   2.447   3.445   3.952  0.2514 -0.1005 -0.0395
 1268SOL    HW115440   2.388   3.511   3.989  1.4088  1.0859 -0.2775
 1268SOL    HW215441   2.498   3.432   4.032  0.5242 -0.7426 -0.3186
 1269SOL     OW15442   3.058   3.322  10.708  0.1208  0.4888  0.9121
 1269SOL    HW115443   3.004   3.243  10.703  1.2506 -0.1910 -0.2880
 1269SOL    HW215444   3.053   3.336  10.803  0.4316 -1.2034  1.1852
 1270SOL     OW15445   4.188   4.544   3.836 -0.6262 -0.0249 -0.6934
 1270SOL    HW115446   4.173   4.479   3.768 -0.5116 -1.4741  0.6779
 1270SOL    HW215447   4.210   4.478   3.902 -0.6220  0.3072 -0.3592
 1271SOL     OW15448   0.129   3.827  10.851  0.0620 -1.1988 -0.0364
 1271SOL    HW115449   0.181   3.896  10.809  0.1862 -2.0474 -1.2653
 1271SOL    HW215450   0.050   3.825  10.796 -0.7587  0.5960  1.0845
 1272SOL     OW15451   2.327   3.296   6.523  0.6899  0.5673 -0.2999
 1272SOL    HW115452   2.263   3.347   6.473  0.7940  1.4675  0.4838
 1272SOL    HW215453   2.323   3.213   6.477 -1.0845 -0.9617  2.5876
 1273SOL     OW15454   4.672   0.215   0.950 -0.2659 -0.2672  0.5883
 1273SOL    HW115455   4.617   0.144   0.980 -2.9184  0.4883 -2.4610
 1273SOL    HW215456   0.027   0.189   0.972 -0.0327  1.7615  2.0482
 1274SOL     OW15457   3.483   3.165   4.262  0.3303 -0.4815  0.4399
 1274SOL    HW115458   3.394   3.129   4.255 -0.3033  1.0216  0.8255
 1274SOL    HW215459   3.530   3.112   4.198 -1.7179 -0.3312 -1.2018
 1275SOL     OW15460   1.520   0.366   0.648  0.3368 -0.1381  0.2258
 1275SOL    HW115461   1.525   0.458   0.672 -1.0626 -0.3181  1.1945
 1275SOL    HW215462   1.456   0.340   0.714  0.0826 -0.3781 -0.1089
 1276SOL     OW15463   0.111   1.384   3.921  0.2655  0.0209 -0.4690
 1276SOL    HW115464   0.099   1.453   3.856 -2.6624 -0.2319 -0.1545
 1276SOL    HW215465   0.141   1.438   3.994  1.3015 -2.6292  1.0957
 1277SOL     OW15466   4.178   1.340   7.223  0.5001 -0.1021  0.2143
 1277SOL    HW115467   4.262   1.301   7.244  0.8940  0.1865 -0.7987
 1277SOL    HW215468   4.172   1.420   7.274  0.2708  0.3276 -0.4735
 1278SOL     OW15469   2.882   3.585   5.707  0.4189  0.3075 -0.1122
 1278SOL    HW115470   2.870   3.490   5.710 -2.0926  0.6095 -0.8369
 1278SOL    HW215471   2.804   3.621   5.749  0.9454 -1.8621  2.7345
 1279SOL     OW15472   3.374   2.099   2.996 -0.1471 -0.2262  0.1501
 1279SOL    HW115473   3.299   2.085   2.938 -0.1630 -1.3834  0.4617
 1279SOL    HW215474   3.327   2.088   3.079  1.0947 -1.5301  0.6627
 1280SOL     OW15475   2.316   2.722   2.257  0.8356 -0.3323 -0.1322
 1280SOL    HW115476   2.379   2.771   2.310 -0.4229  0.7491  0.3768
 1280SOL    HW215477   2.327   2.633   2.290 -0.0703 -0.6539 -0.6870
 1281SOL     OW15478   4.356   1.255   6.558  0.3228 -0.2643 -0.0471
 1281SOL    HW115479   4.433   1.292   6.601  0.8617 -0.5968 -0.7413
 1281SOL    HW215480   4.399   1.211   6.485 -1.1699 -1.7547 -0.0457
 1282SOL     OW15481   2.173   3.952  12.178  0.1011  0.0078  0.0288
 1282SOL    HW115482   2.107   3.916  12.118  1.4775  0.1749 -1.5505
 1282SOL    HW215483   2.141   4.038  12.206  2.4783  0.9057 -0.0913
 1283SOL     OW15484   0.150   2.588  16.057  0.3370  0.5232  0.5810
 1283SOL    HW115485   0.206   2.513  16.079 -0.6757 -0.2630  0.4863
 1283SOL    HW215486   0.174   2.642  16.132  0.4907  1.7380 -0.3423
 1284SOL     OW15487   1.050   2.211  15.350  0.1660 -0.6589  0.5599
 1284SOL    HW115488   0.986   2.279  15.326  0.3493 -0.1911  1.3833
 1284SOL    HW215489   1.118   2.256  15.401 -0.0861  0.0783  0.2448
 1285SOL     OW15490   0.080   1.495  16.577 -0.3555  0.6769  0.4233
 1285SOL    HW115491   0.004   1.453  16.536  0.6654  0.8067 -1.6067
 1285SOL    HW215492   0.147   1.464  16.516  2.3234  0.4926  3.4924
 1286SOL     OW15493   0.066   1.193  11.815  0.4293 -0.2917 -0.0396
 1286SOL    HW115494   0.138   1.215  11.755 -0.5906  0.8083 -0.8828
 1286SOL    HW215495   0.007   1.248  11.763 -1.2517  0.1163  2.2855
 1287SOL     OW15496   2.407   2.906   5.246  0.2867  0.6036 -0.2875
 1287SOL    HW115497   2.440   2.903   5.336  0.7101  0.7836 -0.4348
 1287SOL    HW215498   2.430   2.821   5.207  0.2131  0.9243 -1.0366
 1288SOL     OW15499   3.474   3.542   9.341 -0.1899  0.1407  0.0123
 1288SOL    HW115500   3.411   3.569   9.407  0.3182  0.7533  0.2470
 1288SOL    HW215501   3.516   3.622   9.308  1.5246 -0.0558  1.7268
 1289SOL     OW15502   4.566   3.697   3.334  0.0857 -0.4129 -0.2274
 1289SOL    HW115503   4.582   3.778   3.286  2.0347 -0.2518  0.6947
 1289SOL    HW215504   4.501   3.730   3.396  0.3999 -0.4910  0.1504
 1290SOL     OW15505   3.464   0.747   5.157 -0.1292 -0.1827 -0.0617
 1290SOL    HW115506   3.496   0.665   5.194 -0.8665 -0.5266 -0.1898
 1290SOL    HW215507   3.416   0.784   5.231 -2.2267 -0.7570 -1.1335
 1291SOL     OW15508   3.373   0.319   2.818  0.2953  0.4320  0.4140
 1291SOL    HW115509   3.409   0.275   2.742 -2.9099 -1.1568 -0.1939
 1291SOL    HW215510   3.428   0.292   2.891  2.4724  0.4470 -1.2417
 1292SOL     OW15511   3.688   4.166   1.904 -0.7088 -0.1303 -0.4518
 1292SOL    HW115512   3.760   4.164   1.841  0.8277  1.0952  1.2821
 1292SOL    HW215513   3.681   4.258   1.928  1.2903  0.1364 -0.9042
 1293SOL     OW15514   4.081   4.537   5.110 -0.7227  0.1924 -0.0086
 1293SOL    HW115515   4.137   4.581   5.174  0.9626  1.9171 -2.6738
 1293SOL    HW215516   4.027   4.474   5.158  1.1712 -1.0109  0.5318
 1294SOL     OW15517   2.766   2.092   4.031  0.0963 -0.1476  0.3410
 1294SOL    HW115518   2.739   2.173   4.074  0.0525 -0.3133  0.6308
 1294SOL    HW215519   2.785   2.037   4.107 -0.5737  1.3111  1.5669
 1295SOL     OW15520   1.271   3.433   4.270  0.4737  0.4342  0.2239
 1295SOL    HW115521   1.366   3.441   4.273  0.5266  0.9408 -2.4261
 1295SOL    HW215522   1.267   3.351   4.221 -0.2134  0.1804  0.7025
 1296SOL     OW15523   0.991   3.490   3.242 -0.0147 -0.0800  0.3590
 1296SOL    HW115524   0.933   3.445   3.182  1.2197 -0.3574 -0.6199
 1296SOL    HW215525   0.936   3.493   3.320 -0.0926 -0.7330  0.3271
 1297SOL     OW15526   3.280   0.897   5.776 -0.2109  0.0565 -0.2375
 1297SOL    HW115527   3.321   0.946   5.847 -2.2767 -3.4445  3.3542
 1297SOL    HW215528   3.193   0.900   5.816 -0.3816  0.0119 -0.6021
 1298SOL     OW15529   2.003   2.119   6.606  0.1831  0.2748 -0.3219
 1298SOL    HW115530   2.022   2.213   6.607 -0.7633  0.4664 -0.5617
 1298SOL    HW215531   1.981   2.111   6.513 -1.4127  0.4081  0.0482
 1299SOL     OW15532   0.184   3.020   7.901 -0.2580  0.1114  0.7286
 1299SOL    HW115533   0.147   3.002   7.814 -0.8817  2.6907  0.4560
 1299SOL    HW215534   0.104   3.032   7.953  0.0137  1.5539  0.8064
 1300SOL     OW15535   3.387   1.097  17.164  0.4391 -0.0977 -0.8064
 1300SOL    HW115536   3.464   1.130  17.210 -0.0524 -0.4576  0.2825
 1300SOL    HW215537   3.328   1.170  17.144  0.7178 -0.0955 -1.5877
 1301SOL     OW15538   0.340   1.031  15.282 -0.4323 -0.3468 -0.0623
 1301SOL    HW115539   0.412   1.032  15.345 -0.1929 -2.4203 -0.2948
 1301SOL    HW215540   0.319   1.123  15.271 -2.9637 -1.0777 -1.4280
 1302SOL     OW15541   2.342   4.437   3.261  0.1923 -0.1775 -0.0512
 1302SOL    HW115542   2.384   4.503   3.206 -1.2574  0.3921 -0.4713
 1302SOL    HW215543   2.305   4.387   3.189 -0.7677  0.4690 -0.0091
 1303SOL     OW15544   4.351   1.958   6.222 -0.1966 -0.5253 -0.3970
 1303SOL    HW115545   4.271   1.928   6.266 -0.7815 -0.3021 -1.3026
 1303SOL    HW215546   4.360   2.040   6.270 -0.4067  0.7525 -2.5360
 1304SOL     OW15547   2.833   3.542  17.707 -0.6733  0.1348  0.3550
 1304SOL    HW115548   2.739   3.524  17.701 -0.8535  1.7616 -1.7446
 1304SOL    HW215549   2.847   3.622  17.655  1.6862 -1.9626 -2.2615
 1305SOL     OW15550   2.011   2.857  12.622 -0.4192  0.1830 -0.5127
 1305SOL    HW115551   1.946   2.834  12.556 -1.2505  4.1258 -1.0641
 1305SOL    HW215552   2.085   2.898  12.578 -0.2015  0.4980  0.1404
 1306SOL     OW15553   4.278   2.815   5.845 -0.3003  0.3202 -0.3115
 1306SOL    HW115554   4.230   2.742   5.806 -1.1647  0.4044  0.5847
 1306SOL    HW215555   4.263   2.791   5.937  0.7354 -1.9423 -0.7324
 1307SOL     OW15556   0.930   2.238   6.012 -0.3629  0.0676  0.1221
 1307SOL    HW115557   0.981   2.310   6.050  0.9714 -0.5965 -0.4187
 1307SOL    HW215558   1.005   2.182   5.991  0.0527  0.1895  1.3175
 1308SOL     OW15559   1.559   1.742   9.464  0.1186  0.2596  0.0976
 1308SOL    HW115560   1.476   1.747   9.417 -1.7709 -2.3681  3.1020
 1308SOL    HW215561   1.553   1.656   9.505 -0.3311  0.2424  0.0022
 1309SOL     OW15562   4.387   2.904   4.370 -0.5399  0.0568  0.2813
 1309SOL    HW115563   4.295   2.878   4.383 -0.7104 -0.1385 -1.2926
 1309SOL    HW215564   4.431   2.819   4.366  2.0916  1.2274  4.7128
 1310SOL     OW15565   3.535   2.300  17.207 -0.0226  0.0026 -0.6065
 1310SOL    HW115566   3.522   2.260  17.293  0.9792  2.1402  0.5431
 1310SOL    HW215567   3.602   2.365  17.229  1.2596 -1.7669  0.6595
 1311SOL     OW15568   0.350   0.810  11.518  0.1483 -0.4228 -0.0555
 1311SOL    HW115569   0.408   0.866  11.570  0.6741 -1.9732  1.0211
 1311SOL    HW215570   0.270   0.833  11.565 -0.1657 -0.9728 -0.3228
 1312SOL     OW15571   0.905   1.831   8.204 -0.1373 -0.3065  0.0370
 1312SOL    HW115572   0.838   1.824   8.136 -1.7299  0.0584  1.5873
 1312SOL    HW215573   0.973   1.860   8.143 -1.4185  0.6946 -0.9071
 1313SOL     OW15574   2.140   4.602   7.086  0.2729  0.1415  0.0517
 1313SOL    HW115575   2.058   4.588   7.133 -0.0811  0.0408 -0.5865
 1313SOL    HW215576   2.134   4.694   7.059  0.1724  0.3512  0.8072
 1314SOL     OW15577   1.613   1.571   0.695 -0.5776  0.0555 -0.5875
 1314SOL    HW115578   1.613   1.651   0.747  3.0684 -0.7000  0.5576
 1314SOL    HW215579   1.518   1.559   0.697 -0.4233 -1.1034 -0.4205
 1315SOL     OW15580   4.168   2.592   3.732 -0.0928  0.1041  0.5088
 1315SOL    HW115581   4.207   2.678   3.716 -0.0526 -0.0887 -0.4501
 1315SOL    HW215582   4.237   2.527   3.719  0.3098  0.8268 -0.9370
 1316SOL     OW15583   0.486   0.469   3.292 -0.1908  0.4691 -0.4797
 1316SOL    HW115584   0.411   0.434   3.341  1.4148 -1.1194  0.8404
 1316SOL    HW215585   0.520   0.535   3.352 -0.5046  0.4744 -0.3069
 1317SOL     OW15586   3.948   0.632   6.963  0.1212  0.3563  0.4480
 1317SOL    HW115587   3.941   0.627   7.059 -1.0252 -2.7056  0.2130
 1317SOL    HW215588   3.879   0.696   6.947 -0.6591 -0.0791  2.1059
 1318SOL     OW15589   1.046   3.711  16.459  0.0469  0.1765  0.1893
 1318SOL    HW115590   1.113   3.759  16.410 -1.0400 -0.7134 -2.1320
 1318SOL    HW215591   1.039   3.760  16.541 -1.8743 -0.3005  0.3203
 1319SOL     OW15592   0.297   1.080  16.408  0.3694  0.5523 -0.3869
 1319SOL    HW115593   0.229   1.054  16.470  1.0993  0.2102  0.2735
 1319SOL    HW215594   0.297   1.006  16.347 -3.8443  1.5875 -1.6357
 1320SOL     OW15595   1.326   3.490   8.255  0.3249  0.3128  0.1861
 1320SOL    HW115596   1.418   3.493   8.280  0.6315 -1.2772 -0.7702
 1320SOL    HW215597   1.325   3.453   8.167 -0.2043 -2.1070  1.2180
 1321SOL     OW15598   0.554   3.327  12.054 -0.0084 -0.0250  0.3132
 1321SOL    HW115599   0.604   3.402  12.021  2.7979 -2.1909 -0.3669
 1321SOL    HW215600   0.526   3.286  11.972 -1.3392 -3.7631  2.6781
 1322SOL     OW15601   2.290   3.797  10.853  0.0157  0.4654 -0.6682
 1322SOL    HW115602   2.347   3.721  10.848 -1.2037 -0.4735 -0.4842
 1322SOL    HW215603   2.251   3.775  10.937 -1.2491  0.6869 -1.1928
 1323SOL     OW15604   0.054   1.745  16.021  0.0086  0.1495  0.2964
 1323SOL    HW115605   0.013   1.722  16.104  0.6139  2.0831  1.1316
 1323SOL    HW215606   0.094   1.665  15.987  0.2025  0.7492 -0.8862
 1324SOL     OW15607   0.032   1.429  15.180  0.1586  0.3695 -0.5406
 1324SOL    HW115608   4.693   1.426  15.241  1.1081 -1.9863  0.4983
 1324SOL    HW215609   0.048   1.520  15.156 -2.5830  0.7056 -1.1285
 1325SOL     OW15610   0.922   0.180   4.760  0.0469  0.0124 -0.2739
 1325SOL    HW115611   0.864   0.124   4.811  0.2193  0.7289  0.7002
 1325SOL    HW215612   0.879   0.164   4.676  1.1135 -0.0471 -0.8080
 1326SOL     OW15613   3.283   2.094  13.459  0.1107  0.1359  0.3972
 1326SOL    HW115614   3.222   2.096  13.385  3.1659  0.1329 -2.1168
 1326SOL    HW215615   3.281   1.999  13.471  1.9229  0.0257 -0.2324
 1327SOL     OW15616   4.523   3.689   6.495 -0.4115  0.5107 -0.3026
 1327SOL    HW115617   4.616   3.674   6.475  0.0613  0.4343  2.0427
 1327SOL    HW215618   4.485   3.650   6.416 -0.8563 -0.4315  0.3858
 1328SOL     OW15619   1.118   0.844   7.894 -0.5804  0.7142 -0.3127
 1328SOL    HW115620   1.124   0.842   7.798 -0.6076  2.0644 -0.3442
 1328SOL    HW215621   1.092   0.755   7.919  1.0897  0.1175 -0.7346
 1329SOL     OW15622   1.613   0.218  13.177 -0.4502  0.4200 -0.1394
 1329SOL    HW115623   1.610   0.138  13.229  1.5394 -0.1727 -0.9328
 1329SOL    HW215624   1.705   0.219  13.151 -0.0839 -1.5046  1.1813
 1330SOL     OW15625   3.040   1.034   7.881 -0.3660 -0.4427  0.3863
 1330SOL    HW115626   3.096   1.046   7.957 -0.4322 -0.5479  0.4515
 1330SOL    HW215627   3.043   1.122   7.844 -1.3482 -0.9317 -0.8632
 1331SOL     OW15628   1.067   2.752   5.142  0.0866  0.3913  0.5325
 1331SOL    HW115629   1.026   2.808   5.076 -0.0415  1.3428  1.4252
 1331SOL    HW215630   1.156   2.739   5.108 -0.6032 -0.0444 -1.1028
 1332SOL     OW15631   0.557   2.420   8.313 -0.3129 -0.3990 -0.0945
 1332SOL    HW115632   0.539   2.505   8.351  1.3710 -1.1821  2.4676
 1332SOL    HW215633   0.508   2.372   8.380 -0.2291  1.0212  0.9843
 1333SOL     OW15634   3.555   2.022   8.056  0.2772 -0.2976 -0.5062
 1333SOL    HW115635   3.509   2.102   8.033 -0.5297 -0.0933  1.8780
 1333SOL    HW215636   3.517   2.006   8.142  0.5686 -1.2084 -0.5390
 1334SOL     OW15637   1.023   1.755   1.369  0.1393  0.4892 -0.2836
 1334SOL    HW115638   0.929   1.741   1.383  0.4913 -0.7767  0.8143
 1334SOL    HW215639   1.025   1.824   1.303  1.5551  0.4884 -0.2442
 1335SOL     OW15640   4.150   3.835   9.094 -0.0435  0.0616 -0.6141
 1335SOL    HW115641   4.085   3.867   9.031 -0.0750 -0.4577 -0.8458
 1335SOL    HW215642   4.115   3.750   9.119 -1.4533  1.0556  0.8381
 1336SOL     OW15643   0.521   0.616   1.996  0.2810 -0.8506 -0.3260
 1336SOL    HW115644   0.450   0.672   2.026  1.8686 -1.3057  4.2325
 1336SOL    HW215645   0.478   0.551   1.941  1.2782 -0.8269 -1.1561
 1337SOL     OW15646   3.822   3.412  10.383  0.3294  0.5388 -0.1549
 1337SOL    HW115647   3.847   3.403  10.475 -0.0967 -0.6812 -0.1648
 1337SOL    HW215648   3.869   3.491  10.355  0.9731 -0.3639 -1.6283
 1338SOL     OW15649   1.027   3.888   7.948  0.3298 -0.4604  0.5671
 1338SOL    HW115650   1.050   3.892   8.041 -1.6455  0.7927  1.0096
 1338SOL    HW215651   1.090   3.830   7.905 -0.6162 -1.8891  1.1110
 1339SOL     OW15652   0.017   0.049   9.753 -0.1338 -0.6430  0.3610
 1339SOL    HW115653   0.077   0.083   9.819  0.5341  2.2543 -1.7314
 1339SOL    HW215654   0.080   4.718   9.720  1.6290  0.4795  1.4839
 1340SOL     OW15655   0.796   2.109   7.192  0.7783  0.4756  0.2416
 1340SOL    HW115656   0.860   2.180   7.203 -0.0905  1.5989 -2.0435
 1340SOL    HW215657   0.748   2.121   7.274  1.2363  2.9050  0.1646
 1341SOL     OW15658   2.996   1.911  12.848  0.4122 -0.6588  0.3653
 1341SOL    HW115659   3.083   1.931  12.813  0.3550 -1.5737 -0.3299
 1341SOL    HW215660   3.009   1.908  12.942 -0.1997  1.0636  0.4916
 1342SOL     OW15661   0.523   3.006   3.961  0.1640  0.0363  0.0398
 1342SOL    HW115662   0.500   2.987   3.870  0.8529 -1.6515  0.2253
 1342SOL    HW215663   0.467   3.083   3.968  1.4488  0.8284  1.6049
 1343SOL     OW15664   0.150   4.386  14.929 -0.0431  0.3095 -0.5254
 1343SOL    HW115665   0.156   4.362  15.021  1.5821  1.3572 -0.3445
 1343SOL    HW215666   0.217   4.454  14.918  0.3720  0.0886  0.6747
 1344SOL     OW15667   4.675   2.623   8.535 -0.1998 -0.8055 -0.3100
 1344SOL    HW115668   4.602   2.650   8.591  0.1556 -2.5821  1.0003
 1344SOL    HW215669   4.677   2.699   8.477  1.3446  0.6258  1.6031
 1345SOL     OW15670   2.873   3.652   6.824  0.7224 -0.4229  0.5252
 1345SOL    HW115671   2.794   3.706   6.820  1.7277  0.9943 -0.1252
 1345SOL    HW215672   2.891   3.621   6.735 -4.4681  0.1366 -0.7217
 1346SOL     OW15673   2.954   0.383   8.103 -0.1169 -0.4048  0.3586
 1346SOL    HW115674   3.032   0.329   8.119  0.2084 -0.7186 -2.1940
 1346SOL    HW215675   2.885   0.334   8.148 -1.2834 -0.2965 -1.3243
 1347SOL     OW15676   3.623   0.977   8.730 -0.4076  0.6293  0.1725
 1347SOL    HW115677   3.562   0.904   8.712 -1.2177  1.1251  0.9235
 1347SOL    HW215678   3.644   0.969   8.823 -0.7114  1.1356  0.2854
 1348SOL     OW15679   3.322   2.655  15.444 -0.6266 -0.6590 -0.0761
 1348SOL    HW115680   3.295   2.647  15.352 -0.4600 -0.0616 -0.1791
 1348SOL    HW215681   3.411   2.620  15.438 -0.0418  0.4699  2.0295
 1349SOL     OW15682   0.114   4.571   5.680 -1.0067  0.0406  0.2644
 1349SOL    HW115683   0.122   4.658   5.642  4.2501  0.7671  3.0372
 1349SOL    HW215684   0.185   4.529   5.633 -1.7374 -1.8025  0.8214
 1350SOL     OW15685   0.438   3.638   6.164  0.2051  0.1272  0.1962
 1350SOL    HW115686   0.488   3.707   6.120  0.5517 -1.9028 -2.5314
 1350SOL    HW215687   0.512   3.608   6.218  0.4102 -0.7472 -0.5851
 1351SOL     OW15688   3.309   4.731  11.253 -0.6207 -0.4963  0.8483
 1351SOL    HW115689   3.365   0.074  11.253 -1.9381  0.4573 -0.5157
 1351SOL    HW215690   3.262   0.014  11.171 -1.0570 -4.6971  0.2297
 1352SOL     OW15691   3.975   0.061   1.044 -0.0445 -0.5408  0.0149
 1352SOL    HW115692   3.970   0.153   1.068 -2.0315 -0.3808 -1.0249
 1352SOL    HW215693   3.906   0.016   1.092  0.7482  0.3982  2.0034
 1353SOL     OW15694   1.739   3.975  16.564  0.3159 -0.1006 -0.3329
 1353SOL    HW115695   1.701   4.048  16.516 -1.8306  0.9974  3.1067
 1353SOL    HW215696   1.734   4.020  16.648  0.5130  1.1034 -0.9600
 1354SOL     OW15697   3.890   2.688   0.394 -0.1337 -0.5368  0.2180
 1354SOL    HW115698   3.985   2.701   0.400 -0.3529  1.0891  0.1294
 1354SOL    HW215699   3.873   2.653   0.482  1.1109  0.3717  0.8211
 1355SOL     OW15700   3.322   4.106   8.682 -0.0927  0.4392 -0.4408
 1355SOL    HW115701   3.270   4.041   8.635 -0.0704 -0.1326  0.3381
 1355SOL    HW215702   3.360   4.155   8.608 -2.4820  0.1603 -1.8509
 1356SOL     OW15703   0.092   4.602   5.028 -0.6889 -0.3511 -0.4166
 1356SOL    HW115704   0.090   4.627   4.935 -3.8737  0.2346 -0.1863
 1356SOL    HW215705   0.183   4.618   5.053 -0.8469 -2.2297  1.3151
 1357SOL     OW15706   2.721   4.401   9.253 -0.3621 -0.0399  0.1888
 1357SOL    HW115707   2.782   4.418   9.325 -0.2776  2.5551 -0.4866
 1357SOL    HW215708   2.710   4.307   9.258 -0.1730  0.0463  2.0597
 1358SOL     OW15709   0.413   2.930  11.302 -0.2176  0.5509 -0.6102
 1358SOL    HW115710   0.328   2.971  11.318 -1.1127 -1.4983 -0.1234
 1358SOL    HW215711   0.394   2.837  11.312  1.4149  0.4037  1.2342
 1359SOL     OW15712   1.152   2.584   8.728 -0.1796 -0.0045  0.3303
 1359SOL    HW115713   1.228   2.604   8.674  0.6854 -0.3431  1.4237
 1359SOL    HW215714   1.099   2.535   8.666 -0.8231  0.9095  0.1663
 1360SOL     OW15715   0.969   4.492  12.082 -0.0674  0.3171 -0.3558
 1360SOL    HW115716   1.045   4.542  12.111 -0.7445 -0.4570  2.7675
 1360SOL    HW215717   0.923   4.477  12.165 -2.2477  0.2491 -1.5646
 1361SOL     OW15718   4.219   0.754   8.059  0.0379  0.0753 -0.6950
 1361SOL    HW115719   4.283   0.786   7.996 -0.0717 -0.0675 -0.8811
 1361SOL    HW215720   4.271   0.719   8.130 -0.5422  1.2156  0.2913
 1362SOL     OW15721   3.762   1.607   5.152 -0.0307 -0.2573  0.6714
 1362SOL    HW115722   3.689   1.550   5.174  0.1170 -1.3323 -1.6737
 1362SOL    HW215723   3.835   1.551   5.182  0.1471 -0.0076  0.7086
 1363SOL     OW15724   2.742   1.136   7.972  0.1144  0.1985 -0.7027
 1363SOL    HW115725   2.794   1.091   8.038 -0.7566  0.1123 -0.0748
 1363SOL    HW215726   2.781   1.223   7.967  0.2968  0.1897  0.6101
 1364SOL     OW15727   1.027   3.080   4.498  0.4366 -0.2036  0.3356
 1364SOL    HW115728   0.944   3.041   4.524  1.4577 -1.4071  1.7484
 1364SOL    HW215729   1.002   3.135   4.423 -0.4865 -1.6490 -0.4064
 1365SOL     OW15730   0.743   0.315   2.373  0.0218  0.2175  0.4240
 1365SOL    HW115731   0.691   0.328   2.294 -1.2042 -0.7106  1.0842
 1365SOL    HW215732   0.697   0.247   2.422  0.1778 -0.5125 -0.4498
 1366SOL     OW15733   4.140   3.148  11.350  0.4899 -0.4468 -0.2850
 1366SOL    HW115734   4.161   3.066  11.395  3.6067  0.7275  0.4111
 1366SOL    HW215735   4.225   3.175  11.316  0.3319  0.3692 -0.0277
 1367SOL     OW15736   0.651   4.674   8.793  0.5179  0.3897  0.6894
 1367SOL    HW115737   0.630   4.619   8.718  2.0820 -0.8806  1.1829
 1367SOL    HW215738   0.730   4.718   8.763 -0.0672  0.5307 -0.6245
 1368SOL     OW15739   3.486   1.098   1.558 -0.3570 -0.7632  0.0829
 1368SOL    HW115740   3.551   1.027   1.563  1.8765  1.1832 -1.5823
 1368SOL    HW215741   3.441   1.084   1.641 -0.9419  0.3169 -0.0571
 1369SOL     OW15742   4.122   1.991  12.826  0.0433  0.2472 -0.7009
 1369SOL    HW115743   4.076   1.921  12.872  0.8332 -0.1153 -0.4825
 1369SOL    HW215744   4.178   1.948  12.762  0.1495  0.4042 -0.7127
 1370SOL     OW15745   3.699   2.802   5.316 -0.4756 -0.5465  0.4079
 1370SOL    HW115746   3.726   2.893   5.301 -1.8678 -0.4871 -1.6663
 1370SOL    HW215747   3.790   2.773   5.328  0.1862  0.4014 -2.2623
 1371SOL     OW15748   0.445   3.472   3.226  0.0704 -0.2960 -0.0068
 1371SOL    HW115749   0.364   3.472   3.176  1.3191  1.8700 -2.0806
 1371SOL    HW215750   0.491   3.392   3.200  1.9831  0.8603 -0.1886
 1372SOL     OW15751   3.675   3.256   1.462  0.7506  0.5242  0.0212
 1372SOL    HW115752   3.717   3.292   1.540 -0.1085 -1.3530  1.3624
 1372SOL    HW215753   3.751   3.237   1.407  0.6645  2.4221 -0.7349
 1373SOL     OW15754   0.369   0.813   0.056  0.2017 -0.1116 -0.7608
 1373SOL    HW115755   0.430   0.868   0.104 -0.2665  0.1909 -0.5079
 1373SOL    HW215756   0.397   0.823  17.703  1.0431  2.4816 -0.2226
 1374SOL     OW15757   2.889   1.286   1.870  0.9021 -0.1297  0.2948
 1374SOL    HW115758   2.838   1.362   1.896 -1.6203 -2.1196  1.2377
 1374SOL    HW215759   2.925   1.255   1.953 -0.3987 -1.5867  0.3283
 1375SOL     OW15760   2.770   1.223  13.950 -0.4668  0.1471  0.0013
 1375SOL    HW115761   2.756   1.312  13.917 -0.3886 -0.6182 -2.0678
 1375SOL    HW215762   2.701   1.172  13.908 -0.1121  0.4665 -0.9545
 1376SOL     OW15763   1.121   4.534   5.517 -0.6642  0.4918  0.6188
 1376SOL    HW115764   1.105   4.457   5.572 -2.0414  0.3679  0.0482
 1376SOL    HW215765   1.182   4.583   5.571  1.7742 -0.8932 -0.8605
 1377SOL     OW15766   0.367   0.258   3.050 -0.6526 -0.0832  0.8157
 1377SOL    HW115767   0.441   0.285   3.105 -0.5760 -2.2057  1.7395
 1377SOL    HW215768   0.410   0.183   3.009  0.3952  0.5836  0.6918
 1378SOL     OW15769   0.238   1.530   6.062  0.6786  0.5531  0.4199
 1378SOL    HW115770   0.247   1.519   6.157 -1.9758 -1.2111  0.4423
 1378SOL    HW215771   0.285   1.457   6.023  0.1609  0.8865 -0.8196
 1379SOL     OW15772   2.193   2.059   5.115  0.1806 -0.0124  0.3504
 1379SOL    HW115773   2.251   2.047   5.191 -0.0558 -0.6310  0.4321
 1379SOL    HW215774   2.219   2.147   5.087 -1.9114  0.0645 -1.2956
 1380SOL     OW15775   0.617   0.460   7.328 -0.2049  0.2737  0.4634
 1380SOL    HW115776   0.559   0.391   7.360  0.3536 -1.4474 -2.2594
 1380SOL    HW215777   0.655   0.416   7.252 -1.9998  0.1651 -0.3669
 1381SOL     OW15778   3.326   4.458   8.676  0.1682 -0.1910  0.0496
 1381SOL    HW115779   3.365   4.386   8.628 -0.5929 -1.3375  1.1548
 1381SOL    HW215780   3.408   4.490   8.714  1.6521 -3.9078 -0.0498
 1382SOL     OW15781   1.389   1.533   9.214  0.1172 -0.4098  0.5156
 1382SOL    HW115782   1.353   1.597   9.275 -0.5515 -1.8249  1.6081
 1382SOL    HW215783   1.319   1.468   9.213  0.5625 -0.8858  0.6241
 1383SOL     OW15784   0.102   2.493   7.180  0.5423  0.2124 -0.0345
 1383SOL    HW115785   0.135   2.472   7.093 -3.0468 -2.6441 -0.7278
 1383SOL    HW215786   0.071   2.405   7.201  2.8621 -0.2590  1.4577
 1384SOL     OW15787   0.920   3.661  15.857  0.1757 -0.0333 -0.2681
 1384SOL    HW115788   0.969   3.592  15.814  1.4912 -0.5630  2.0679
 1384SOL    HW215789   0.958   3.673  15.944  3.8073  0.3845 -1.9404
 1385SOL     OW15790   4.538   1.075   5.072 -0.3474 -0.6444 -0.2217
 1385SOL    HW115791   4.598   1.008   5.104 -0.2676 -0.5007 -0.0738
 1385SOL    HW215792   4.532   1.124   5.154 -0.8882  0.4864 -0.9294
 1386SOL     OW15793   4.037   3.416   6.879  0.6889 -0.2246 -0.3885
 1386SOL    HW115794   4.000   3.438   6.793  0.3271  1.2383  0.1422
 1386SOL    HW215795   4.117   3.370   6.851 -0.1437 -1.6912 -0.3378
 1387SOL     OW15796   3.370   2.653   7.972  0.5184 -0.1638  0.1884
 1387SOL    HW115797   3.464   2.670   7.974  0.3482  0.7741  0.2402
 1387SOL    HW215798   3.342   2.678   7.883 -1.1911  1.5297  1.1998
 1388SOL     OW15799   1.166   2.234  10.103  0.4658 -0.3282  0.4734
 1388SOL    HW115800   1.168   2.177  10.026  0.7528  2.0799 -1.3158
 1388SOL    HW215801   1.252   2.275  10.088  0.7468 -0.7864  0.8228
 1389SOL     OW15802   1.074   4.117  13.244 -0.5359 -0.2814 -0.5117
 1389SOL    HW115803   1.016   4.128  13.319 -0.7538  0.5290 -0.7969
 1389SOL    HW215804   1.157   4.154  13.274 -1.7337  1.2689  0.8647
 1390SOL     OW15805   4.237   3.029   6.139 -0.0011 -0.3054  0.0378
 1390SOL    HW115806   4.328   3.015   6.113 -0.0390 -0.5545  0.0387
 1390SOL    HW215807   4.246   3.120   6.167 -0.6631 -0.6267  1.3135
 1391SOL     OW15808   3.335   3.644   3.446 -0.2910 -0.4212  0.3889
 1391SOL    HW115809   3.262   3.691   3.406  0.7744 -0.0047 -1.0725
 1391SOL    HW215810   3.356   3.573   3.386  1.0178  1.0890 -0.9483
 1392SOL     OW15811   1.335   1.819  10.696 -0.2168  0.4995  0.1077
 1392SOL    HW115812   1.284   1.814  10.777 -0.4214  0.2042 -0.0390
 1392SOL    HW215813   1.409   1.878  10.714  1.0184 -0.9978 -0.0969
 1393SOL     OW15814   3.040   3.066   1.496  0.1243 -0.3561 -0.1632
 1393SOL    HW115815   3.040   3.031   1.407  1.5451 -2.5356  0.7008
 1393SOL    HW215816   3.130   3.096   1.511 -0.1337 -0.2226  1.1888
 1394SOL     OW15817   2.138   3.625   3.486  0.2533 -0.3384  0.1018
 1394SOL    HW115818   2.147   3.714   3.520 -2.4273  0.0451 -0.1902
 1394SOL    HW215819   2.086   3.655   3.412  0.6669 -0.0695 -0.0790
 1395SOL     OW15820   0.006   0.398   7.478 -0.1936  0.6719 -0.0054
 1395SOL    HW115821   4.649   0.405   7.506  0.1267 -0.4671  1.3301
 1395SOL    HW215822   0.003   0.442   7.393 -2.0823  2.1316  0.8163
 1396SOL     OW15823   4.512   4.121   3.281  0.4303  0.2711  0.1824
 1396SOL    HW115824   4.418   4.102   3.282  0.0007  2.4181  0.5419
 1396SOL    HW215825   4.510   4.205   3.234  0.4163 -1.4737 -2.9141
 1397SOL     OW15826   4.727   1.737   6.602  0.0517 -0.2206 -0.0735
 1397SOL    HW115827   4.669   1.739   6.525  0.6559 -0.1372 -0.5308
 1397SOL    HW215828   0.046   1.808   6.566 -0.2547  0.5501  0.9875
 1398SOL     OW15829   2.106   0.843   4.011  0.0794  0.2227 -0.4675
 1398SOL    HW115830   2.062   0.896   4.077 -1.3780 -2.0301  0.3516
 1398SOL    HW215831   2.066   0.895   3.942 -1.8929  0.5491  0.9282
 1399SOL     OW15832   0.219   4.595   1.693 -0.0375 -0.0958 -0.2556
 1399SOL    HW115833   0.252   4.510   1.666 -0.5247 -0.2548 -0.3385
 1399SOL    HW215834   0.125   4.591   1.713  0.3747  0.9504  1.8667
 1400SOL     OW15835   2.453   0.951   8.598  0.0694 -0.1029  0.4595
 1400SOL    HW115836   2.524   0.924   8.539  0.7716 -0.6781  1.5759
 1400SOL    HW215837   2.407   0.867   8.601  0.6797 -0.5255 -1.8716
 1401SOL     OW15838   1.116   4.128  12.249  0.0598  0.3321 -0.1965
 1401SOL    HW115839   1.106   4.131  12.344  2.1422 -0.8681  0.0846
 1401SOL    HW215840   1.181   4.198  12.244 -0.0889  0.4778 -0.0670
 1402SOL     OW15841   4.400   2.117   9.741 -0.0392 -0.2207 -0.3140
 1402SOL    HW115842   4.442   2.093   9.823  1.9719 -1.2563 -1.6640
 1402SOL    HW215843   4.475   2.105   9.684  0.5789  3.9720 -0.4107
 1403SOL     OW15844   2.839   0.755   3.534 -0.2327 -0.2040 -0.2424
 1403SOL    HW115845   2.776   0.743   3.462 -1.6567 -1.4834  1.2312
 1403SOL    HW215846   2.779   0.789   3.599 -0.0049 -0.6639  0.2062
 1404SOL     OW15847   3.994   4.100   7.021  0.0269 -0.3768 -0.3670
 1404SOL    HW115848   4.005   4.158   6.945  0.5066 -0.4019 -0.3163
 1404SOL    HW215849   4.056   4.130   7.088 -1.4020  1.6628  0.0683
 1405SOL     OW15850   0.196   0.090   3.249  0.0580 -0.2520 -0.2560
 1405SOL    HW115851   0.134   0.151   3.209  1.2696  1.8068  1.0351
 1405SOL    HW215852   0.273   0.097   3.193 -1.0478 -0.3140 -1.7845
 1406SOL     OW15853   0.672   2.406   0.113 -0.5449 -0.2917 -0.2183
 1406SOL    HW115854   0.740   2.409   0.045 -0.3614  1.0123  0.0179
 1406SOL    HW215855   0.716   2.451   0.185 -2.6176  0.7533  0.3900
 1407SOL     OW15856   1.662   3.768   5.682 -0.4663  0.2793  0.4387
 1407SOL    HW115857   1.661   3.846   5.627 -1.2131  0.6895  1.0239
 1407SOL    HW215858   1.649   3.802   5.771 -0.3910  0.1749  0.4890
 1408SOL     OW15859   1.641   0.528   4.163  0.4393 -0.4018  0.1489
 1408SOL    HW115860   1.677   0.542   4.250  0.7466 -1.7549  0.2409
 1408SOL    HW215861   1.617   0.435   4.164 -0.8656 -0.0776 -0.5872
 1409SOL     OW15862   3.133   4.057  17.684 -0.1353  0.3606 -0.1724
 1409SOL    HW115863   3.193   4.126  17.654  0.0674 -0.4388 -1.6336
 1409SOL    HW215864   3.087   4.062  17.600 -1.1167  1.4953  0.4362
 1410SOL     OW15865   2.873   4.358  16.853 -0.1191 -0.0020  0.4275
 1410SOL    HW115866   2.823   4.338  16.774 -0.1927  0.2817  0.4051
 1410SOL    HW215867   2.910   4.444  16.836  0.0215  0.0751  1.0944
 1411SOL     OW15868   2.903   0.738   6.077 -0.3448 -0.5717  0.1493
 1411SOL    HW115869   2.897   0.682   6.000  0.3142  0.3304 -0.5593
 1411SOL    HW215870   2.937   0.677   6.143 -1.0840 -0.1700  0.8901
 1412SOL     OW15871   3.965   0.591  10.781  0.4331 -0.0168 -0.1661
 1412SOL    HW115872   4.023   0.542  10.722 -0.6132 -0.8108 -0.5244
 1412SOL    HW215873   3.879   0.558  10.756 -1.7403  4.1212  1.9600
 1413SOL     OW15874   0.090   1.500   8.854  0.0329  0.2183 -0.0645
 1413SOL    HW115875   0.049   1.586   8.849  1.0313  0.9064  3.3404
 1413SOL    HW215876   0.026   1.443   8.810  1.3150 -0.5237 -0.9730
 1414SOL     OW15877   1.064   4.628   4.007  0.3554 -0.8035  0.3621
 1414SOL    HW115878   0.976   4.644   3.975 -0.0647 -2.7677  0.5071
 1414SOL    HW215879   1.115   4.671   3.939  0.8698  1.1542  1.9798
 1415SOL     OW15880   3.342   0.111   9.117 -0.1549  0.1629 -0.7606
 1415SOL    HW115881   3.338   0.097   9.023 -1.0688 -0.5618 -0.6164
 1415SOL    HW215882   3.426   0.067   9.131 -2.1548 -2.4744  3.2318
 1416SOL     OW15883   4.218   4.644   6.566  0.5434 -0.0208  0.4695
 1416SOL    HW115884   4.298   4.633   6.514  1.5015  1.0850  1.7249
 1416SOL    HW215885   4.231   4.571   6.627  0.0153 -0.7323 -0.2690
 1417SOL     OW15886   0.055   1.577   6.826  0.2424 -0.1393  0.0173
 1417SOL    HW115887   0.019   1.620   6.748  0.9304 -0.1602 -0.3104
 1417SOL    HW215888   0.088   1.647   6.882  0.3288  1.6054 -2.2116
 1418SOL     OW15889   1.121   1.479   2.063 -0.1537  0.4326  0.0757
 1418SOL    HW115890   1.059   1.551   2.073  0.2924  0.6094  1.5150
 1418SOL    HW215891   1.099   1.421   2.136  0.8317 -0.2042 -0.1196
 1419SOL     OW15892   3.209   0.856   3.087  0.0853  0.0588 -0.0635
 1419SOL    HW115893   3.268   0.872   3.161  1.4111  1.4639 -1.4193
 1419SOL    HW215894   3.134   0.829   3.139  0.3586 -1.1794 -0.3222
 1420SOL     OW15895   2.514   3.255   2.112  0.0762  0.2041  0.4034
 1420SOL    HW115896   2.597   3.303   2.102  0.2846 -0.0742  0.7711
 1420SOL    HW215897   2.480   3.266   2.201  0.1423 -0.0724  0.4630
 1421SOL     OW15898   3.835   2.262   4.695  0.1928 -0.3905  0.7956
 1421SOL    HW115899   3.811   2.352   4.719  1.2467  0.3368 -0.8842
 1421SOL    HW215900   3.755   2.235   4.649  1.3723 -1.9259 -0.3761
 1422SOL     OW15901   1.071   2.005   6.907  0.4339 -0.6028  0.1291
 1422SOL    HW115902   1.061   2.085   6.959  1.3183  0.4374 -1.2863
 1422SOL    HW215903   0.991   2.011   6.855 -0.7058 -3.4682  1.5397
 1423SOL     OW15904   3.492   3.564  17.640  0.6113 -0.4795  0.1950
 1423SOL    HW115905   3.565   3.506  17.662  0.5816 -0.3067  0.7280
 1423SOL    HW215906   3.449   3.505  17.578 -0.8526  0.5971  0.1861
 1424SOL     OW15907   0.937   4.247  15.029 -0.1724  0.4031 -0.0552
 1424SOL    HW115908   0.901   4.302  15.098 -0.4639 -0.1557  0.2370
 1424SOL    HW215909   1.031   4.262  15.032 -0.4363  2.0871 -0.4064
 1425SOL     OW15910   4.581   3.059   6.033 -0.6085  0.1267  0.5583
 1425SOL    HW115911   4.590   2.994   6.103 -1.9905 -0.3398  0.3100
 1425SOL    HW215912   4.661   3.108   6.053 -1.4507  1.3995  0.7736
 1426SOL     OW15913   4.255   2.757   7.162  0.4227 -0.0923  0.0022
 1426SOL    HW115914   4.295   2.843   7.150  0.6409 -0.2574 -0.4375
 1426SOL    HW215915   4.311   2.705   7.104  0.6555 -0.2704  0.3819
 1427SOL     OW15916   0.733   3.798   0.324  0.2331 -0.2762  0.6478
 1427SOL    HW115917   0.799   3.853   0.367  0.5637 -0.2580  0.1191
 1427SOL    HW215918   0.689   3.866   0.273 -1.0372 -0.6276  1.2934
 1428SOL     OW15919   4.637   4.425  14.779 -0.1857  0.3131  0.0222
 1428SOL    HW115920   4.717   4.420  14.831 -0.2447  0.9683  0.1769
 1428SOL    HW215921   4.668   4.479  14.705  1.5698 -0.4143  0.2268
 1429SOL     OW15922   4.354   1.403   7.977 -0.0611  0.0568  0.2222
 1429SOL    HW115923   4.432   1.410   7.922  0.2503 -2.0272  0.4176
 1429SOL    HW215924   4.384   1.428   8.064  0.2543  3.2656 -0.7764
 1430SOL     OW15925   2.352   0.095   6.241  0.5570 -0.3174 -0.3197
 1430SOL    HW115926   2.261   0.123   6.256  1.1117  2.5046 -2.3095
 1430SOL    HW215927   2.408   0.167   6.271  0.1321  0.5465 -1.6006
 1431SOL     OW15928   0.094   2.787  12.878 -0.0223 -0.0358  0.2816
 1431SOL    HW115929   0.064   2.793  12.787  0.6637  1.9857  0.2016
 1431SOL    HW215930   0.018   2.819  12.926 -0.1550  0.4404 -0.2460
 1432SOL     OW15931   3.224   3.486   7.690 -0.1941 -0.2180  0.2583
 1432SOL    HW115932   3.310   3.516   7.719  0.0463  3.0799 -3.8758
 1432SOL    HW215933   3.208   3.535   7.609  2.4102 -1.6595 -1.0900
 1433SOL     OW15934   0.559   1.130   7.063  0.0677 -0.0375  0.3679
 1433SOL    HW115935   0.572   1.077   7.142 -1.7157  1.5789  1.7623
 1433SOL    HW215936   0.588   1.215   7.097 -0.3306 -0.0274  0.6814
 1434SOL     OW15937   4.630   1.808   0.510 -0.4416 -0.2234  0.2408
 1434SOL    HW115938   4.636   1.846   0.597  2.3716 -1.5369  0.6191
 1434SOL    HW215939   4.717   1.822   0.471 -1.4100  1.9960 -1.1198
 1435SOL     OW15940   0.998   0.012   7.624  0.1085 -0.4330 -0.2410
 1435SOL    HW115941   0.928   0.043   7.681  1.2726 -0.8204  1.3912
 1435SOL    HW215942   0.960   0.043   7.541  1.4798  1.6872 -0.0491
 1436SOL     OW15943   3.879   3.188  10.188 -0.3656 -0.0089  0.4400
 1436SOL    HW115944   3.804   3.191  10.248  0.4076 -0.5758  1.4486
 1436SOL    HW215945   3.943   3.184  10.260  1.8824 -0.8140 -1.5979
 1437SOL     OW15946   0.741   0.619   8.292  0.0835 -0.1005  0.0681
 1437SOL    HW115947   0.738   0.661   8.378 -0.9193 -1.2131  0.5821
 1437SOL    HW215948   0.664   0.562   8.288  1.4029 -1.7868 -1.4433
 1438SOL     OW15949   0.997   3.696  13.030  0.0673 -0.0615  0.4196
 1438SOL    HW115950   1.060   3.690  12.958  0.4838 -2.3674  0.9517
 1438SOL    HW215951   0.978   3.789  13.023  0.5682 -0.1647 -2.3965
 1439SOL     OW15952   3.126   0.511  14.839 -0.3091 -0.1763 -0.2923
 1439SOL    HW115953   3.120   0.424  14.878 -0.5770  0.5674  1.3662
 1439SOL    HW215954   3.048   0.503  14.785 -0.6109 -0.3393  0.1642
 1440SOL     OW15955   2.011   3.343  10.384 -0.0949 -0.5647 -0.3135
 1440SOL    HW115956   2.072   3.320  10.314  1.4696  0.1652  0.8390
 1440SOL    HW215957   1.933   3.308  10.339 -0.9322  0.8756  0.0008
 1441SOL     OW15958   2.015   2.905   1.774 -0.0004 -0.4780  0.2970
 1441SOL    HW115959   1.927   2.925   1.806 -1.2134 -2.5355 -1.7254
 1441SOL    HW215960   2.069   2.951   1.838 -1.4177 -1.7929  2.4120
 1442SOL     OW15961   2.078   4.489  12.843 -0.1569  0.0576 -0.1026
 1442SOL    HW115962   2.091   4.464  12.935 -0.0352  1.8560  0.3678
 1442SOL    HW215963   2.127   4.572  12.842 -0.5896  0.2922 -1.9824
 1443SOL     OW15964   3.158   1.299   3.299 -0.0166 -0.3843 -0.2765
 1443SOL    HW115965   3.075   1.252   3.286 -0.5617  0.6533 -0.5276
 1443SOL    HW215966   3.217   1.224   3.298 -1.8134 -1.8020  0.7442
 1444SOL     OW15967   4.564   1.163   4.807 -0.0022  0.3262 -0.3139
 1444SOL    HW115968   4.534   1.162   4.899 -0.2613  1.4337 -0.3879
 1444SOL    HW215969   4.602   1.076   4.798 -0.1921  0.1758  0.2982
 1445SOL     OW15970   1.266   4.119  10.852  0.0618 -0.0223  0.0638
 1445SOL    HW115971   1.288   4.081  10.767 -0.2278 -1.5900  0.6827
 1445SOL    HW215972   1.304   4.050  10.906 -0.4184  0.1150  0.5768
 1446SOL     OW15973   1.740   2.693   5.023  0.3988  0.0842  0.2045
 1446SOL    HW115974   1.797   2.751   4.972  1.0302 -1.2010 -0.5681
 1446SOL    HW215975   1.667   2.671   4.964 -0.4983  3.1438  0.1751
 1447SOL     OW15976   0.987   2.154   5.485  0.0396 -0.4955 -0.7917
 1447SOL    HW115977   1.031   2.197   5.558  1.1915 -1.7986 -0.7061
 1447SOL    HW215978   0.950   2.077   5.529  2.8161 -1.2794  0.1326
 1448SOL     OW15979   4.719   2.837  12.621  0.5781  0.1809  0.1258
 1448SOL    HW115980   4.647   2.898  12.639 -0.3081 -1.4576  2.0713
 1448SOL    HW215981   4.673   2.754  12.626 -1.2987  1.2729  1.0752
 1449SOL     OW15982   2.378   2.269   1.134 -0.2961  0.2361 -0.3899
 1449SOL    HW115983   2.417   2.196   1.183 -0.9341  1.5507  2.0476
 1449SOL    HW215984   2.450   2.304   1.081  1.8402 -0.8867  1.7142
 1450SOL     OW15985   2.582   2.356   0.988  0.0482  0.3464  0.6777
 1450SOL    HW115986   2.600   2.443   1.024  1.4568  0.5487 -0.5123
 1450SOL    HW215987   2.551   2.377   0.900 -0.8567 -0.7387  0.7416
 1451SOL     OW15988   2.881   1.094   5.028  0.0410 -0.3910 -0.3436
 1451SOL    HW115989   2.972   1.093   4.998  0.4002 -1.8721  0.7747
 1451SOL    HW215990   2.835   1.057   4.953  0.4612  0.6532 -1.1178
 1452SOL     OW15991   4.303   0.787   8.814 -0.2342  0.5365 -0.0592
 1452SOL    HW115992   4.351   0.869   8.825  0.1117  0.0999  1.7016
 1452SOL    HW215993   4.275   0.763   8.902 -0.0735  3.6840  0.8640
 1453SOL     OW15994   4.577   1.299   0.538 -0.2469 -0.1367  0.3821
 1453SOL    HW115995   4.613   1.387   0.528 -1.8475  0.4314 -0.2677
 1453SOL    HW215996   4.525   1.310   0.618 -1.1677  2.2158 -0.5467
 1454SOL     OW15997   1.491   0.998   3.246 -0.1270  0.5233 -0.2205
 1454SOL    HW115998   1.490   1.015   3.340 -1.6954  2.9809 -0.6808
 1454SOL    HW215999   1.571   0.947   3.245 -0.6652 -0.3319  0.3030
 1455SOL     OW16000   1.804   2.508   6.054 -0.1652  0.2116 -0.4504
 1455SOL    HW116001   1.838   2.503   5.965  0.7884  0.9383 -0.1226
 1455SOL    HW216002   1.877   2.549   6.100 -0.2682  0.0299 -0.1183
 1456SOL     OW16003   1.848   0.874   0.674  0.2176 -0.3953  0.0627
 1456SOL    HW116004   1.906   0.889   0.748  1.4772  1.7903 -1.3746
 1456SOL    HW216005   1.915   0.856   0.608 -0.2517  1.7983 -1.0065
 1457SOL     OW16006   1.455   1.223   4.168  1.0342  0.3673  0.0276
 1457SOL    HW116007   1.363   1.247   4.161  0.3572 -2.2816 -0.2649
 1457SOL    HW216008   1.493   1.311   4.174  1.6787  0.1550 -1.0782
 1458SOL     OW16009   4.567   4.278   2.455  0.0537  1.0280 -0.2006
 1458SOL    HW116010   4.593   4.292   2.364 -1.6904  0.0907 -0.8313
 1458SOL    HW216011   4.486   4.229   2.442  1.8334 -1.4892 -1.8553
 1459SOL     OW16012   2.751   0.172   3.218  0.2082  0.4313  0.4326
 1459SOL    HW116013   2.787   0.091   3.253  0.9248  0.0081 -1.2904
 1459SOL    HW216014   2.665   0.173   3.261  0.8533  1.0360  1.7119
 1460SOL     OW16015   3.061   0.524  11.657  0.5863 -0.4031 -0.3618
 1460SOL    HW116016   3.061   0.619  11.668  0.7806 -0.4287 -0.1388
 1460SOL    HW216017   2.969   0.500  11.673  0.9109  0.3240  2.6063
 1461SOL     OW16018   1.354   0.023   2.048 -0.0881 -0.2479  0.3789
 1461SOL    HW116019   1.334   4.664   2.040 -1.3481 -0.2019  2.8349
 1461SOL    HW216020   1.383   0.045   1.960  1.3788  1.4228  1.2867
 1462SOL     OW16021   0.743   1.586   9.304 -0.7888 -0.5111  0.0253
 1462SOL    HW116022   0.836   1.570   9.314 -0.3046  2.3203  0.0797
 1462SOL    HW216023   0.743   1.592   9.208 -1.3780  1.0443  0.1217
 1463SOL     OW16024   0.038   0.534   6.176 -0.4423  0.0148 -0.2686
 1463SOL    HW116025   4.684   0.567   6.162 -0.3351  0.2184 -0.4886
 1463SOL    HW216026   0.070   0.604   6.232 -0.0246 -1.1395  0.9217
 1464SOL     OW16027   1.445   3.114  13.748 -0.4419 -0.3485  0.6635
 1464SOL    HW116028   1.364   3.140  13.706 -0.0714 -1.5902 -0.8243
 1464SOL    HW216029   1.472   3.197  13.788  2.1237 -1.7339  1.8584
 1465SOL     OW16030   2.028   3.326   2.881  0.0808 -0.6332 -0.4432
 1465SOL    HW116031   1.943   3.283   2.891  0.4165 -0.9000  1.2718
 1465SOL    HW216032   2.020   3.422   2.877 -0.4899 -0.5523  2.3186
 1466SOL     OW16033   1.870   1.153   8.401 -0.3282 -0.2028 -0.4353
 1466SOL    HW116034   1.886   1.236   8.356 -0.4993 -0.2340 -0.5530
 1466SOL    HW216035   1.938   1.156   8.468 -2.1042 -2.4077  1.4659
 1467SOL     OW16036   2.477   3.216   1.685  0.3593 -0.0678  0.2994
 1467SOL    HW116037   2.499   3.173   1.767 -0.3708 -0.9760  0.0233
 1467SOL    HW216038   2.534   3.293   1.692 -0.2338  0.6801 -2.6642
 1468SOL     OW16039   1.200   1.462   5.064 -0.0239  0.2445  0.7612
 1468SOL    HW116040   1.213   1.426   5.152 -1.7046 -2.1707  0.0436
 1468SOL    HW216041   1.216   1.556   5.071 -1.1558  0.5473 -0.6645
 1469SOL     OW16042   4.164   4.541   5.980  0.3576  0.3142 -0.0165
 1469SOL    HW116043   4.087   4.537   5.925 -0.8368  1.5571  1.5664
 1469SOL    HW216044   4.169   4.452   6.017  1.4904  0.1404 -0.5696
 1470SOL     OW16045   1.985   1.167   2.903 -0.9338 -0.2167 -0.3194
 1470SOL    HW116046   2.033   1.144   2.982  0.2929 -0.9842 -1.2878
 1470SOL    HW216047   2.052   1.197   2.842 -0.8294 -1.1830 -0.6761
 1471SOL     OW16048   2.730   2.708   6.395  0.2338 -0.0403 -0.1901
 1471SOL    HW116049   2.652   2.733   6.445 -0.9205  0.6694 -2.3656
 1471SOL    HW216050   2.703   2.620   6.369  1.0190 -0.9964  2.1632
 1472SOL     OW16051   3.891   4.458  11.308 -0.4754 -0.2160  0.4382
 1472SOL    HW116052   3.850   4.539  11.339 -0.1620 -1.1203  3.2206
 1472SOL    HW216053   3.982   4.463  11.339  1.0169 -2.2471 -3.6978
 1473SOL     OW16054   4.545   2.899   9.382 -0.2085 -0.6597 -0.2235
 1473SOL    HW116055   4.504   2.980   9.415 -2.4378 -1.9616  0.1948
 1473SOL    HW216056   4.591   2.927   9.303  1.6796 -1.2765  0.6474
 1474SOL     OW16057   4.250   1.061  15.248 -0.1081 -0.4440  0.0123
 1474SOL    HW116058   4.326   1.094  15.201 -1.1832 -0.0732 -1.4664
 1474SOL    HW216059   4.257   0.965  15.242  1.4590 -0.2258 -1.4153
 1475SOL     OW16060   1.428   1.917   4.556  0.3997  0.1075 -0.1815
 1475SOL    HW116061   1.395   1.839   4.600 -1.7435  1.6893  0.9903
 1475SOL    HW216062   1.519   1.907   4.584  0.3738  0.1852 -0.0707
 1476SOL     OW16063   3.727   1.387   5.851  0.0488 -0.0292  0.1093
 1476SOL    HW116064   3.759   1.469   5.889 -1.5654  1.2055 -1.1719
 1476SOL    HW216065   3.734   1.317   5.916  4.3674 -1.0236 -1.4093
 1477SOL     OW16066   0.905   3.509   7.458 -0.5244  0.4216 -0.5124
 1477SOL    HW116067   0.886   3.470   7.543 -0.7820 -0.6347 -1.0508
 1477SOL    HW216068   0.845   3.584   7.463  0.0924  0.8888 -0.1272
 1478SOL     OW16069   0.203   0.248   7.394 -0.4676 -0.1508 -0.5430
 1478SOL    HW116070   0.128   0.284   7.441 -0.0350  0.8231 -0.6035
 1478SOL    HW216071   0.217   0.177   7.457  2.3310  0.7716 -0.1111
 1479SOL     OW16072   4.719   4.604   6.626  0.1744  0.1703 -0.7361
 1479SOL    HW116073   0.002   4.651   6.544  1.4190 -1.4003 -1.3699
 1479SOL    HW216074   0.040   4.527   6.619  1.6849  1.1321  0.7074
 1480SOL     OW16075   4.296   2.148   3.347  0.3588 -0.1829  0.1731
 1480SOL    HW116076   4.217   2.151   3.294  0.5753  1.6422 -0.0322
 1480SOL    HW216077   4.349   2.080   3.305  0.4647  0.3071 -0.4898
 1481SOL     OW16078   1.221   1.764   3.326 -0.0527  0.1346  0.0464
 1481SOL    HW116079   1.230   1.814   3.245  1.0067 -0.8630 -0.4482
 1481SOL    HW216080   1.243   1.843   3.375  2.3602 -0.1645 -0.5417
 1482SOL     OW16081   3.299   1.484   9.084 -0.2933  0.0221 -0.2442
 1482SOL    HW116082   3.392   1.472   9.106 -0.4603 -2.2944 -0.7881
 1482SOL    HW216083   3.274   1.392   9.082  1.5699 -0.5541  2.6168
 1483SOL     OW16084   2.497   4.714   7.626  0.0382  0.1056  0.1081
 1483SOL    HW116085   2.420   4.714   7.683  1.3347  0.8532  1.8736
 1483SOL    HW216086   2.511   0.073   7.615 -0.5316 -0.0209 -1.5642
 1484SOL     OW16087   1.182   1.651   8.378 -0.4880  0.6375 -0.9837
 1484SOL    HW116088   1.194   1.556   8.371 -0.9094  0.4592  0.6030
 1484SOL    HW216089   1.272   1.683   8.382 -0.1992 -0.3162  0.0777
 1485SOL     OW16090   0.843   3.010   5.734 -0.2144 -0.8714 -0.4403
 1485SOL    HW116091   0.754   3.042   5.723  0.2204  1.4971  2.8670
 1485SOL    HW216092   0.850   2.943   5.665  2.7444  0.2328 -1.1934
 1486SOL     OW16093   0.626   0.586   7.756 -0.2075 -0.5681  0.4177
 1486SOL    HW116094   0.698   0.649   7.751 -1.8481  1.1174 -1.7708
 1486SOL    HW216095   0.558   0.631   7.806 -1.4694 -2.0119 -0.0017
 1487SOL     OW16096   3.069   2.906   0.687  0.0313 -0.0031 -0.2171
 1487SOL    HW116097   3.051   2.815   0.708 -2.7550  0.5566 -0.2536
 1487SOL    HW216098   2.978   2.935   0.689  0.6479  1.8308  1.8984
 1488SOL     OW16099   4.252   0.720   6.468  0.6474  0.7579 -0.7221
 1488SOL    HW116100   4.198   0.694   6.393 -2.0972  0.1667  1.4638
 1488SOL    HW216101   4.297   0.640   6.493 -1.7731 -0.3610  0.0362
 1489SOL     OW16102   4.082   3.527   4.485 -0.0941  0.2207  0.1011
 1489SOL    HW116103   3.994   3.557   4.506 -0.5806 -0.5371 -0.8119
 1489SOL    HW216104   4.113   3.596   4.426  0.1712  0.1192  0.1187
 1490SOL     OW16105   3.935   1.863  14.108  0.1208 -0.3040 -0.1057
 1490SOL    HW116106   4.018   1.843  14.150 -1.3286 -1.2415  2.2776
 1490SOL    HW216107   3.890   1.921  14.169 -1.3639  1.8379 -3.1971
 1491SOL     OW16108   2.503   0.311   8.938 -0.2183 -0.1035  1.0453
 1491SOL    HW116109   2.535   0.238   8.992  1.5848 -0.3943 -0.4015
 1491SOL    HW216110   2.445   0.349   9.004  0.6615 -0.7779  2.2131
 1492SOL     OW16111   4.455   2.249   4.894 -0.0721 -0.8046 -0.2617
 1492SOL    HW116112   4.450   2.289   4.807 -2.4988 -2.0682 -0.7216
 1492SOL    HW216113   4.363   2.228   4.908 -0.4839  0.4749 -0.9437
 1493SOL     OW16114   3.620   1.476   6.498  0.4399 -0.7226  0.0125
 1493SOL    HW116115   3.559   1.541   6.533  2.8337 -0.0369  2.9329
 1493SOL    HW216116   3.665   1.449   6.579  0.5156 -1.9708 -0.4548
 1494SOL     OW16117   1.833   0.685  11.718  0.2661 -0.3395  0.1950
 1494SOL    HW116118   1.920   0.649  11.733 -0.7114 -2.1796  1.5058
 1494SOL    HW216119   1.842   0.744  11.643  1.7332  2.6105  2.6492
 1495SOL     OW16120   2.784   3.099  16.825 -0.6307 -0.5822  0.3397
 1495SOL    HW116121   2.824   3.027  16.777 -0.2004 -0.3947  0.4247
 1495SOL    HW216122   2.856   3.143  16.870 -1.0869  0.8996 -0.3560
 1496SOL     OW16123   2.213   3.302   2.683 -0.0708  0.2339  0.3470
 1496SOL    HW116124   2.168   3.240   2.625  1.6135  0.2191 -0.9697
 1496SOL    HW216125   2.152   3.297   2.756 -0.4060 -2.8127 -0.1509
 1497SOL     OW16126   0.968   2.527   0.507 -0.1345  0.4186 -0.3730
 1497SOL    HW116127   1.063   2.536   0.500  0.0045 -0.8483 -0.1236
 1497SOL    HW216128   0.943   2.609   0.550 -0.0752  0.1525  0.1718
 1498SOL     OW16129   3.186   3.266   9.046  0.2311 -0.4620  0.3023
 1498SOL    HW116130   3.281   3.257   9.042  0.2670 -0.3462  0.9097
 1498SOL    HW216131   3.162   3.202   9.113 -0.2292  1.0759  1.6056
 1499SOL     OW16132   0.943   0.131  11.012 -0.5426  0.2352  0.2658
 1499SOL    HW116133   0.963   0.151  10.921 -0.4034  0.5151  0.3575
 1499SOL    HW216134   0.937   0.036  11.007 -0.1910  0.2021  0.4721
 1500SOL     OW16135   3.575   2.639  15.887  0.0832 -0.4420  0.5935
 1500SOL    HW116136   3.599   2.549  15.906  2.7351  0.0822 -0.3300
 1500SOL    HW216137   3.480   2.630  15.893  0.1459  0.0297  2.1552
 1501SOL     OW16138   2.110   2.140  17.146  0.4834  0.7248 -0.0347
 1501SOL    HW116139   2.152   2.171  17.065  2.1907 -0.2873  0.4618
 1501SOL    HW216140   2.022   2.139  17.107 -0.6337 -0.4010  2.5572
 1502SOL     OW16141   0.844   3.843   2.826  0.5540 -0.4963 -0.5266
 1502SOL    HW116142   0.913   3.777   2.817  0.6005 -0.5144 -0.0459
 1502SOL    HW216143   0.832   3.872   2.735 -0.2056 -0.0533 -0.2870
 1503SOL     OW16144   3.833   1.134   2.380 -0.5075  0.0806  0.3194
 1503SOL    HW116145   3.804   1.101   2.465 -1.8234  0.6732  0.0920
 1503SOL    HW216146   3.791   1.219   2.379  2.6328  1.6202 -0.9327
 1504SOL     OW16147   4.085   1.819   1.411  0.5622  0.2568  0.0480
 1504SOL    HW116148   4.111   1.796   1.322  2.1339  0.1541  0.5346
 1504SOL    HW216149   4.081   1.733   1.452 -0.3474 -0.8429 -2.3757
 1505SOL     OW16150   2.853   3.052   8.975  0.3506 -0.0614  0.0894
 1505SOL    HW116151   2.927   3.110   8.958 -0.5055  0.6959 -1.0613
 1505SOL    HW216152   2.821   3.028   8.888  0.2276  0.4293 -0.0022
 1506SOL     OW16153   4.314   3.801   5.447  0.0821  0.2287 -0.0679
 1506SOL    HW116154   4.259   3.878   5.463  2.7484  1.7828  1.6688
 1506SOL    HW216155   4.281   3.772   5.362 -0.6907  1.4578 -0.2004
 1507SOL     OW16156   1.089   2.302  16.795  0.0100 -0.2312  0.4241
 1507SOL    HW116157   1.051   2.389  16.780 -0.0543 -0.2684  0.3732
 1507SOL    HW216158   1.072   2.256  16.713  1.4845 -1.5407  0.8622
 1508SOL     OW16159   3.711   4.416  14.755  0.2079  0.1301 -0.1308
 1508SOL    HW116160   3.755   4.349  14.702 -2.5522 -0.7660 -1.2599
 1508SOL    HW216161   3.698   4.485  14.691  1.7941  0.5945  0.0351
 1509SOL     OW16162   1.450   2.940  10.689 -0.2417 -0.0735 -0.0717
 1509SOL    HW116163   1.430   2.929  10.596  0.9286 -1.9957 -0.0919
 1509SOL    HW216164   1.364   2.926  10.729 -0.0665 -3.6164 -0.9172
 1510SOL     OW16165   1.909   2.186  10.785 -0.6156  0.4666 -0.2723
 1510SOL    HW116166   1.882   2.240  10.710  1.7478  2.3929  0.2746
 1510SOL    HW216167   1.882   2.099  10.755  0.8355  0.2163 -0.8648
 1511SOL     OW16168   1.921   4.152  10.107  0.2846  0.6024 -0.0490
 1511SOL    HW116169   1.934   4.061  10.132  0.0308  0.3408 -0.8838
 1511SOL    HW216170   2.014   4.168  10.088  0.5864  2.1671  2.6963
 1512SOL     OW16171   1.863   0.176  11.193  0.6312 -0.4874 -0.5378
 1512SOL    HW116172   1.839   0.224  11.114  0.7509 -1.8855 -1.4218
 1512SOL    HW216173   1.876   0.240  11.263 -1.6015 -1.1266  0.4432
 1513SOL     OW16174   4.687   4.643   0.663 -0.2489  0.0238 -0.0346
 1513SOL    HW116175   4.682   4.556   0.623  1.5685 -0.2446  0.3419
 1513SOL    HW216176   4.610   4.633   0.720  1.8217 -1.4607  2.5375
 1514SOL     OW16177   3.918   4.622   2.980 -0.0664  0.0318 -0.1351
 1514SOL    HW116178   3.873   4.679   3.042  2.6300  1.6774  0.3138
 1514SOL    HW216179   3.887   4.654   2.895  1.7456  0.4809 -0.6286
 1515SOL     OW16180   1.441   2.410   3.178 -1.0514 -0.0033 -0.0970
 1515SOL    HW116181   1.418   2.320   3.156  1.2008 -0.9522  1.4141
 1515SOL    HW216182   1.517   2.432   3.124  0.6821 -1.2415  1.8744
 1516SOL     OW16183   3.375   0.754   8.199  0.5898 -0.8990  0.7254
 1516SOL    HW116184   3.471   0.761   8.196  0.4117  0.9474 -0.9632
 1516SOL    HW216185   3.359   0.737   8.292  0.3342 -0.4052  0.7725
 1517SOL     OW16186   4.275   4.305   6.556  0.4780  0.4427  0.1025
 1517SOL    HW116187   4.326   4.386   6.555  1.8552 -0.4163  0.1100
 1517SOL    HW216188   4.190   4.339   6.528 -0.3197 -0.9789  0.7920
 1518SOL     OW16189   0.666   1.390   8.330  0.1664 -0.3412 -0.4978
 1518SOL    HW116190   0.583   1.433   8.351  1.2620  1.0918  0.9116
 1518SOL    HW216191   0.730   1.404   8.399 -1.3130  0.6006  0.6962
 1519SOL     OW16192   4.569   0.027   4.632 -0.3770 -0.8342  0.3830
 1519SOL    HW116193   4.579   0.089   4.704  0.7774  1.4486 -1.7692
 1519SOL    HW216194   4.644   4.713   4.666  0.7640  1.0344  0.4953
 1520SOL     OW16195   0.783   2.948   4.458  0.4481 -0.1032 -0.1546
 1520SOL    HW116196   0.754   2.930   4.368  1.6784  1.1483 -0.8136
 1520SOL    HW216197   0.810   2.862   4.489  0.9496 -0.5261 -1.7829
 1521SOL     OW16198   1.370   3.018  12.808  0.3379  0.1537  0.9428
 1521SOL    HW116199   1.463   3.003  12.794 -0.3348 -3.3864  0.2132
 1521SOL    HW216200   1.368   3.080  12.880  1.0081  0.8982  0.3208
 1522SOL     OW16201   3.260   2.249   6.293 -0.0924 -0.1327 -0.0269
 1522SOL    HW116202   3.284   2.265   6.201  0.2394  1.1727  0.2960
 1522SOL    HW216203   3.311   2.168   6.301 -1.2906 -0.7089  1.6794
 1523SOL     OW16204   2.446   4.613   3.078  0.3574  0.3841 -0.3385
 1523SOL    HW116205   2.372   4.668   3.051  2.1672  2.0566 -1.8922
 1523SOL    HW216206   2.508   4.686   3.086  1.7487 -0.6670 -1.4315
 1524SOL     OW16207   0.480   0.225   2.548 -0.2346 -0.2788 -0.3177
 1524SOL    HW116208   0.459   0.202   2.638  1.4288  0.7449  0.3176
 1524SOL    HW216209   0.546   0.157   2.540 -0.3538 -0.5725  1.2652
 1525SOL     OW16210   0.398   1.780   4.661 -0.4244  0.2241 -0.0211
 1525SOL    HW116211   0.354   1.804   4.580 -0.1617  1.0742  0.0912
 1525SOL    HW216212   0.373   1.690   4.682 -0.0857  0.6128  2.0286
 1526SOL     OW16213   1.533   3.174   2.583  1.0318 -0.3645  0.4887
 1526SOL    HW116214   1.444   3.151   2.609  0.7257 -0.0683 -0.2987
 1526SOL    HW216215   1.521   3.228   2.505  0.5902  1.2532  1.6675
 1527SOL     OW16216   2.252   4.317   4.995  0.0638 -0.1716  0.3798
 1527SOL    HW116217   2.308   4.244   4.969  0.4287 -0.0356  0.7865
 1527SOL    HW216218   2.235   4.296   5.087 -0.3737  3.6823  1.1665
 1528SOL     OW16219   3.660   0.039   2.107 -0.5675  0.1022 -0.2288
 1528SOL    HW116220   3.755   0.035   2.108 -0.4792  2.1546  0.4215
 1528SOL    HW216221   3.646   0.069   2.017 -0.6834  1.4450  0.2375
 1529SOL     OW16222   4.464   3.061   3.647  0.1181 -0.0866 -0.3692
 1529SOL    HW116223   4.471   3.108   3.564 -2.9463  0.7452 -0.1551
 1529SOL    HW216224   4.369   3.063   3.661 -0.0218  0.7706 -1.4601
 1530SOL     OW16225   3.646   1.658   6.818 -0.2816  0.3446 -0.0988
 1530SOL    HW116226   3.701   1.726   6.778  1.0366 -0.2442  0.7203
 1530SOL    HW216227   3.560   1.698   6.805 -0.4515  0.2356  0.6952
 1531SOL     OW16228   2.727   0.636   1.208 -0.1679  0.3339 -0.1362
 1531SOL    HW116229   2.665   0.674   1.271 -0.8939 -1.5055  0.2784
 1531SOL    HW216230   2.721   0.542   1.227 -0.3803  0.5558  0.8852
 1532SOL     OW16231   3.142   4.011  13.534  0.3494 -0.2808  0.5529
 1532SOL    HW116232   3.158   4.001  13.440  0.5811  0.3869  0.5192
 1532SOL    HW216233   3.230   4.041  13.558  1.3893 -2.5404 -0.4406
 1533SOL     OW16234   2.399   4.705   3.364  0.1394  0.2454 -0.1549
 1533SOL    HW116235   2.429   4.641   3.429  2.3744  2.2998  0.8675
 1533SOL    HW216236   2.326   4.659   3.323  0.1645  0.5934 -0.5877
 1534SOL     OW16237   0.980   4.531   9.053  0.2375 -0.4449  0.4255
 1534SOL    HW116238   0.993   4.487   8.969 -4.7953 -1.3555  0.1243
 1534SOL    HW216239   0.894   4.572   9.049  0.5449  0.3880  2.2536
 1535SOL     OW16240   0.875   4.627   8.057  0.2487  0.2821 -0.6342
 1535SOL    HW116241   0.901   4.588   8.141 -1.3068 -0.8233 -0.6692
 1535SOL    HW216242   0.952   4.668   8.019 -0.6148  2.6972  0.2258
 1536SOL     OW16243   4.714   2.164  10.483  0.1570 -0.3033 -0.6326
 1536SOL    HW116244   0.041   2.117  10.539 -0.4122  0.3977  0.5858
 1536SOL    HW216245   4.731   2.252  10.518  0.2105 -0.3918 -0.4374
 1537SOL     OW16246   3.376   2.121   4.990 -0.1837  0.2820  0.0066
 1537SOL    HW116247   3.400   2.168   4.910  0.9718 -1.0707 -0.4328
 1537SOL    HW216248   3.305   2.182   5.013 -1.2301 -1.4600  1.3559
 1538SOL     OW16249   2.005   2.943  13.308 -0.0195  0.0577  0.6138
 1538SOL    HW116250   2.062   3.017  13.286  0.3774 -0.3539  0.2509
 1538SOL    HW216251   2.051   2.915  13.387  2.1244  0.5999 -0.4284
 1539SOL     OW16252   3.287   0.527  14.620 -1.1271  0.1217 -0.1548
 1539SOL    HW116253   3.246   0.531  14.707  2.3506 -0.3545  1.5081
 1539SOL    HW216254   3.259   0.440  14.592 -1.1320  0.2387 -0.5092
 1540SOL     OW16255   3.430   3.664   7.250  0.4565  0.2179  0.3466
 1540SOL    HW116256   3.356   3.620   7.291 -2.3521  1.2221 -3.7158
 1540SOL    HW216257   3.418   3.646   7.157 -0.2346 -0.4977  0.5799
 1541SOL     OW16258   2.292   2.047   1.721  0.0539 -0.4242  0.3021
 1541SOL    HW116259   2.234   2.018   1.791  0.2332 -0.5505  0.3978
 1541SOL    HW216260   2.245   2.047   1.637  2.3521 -0.2939 -0.9772
 1542SOL     OW16261   3.551   3.030  15.234 -0.4341  0.4012 -0.1196
 1542SOL    HW116262   3.558   2.935  15.227  0.8015  0.5650 -0.9006
 1542SOL    HW216263   3.459   3.049  15.215 -0.1512  1.1440 -0.7583
 1543SOL     OW16264   0.740   1.053   6.765 -0.2780 -0.0840 -0.2421
 1543SOL    HW116265   0.753   0.986   6.831  0.2666  0.9507  0.6979
 1543SOL    HW216266   0.681   1.124   6.791  2.4168  2.3061 -0.5226
 1544SOL     OW16267   4.461   1.408   7.493 -0.3885 -0.4864 -0.2053
 1544SOL    HW116268   4.440   1.500   7.510 -1.8002 -0.8990  0.2985
 1544SOL    HW216269   4.375   1.372   7.472  0.4731 -2.5782 -0.2130
 1545SOL     OW16270   1.398   4.438   8.847  0.3889 -0.4866  0.1465
 1545SOL    HW116271   1.358   4.486   8.774 -1.4932 -2.3211 -0.0345
 1545SOL    HW216272   1.323   4.409   8.899  0.8285 -1.0652  0.4556
 1546SOL     OW16273   0.083   2.643   7.391  0.0818 -0.4528 -0.4911
 1546SOL    HW116274   4.727   2.633   7.420 -0.0928 -1.2507 -1.2868
 1546SOL    HW216275   0.082   2.588   7.312 -0.2841 -0.8497 -0.2121
 1547SOL     OW16276   0.657   1.368   3.827 -0.2361 -0.1958 -0.0964
 1547SOL    HW116277   0.630   1.289   3.780 -0.7447 -0.4007  0.5257
 1547SOL    HW216278   0.591   1.362   3.897  0.2582  2.9155  0.6121
 1548SOL     OW16279   3.595   2.704   5.730  0.1193 -0.3894  0.1375
 1548SOL    HW116280   3.675   2.690   5.779  1.0436 -2.2148 -1.8687
 1548SOL    HW216281   3.619   2.680   5.640 -0.4500 -1.1081  0.1753
 1549SOL     OW16282   3.587   4.678  12.262  0.0326  0.0006  0.0606
 1549SOL    HW116283   3.510   4.624  12.244 -0.4883 -0.6039  4.0871
 1549SOL    HW216284   3.587   4.727  12.180  1.5416  0.2598  0.2314
 1550SOL     OW16285   3.237   1.333   1.810  0.0898  0.1237  0.7070
 1550SOL    HW116286   3.162   1.373   1.854  0.6856 -0.1683  1.9742
 1550SOL    HW216287   3.296   1.408   1.808  0.0252  0.1790  0.8672
 1551SOL     OW16288   0.013   1.010   6.670  0.2670 -0.0247  0.0941
 1551SOL    HW116289   0.042   1.004   6.761 -0.8052  0.0670  0.4427
 1551SOL    HW216290   4.720   0.921   6.652 -1.5692  0.4041  0.8146
 1552SOL     OW16291   1.661   4.438   8.804 -0.4165 -0.1994  0.5087
 1552SOL    HW116292   1.686   4.523   8.767 -3.2602  1.5502  2.5600
 1552SOL    HW216293   1.567   4.440   8.820 -0.2863 -1.2498  1.4162
 1553SOL     OW16294   2.701   3.377   8.538  0.1933 -0.2296  0.0175
 1553SOL    HW116295   2.628   3.348   8.593 -1.4949  0.7595 -1.6886
 1553SOL    HW216296   2.685   3.471   8.545  0.8208 -0.1952  1.0705
 1554SOL     OW16297   4.150   2.268   0.647 -0.5127 -0.4390 -0.6566
 1554SOL    HW116298   4.180   2.286   0.558  1.6344 -0.1135  0.1392
 1554SOL    HW216299   4.197   2.186   0.665 -0.7743 -0.6093 -0.7397
 1555SOL     OW16300   1.777   0.870   2.946 -0.3135 -0.3731 -0.0586
 1555SOL    HW116301   1.847   0.869   2.881  0.3753 -1.5868  0.6974
 1555SOL    HW216302   1.719   0.942   2.923 -0.7620 -1.7094 -3.0836
 1556SOL     OW16303   0.916   1.439  13.962  0.2721 -0.1271 -0.3531
 1556SOL    HW116304   0.846   1.502  13.949 -0.6134 -0.9980  0.1939
 1556SOL    HW216305   0.959   1.480  14.037  1.1454 -1.7130  0.0259
 1557SOL     OW16306   1.922   1.523   3.687  0.0902 -0.2681  0.6749
 1557SOL    HW116307   1.854   1.590   3.687 -0.9347 -1.3120  1.3696
 1557SOL    HW216308   1.964   1.537   3.602 -0.0610 -1.8186  0.3491
 1558SOL     OW16309   0.618   1.605  15.619 -0.0100 -0.4558  0.5506
 1558SOL    HW116310   0.661   1.611  15.704 -0.7169 -0.9483  0.9398
 1558SOL    HW216311   0.653   1.521  15.590 -0.2005  0.1813 -1.5737
 1559SOL     OW16312   4.268   1.871  11.713 -0.4729 -0.0867  0.3737
 1559SOL    HW116313   4.289   1.830  11.797  0.1251 -1.1179 -0.2715
 1559SOL    HW216314   4.354   1.846  11.678 -0.3185 -0.4171  0.9812
 1560SOL     OW16315   0.744   1.012  13.127 -0.1181  0.1561 -0.2854
 1560SOL    HW116316   0.671   1.003  13.066  0.9358  0.7405 -1.6598
 1560SOL    HW216317   0.743   0.928  13.171 -2.4275  0.6772  0.6457
 1561SOL     OW16318   0.974   3.531   6.855  0.2067 -0.1918  0.5244
 1561SOL    HW116319   0.906   3.465   6.843  0.4498 -0.5167  0.9311
 1561SOL    HW216320   1.053   3.483   6.831  0.1950  0.9511 -1.8308
 1562SOL     OW16321   0.484   4.257   5.885 -0.7600  0.3097  0.1434
 1562SOL    HW116322   0.495   4.318   5.812  0.1810  0.6795  0.5933
 1562SOL    HW216323   0.538   4.185   5.852  0.7183  2.4549 -2.0630
 1563SOL     OW16324   4.564   3.847  11.589  1.0581 -0.4395 -0.3074
 1563SOL    HW116325   4.625   3.775  11.601  0.9657 -0.2624  1.1668
 1563SOL    HW216326   4.593   3.877  11.503 -1.3971 -0.3619 -1.1098
 1564SOL     OW16327   2.222   3.930   0.844 -0.4494  0.1642 -0.5581
 1564SOL    HW116328   2.312   3.906   0.866 -0.5886  0.7349  0.6094
 1564SOL    HW216329   2.197   3.856   0.789  0.2187  0.6534 -1.5203
 1565SOL     OW16330   0.173   3.828   1.701  0.3284 -0.6334  0.0553
 1565SOL    HW116331   0.155   3.899   1.762  4.7686  0.8134 -0.3870
 1565SOL    HW216332   0.230   3.770   1.752 -2.0910 -0.9042  2.5289
 1566SOL     OW16333   3.106   1.151   2.931 -0.0627 -0.4332  0.2360
 1566SOL    HW116334   3.104   1.056   2.946  0.6498 -0.5110 -0.1191
 1566SOL    HW216335   3.081   1.189   3.015  0.8904  3.5046 -1.2794
 1567SOL     OW16336   4.490   1.224   5.640 -0.0661  0.1529 -0.2243
 1567SOL    HW116337   4.463   1.148   5.588  3.9931  1.0536 -3.6719
 1567SOL    HW216338   4.515   1.179   5.721  0.3991 -0.2891 -0.6127
 1568SOL     OW16339   3.250   3.667   2.116  0.2543  0.1527  0.1907
 1568SOL    HW116340   3.188   3.734   2.144 -2.7131 -2.3249 -0.4138
 1568SOL    HW216341   3.283   3.617   2.191 -0.2419 -2.0627 -1.0504
 1569SOL     OW16342   1.193   4.212   4.284 -1.1509 -0.0583  0.0597
 1569SOL    HW116343   1.217   4.182   4.197  0.7066  0.1881  0.4977
 1569SOL    HW216344   1.157   4.300   4.278 -0.8175  0.1169  0.6047
 1570SOL     OW16345   4.061   2.564  10.882 -0.4568 -0.2704  0.1257
 1570SOL    HW116346   3.976   2.565  10.925 -1.2000  1.5779 -1.3623
 1570SOL    HW216347   4.068   2.473  10.855  0.5501 -0.7636  2.0933
 1571SOL     OW16348   1.782   4.186   1.285  0.3282  0.0726 -0.2802
 1571SOL    HW116349   1.743   4.265   1.323  0.2850 -0.8277  1.5518
 1571SOL    HW216350   1.775   4.200   1.190 -2.4069 -0.2119 -0.1188
 1572SOL     OW16351   2.207   2.996   1.956  0.1380 -0.0293  0.0010
 1572SOL    HW116352   2.274   2.928   1.968 -0.4155 -0.8818 -1.8058
 1572SOL    HW216353   2.255   3.071   1.993 -0.0717  0.8830 -1.5713
 1573SOL     OW16354   3.762   3.862  12.164  0.0540 -0.5376 -0.0724
 1573SOL    HW116355   3.748   3.769  12.180  1.7302 -1.2160 -2.4954
 1573SOL    HW216356   3.796   3.860  12.074 -1.0063  0.0874 -0.4807
 1574SOL     OW16357   1.984   1.357   7.671 -0.6749 -0.2057  0.3884
 1574SOL    HW116358   2.017   1.356   7.761 -0.3265 -2.7584  0.2428
 1574SOL    HW216359   1.891   1.367   7.691 -1.0783 -2.0860 -0.5146
 1575SOL     OW16360   3.434   0.580   3.368  0.2117  0.1999  0.4374
 1575SOL    HW116361   3.436   0.653   3.430  2.3518  0.8669 -0.4057
 1575SOL    HW216362   3.519   0.601   3.330  0.2771  0.9044  0.9664
 1576SOL     OW16363   0.264   0.448   2.736 -0.4816  0.0952  0.1258
 1576SOL    HW116364   0.205   0.373   2.727 -2.3332  1.2954  2.3098
 1576SOL    HW216365   0.195   0.514   2.735  0.5740  1.2034  0.8674
 1577SOL     OW16366   2.413   0.730   4.157 -0.0291  0.0922  0.1129
 1577SOL    HW116367   2.405   0.637   4.136  0.9921  0.8124 -3.4657
 1577SOL    HW216368   2.508   0.723   4.167 -0.1464 -1.1467  0.3680
 1578SOL     OW16369   0.433   1.347   9.467 -0.1909  0.1942  0.4513
 1578SOL    HW116370   0.480   1.371   9.547  0.9079  0.9911 -0.4274
 1578SOL    HW216371   0.361   1.300   9.508 -0.2886  0.1554  0.2371
 1579SOL     OW16372   1.503   4.186   1.487  0.2100  0.3662  0.2949
 1579SOL    HW116373   1.539   4.104   1.520  0.2325  0.3899  0.3295
 1579SOL    HW216374   1.538   4.248   1.552 -0.8317 -0.4474  1.6396
 1580SOL     OW16375   2.341   1.526   5.485  0.6966 -0.2759  0.5607
 1580SOL    HW116376   2.392   1.453   5.449 -1.4799 -0.8423 -1.3529
 1580SOL    HW216377   2.284   1.471   5.538  1.8370 -1.3480  0.6666
 1581SOL     OW16378   2.295   1.169   6.333  0.0070  0.1713 -0.2868
 1581SOL    HW116379   2.360   1.101   6.349 -2.7057 -2.2971  0.3424
 1581SOL    HW216380   2.223   1.122   6.291  1.4513 -1.0327 -1.4191
 1582SOL     OW16381   3.273   0.850  14.711 -0.3768  0.2459  0.2024
 1582SOL    HW116382   3.348   0.790  14.716 -0.1509  0.4728 -0.4984
 1582SOL    HW216383   3.201   0.787  14.724  1.6602 -2.1237  0.0782
 1583SOL     OW16384   0.268   1.944   4.159 -0.2546 -0.2300 -0.3647
 1583SOL    HW116385   0.342   1.955   4.219  0.0079 -0.2198 -0.6927
 1583SOL    HW216386   0.305   1.870   4.110 -0.4166  0.7397 -1.9364
 1584SOL     OW16387   2.988   3.246  13.460 -0.0462 -0.3188  0.0758
 1584SOL    HW116388   3.029   3.323  13.501  0.3520 -0.8834  0.7402
 1584SOL    HW216389   3.057   3.227  13.397 -0.5166 -0.3476 -0.4247
 1585SOL     OW16390   1.815   1.921   2.744  0.7417 -0.0989 -0.0968
 1585SOL    HW116391   1.741   1.891   2.691 -0.1743  1.2670  0.4306
 1585SOL    HW216392   1.817   1.867   2.823  0.9889  0.7221  0.4512
 1586SOL     OW16393   1.105   1.292  13.847  0.1191 -0.4782 -0.2199
 1586SOL    HW116394   1.045   1.349  13.895 -0.5327 -0.6297 -0.8581
 1586SOL    HW216395   1.137   1.350  13.777 -2.4224 -0.7678 -1.6351
 1587SOL     OW16396   1.042   1.433   7.803  0.3571  0.0172  0.4581
 1587SOL    HW116397   1.115   1.467   7.750  0.1370  0.9053  0.7256
 1587SOL    HW216398   1.084   1.373   7.865  2.0060  0.3912 -0.2821
 1588SOL     OW16399   3.517   1.165   6.781 -0.5692 -0.2191  0.6446
 1588SOL    HW116400   3.429   1.154   6.817 -1.1157  0.7888 -0.3629
 1588SOL    HW216401   3.545   1.249   6.816 -0.1546  0.2849 -0.8607
 1589SOL     OW16402   0.094   3.971   8.571 -0.5120 -0.1532 -0.0552
 1589SOL    HW116403   0.031   3.998   8.637 -1.2234 -2.2035  0.1115
 1589SOL    HW216404   0.073   3.877   8.569 -1.8328  0.1798 -1.8601
 1590SOL     OW16405   2.055   1.434   7.420 -0.4175  0.4814  0.1944
 1590SOL    HW116406   2.046   1.349   7.377  0.2223  0.6418 -0.2532
 1590SOL    HW216407   2.051   1.402   7.510  0.2161 -2.1206 -0.7044
 1591SOL     OW16408   3.784   0.808   2.789  0.8713 -0.2431  0.1097
 1591SOL    HW116409   3.819   0.851   2.867  0.8566  1.3388 -0.7476
 1591SOL    HW216410   3.751   0.724   2.820  0.2333  0.1577  0.5092
 1592SOL     OW16411   3.084   1.807   5.995 -1.2322  0.5685 -0.0262
 1592SOL    HW116412   3.047   1.895   6.003  0.0308  1.3223 -2.3245
 1592SOL    HW216413   3.094   1.804   5.900  0.9903  3.6814  0.1142
 1593SOL     OW16414   0.101   0.312   1.280 -0.1903 -0.4920  0.5329
 1593SOL    HW116415   0.123   0.266   1.199 -0.2275 -0.0759  0.2860
 1593SOL    HW216416   0.183   0.348   1.312 -0.0049  1.6093 -2.3301
 1594SOL     OW16417   1.726   2.495   7.433 -0.2555  0.2198 -0.8608
 1594SOL    HW116418   1.812   2.501   7.393 -0.0512  0.2909 -0.4075
 1594SOL    HW216419   1.751   2.448   7.512 -0.5471  2.2684  0.4389
 1595SOL     OW16420   1.542   2.553  12.308 -0.7074  0.1596  0.1406
 1595SOL    HW116421   1.583   2.602  12.379  1.3650 -0.2516 -0.7994
 1595SOL    HW216422   1.526   2.620  12.241  1.2805  0.1059 -0.3742
 1596SOL     OW16423   3.907   2.944   1.566  0.3193  0.5207 -0.2334
 1596SOL    HW116424   3.936   2.909   1.650  0.3303 -1.5150 -1.0767
 1596SOL    HW216425   3.814   2.960   1.582  0.8616  3.4698 -0.0676
 1597SOL     OW16426   0.848   0.540   7.094  0.7870 -0.1454 -0.2586
 1597SOL    HW116427   0.831   0.632   7.115  0.6654  0.4821 -3.1022
 1597SOL    HW216428   0.781   0.512   7.031  0.2515  1.3324 -0.3374
 1598SOL     OW16429   3.929   1.097  12.113 -0.0846  0.3621  0.0548
 1598SOL    HW116430   3.841   1.132  12.125 -0.4668 -1.4541  2.5178
 1598SOL    HW216431   3.921   1.023  12.054 -0.4436  1.0410 -0.7425
 1599SOL     OW16432   2.323   3.936   2.605 -0.3481  0.0088  0.4144
 1599SOL    HW116433   2.235   3.898   2.605 -0.8126  1.0635  0.5042
 1599SOL    HW216434   2.305   4.024   2.639  0.2382  1.2831 -2.5899
 1600SOL     OW16435   1.254   1.202   4.445  0.3782  0.0067 -0.0886
 1600SOL    HW116436   1.230   1.271   4.382 -2.1783 -0.9274 -0.1420
 1600SOL    HW216437   1.245   1.249   4.528 -0.6192  0.6044 -0.5328
 1601SOL     OW16438   0.972   1.553  14.880  0.0830  0.1055  0.0381
 1601SOL    HW116439   0.982   1.528  14.788  0.7366  0.8282 -0.0897
 1601SOL    HW216440   1.017   1.479  14.920 -1.6263 -1.1513 -0.3745
 1602SOL     OW16441   4.483   3.194   9.445 -0.0815 -0.0041  0.0890
 1602SOL    HW116442   4.456   3.219   9.533 -0.0410  0.3513  0.0021
 1602SOL    HW216443   4.513   3.278   9.408  0.0482 -0.8050 -1.6392
 1603SOL     OW16444   3.458   1.336   7.623 -0.2181 -0.4680  0.0646
 1603SOL    HW116445   3.456   1.285   7.542 -1.0092 -0.0712 -0.1601
 1603SOL    HW216446   3.549   1.365   7.618 -0.4404 -0.0407 -1.4753
 1604SOL     OW16447   1.100   2.173  10.369 -0.1317 -0.4691 -0.0283
 1604SOL    HW116448   1.179   2.122  10.385 -0.4267 -0.7408  0.5590
 1604SOL    HW216449   1.108   2.188  10.274  2.3547  0.6357  0.3440
 1605SOL     OW16450   3.300   3.179   1.413  0.5186  0.6235  0.1229
 1605SOL    HW116451   3.320   3.089   1.387  0.6312  0.7999 -0.3922
 1605SOL    HW216452   3.333   3.229   1.338 -1.3761 -0.6873 -1.5840
 1606SOL     OW16453   3.115   4.261  16.913  0.0841  0.1729  0.0590
 1606SOL    HW116454   3.148   4.263  16.823 -2.2876 -1.4767 -0.8451
 1606SOL    HW216455   3.031   4.294  16.884  0.3413  0.8611  0.1016
 1607SOL     OW16456   4.611   2.586   9.247  0.3217 -0.3456  0.1351
 1607SOL    HW116457   4.626   2.507   9.299 -2.2482 -0.5062  0.6226
 1607SOL    HW216458   4.694   2.633   9.244 -0.1458  0.4841  0.1977
 1608SOL     OW16459   4.623   4.368   8.672 -0.1914 -0.5439  0.6022
 1608SOL    HW116460   4.533   4.363   8.640 -0.0093 -1.4302  0.2274
 1608SOL    HW216461   4.635   4.461   8.688  2.1738 -0.9369  1.0682
 1609SOL     OW16462   0.351   2.063   7.742 -0.0564  0.4012 -0.5295
 1609SOL    HW116463   0.327   2.150   7.709  1.3892  0.4599 -1.4332
 1609SOL    HW216464   0.440   2.083   7.772  1.2862 -0.7957 -3.7383
 1610SOL     OW16465   3.395   4.124   6.522 -0.0267  0.1864 -0.3854
 1610SOL    HW116466   3.456   4.053   6.502  1.1652  1.3132 -0.7411
 1610SOL    HW216467   3.448   4.203   6.537  1.6189 -0.4383 -2.9754
 1611SOL     OW16468   1.930   1.299  13.861 -0.5941  0.0527  0.8637
 1611SOL    HW116469   1.979   1.292  13.943 -0.1393  0.0137  0.5880
 1611SOL    HW216470   1.998   1.330  13.801 -1.4504 -0.0527 -0.1667
 1612SOL     OW16471   4.231   1.392   4.308 -0.1742  0.4093 -0.4534
 1612SOL    HW116472   4.313   1.404   4.355 -0.8316  1.0422  0.5434
 1612SOL    HW216473   4.163   1.443   4.352  0.4460  0.3727  0.5246
 1613SOL     OW16474   2.514   0.672   7.622 -0.2238 -0.1982 -0.3729
 1613SOL    HW116475   2.540   0.731   7.693 -2.4517 -1.1959  1.2514
 1613SOL    HW216476   2.584   0.607   7.617  0.4677  0.6455 -1.8409
 1614SOL     OW16477   0.764   3.565  10.904 -0.0428  0.3299 -0.0336
 1614SOL    HW116478   0.786   3.476  10.930  2.4197  0.2279 -2.3915
 1614SOL    HW216479   0.675   3.577  10.937  0.6356  0.3953  1.7322
 1615SOL     OW16480   4.636   2.837   8.378  0.4632 -0.4462 -0.0339
 1615SOL    HW116481   4.705   2.839   8.312 -0.2303  1.7546 -0.6845
 1615SOL    HW216482   4.581   2.911   8.353 -0.1734 -0.8235  0.2452
 1616SOL     OW16483   2.113   1.478   0.053 -0.2521  0.8289  0.0870
 1616SOL    HW116484   2.120   1.482  17.696  2.3017  1.9231  0.3166
 1616SOL    HW216485   2.035   1.529   0.075 -0.5575  0.2781  0.2848
 1617SOL     OW16486   3.029   1.416  11.875  0.3240  0.2748 -0.1275
 1617SOL    HW116487   3.030   1.492  11.817  2.9600  0.9317  0.7482
 1617SOL    HW216488   3.012   1.353  11.805 -0.5700 -0.3073  0.6149
 1618SOL     OW16489   2.456   4.527  11.802 -0.2744 -0.2065  0.1660
 1618SOL    HW116490   2.458   4.515  11.897 -0.5368  0.4818  0.2534
 1618SOL    HW216491   2.405   4.608  11.799  0.1445  0.0798  0.8837
 1619SOL     OW16492   2.101   2.235   3.439 -0.2106  0.3637  0.1616
 1619SOL    HW116493   2.082   2.297   3.368 -1.0173 -0.9503 -0.7786
 1619SOL    HW216494   2.196   2.235   3.439 -0.2100  1.2964 -0.7464
 1620SOL     OW16495   2.723   2.136   5.566  0.5554  0.3677 -0.1615
 1620SOL    HW116496   2.804   2.161   5.522  0.1866 -0.5296 -1.3778
 1620SOL    HW216497   2.742   2.099   5.652 -1.6487 -0.8792 -0.2103
 1621SOL     OW16498   2.808   0.004   5.640  0.2842 -0.4229 -0.0355
 1621SOL    HW116499   2.832   4.647   5.651  0.1254 -0.3565  0.8528
 1621SOL    HW216500   2.763   0.028   5.720  1.2054 -1.5002  0.8038
 1622SOL     OW16501   1.667   3.104   4.181  0.5326  0.0850 -0.1537
 1622SOL    HW116502   1.753   3.141   4.160  0.9065 -0.1897  0.8780
 1622SOL    HW216503   1.639   3.078   4.094 -1.4583 -1.7558  1.0401
 1623SOL     OW16504   0.437   4.545  14.580  0.3820 -0.7020 -0.3454
 1623SOL    HW116505   0.381   4.576  14.509  1.4285  3.2994  0.5743
 1623SOL    HW216506   0.373   4.488  14.624 -0.4408  0.8382  0.4277
 1624SOL     OW16507   3.718   2.029  14.255  0.5959  0.1772 -0.7975
 1624SOL    HW116508   3.665   1.949  14.246  0.5484  0.6960 -5.1301
 1624SOL    HW216509   3.695   2.074  14.174  1.0487 -0.3100 -1.1873
 1625SOL     OW16510   0.453   2.969  10.538 -0.8964 -0.0794 -0.4428
 1625SOL    HW116511   0.409   2.952  10.455 -1.0749 -3.0828  0.2398
 1625SOL    HW216512   0.537   2.928  10.515 -0.0969  0.0093  2.3677
 1626SOL     OW16513   3.519   1.995   7.291  0.0794  0.1446  0.1248
 1626SOL    HW116514   3.467   2.045   7.227 -0.7304  1.6740  1.9928
 1626SOL    HW216515   3.497   2.046   7.369 -0.8675  0.8143 -0.5740
 1627SOL     OW16516   4.264   4.276  10.525  0.5417  0.0826  0.0049
 1627SOL    HW116517   4.254   4.245  10.614 -0.2206 -0.2726 -0.2075
 1627SOL    HW216518   4.204   4.349  10.508 -0.4055 -0.5810  0.5471
 1628SOL     OW16519   0.707   3.297  14.828 -0.3127 -0.7221 -0.0856
 1628SOL    HW116520   0.742   3.210  14.812  1.4515 -0.0500  0.0692
 1628SOL    HW216521   0.688   3.329  14.740  1.4252 -0.4947 -0.3787
 1629SOL     OW16522   1.156   3.894   0.942  0.6924 -0.1054 -0.1261
 1629SOL    HW116523   1.231   3.952   0.957  0.0258  0.5189  0.7933
 1629SOL    HW216524   1.201   3.810   0.946 -0.7437 -1.0660 -4.5678
 1630SOL     OW16525   4.301   3.443   5.000 -0.1453  0.5197 -0.3558
 1630SOL    HW116526   4.369   3.403   4.946  0.6519  1.8532 -0.3338
 1630SOL    HW216527   4.228   3.447   4.938  0.8812 -0.3116 -1.6238
 1631SOL     OW16528   1.717   0.154   2.558 -0.2019 -0.0281  0.2510
 1631SOL    HW116529   1.799   0.165   2.510 -1.2953  2.8991 -0.9159
 1631SOL    HW216530   1.672   0.105   2.489  0.4717  0.7305 -0.7147
 1632SOL     OW16531   3.830   3.878   9.277 -0.2004  0.2565  0.1187
 1632SOL    HW116532   3.871   3.912   9.197  0.8134 -0.2685  0.4180
 1632SOL    HW216533   3.889   3.808   9.303  1.8613  2.1639  0.6059
 1633SOL     OW16534   3.672   0.176  12.561  0.3446  0.0973 -0.1656
 1633SOL    HW116535   3.739   0.133  12.615 -0.3149 -0.6812  0.0357
 1633SOL    HW216536   3.715   0.176  12.476  1.4499 -2.4628  0.4047
 1634SOL     OW16537   1.007   3.866   4.848 -0.3473 -0.0503 -0.3810
 1634SOL    HW116538   0.938   3.841   4.910 -1.1056 -0.1876 -1.2957
 1634SOL    HW216539   0.968   3.941   4.804 -0.1848  0.1789 -0.1370
 1635SOL     OW16540   3.891   1.135   4.996 -0.5357 -0.0953 -0.4706
 1635SOL    HW116541   3.960   1.179   4.947  0.0099  0.3339  0.6848
 1635SOL    HW216542   3.892   1.044   4.965  0.3047  0.1873 -1.2664
 1636SOL     OW16543   1.106   3.869   6.170 -0.1788  0.2275  0.0017
 1636SOL    HW116544   1.048   3.891   6.243  0.6172 -0.3611  0.8077
 1636SOL    HW216545   1.188   3.906   6.205 -0.1377  0.7137 -0.6054
 1637SOL     OW16546   2.919   3.974   7.441 -0.1296 -0.1079  0.2829
 1637SOL    HW116547   2.875   3.973   7.526 -1.7630  0.2643 -0.5619
 1637SOL    HW216548   2.873   3.902   7.399 -0.8498 -1.2346  2.9609
 1638SOL     OW16549   2.998   3.669   5.109  0.1819  0.7777 -0.3518
 1638SOL    HW116550   3.065   3.704   5.167  0.0023  0.2564  0.1729
 1638SOL    HW216551   3.046   3.601   5.062 -0.0773  0.2314  0.1742
 1639SOL     OW16552   1.423   3.424   8.541  0.1965 -0.1516  0.2229
 1639SOL    HW116553   1.473   3.345   8.563  0.7035 -0.2433 -1.3040
 1639SOL    HW216554   1.488   3.486   8.508  0.0651  0.4284  1.0385
 1640SOL     OW16555   3.074   2.469   7.804  0.4838  0.1348 -0.5773
 1640SOL    HW116556   3.104   2.499   7.719  3.1721 -1.5899 -0.2170
 1640SOL    HW216557   3.024   2.545   7.835 -0.2919 -0.7101  0.2605
 1641SOL     OW16558   1.424   0.359  12.715 -0.6622 -0.2852 -0.0002
 1641SOL    HW116559   1.332   0.375  12.698 -0.4521  0.5817 -0.3367
 1641SOL    HW216560   1.432   0.329  12.805 -2.8997  1.0075  0.6200
 1642SOL     OW16561   3.725   0.906   3.813  0.5772  0.2669  0.1775
 1642SOL    HW116562   3.660   0.857   3.863 -0.5389 -0.0955 -1.6204
 1642SOL    HW216563   3.791   0.912   3.882 -1.8737  0.9999  2.4804
 1643SOL     OW16564   1.654   4.143   4.677  0.1436 -1.0742 -0.1469
 1643SOL    HW116565   1.740   4.128   4.716  0.8917 -0.1435 -1.4569
 1643SOL    HW216566   1.642   4.061   4.629  1.0090 -0.2235 -1.8301
 1644SOL     OW16567   0.574   4.361   6.198 -0.6191  0.0367  0.2946
 1644SOL    HW116568   0.502   4.396   6.250 -0.3163 -2.2031  2.2216
 1644SOL    HW216569   0.550   4.384   6.109  0.4030 -1.5688 -0.3958
 1645SOL     OW16570   2.613   2.729  13.803  0.1870 -0.0113 -0.9195
 1645SOL    HW116571   2.674   2.799  13.782  2.1999 -1.7205 -0.8047
 1645SOL    HW216572   2.644   2.656  13.749  0.5903  1.0013 -2.0313
 1646SOL     OW16573   3.601   3.793   6.861  0.0989 -0.4254  0.3766
 1646SOL    HW116574   3.665   3.722   6.853  0.6961  0.2650 -0.9646
 1646SOL    HW216575   3.644   3.851   6.924  1.8988  0.0341 -1.2779
 1647SOL     OW16576   0.663   0.524   8.619 -0.6510 -0.1318  0.3252
 1647SOL    HW116577   0.600   0.456   8.595 -1.0018  0.7088 -1.1547
 1647SOL    HW216578   0.747   0.478   8.623  0.3708  1.6520 -0.4286
 1648SOL     OW16579   3.617   1.392  17.547  0.1670  0.5466 -0.3142
 1648SOL    HW116580   3.611   1.310  17.596 -0.6480  0.7033 -0.1462
 1648SOL    HW216581   3.534   1.432  17.572 -0.1237  0.0094 -0.4181
 1649SOL     OW16582   3.590   0.049   7.944  0.3549 -0.7636  0.2462
 1649SOL    HW116583   3.659   0.065   7.880 -0.3691 -3.4437 -1.1748
 1649SOL    HW216584   3.625   0.096   8.021  0.0175  0.6581 -0.4645
 1650SOL     OW16585   2.008   0.099  15.026 -0.4923 -0.2748  0.0734
 1650SOL    HW116586   2.024   0.068  14.937  0.3429 -0.7852  0.4133
 1650SOL    HW216587   2.094   0.117  15.064 -0.7226  1.3213 -0.1242
 1651SOL     OW16588   3.048   3.201   2.747 -0.0958  0.3895 -0.3799
 1651SOL    HW116589   3.067   3.290   2.719  1.3802  0.3491  0.4845
 1651SOL    HW216590   2.993   3.178   2.672  0.4818  0.4126 -0.8062
 1652SOL     OW16591   1.467   4.264   8.633  0.0950  0.0928  0.5122
 1652SOL    HW116592   1.437   4.301   8.551  0.4582 -0.0885  0.2975
 1652SOL    HW216593   1.436   4.330   8.695 -0.3275  1.4075 -1.1138
 1653SOL     OW16594   1.907   1.623   1.478  0.3597  0.2789 -0.0222
 1653SOL    HW116595   1.895   1.653   1.388 -2.3556  1.3840  0.7314
 1653SOL    HW216596   1.816   1.605   1.499 -0.6032  2.6824 -2.0614
 1654SOL     OW16597   0.002   4.236   7.599  0.2024  0.6909  0.3754
 1654SOL    HW116598   4.731   4.311   7.540 -3.0711  0.5184  0.4838
 1654SOL    HW216599   4.704   4.166   7.543  2.5292 -1.1454  1.2944
 1655SOL     OW16600   2.857   4.620   7.167  0.3087 -0.4103 -0.5499
 1655SOL    HW116601   2.879   4.644   7.076  0.3002 -2.1793 -1.0194
 1655SOL    HW216602   2.861   4.526   7.150 -1.9053 -0.7418  0.7394
 1656SOL     OW16603   4.254   0.844   9.720  0.5212 -0.2164  0.7218
 1656SOL    HW116604   4.276   0.912   9.656 -1.4197 -0.1445  0.1297
 1656SOL    HW216605   4.294   0.764   9.685 -0.3609 -0.2776 -0.1489
 1657SOL     OW16606   1.067   0.946   4.895  0.0650  0.3172 -0.4781
 1657SOL    HW116607   1.093   1.030   4.856  0.6528  0.8892  1.1290
 1657SOL    HW216608   1.125   0.882   4.853 -1.1492 -1.0100 -0.1312
 1658SOL     OW16609   0.831   4.178   2.816 -0.5070 -0.0246 -0.7249
 1658SOL    HW116610   0.802   4.139   2.897 -0.7082 -1.0140 -1.2762
 1658SOL    HW216611   0.829   4.270   2.845  0.3816 -0.0009 -0.7396
 1659SOL     OW16612   3.068   2.986   9.600  0.0548 -0.0110  0.2190
 1659SOL    HW116613   3.012   2.938   9.538  0.0377  0.5083 -0.1669
 1659SOL    HW216614   3.150   2.936   9.600  1.1626  1.8226 -0.7921
 1660SOL     OW16615   1.060   2.514   0.166  0.6630  0.1484 -0.4781
 1660SOL    HW116616   1.111   2.552   0.238  0.1708 -0.5423  0.2391
 1660SOL    HW216617   1.076   2.422   0.187 -2.4931 -0.1689  0.5059
 1661SOL     OW16618   2.033   4.685   9.646 -0.7317 -0.1059  0.2201
 1661SOL    HW116619   2.121   4.683   9.683 -0.8065  1.5277  0.5101
 1661SOL    HW216620   1.979   4.657   9.719  0.3896 -0.7539  0.8042
 1662SOL     OW16621   3.315   2.491   4.777  0.1289 -0.4463 -0.0934
 1662SOL    HW116622   3.219   2.487   4.782  0.1179 -0.0634 -0.0089
 1662SOL    HW216623   3.327   2.404   4.741 -2.3757 -0.5321 -0.7251
 1663SOL     OW16624   1.943   0.277  16.017 -0.3857 -0.0601 -0.1320
 1663SOL    HW116625   1.875   0.211  16.029 -0.1244 -0.3258 -0.0974
 1663SOL    HW216626   2.023   0.225  16.003 -0.5295  0.1170 -1.6095
 1664SOL     OW16627   0.397   3.475  16.526 -0.3960  0.1471  0.0218
 1664SOL    HW116628   0.328   3.410  16.539  0.7517 -0.8385  1.2224
 1664SOL    HW216629   0.460   3.433  16.467  1.1025  2.7569 -0.2661
 1665SOL     OW16630   4.330   3.001   4.710 -0.1711 -0.1424  0.0476
 1665SOL    HW116631   4.300   2.921   4.752  0.9756 -1.0008 -0.7399
 1665SOL    HW216632   4.294   2.975   4.625  0.6373 -1.0343 -0.0217
 1666SOL     OW16633   3.165   4.192   3.125 -0.1119  0.5350 -0.0284
 1666SOL    HW116634   3.196   4.140   3.051  1.3133 -0.2549  1.1075
 1666SOL    HW216635   3.166   4.282   3.093 -2.0899  1.2813  2.0145
 1667SOL     OW16636   3.134   1.568  15.265  0.3460  0.1810  0.0959
 1667SOL    HW116637   3.191   1.585  15.191  0.1513 -1.4942 -0.4429
 1667SOL    HW216638   3.185   1.509  15.320  1.8826  1.8271  0.4364
 1668SOL     OW16639   2.704   0.618   8.064  0.2439 -0.2199  0.5684
 1668SOL    HW116640   2.712   0.539   8.011 -1.4199  1.1622 -1.7342
 1668SOL    HW216641   2.664   0.587   8.145 -1.0991 -0.6597 -0.2498
 1669SOL     OW16642   0.635   1.070   9.577  0.3011 -0.3994  0.4624
 1669SOL    HW116643   0.616   1.152   9.623 -1.3811 -0.9058  0.6997
 1669SOL    HW216644   0.579   1.017   9.635 -1.2718 -0.4847 -1.1316
 1670SOL     OW16645   0.090   1.624  15.506 -0.2325  0.2162 -0.2043
 1670SOL    HW116646   0.062   1.704  15.552  0.8737  0.6294 -0.2531
 1670SOL    HW216647   0.185   1.633  15.507  0.0347 -2.9323  1.2292
 1671SOL     OW16648   1.550   3.371   4.249 -0.7699  0.5232  0.1951
 1671SOL    HW116649   1.641   3.371   4.280 -0.1266 -1.2167 -1.6394
 1671SOL    HW216650   1.548   3.283   4.209 -2.3450  0.4936  0.3545
 1672SOL     OW16651   0.709   4.110   5.018 -0.0758  0.1966 -0.8246
 1672SOL    HW116652   0.618   4.132   5.039  0.3889 -0.3248  1.7625
 1672SOL    HW216653   0.690   4.073   4.932 -0.5576  0.8713 -1.0093
 1673SOL     OW16654   0.745   0.893   3.523 -0.4483 -0.3214  0.0009
 1673SOL    HW116655   0.679   0.957   3.495 -1.9775 -1.5177  0.8973
 1673SOL    HW216656   0.697   0.812   3.511 -0.6517 -0.2043  0.0189
 1674SOL     OW16657   1.042   1.794   3.030  0.3484  0.1425 -0.3062
 1674SOL    HW116658   1.040   1.698   3.030 -1.8463  0.1860 -0.0802
 1674SOL    HW216659   0.976   1.805   2.961  0.2328  1.6387  0.0414
 1675SOL     OW16660   2.968   1.872   9.341  0.3982 -0.0664 -0.0283
 1675SOL    HW116661   3.035   1.880   9.274  0.3316  2.1448  0.1896
 1675SOL    HW216662   3.030   1.868   9.414  0.1037 -3.7513  0.0129
 1676SOL     OW16663   2.417   3.471   8.240 -0.0377 -0.4335 -0.7165
 1676SOL    HW116664   2.444   3.546   8.186  1.3602 -1.1751 -1.0497
 1676SOL    HW216665   2.502   3.435   8.265  0.2769  1.8867  1.5264
 1677SOL     OW16666   3.412   0.419   4.350 -0.2089  0.1754  0.2132
 1677SOL    HW116667   3.366   0.367   4.284  0.9551  0.5855 -0.9268
 1677SOL    HW216668   3.336   0.450   4.399 -0.9622  0.1158 -0.9133
 1678SOL     OW16669   3.809   3.125   6.569 -0.6039 -0.0491 -0.3843
 1678SOL    HW116670   3.819   3.076   6.651 -0.7840  2.1137  0.9470
 1678SOL    HW216671   3.856   3.062   6.515 -1.7456  1.6818 -3.3742
 1679SOL     OW16672   2.624   1.728  17.606 -0.0450 -0.3459  0.1809
 1679SOL    HW116673   2.664   1.806  17.569 -3.0058  0.7116 -0.7772
 1679SOL    HW216674   2.681   1.717  17.682 -0.0577 -0.0314  0.2351
 1680SOL     OW16675   4.192   3.867   6.320  0.5223  0.1795  0.7102
 1680SOL    HW116676   4.213   3.835   6.232 -1.2529 -0.5643  0.5562
 1680SOL    HW216677   4.152   3.949   6.290  1.1546 -0.1715 -1.1148
 1681SOL     OW16678   2.704   1.248   8.316 -0.0680 -0.0600 -0.4739
 1681SOL    HW116679   2.784   1.207   8.283 -0.3567 -0.9625 -0.0471
 1681SOL    HW216680   2.634   1.195   8.280 -1.0070 -0.5383  2.0681
 1682SOL     OW16681   3.703   1.203   8.260 -0.0073 -0.5610 -0.6025
 1682SOL    HW116682   3.727   1.110   8.265 -0.3432 -0.5408  1.2545
 1682SOL    HW216683   3.745   1.232   8.178 -2.4843  0.2321 -1.5787
 1683SOL     OW16684   2.716   1.799  11.257  0.5212  0.3511  0.5262
 1683SOL    HW116685   2.667   1.717  11.256  0.5891  0.3234 -0.8035
 1683SOL    HW216686   2.790   1.787  11.197 -0.5126 -1.2460 -0.4327
 1684SOL     OW16687   2.861   3.006   5.408  0.4335 -0.3913 -0.1050
 1684SOL    HW116688   2.802   3.077   5.434 -0.8914 -0.8275 -1.9551
 1684SOL    HW216689   2.932   3.049   5.361 -0.1892 -0.3624 -1.0147
 1685SOL     OW16690   3.708   2.812  15.587 -0.2938  0.4042  0.4667
 1685SOL    HW116691   3.684   2.904  15.585  0.4169  0.5487 -1.4085
 1685SOL    HW216692   3.771   2.810  15.515  1.0221 -1.2035  1.6507
 1686SOL     OW16693   4.682   0.866  13.824  0.2745  0.2997  0.4217
 1686SOL    HW116694   4.594   0.860  13.862 -0.1065 -1.4007 -0.7395
 1686SOL    HW216695   4.657   0.890  13.734  0.8290 -0.1043  0.1630
 1687SOL     OW16696   4.374   2.414   8.349  0.3070  0.2489 -0.1011
 1687SOL    HW116697   4.287   2.390   8.380  0.1926  0.3222 -0.3595
 1687SOL    HW216698   4.351   2.468   8.273  3.6925  1.2653 -0.4065
 1688SOL     OW16699   1.067   1.288  11.907  0.3664 -0.2253 -0.3739
 1688SOL    HW116700   1.157   1.258  11.916  0.6519  1.0528  0.9726
 1688SOL    HW216701   1.075   1.370  11.956 -0.4777  0.0103 -0.6154
 1689SOL     OW16702   0.973   0.916   8.490  0.0837 -0.1607  0.1097
 1689SOL    HW116703   1.036   0.903   8.560 -0.1495 -0.8486  0.1931
 1689SOL    HW216704   0.895   0.881   8.534 -0.8269 -0.7146 -1.9636
 1690SOL     OW16705   3.384   3.589   0.810  0.3278 -0.2264 -0.6604
 1690SOL    HW116706   3.351   3.506   0.843  0.8907  0.4400  1.5615
 1690SOL    HW216707   3.467   3.568   0.766  1.4465  0.5664  1.0680
 1691SOL     OW16708   0.050   3.327   7.585 -1.0975  0.3614 -0.2029
 1691SOL    HW116709   0.034   3.343   7.492 -1.5504 -1.0056 -0.3513
 1691SOL    HW216710   0.136   3.368   7.595 -0.0406 -1.4470 -1.9819
 1692SOL     OW16711   0.695   3.795  16.818  0.0562  0.2832  0.5674
 1692SOL    HW116712   0.623   3.752  16.772  0.4419 -0.2356  0.4453
 1692SOL    HW216713   0.652   3.801  16.903  1.6418  4.4609  1.0728
 1693SOL     OW16714   3.084   1.093   4.454 -0.5249  0.6031 -0.1510
 1693SOL    HW116715   3.126   1.096   4.368 -0.5422  0.3394 -0.1713
 1693SOL    HW216716   2.992   1.106   4.430 -0.4038  0.9177 -0.4409
 1694SOL     OW16717   1.889   2.023   3.754  0.5446  0.0822 -0.2441
 1694SOL    HW116718   1.855   2.112   3.742  0.5235 -0.0196 -0.9612
 1694SOL    HW216719   1.875   2.018   3.848 -0.4533 -1.1308 -0.4570
 1695SOL     OW16720   0.801   4.681   4.197  0.2394  0.2745  0.2383
 1695SOL    HW116721   0.865   4.726   4.251 -0.0987  1.0729 -0.0132
 1695SOL    HW216722   0.759   0.027   4.167 -0.6970 -0.5068 -0.5551
 1696SOL     OW16723   1.116   2.106   8.582 -0.0658  0.2588 -0.5005
 1696SOL    HW116724   1.033   2.152   8.594  0.7332  0.9706  2.4417
 1696SOL    HW216725   1.099   2.050   8.506 -2.0305  0.2136 -0.0368
 1697SOL     OW16726   1.062   3.599   3.636 -0.2602 -0.0291  0.7287
 1697SOL    HW116727   1.037   3.679   3.590 -1.5549 -2.0681 -2.0686
 1697SOL    HW216728   1.001   3.590   3.709  0.1536 -1.1451  0.9279
 1698SOL     OW16729   1.185   1.404   9.361 -0.8037  0.0751 -0.2091
 1698SOL    HW116730   1.129   1.421   9.438 -1.1688  1.3728 -0.7621
 1698SOL    HW216731   1.272   1.411   9.401  0.5033 -2.7920 -2.6530
 1699SOL     OW16732   3.524   1.446   9.398 -0.2256  0.5173 -0.0672
 1699SOL    HW116733   3.536   1.377   9.464 -2.1982 -0.3352 -0.5940
 1699SOL    HW216734   3.461   1.500   9.445  0.8455  0.4615  1.4282
 1700SOL     OW16735   2.360   0.898  14.175  0.0976  0.2057  0.9984
 1700SOL    HW116736   2.351   0.974  14.117 -0.1848 -0.3100  0.3811
 1700SOL    HW216737   2.437   0.920  14.228  0.4878 -1.2666  1.0352
 1701SOL     OW16738   0.720   1.322   4.781  0.3731  0.0426 -0.2657
 1701SOL    HW116739   0.763   1.249   4.738  3.1727  1.2477  0.4685
 1701SOL    HW216740   0.795   1.348   4.835  0.7119  0.3634 -0.9030
 1702SOL     OW16741   2.227   3.126   5.490  0.6625  0.7850  0.0739
 1702SOL    HW116742   2.172   3.156   5.562 -0.9083  1.0537 -1.2537
 1702SOL    HW216743   2.302   3.185   5.480  0.9863  0.5271  1.0559
 1703SOL     OW16744   0.787   1.045  15.719  0.0497 -0.8900 -0.0638
 1703SOL    HW116745   0.744   1.010  15.797  0.2857  0.6297  0.7476
 1703SOL    HW216746   0.724   1.012  15.655 -2.2474 -1.8559  2.6888
 1704SOL     OW16747   4.500   4.395   0.571 -0.2851 -0.6037  0.3058
 1704SOL    HW116748   4.484   4.316   0.520  0.5262  0.3645 -1.4644
 1704SOL    HW216749   4.495   4.368   0.662 -1.7162 -1.6738 -0.0905
 1705SOL     OW16750   2.967   2.360  10.483  0.5846 -0.0565  0.9312
 1705SOL    HW116751   2.958   2.422  10.410 -0.5228  0.1011  1.2049
 1705SOL    HW216752   2.901   2.293  10.464 -0.0011  1.3834 -2.1415
 1706SOL     OW16753   4.450   1.652  11.325  0.1390  0.8714  0.4790
 1706SOL    HW116754   4.435   1.559  11.307  1.0226  0.9179 -0.5018
 1706SOL    HW216755   4.538   1.656  11.287  0.0034 -1.8155 -0.1050
 1707SOL     OW16756   1.625   1.394   3.734 -0.4856 -0.6256 -0.0199
 1707SOL    HW116757   1.642   1.479   3.694 -0.3670  0.6022  2.6842
 1707SOL    HW216758   1.692   1.335   3.699  1.1114 -0.9532  3.5507
 1708SOL     OW16759   1.475   3.664   7.924  0.1706  0.0909 -0.0569
 1708SOL    HW116760   1.548   3.687   7.981  0.4382 -1.5055  0.2445
 1708SOL    HW216761   1.515   3.593   7.872 -0.4336  1.4164 -2.3330
 1709SOL     OW16762   1.387   1.743  13.202 -0.2153  0.3258 -1.0499
 1709SOL    HW116763   1.475   1.707  13.187  0.1076  0.2864  1.0166
 1709SOL    HW216764   1.333   1.666  13.187 -1.3338  1.3588 -2.3814
 1710SOL     OW16765   3.859   3.994  17.021  0.2207 -0.2006 -0.2791
 1710SOL    HW116766   3.788   4.031  17.073  1.5490 -1.2791  2.3383
 1710SOL    HW216767   3.824   3.988  16.932 -1.2842  1.9177  0.1852
 1711SOL     OW16768   0.956   4.444   1.513  0.3496  0.1463 -0.7421
 1711SOL    HW116769   0.934   4.528   1.553  0.2582 -1.0223  1.6488
 1711SOL    HW216770   0.876   4.409   1.474  0.0094 -0.5116  0.5437
 1712SOL     OW16771   0.861   4.085   6.348  0.3449 -0.2802 -0.2680
 1712SOL    HW116772   0.783   4.081   6.293  0.4317 -0.8748 -0.3510
 1712SOL    HW216773   0.840   4.024   6.419  0.9327  0.9368  0.9394
 1713SOL     OW16774   1.294   2.455   3.830  0.0749 -0.0474  0.3010
 1713SOL    HW116775   1.328   2.472   3.918  3.8757 -1.0090 -0.9638
 1713SOL    HW216776   1.375   2.464   3.780  0.7257 -1.4571  1.0808
 1714SOL     OW16777   1.506   3.267   4.934  0.2362  0.0797  0.0915
 1714SOL    HW116778   1.417   3.301   4.922 -0.8525 -3.0779 -0.8362
 1714SOL    HW216779   1.493   3.214   5.012  1.0208  1.5636  1.2085
 1715SOL     OW16780   3.998   2.954   6.440  0.1526 -0.2195 -0.4613
 1715SOL    HW116781   4.056   3.030   6.448 -0.0517 -0.0399 -0.6762
 1715SOL    HW216782   4.062   2.891   6.407  1.1704 -0.5368  2.1324
 1716SOL     OW16783   1.527   2.079   2.742 -0.2565 -0.1631 -0.1735
 1716SOL    HW116784   1.591   2.117   2.681 -0.7122 -1.0102 -1.1777
 1716SOL    HW216785   1.571   2.084   2.827  1.9415  2.8318 -1.4924
 1717SOL     OW16786   4.488   0.733   3.666 -0.0199 -0.4575  0.0215
 1717SOL    HW116787   4.577   0.769   3.657  0.4325 -1.3168  1.0027
 1717SOL    HW216788   4.465   0.762   3.754 -2.3419 -0.7314 -0.4987
 1718SOL     OW16789   2.664   1.322  13.614 -0.9112  0.2725 -0.4150
 1718SOL    HW116790   2.655   1.400  13.670 -0.5545  0.5663 -0.7662
 1718SOL    HW216791   2.609   1.345  13.539 -1.6849 -1.9554 -0.5239
 1719SOL     OW16792   4.339   0.671   9.537  0.5162  0.6268  0.5679
 1719SOL    HW116793   4.247   0.691   9.523  0.4606  0.9038  1.3604
 1719SOL    HW216794   4.344   0.608   9.465 -0.3950  0.1324  0.9434
 1720SOL     OW16795   2.296   1.651   8.612  0.3330 -0.2081  0.2830
 1720SOL    HW116796   2.263   1.705   8.684  2.2018  1.6563 -0.2479
 1720SOL    HW216797   2.384   1.688   8.602  0.5447 -0.8542 -0.2222
 1721SOL     OW16798   1.014   0.544   8.246  0.8260 -0.6321  0.2889
 1721SOL    HW116799   0.927   0.578   8.227  2.4055  2.4516 -1.4716
 1721SOL    HW216800   1.054   0.621   8.287  1.6079 -0.0943 -1.4738
 1722SOL     OW16801   2.001   0.829   1.897  0.2029 -0.1123 -0.0848
 1722SOL    HW116802   2.063   0.901   1.902  2.2182 -1.8426 -0.5014
 1722SOL    HW216803   1.968   0.847   1.809 -0.6732 -0.3797  0.1800
 1723SOL     OW16804   3.777   4.443   9.688 -0.1650  0.0078  0.0111
 1723SOL    HW116805   3.835   4.449   9.764  1.8521 -1.5186 -1.4089
 1723SOL    HW216806   3.773   4.352   9.659 -1.3155 -0.2744  1.0507
 1724SOL     OW16807   0.417   3.450   2.685 -0.3257 -0.5909  0.4041
 1724SOL    HW116808   0.323   3.469   2.686  0.1291  1.7081 -0.7856
 1724SOL    HW216809   0.414   3.356   2.668 -1.8987 -0.5075  0.1923
 1725SOL     OW16810   1.589   2.340   4.889  0.1796 -0.4097 -0.7194
 1725SOL    HW116811   1.586   2.431   4.859 -3.0605 -0.8609 -1.7331
 1725SOL    HW216812   1.557   2.291   4.813  1.8442 -0.1526 -1.5853
 1726SOL     OW16813   4.201   2.277   9.935 -0.0281 -0.6980  0.1919
 1726SOL    HW116814   4.182   2.370   9.948 -1.8655 -1.2523  1.5546
 1726SOL    HW216815   4.257   2.270   9.858 -1.8018  3.6489 -1.5032
 1727SOL     OW16816   0.945   2.393  10.151  0.6136  0.5383  0.1712
 1727SOL    HW116817   1.029   2.356  10.125  1.9219  1.7563  2.6605
 1727SOL    HW216818   0.960   2.395  10.246  1.0070 -1.4884  0.1667
 1728SOL     OW16819   0.266   4.613   4.047  0.7088  0.2888 -0.2771
 1728SOL    HW116820   0.340   4.668   4.022  0.2362  0.1398 -2.0619
 1728SOL    HW216821   0.196   4.668   4.081  0.0137 -1.3635  0.9528
 1729SOL     OW16822   0.038   0.635   5.906 -0.0294 -0.0264 -0.4657
 1729SOL    HW116823   0.028   0.582   5.985 -1.2775  2.6764  1.1934
 1729SOL    HW216824   0.133   0.645   5.912  0.0280 -1.0689  0.4040
 1730SOL     OW16825   0.240   0.735   6.894 -0.1146 -0.2386 -0.2389
 1730SOL    HW116826   0.232   0.680   6.817  1.8239 -0.5226 -0.2162
 1730SOL    HW216827   0.332   0.760   6.896  0.2061 -1.4041 -0.7122
 1731SOL     OW16828   1.166   0.015   4.772  0.2531  0.6236 -0.0635
 1731SOL    HW116829   1.110   0.092   4.788  0.6337  0.2597  3.1409
 1731SOL    HW216830   1.195   0.040   4.685 -1.5825  0.9358 -0.5878
 1732SOL     OW16831   1.362   3.066   5.490  0.2280 -0.4980  0.1806
 1732SOL    HW116832   1.336   3.157   5.498  2.1501  0.0195  0.5760
 1732SOL    HW216833   1.414   3.066   5.409 -0.8113 -0.1580 -0.4787
 1733SOL     OW16834   2.651   3.658   5.879 -0.4105 -0.4082 -0.3063
 1733SOL    HW116835   2.662   3.753   5.882 -0.7308 -0.2628 -3.4834
 1733SOL    HW216836   2.683   3.628   5.964  1.1351 -0.2181 -0.8115
 1734SOL     OW16837   0.051   0.569  17.407 -0.3987  0.3447 -0.4275
 1734SOL    HW116838   4.703   0.550  17.363 -0.4084 -1.4806  0.3787
 1734SOL    HW216839   0.105   0.493  17.386 -0.0303  0.5284 -0.1481
 1735SOL     OW16840   0.452   2.993  11.614 -0.8599 -0.8908 -0.5381
 1735SOL    HW116841   0.511   3.032  11.678 -0.4371 -3.0386  0.3743
 1735SOL    HW216842   0.476   3.043  11.536 -2.0363 -0.0605 -0.3753
 1736SOL     OW16843   2.474   3.969   6.790 -0.1187 -0.0153 -0.3530
 1736SOL    HW116844   2.381   3.972   6.767 -0.6546 -0.2380  1.7636
 1736SOL    HW216845   2.475   3.987   6.885 -2.6558 -0.0959 -0.3012
 1737SOL     OW16846   2.239   2.363  15.483  0.0721 -0.8581  0.1998
 1737SOL    HW116847   2.301   2.429  15.513  0.8568 -0.3728 -2.5442
 1737SOL    HW216848   2.243   2.302  15.557  1.6345  0.4102  1.1523
 1738SOL     OW16849   1.326   0.035   7.111  0.4704  0.0482  0.3286
 1738SOL    HW116850   1.233   0.020   7.129 -0.3181  2.6979 -1.6015
 1738SOL    HW216851   1.342   0.106   7.173  1.0764  0.8697 -0.7745
 1739SOL     OW16852   1.107   0.495   2.943  0.1352 -0.0588  0.2709
 1739SOL    HW116853   1.200   0.487   2.923 -0.1347 -2.8492  0.1418
 1739SOL    HW216854   1.109   0.580   2.987  2.1351 -0.4498  0.9027
 1740SOL     OW16855   4.713   1.687  14.150 -1.0162 -0.0839  0.2748
 1740SOL    HW116856   4.725   1.731  14.234 -1.7590 -2.4505  1.6305
 1740SOL    HW216857   4.700   1.764  14.095  4.1480  1.6514  1.5146
 1741SOL     OW16858   4.034   3.550   8.377  0.1674  0.5828  0.1614
 1741SOL    HW116859   4.128   3.547   8.392  0.2017  0.4708 -0.0728
 1741SOL    HW216860   4.007   3.460   8.397 -0.7199  0.7972 -0.0648
 1742SOL     OW16861   2.558   3.618  15.680 -0.1859  0.2513  0.0996
 1742SOL    HW116862   2.554   3.642  15.587  1.0218  2.2212  0.5533
 1742SOL    HW216863   2.506   3.538  15.676  1.6385 -0.9709  0.3337
 1743SOL     OW16864   2.571   1.310   5.735  0.1010 -0.0247 -0.4654
 1743SOL    HW116865   2.625   1.389   5.725 -0.2121  0.6233  2.9017
 1743SOL    HW216866   2.538   1.302   5.824 -1.7751  0.6625 -1.1077
 1744SOL     OW16867   1.995   4.466   2.132  0.1367 -0.3092 -0.1577
 1744SOL    HW116868   1.950   4.387   2.163 -0.2948  0.2551  0.6594
 1744SOL    HW216869   1.914   4.514   2.116 -0.8390 -2.7390 -2.4479
 1745SOL     OW16870   3.822   1.000   8.543  0.9219 -0.3332  0.0562
 1745SOL    HW116871   3.838   1.089   8.575 -0.2148 -0.6560  1.5320
 1745SOL    HW216872   3.756   0.971   8.606 -2.1212  1.3060 -2.3685
 1746SOL     OW16873   3.355   3.493   6.551  0.3268  0.3925 -0.0803
 1746SOL    HW116874   3.427   3.551   6.575  0.8721 -0.6069  0.6798
 1746SOL    HW216875   3.396   3.437   6.485  2.4415  0.1586  1.4185
 1747SOL     OW16876   1.287   3.720  10.990 -0.1940 -0.3047 -0.1502
 1747SOL    HW116877   1.316   3.746  10.902 -2.1446  0.4909 -0.5724
 1747SOL    HW216878   1.322   3.801  11.029 -1.3067 -0.7655  1.7955
 1748SOL     OW16879   0.473   3.999   5.115 -0.4903 -0.0483 -0.3103
 1748SOL    HW116880   0.521   3.919   5.097 -0.9744 -0.0196 -1.7440
 1748SOL    HW216881   0.462   3.990   5.209  0.6999 -1.3301 -0.2971
 1749SOL     OW16882   1.447   3.397   3.100 -0.1907  0.2079 -0.5817
 1749SOL    HW116883   1.397   3.353   3.031  1.9723 -1.3584 -1.1574
 1749SOL    HW216884   1.378   3.440   3.151 -0.3222 -3.4164  2.2761
 1750SOL     OW16885   1.755   3.371  10.136  0.0508  0.1106  0.1327
 1750SOL    HW116886   1.808   3.297  10.105 -2.2109 -1.7927  0.7382
 1750SOL    HW216887   1.672   3.344  10.096  0.1786  1.6309 -1.1390
 1751SOL     OW16888   2.092   3.561   9.316 -0.3774  0.3260 -0.0375
 1751SOL    HW116889   2.181   3.590   9.334  0.5387 -0.3896 -3.4053
 1751SOL    HW216890   2.100   3.481   9.263 -2.5863 -0.3056  0.5881
 1752SOL     OW16891   0.903   3.483  16.762 -0.0537  0.2128  0.4774
 1752SOL    HW116892   0.895   3.498  16.856 -0.0691 -0.3666  0.5651
 1752SOL    HW216893   0.922   3.575  16.743  0.7500  0.1762  1.0973
 1753SOL     OW16894   4.520   1.791  12.575 -1.0400 -0.1459  0.0005
 1753SOL    HW116895   4.603   1.756  12.604 -0.3561  2.1052  0.7913
 1753SOL    HW216896   4.553   1.838  12.498  3.3169 -2.4823  0.4860
 1754SOL     OW16897   1.415   0.981   0.520  0.6235 -0.5528 -0.2973
 1754SOL    HW116898   1.396   1.003   0.428 -0.2469 -2.1264 -0.4992
 1754SOL    HW216899   1.327   0.966   0.555  0.0065  0.9392 -1.1649
 1755SOL     OW16900   1.432   2.017  14.185 -0.1817 -0.0028  0.6440
 1755SOL    HW116901   1.476   1.937  14.214  2.5677  1.1191 -0.4453
 1755SOL    HW216902   1.360   2.029  14.247 -0.8683 -2.3652  0.2935
 1756SOL     OW16903   2.476   1.288  16.321  0.2663  0.0025  0.2781
 1756SOL    HW116904   2.528   1.218  16.362 -0.1468 -0.9068 -0.7354
 1756SOL    HW216905   2.428   1.326  16.395  1.3144  0.3935  0.7494
 1757SOL     OW16906   1.031   0.706  15.692 -0.3310 -0.0193  0.1276
 1757SOL    HW116907   1.101   0.642  15.704 -1.9317 -2.0692 -1.6652
 1757SOL    HW216908   1.028   0.711  15.597 -2.6315 -0.4244  0.1802
 1758SOL     OW16909   4.041   4.617  11.503 -0.3773 -0.2459 -0.2197
 1758SOL    HW116910   4.068   4.705  11.527  0.3936 -0.6346  0.3526
 1758SOL    HW216911   4.000   4.584  11.583 -1.9386  1.0445 -0.4959
 1759SOL     OW16912   4.600   2.940   6.288  0.6635  0.0372  0.2651
 1759SOL    HW116913   4.572   2.849   6.298 -0.9136  0.4706 -0.1271
 1759SOL    HW216914   4.683   2.942   6.336  0.4461  2.3859  0.5471
 1760SOL     OW16915   3.458   0.018   3.795  0.2758 -0.1178  0.3452
 1760SOL    HW116916   3.403   0.035   3.718 -0.5907  2.1402  1.4533
 1760SOL    HW216917   3.395   0.009   3.867 -1.9403  0.5786 -1.4965
 1761SOL     OW16918   2.744   0.423   8.884 -0.4099 -0.3476  0.3486
 1761SOL    HW116919   2.670   0.366   8.866 -1.9318  1.6836  0.2506
 1761SOL    HW216920   2.809   0.401   8.817 -1.1713  0.5083 -0.6644
 1762SOL     OW16921   1.882   3.101   4.864 -0.0099 -0.0842 -0.0943
 1762SOL    HW116922   1.973   3.131   4.857 -0.2891  0.4891 -1.3266
 1762SOL    HW216923   1.898   3.024   4.918  2.5967  0.6535  0.1675
 1763SOL     OW16924   2.966   2.376  13.211  0.2568 -0.3896 -0.0945
 1763SOL    HW116925   2.987   2.303  13.269  0.1475  0.3627  0.8866
 1763SOL    HW216926   3.016   2.442  13.258  0.0622 -0.2509 -0.0808
 1764SOL     OW16927   0.909   3.900   5.972  0.1043  0.2004  0.2871
 1764SOL    HW116928   0.982   3.888   6.032  0.2612 -1.0141 -0.1543
 1764SOL    HW216929   0.953   3.906   5.887  3.0056 -3.1049  1.5878
 1765SOL     OW16930   2.385   1.230   2.457 -0.2020  0.1869  0.2171
 1765SOL    HW116931   2.421   1.149   2.494 -3.5603 -1.4838 -0.1648
 1765SOL    HW216932   2.387   1.217   2.362 -0.0491 -1.6059  0.4621
 1766SOL     OW16933   2.218   1.771  10.710 -0.0197  0.4981 -0.4604
 1766SOL    HW116934   2.171   1.840  10.756  1.2542 -0.0954  1.7325
 1766SOL    HW216935   2.163   1.744  10.637 -0.3709 -0.0101 -0.0007
 1767SOL     OW16936   1.446   3.953  15.335  0.4029  0.0287  0.2782
 1767SOL    HW116937   1.540   3.964  15.317  0.6759  0.8354  2.1767
 1767SOL    HW216938   1.402   4.002  15.267  0.4615  0.0276  0.2395
 1768SOL     OW16939   0.893   3.296  10.908 -0.3318  0.4746 -0.7129
 1768SOL    HW116940   0.941   3.342  10.840 -0.7355  0.7679 -0.8019
 1768SOL    HW216941   0.931   3.208  10.905 -1.1538  0.0880  0.0032
 1769SOL     OW16942   0.507   0.056  12.998 -0.4881 -0.3188 -0.1182
 1769SOL    HW116943   0.537   0.120  13.062 -0.2409  0.5574 -1.1179
 1769SOL    HW216944   0.432   0.102  12.959  0.7491  2.5636  0.9369
 1770SOL     OW16945   0.224   2.975  15.444  0.3564  0.4398  0.2909
 1770SOL    HW116946   0.191   3.039  15.381  0.0202 -0.1711 -0.1545
 1770SOL    HW216947   0.171   3.005  15.518  0.7200 -0.8037  1.0651
 1771SOL     OW16948   4.525   4.525   3.837 -0.0896 -0.1495 -0.4444
 1771SOL    HW116949   4.611   4.526   3.880 -0.2612  0.4015 -0.1174
 1771SOL    HW216950   4.544   4.461   3.768  1.4517 -1.5066  1.2302
 1772SOL     OW16951   2.524   4.261   4.689  0.3544  0.0618 -0.3725
 1772SOL    HW116952   2.573   4.223   4.762  0.5402 -0.5657 -0.8286
 1772SOL    HW216953   2.514   4.350   4.722  1.0450 -0.5126  1.4075
 1773SOL     OW16954   1.458   0.101  16.411 -0.3889  0.3989  0.1132
 1773SOL    HW116955   1.468   0.006  16.411 -0.6365  0.3744 -0.1030
 1773SOL    HW216956   1.392   0.105  16.480 -1.1709  0.4025 -0.6389
 1774SOL     OW16957   2.287   4.730   6.791  0.3839 -0.1329 -0.0722
 1774SOL    HW116958   2.226   4.661   6.816 -1.6912  1.1701 -1.5030
 1774SOL    HW216959   2.315   0.030   6.875  0.4890 -2.4755  0.8555
 1775SOL     OW16960   1.799   3.296  12.136 -0.1224 -0.8166  0.1684
 1775SOL    HW116961   1.743   3.299  12.213  0.9919  0.9851  0.8989
 1775SOL    HW216962   1.883   3.331  12.166 -0.9829  0.8382  0.6660
 1776SOL     OW16963   3.492   3.400  15.001 -0.2331 -0.0582  0.1988
 1776SOL    HW116964   3.400   3.398  14.974  0.2204 -0.7120 -1.2928
 1776SOL    HW216965   3.524   3.487  14.978 -1.1171 -0.7480 -3.7205
 1777SOL     OW16966   0.681   0.684   5.177 -0.4764  0.6418 -0.3852
 1777SOL    HW116967   0.702   0.769   5.215 -0.1981  0.7518 -0.7857
 1777SOL    HW216968   0.627   0.638   5.241 -0.1187  1.2047  0.3234
 1778SOL     OW16969   1.746   1.710   8.882  0.5471 -0.2182 -0.6056
 1778SOL    HW116970   1.761   1.734   8.974  1.7776  1.4509 -1.2220
 1778SOL    HW216971   1.670   1.653   8.888  0.9278 -0.7035 -0.4133
 1779SOL     OW16972   0.460   1.569   2.346  0.0849  0.1376  0.2478
 1779SOL    HW116973   0.393   1.560   2.279 -0.9450  0.1317  1.2900
 1779SOL    HW216974   0.518   1.501   2.312 -1.0678 -0.5994 -0.2307
 1780SOL     OW16975   3.535   1.762   3.551  0.5332  0.2768 -0.0161
 1780SOL    HW116976   3.491   1.732   3.631 -2.3421 -0.1105 -1.7220
 1780SOL    HW216977   3.547   1.679   3.504 -1.9179  0.3533 -0.7792
 1781SOL     OW16978   2.445   1.264   0.280  0.4923  0.0481 -0.3934
 1781SOL    HW116979   2.350   1.260   0.271  0.5270 -3.4867  0.9113
 1781SOL    HW216980   2.461   1.181   0.235 -0.1694 -0.6080  0.5856
 1782SOL     OW16981   1.110   1.797  17.388  0.7112 -0.3005 -0.2715
 1782SOL    HW116982   1.134   1.717  17.342  1.3171 -1.3648  1.9205
 1782SOL    HW216983   1.139   1.868  17.330  0.5267 -0.5447 -0.6634
 1783SOL     OW16984   4.210   4.302  16.763  0.6168 -0.1658  0.3116
 1783SOL    HW116985   4.245   4.375  16.813 -0.6698  0.8642 -0.2932
 1783SOL    HW216986   4.257   4.229  16.804 -0.8938 -1.5597 -0.4115
 1784SOL     OW16987   3.940   1.649   2.956  0.6013  0.0249  0.3094
 1784SOL    HW116988   3.928   1.740   2.985 -2.8694 -0.6171  0.9000
 1784SOL    HW216989   4.026   1.658   2.914  0.3952  2.5137  0.4235
 1785SOL     OW16990   3.357   0.293  13.611  0.3490  0.5164  0.2851
 1785SOL    HW116991   3.294   0.286  13.684  2.2409 -1.3807  1.7276
 1785SOL    HW216992   3.391   0.378  13.639 -0.9829  1.5006 -1.1011
 1786SOL     OW16993   1.601   2.259   6.045  0.3873  0.0642 -0.7697
 1786SOL    HW116994   1.629   2.341   6.087 -2.1783 -0.3228  1.7176
 1786SOL    HW216995   1.577   2.286   5.956 -0.8427 -1.3952 -0.8786
 1787SOL     OW16996   3.190   0.397  15.159  0.0391  0.4672 -0.0158
 1787SOL    HW116997   3.265   0.364  15.208  0.3103  0.7158 -0.2664
 1787SOL    HW216998   3.117   0.375  15.218  0.3486  1.2008  0.6344
 1788SOL     OW16999   4.266   4.096   4.971 -0.1100  0.0056 -0.3018
 1788SOL    HW117000   4.345   4.141   5.000  1.5232 -1.3682 -2.6179
 1788SOL    HW217001   4.238   4.058   5.054  0.8611  0.7333  0.3669
 1789SOL     OW17002   1.121   4.684  16.367  0.2823  0.0402 -0.5394
 1789SOL    HW117003   1.028   4.673  16.349  0.1803 -1.6564  1.0827
 1789SOL    HW217004   1.125   0.035  16.410  0.2999  0.1242 -0.7106
 1790SOL     OW17005   0.927   2.345   7.331  0.0823  0.6766 -0.4957
 1790SOL    HW117006   0.999   2.301   7.376  0.7666  2.3703  0.0624
 1790SOL    HW217007   0.931   2.428   7.378 -0.4522  0.7422 -0.5599
 1791SOL     OW17008   2.966   1.915  13.123 -1.3768  0.5182  0.3749
 1791SOL    HW117009   2.874   1.901  13.146 -1.1803 -1.4209 -0.0347
 1791SOL    HW217010   2.978   1.989  13.183 -1.1172 -0.6728  1.7772
 1792SOL     OW17011   0.690   3.248  14.385 -0.2503  0.0901  0.0794
 1792SOL    HW117012   0.756   3.189  14.421 -0.6050  0.0227  0.6289
 1792SOL    HW217013   0.690   3.319  14.449  0.8654 -1.2483  1.5673
 1793SOL     OW17014   4.399   1.560   0.740  0.2821 -0.7749 -0.1570
 1793SOL    HW117015   4.478   1.574   0.792 -0.4596  0.0819  0.7500
 1793SOL    HW217016   4.401   1.625   0.670  2.0316 -3.6431 -2.7828
 1794SOL     OW17017   0.127   1.212   3.293  0.0876  0.0078 -0.2590
 1794SOL    HW117018   0.131   1.145   3.224 -0.8503 -1.1226  0.7853
 1794SOL    HW217019   0.043   1.248   3.264  0.9964  1.8650 -0.5561
 1795SOL     OW17020   0.640   0.667   3.885 -0.2819  0.1976 -0.0113
 1795SOL    HW117021   0.636   0.750   3.839  2.2954 -0.2090 -0.9319
 1795SOL    HW217022   0.731   0.660   3.915  0.2947  2.7891 -1.1980
 1796SOL     OW17023   4.333   3.020   2.060 -0.6050  0.5686 -0.6046
 1796SOL    HW117024   4.415   2.974   2.077 -0.3333  0.6786 -1.6035
 1796SOL    HW217025   4.269   2.977   2.116 -1.5619 -0.1664 -2.2722
 1797SOL     OW17026   0.090   4.088   6.861  0.2831  0.1025  0.1942
 1797SOL    HW117027   0.061   4.040   6.784  1.0312 -0.2045  0.1052
 1797SOL    HW217028   0.099   4.017   6.925 -1.7278  0.2771  0.6975
 1798SOL     OW17029   1.976   1.600   2.321 -0.1999  0.0389 -0.9377
 1798SOL    HW117030   1.981   1.630   2.412 -0.2548  0.7716 -1.1845
 1798SOL    HW217031   2.037   1.659   2.277 -2.3471  3.4854  0.7939
 1799SOL     OW17032   1.216   0.355   2.318  0.3842 -0.8326  0.0511
 1799SOL    HW117033   1.126   0.348   2.350  0.3562  0.4049  0.2466
 1799SOL    HW217034   1.227   0.262   2.297  0.6732 -0.4966 -1.2602
 1800SOL     OW17035   0.789   4.603   8.550  0.1437 -0.4212 -0.4952
 1800SOL    HW117036   0.860   4.592   8.487 -0.3672 -0.0287 -1.1499
 1800SOL    HW217037   0.750   4.685   8.519 -0.3726 -1.2920 -2.1731
 1801SOL     OW17038   1.678   1.143   6.403 -0.3985 -0.3781  0.0053
 1801SOL    HW117039   1.751   1.204   6.411 -0.0431 -0.6298 -1.2558
 1801SOL    HW217040   1.615   1.210   6.377  0.3460  0.3590  0.0970
 1802SOL     OW17041   2.367   4.728   5.559 -0.0693  0.1665 -0.2770
 1802SOL    HW117042   2.414   4.645   5.561  1.1880  0.9040  0.8954
 1802SOL    HW217043   2.311   4.717   5.636 -0.5175  0.2002 -0.5965
 1803SOL     OW17044   1.226   2.056  14.719 -0.1632 -0.1006 -0.1806
 1803SOL    HW117045   1.220   2.035  14.625 -2.6845 -0.1194 -0.0025
 1803SOL    HW217046   1.263   1.974  14.752  0.5246 -0.9325 -3.0001
 1804SOL     OW17047   4.619   3.818  12.956 -0.2635  0.1659 -0.5442
 1804SOL    HW117048   4.660   3.874  12.890  1.4647  0.0656  0.4223
 1804SOL    HW217049   4.669   3.737  12.948 -1.8333 -0.7297 -1.2550
 1805SOL     OW17050   1.448   1.729   1.732 -0.1287  0.2092  0.7039
 1805SOL    HW117051   1.360   1.711   1.699 -0.4792  3.5485 -0.1957
 1805SOL    HW217052   1.441   1.678   1.813  2.5415 -0.5896  0.4144
 1806SOL     OW17053   3.772   2.466   7.271  0.3992  0.2924 -0.7026
 1806SOL    HW117054   3.712   2.535   7.301  0.7950  0.0901  0.5352
 1806SOL    HW217055   3.845   2.515   7.235  0.1422  0.9984 -0.2708
 1807SOL     OW17056   2.625   0.432   3.134 -0.3199 -0.3931  0.7431
 1807SOL    HW117057   2.688   0.360   3.143 -0.7652 -1.0719 -1.4348
 1807SOL    HW217058   2.561   0.407   3.201 -0.8616 -1.9955 -0.3554
 1808SOL     OW17059   4.307   1.117   5.284 -0.7836  0.2869 -0.1318
 1808SOL    HW117060   4.293   1.073   5.368  0.8477  1.6417  0.8378
 1808SOL    HW217061   4.224   1.144   5.245 -1.1784  0.0415  0.5472
 1809SOL     OW17062   3.554   3.627   0.322 -0.3978 -0.4067 -0.2422
 1809SOL    HW117063   3.466   3.652   0.292  0.1160  0.0981 -1.2898
 1809SOL    HW217064   3.580   3.706   0.370 -1.3240  0.5719 -1.3409
 1810SOL     OW17065   1.319   3.883   2.801 -0.0145  0.2641  0.7282
 1810SOL    HW117066   1.362   3.821   2.859  3.1275  0.1147 -1.7363
 1810SOL    HW217067   1.346   3.964   2.844 -1.8926  1.6210 -0.6508
 1811SOL     OW17068   3.366   4.498   3.318 -0.1200  0.0219  0.6039
 1811SOL    HW117069   3.442   4.506   3.376  0.9540 -0.6151 -0.7083
 1811SOL    HW217070   3.417   4.477   3.240 -0.3439  0.5057  0.3268
 1812SOL     OW17071   2.646   3.671   9.822  0.2716 -0.0611 -0.0045
 1812SOL    HW117072   2.627   3.579   9.801  0.0200  0.2920 -1.3029
 1812SOL    HW217073   2.571   3.710   9.778  0.3333  0.6002  0.4757
 1813SOL     OW17074   1.064   4.325   2.507  0.8840 -0.5721 -0.1763
 1813SOL    HW117075   1.012   4.399   2.538  0.2397 -0.9222 -0.4177
 1813SOL    HW217076   1.008   4.249   2.524  0.2836 -0.3775 -1.2839
 1814SOL     OW17077   3.451   0.312   1.515  1.0309  0.3736 -0.2560
 1814SOL    HW117078   3.435   0.233   1.567 -1.2585  0.1941 -1.2373
 1814SOL    HW217079   3.375   0.365   1.540  0.0792 -1.4366  0.7239
 1815SOL     OW17080   1.587   4.676   3.574 -0.2487 -0.2449  0.0539
 1815SOL    HW117081   1.671   4.633   3.563  0.0201  0.7404 -1.6933
 1815SOL    HW217082   1.586   4.723   3.657  0.7420 -0.2956  0.0841
 1816SOL     OW17083   4.129   4.399   2.287  0.0342 -0.0500  0.2056
 1816SOL    HW117084   4.093   4.393   2.199 -1.5551  1.3750  0.7681
 1816SOL    HW217085   4.052   4.378   2.339 -0.4052 -0.2629 -0.5301
 1817SOL     OW17086   4.057   4.628   7.480  0.2327 -0.1486 -0.3371
 1817SOL    HW117087   3.996   4.643   7.407 -0.7591  0.8160  0.6819
 1817SOL    HW217088   4.013   4.675   7.552  0.3456  0.5128 -0.7019
 1818SOL     OW17089   4.454   2.186   4.466  0.1478 -0.4256  0.5056
 1818SOL    HW117090   4.402   2.231   4.532  1.1075  0.7436  0.4710
 1818SOL    HW217091   4.542   2.223   4.478 -0.1926  0.4958  0.1628
 1819SOL     OW17092   2.042   2.041   6.982 -0.2662 -0.5023 -0.6293
 1819SOL    HW117093   2.041   2.055   7.076 -1.3693 -0.9266 -0.5776
 1819SOL    HW217094   2.004   2.123   6.950  1.3523 -0.5997 -2.8172
 1820SOL     OW17095   3.934   3.876   5.143  0.0825 -0.9708 -0.2355
 1820SOL    HW117096   3.857   3.889   5.198  1.5426 -0.0125  1.5942
 1820SOL    HW217097   3.909   3.791   5.108  0.4228 -1.3184  0.3752
 1821SOL     OW17098   0.667   4.710   5.667 -0.4472  0.3910 -0.0370
 1821SOL    HW117099   0.726   4.682   5.597 -0.4997 -1.6717  0.7275
 1821SOL    HW217100   0.638   4.626   5.704 -0.5707  0.9643  1.1655
 1822SOL     OW17101   1.507   3.000  12.029  0.2093  0.2864  0.2380
 1822SOL    HW117102   1.554   3.069  11.983 -0.6588  1.7490  1.5270
 1822SOL    HW217103   1.451   3.037  12.098 -0.6055  2.2020 -1.4336
 1823SOL     OW17104   2.631   4.173   4.980  0.5429  0.1481 -0.2580
 1823SOL    HW117105   2.542   4.138   4.972  0.5258  0.1900 -0.2532
 1823SOL    HW217106   2.622   4.233   5.054 -0.2183 -0.2059 -0.0548
 1824SOL     OW17107   4.569   0.657   4.497 -0.4131 -0.2201 -0.2986
 1824SOL    HW117108   4.555   0.647   4.591  0.0648  2.0741  0.0184
 1824SOL    HW217109   4.517   0.735   4.478 -0.2935  0.2631  1.3818
 1825SOL     OW17110   0.357   3.454   4.509 -0.8189 -0.3353  0.3683
 1825SOL    HW117111   0.353   3.389   4.439  2.3478 -1.0254  0.8110
 1825SOL    HW217112   0.271   3.496   4.514 -0.6867 -0.3393  3.0335
 1826SOL     OW17113   1.016   1.072  12.982 -0.0075  0.1382 -0.2430
 1826SOL    HW117114   0.937   1.053  13.032 -0.0088 -0.3388 -0.4323
 1826SOL    HW217115   1.077   1.097  13.052 -1.6542  0.1541  1.1555
 1827SOL     OW17116   0.347   4.131   7.399  0.6722 -0.7751  0.3023
 1827SOL    HW117117   0.311   4.217   7.418  0.1566 -1.0223  0.4457
 1827SOL    HW217118   0.428   4.132   7.348 -0.8789 -2.1193 -2.1974
 1828SOL     OW17119   2.167   2.736  13.192  0.1588  0.7052 -0.9326
 1828SOL    HW117120   2.129   2.771  13.272 -0.7323 -3.3671  0.4651
 1828SOL    HW217121   2.096   2.687  13.150 -1.5404  1.7782  0.7216
 1829SOL     OW17122   4.373   3.297   1.116  0.4287 -0.7497  0.0098
 1829SOL    HW117123   4.439   3.313   1.184  1.4108 -0.7221 -0.9582
 1829SOL    HW217124   4.427   3.291   1.038  2.4722 -2.3824  1.5464
 1830SOL     OW17125   0.559   2.260   5.774  0.1045 -0.0269  0.9123
 1830SOL    HW117126   0.471   2.225   5.783 -0.9188  1.7842 -2.1997
 1830SOL    HW217127   0.556   2.306   5.691  1.1359  1.2229  1.5631
 1831SOL     OW17128   0.100   1.607   0.724 -0.3743  0.1762  0.5878
 1831SOL    HW117129   0.051   1.587   0.645 -2.7816  0.6250  1.9650
 1831SOL    HW217130   0.118   1.518   0.754  1.9228  0.9706  1.5687
 1832SOL     OW17131   0.845   4.119   7.912 -0.0417  0.3495 -0.0530
 1832SOL    HW117132   0.899   4.122   7.833  0.0023  1.6043  0.0279
 1832SOL    HW217133   0.891   4.045   7.952 -0.3578 -0.5436 -1.3399
 1833SOL     OW17134   1.660   1.362   9.001 -0.4596  0.5225 -0.0961
 1833SOL    HW117135   1.607   1.319   9.068  0.7071  1.7721  1.6078
 1833SOL    HW217136   1.621   1.450   9.000 -0.8348  0.3323 -3.2689
 1834SOL     OW17137   2.484   2.005   4.173 -0.3431 -0.2663 -0.2738
 1834SOL    HW117138   2.480   1.934   4.238 -0.2137  1.0531  1.1817
 1834SOL    HW217139   2.393   2.030   4.163  0.8679  3.5783 -1.4436
 1835SOL     OW17140   0.487   1.441  14.013 -0.0023 -0.4491 -0.0167
 1835SOL    HW117141   0.408   1.431  14.067 -0.0604  4.4002  0.7809
 1835SOL    HW217142   0.488   1.355  13.972 -0.5786 -0.2113 -0.5311
 1836SOL     OW17143   4.136   0.683   2.949 -0.2605  0.2606 -0.0471
 1836SOL    HW117144   4.144   0.613   2.884 -1.2352  1.6395 -1.6233
 1836SOL    HW217145   4.055   0.659   2.993 -1.3283  0.0948 -2.1236
 1837SOL     OW17146   3.851   3.547  12.203 -0.0366  0.1547 -0.2433
 1837SOL    HW117147   3.843   3.505  12.289 -0.2584 -0.3634 -0.5121
 1837SOL    HW217148   3.942   3.575  12.212  0.7928 -2.4432 -0.3287
 1838SOL     OW17149   0.398   1.741   7.383 -0.0410 -0.1744  1.0108
 1838SOL    HW117150   0.402   1.698   7.298  1.1825  0.7589  0.6010
 1838SOL    HW217151   0.465   1.809   7.378  0.2837 -0.5931 -0.1680
 1839SOL     OW17152   1.939   3.394   0.134  0.2188 -0.6856  0.4413
 1839SOL    HW117153   1.987   3.474   0.152  1.0432 -1.0489 -0.1560
 1839SOL    HW217154   1.982   3.358   0.056  2.3491  0.5292  1.0548
 1840SOL     OW17155   4.145   3.647   3.715 -0.2530 -0.7207  0.4043
 1840SOL    HW117156   4.086   3.588   3.761 -0.6338 -0.2429  0.5245
 1840SOL    HW217157   4.146   3.603   3.630  1.1181 -1.3337  0.7472
 1841SOL     OW17158   1.938   4.570   4.680  0.0267  0.3608 -0.7480
 1841SOL    HW117159   1.972   4.509   4.614  0.7290 -1.5612  1.4163
 1841SOL    HW217160   1.928   4.514   4.757 -1.5309 -0.2122 -1.3633
 1842SOL     OW17161   4.623   2.567   2.601  0.8237 -0.3362 -0.0942
 1842SOL    HW117162   4.638   2.545   2.693 -1.2218  0.3871  0.4104
 1842SOL    HW217163   4.601   2.481   2.565 -0.5297  1.0798 -2.6572
 1843SOL     OW17164   4.734   0.088   5.478 -0.4745 -0.2335 -0.5478
 1843SOL    HW117165   0.084   0.126   5.455 -0.4701 -0.3861 -0.7822
 1843SOL    HW217166   4.723   0.035   5.399 -2.7419 -1.6453  0.7130
 1844SOL     OW17167   0.910   0.424   8.645 -0.0998  0.6224 -0.2801
 1844SOL    HW117168   0.940   0.493   8.704  0.9513  0.6471 -0.8334
 1844SOL    HW217169   0.954   0.352   8.691  0.1659  0.8752 -0.1430
 1845SOL     OW17170   2.335   1.853  14.159  0.1853 -0.1972 -0.8231
 1845SOL    HW117171   2.389   1.832  14.236 -2.8146  0.4228  1.4221
 1845SOL    HW217172   2.248   1.878  14.189  1.0115  2.2994 -0.5179
 1846SOL     OW17173   2.208   3.953   6.484 -0.0477 -0.1460 -0.6646
 1846SOL    HW117174   2.178   3.881   6.538 -0.6469  1.6227  1.3348
 1846SOL    HW217175   2.148   3.958   6.409 -1.2694  0.2642  0.3408
 1847SOL     OW17176   0.301   4.539   5.485  0.4268  0.3808  0.2113
 1847SOL    HW117177   0.357   4.461   5.483  0.5538  0.4493  1.2928
 1847SOL    HW217178   0.283   4.568   5.396 -0.7255  2.7234  1.2132
 1848SOL     OW17179   0.873   3.167  14.144  0.1583  0.1964 -0.0924
 1848SOL    HW117180   0.801   3.162  14.207 -0.2928  1.5948 -0.5074
 1848SOL    HW217181   0.916   3.251  14.160 -1.9959  1.5475 -1.4202
 1849SOL     OW17182   4.345   1.068   3.839 -0.0031  0.3610  0.1880
 1849SOL    HW117183   4.426   1.101   3.801 -0.6315 -0.3543 -1.7477
 1849SOL    HW217184   4.383   0.994   3.886  1.6287  1.5960  0.7996
 1850SOL     OW17185   3.307   2.558   5.437 -0.6726  0.0994 -0.1579
 1850SOL    HW117186   3.371   2.598   5.378  2.5079 -3.1214  1.0513
 1850SOL    HW217187   3.306   2.618   5.511 -1.1153 -1.2600  0.9370
 1851SOL     OW17188   1.304   0.978   0.263  1.1617 -0.2835 -0.4771
 1851SOL    HW117189   1.337   0.888   0.255  0.8389 -0.2535 -2.0333
 1851SOL    HW217190   1.209   0.964   0.254  0.7588  2.4097 -0.5075
 1852SOL     OW17191   1.029   4.273   8.253 -0.0684  0.1391 -0.2377
 1852SOL    HW117192   1.068   4.188   8.230  3.5764  1.3421  1.5031
 1852SOL    HW217193   0.945   4.245   8.290  0.4813 -1.9735 -0.5830
 1853SOL     OW17194   1.256   2.608   2.629 -0.0337 -0.1293  0.2413
 1853SOL    HW117195   1.293   2.548   2.565  1.2044 -0.3805  1.1817
 1853SOL    HW217196   1.271   2.685   2.575  1.3579  1.0935  2.3672
 1854SOL     OW17197   0.002   1.045   3.802  0.3290 -0.1569 -0.6726
 1854SOL    HW117198   4.652   1.083   3.781  0.0580  0.2934  1.2078
 1854SOL    HW217199   0.051   1.069   3.723  0.7888 -3.2894 -1.3439
 1855SOL     OW17200   0.985   1.283  13.470 -0.1678 -0.0432 -0.2114
 1855SOL    HW117201   0.922   1.351  13.493  0.2028  0.7425 -1.5706
 1855SOL    HW217202   0.933   1.234  13.406  0.5928 -0.2721 -0.6506
 1856SOL     OW17203   0.156   2.040  10.646 -0.3106 -0.1027 -0.0352
 1856SOL    HW117204   0.090   1.972  10.637 -0.6299  0.2120 -0.0968
 1856SOL    HW217205   0.141   2.064  10.738  0.4016  1.3677 -0.2950
 1857SOL     OW17206   2.946   4.588   4.935  0.1974  0.3728 -0.4795
 1857SOL    HW117207   2.878   4.529   4.966  0.3345 -0.2074 -1.2834
 1857SOL    HW217208   2.971   4.561   4.846  1.7741  2.4068 -0.6514
 1858SOL     OW17209   1.301   1.731   7.435  0.7439  0.2841 -0.2197
 1858SOL    HW117210   1.257   1.658   7.390 -1.4094  0.6279  1.3205
 1858SOL    HW217211   1.367   1.761   7.372  1.5385 -0.7846  0.1071
 1859SOL     OW17212   4.296   4.139   6.346 -0.2850 -0.0083 -0.0023
 1859SOL    HW117213   4.201   4.143   6.334 -0.3679 -0.6692  0.4388
 1859SOL    HW217214   4.315   4.219   6.395 -1.1946 -0.1422  0.5627
 1860SOL     OW17215   3.405   3.640   6.989  0.3060  0.7011 -0.5201
 1860SOL    HW117216   3.481   3.673   6.940  2.1754 -0.0065  1.8597
 1860SOL    HW217217   3.338   3.702   6.962  0.3981 -0.2023 -2.8286
 1861SOL     OW17218   0.287   1.843   2.674 -0.1140 -0.0544 -0.2024
 1861SOL    HW117219   0.248   1.778   2.732  0.6619 -2.2365 -2.1571
 1861SOL    HW217220   0.378   1.839   2.701 -0.1081 -0.4121 -0.2750
 1862SOL     OW17221   0.728   2.399   2.041 -0.3675  0.1548  0.3830
 1862SOL    HW117222   0.771   2.411   1.956  0.4810 -2.9646  0.3660
 1862SOL    HW217223   0.698   2.487   2.063 -0.4098  0.2649 -0.1049
 1863SOL     OW17224   3.929   1.822  13.017  0.1396  0.4812 -0.3690
 1863SOL    HW117225   3.993   1.797  13.084  0.2642  0.3334 -0.5427
 1863SOL    HW217226   3.904   1.905  13.058 -3.3975 -0.4055 -0.7241
 1864SOL     OW17227   3.890   2.787   5.807 -0.4813  0.1882 -0.2992
 1864SOL    HW117228   3.940   2.859   5.846  0.2179 -1.7314  2.3496
 1864SOL    HW217229   3.952   2.750   5.744 -0.4523  0.1658 -0.2577
 1865SOL     OW17230   3.989   0.819  16.000 -0.8305  0.2485 -0.0780
 1865SOL    HW117231   4.013   0.891  16.060 -0.2107 -0.7241  0.8442
 1865SOL    HW217232   3.986   0.864  15.916  1.4253  1.3790  0.4401
 1866SOL     OW17233   4.284   1.484   5.279  0.0349 -0.1441 -0.1002
 1866SOL    HW117234   4.367   1.477   5.232  1.4352  1.3519  2.1086
 1866SOL    HW217235   4.323   1.484   5.366  0.5339  0.2238 -0.3245
 1867SOL     OW17236   2.246   4.661   2.825  0.1207  0.0299  0.0563
 1867SOL    HW117237   2.332   4.629   2.799  0.4303  2.2098 -1.6248
 1867SOL    HW217238   2.268   0.015   2.853  2.6557 -0.4941 -0.3431
 1868SOL     OW17239   3.671   4.003   8.687  0.1762  0.1165  0.3876
 1868SOL    HW117240   3.663   3.917   8.645  0.0378  1.4195 -2.2411
 1868SOL    HW217241   3.677   4.067   8.616 -2.2791 -0.8575 -0.6927
 1869SOL     OW17242   4.588   0.216   8.859  0.4644 -0.4610  0.6797
 1869SOL    HW117243   4.629   0.195   8.943  1.2662 -0.5987  0.2528
 1869SOL    HW217244   4.500   0.242   8.886  0.2597 -0.5339  0.0900
 1870SOL     OW17245   2.646   3.156   2.713  0.5461 -0.4053 -0.1388
 1870SOL    HW117246   2.566   3.115   2.681  0.9574 -0.3752 -1.2036
 1870SOL    HW217247   2.614   3.189   2.797 -3.2147  0.9042 -2.1035
 1871SOL     OW17248   2.612   2.750   4.754 -0.0059  0.3467  0.1800
 1871SOL    HW117249   2.678   2.681   4.749 -1.8529 -1.4034  0.1015
 1871SOL    HW217250   2.573   2.747   4.667 -0.1754 -0.2289  0.2724
 1872SOL     OW17251   0.998   0.271   2.460 -0.0872 -0.2481 -0.3892
 1872SOL    HW117252   0.989   0.320   2.541  2.1747  1.1686 -1.0243
 1872SOL    HW217253   0.906   0.285   2.436  0.1036 -1.1221 -1.6210
 1873SOL     OW17254   0.722   0.835   0.848 -0.2277 -0.4073  0.1055
 1873SOL    HW117255   0.679   0.920   0.858  0.9279  0.3677 -1.5844
 1873SOL    HW217256   0.711   0.795   0.935  1.3820  0.9077  0.9059
 1874SOL     OW17257   4.572   1.614   2.937  0.1435 -0.6326 -0.4556
 1874SOL    HW117258   4.540   1.697   2.972  1.3962 -0.8798  1.2968
 1874SOL    HW217259   4.494   1.562   2.957 -0.7730  1.6004  1.8218
 1875SOL     OW17260   3.415   1.898  15.562 -0.2986  0.1932  0.0391
 1875SOL    HW117261   3.336   1.848  15.541 -0.1157 -0.1753  0.2341
 1875SOL    HW217262   3.411   1.967  15.495  0.3778 -0.5143 -0.7290
 1876SOL     OW17263   4.660   1.834   3.830  0.1842 -0.0803 -0.2112
 1876SOL    HW117264   4.647   1.748   3.789  0.5921 -1.0371  1.6714
 1876SOL    HW217265   4.574   1.841   3.871 -0.4622  0.4417 -1.6606
 1877SOL     OW17266   4.614   3.461  14.422  0.1067  0.0394 -0.3072
 1877SOL    HW117267   4.580   3.548  14.439  1.8655  0.7607 -0.4741
 1877SOL    HW217268   4.628   3.429  14.512 -1.6520  1.6698  0.5368
 1878SOL     OW17269   2.639   3.160   5.219 -0.1940  0.0833 -0.0100
 1878SOL    HW117270   2.602   3.076   5.247  1.4771 -0.4557  0.6158
 1878SOL    HW217271   2.564   3.203   5.180  0.3396 -1.2244 -2.4822
 1879SOL     OW17272   0.449   4.610   7.374  0.4527  0.3792  0.0663
 1879SOL    HW117273   0.482   4.557   7.446 -3.4932 -2.0840  0.0673
 1879SOL    HW217274   0.410   4.676   7.432 -0.9350 -1.7054  1.4867
 1880SOL     OW17275   2.291   2.643  12.805 -0.4273  0.2634  0.3882
 1880SOL    HW117276   2.358   2.665  12.741 -0.0549  1.8443  1.3139
 1880SOL    HW217277   2.224   2.599  12.754  1.5073 -1.4476 -0.6540
 1881SOL     OW17278   4.574   1.695   7.389 -0.1469 -0.2887  0.1103
 1881SOL    HW117279   4.526   1.644   7.323 -2.0106  1.2048  0.3064
 1881SOL    HW217280   4.511   1.762   7.415  2.5585  1.7751  1.2445
 1882SOL     OW17281   0.386   3.436   5.934 -0.8412 -0.4014 -0.1995
 1882SOL    HW117282   0.302   3.391   5.926  0.1372 -2.4123  0.5796
 1882SOL    HW217283   0.370   3.505   5.998 -0.9671 -0.9885  0.4085
 1883SOL     OW17284   3.282   1.913  14.516 -0.5010 -0.3686 -0.2345
 1883SOL    HW117285   3.369   1.923  14.555 -0.6657 -1.5149  0.4423
 1883SOL    HW217286   3.294   1.844  14.450 -3.0658 -0.9672 -0.0637
 1884SOL     OW17287   0.362   4.226   3.051 -0.0606  0.2702  0.0761
 1884SOL    HW117288   0.405   4.165   2.991 -0.0254  0.5736 -0.2150
 1884SOL    HW217289   0.278   4.247   3.009  0.6851  2.5599 -0.3229
 1885SOL     OW17290   2.227   1.784   5.508 -0.5562 -0.0051  0.2038
 1885SOL    HW117291   2.274   1.701   5.498  1.1539  0.8063  1.6302
 1885SOL    HW217292   2.144   1.769   5.463  1.1536  0.6950 -3.1447
 1886SOL     OW17293   0.679   3.129   2.853  0.3096  0.1809  0.0331
 1886SOL    HW117294   0.732   3.051   2.867  1.2051  0.5783 -1.1760
 1886SOL    HW217295   0.589   3.097   2.866  0.8108 -1.5469 -0.7355
 1887SOL     OW17296   3.372   3.401   3.288  0.3034  0.1108  0.2794
 1887SOL    HW117297   3.456   3.413   3.243  0.2704 -0.2531  0.1232
 1887SOL    HW217298   3.315   3.356   3.226  0.2112 -2.8110  2.4951
 1888SOL     OW17299   2.861   3.016   9.251  0.1929 -0.1534 -0.1900
 1888SOL    HW117300   2.811   2.938   9.273  1.9031 -1.0391  0.5784
 1888SOL    HW217301   2.829   3.033   9.162 -1.5008 -0.2902  0.3982
 1889SOL     OW17302   3.074   1.808   9.988  0.5939 -0.4273  0.1774
 1889SOL    HW117303   3.060   1.716  10.009 -2.3781 -0.2675 -1.0080
 1889SOL    HW217304   3.162   1.827  10.019  0.4889  0.0399  0.1910
 1890SOL     OW17305   2.561   1.128   4.596 -0.0219 -0.1329 -0.3437
 1890SOL    HW117306   2.539   1.101   4.506 -1.6676  0.7025 -0.2059
 1890SOL    HW217307   2.470   1.145   4.622  0.1753 -0.4040  0.5041
 1891SOL     OW17308   1.791   0.941   4.371 -0.1167  0.2907  0.0622
 1891SOL    HW117309   1.718   0.970   4.426  1.5024  0.2440  2.2215
 1891SOL    HW217310   1.827   0.884   4.438 -0.4350 -0.4862 -0.4215
 1892SOL     OW17311   0.353   2.144  11.587 -0.5386 -0.1366  0.2096
 1892SOL    HW117312   0.352   2.121  11.679 -0.0672 -0.8724  0.0303
 1892SOL    HW217313   0.274   2.198  11.586 -0.0572  0.5597 -0.7612
 1893SOL     OW17314   0.274   4.658   2.369 -0.0853  0.2701  0.1148
 1893SOL    HW117315   0.331   4.678   2.295  0.0756 -0.5713  0.0136
 1893SOL    HW217316   0.322   4.582   2.402 -0.0305  0.6143  0.8496
 1894SOL     OW17317   3.374   1.502   2.615  0.4725  0.1079  0.3738
 1894SOL    HW117318   3.368   1.406   2.617  0.1065  0.1406  0.8086
 1894SOL    HW217319   3.283   1.529   2.612 -0.1022 -1.8783  0.1053
 1895SOL     OW17320   1.856   3.520   2.185  0.0983  0.8180  0.4651
 1895SOL    HW117321   1.903   3.604   2.183  0.2481  0.7097 -0.6380
 1895SOL    HW217322   1.921   3.455   2.158  0.1252  0.4859  1.3107
 1896SOL     OW17323   4.353   3.873  11.795  0.6598 -0.0793 -0.0143
 1896SOL    HW117324   4.414   3.872  11.721  1.3163 -0.5192  0.5299
 1896SOL    HW217325   4.332   3.964  11.815  0.8747 -0.1940  0.7363
 1897SOL     OW17326   0.327   0.299   1.629  0.7620 -0.2387  0.2055
 1897SOL    HW117327   0.349   0.232   1.694  1.5407  0.4856  0.6807
 1897SOL    HW217328   0.307   0.248   1.549  0.7392 -1.5610  1.0498
 1898SOL     OW17329   4.535   4.120   4.566 -0.2159  0.1007  0.3234
 1898SOL    HW117330   4.485   4.139   4.487  0.6458 -2.0323 -0.7391
 1898SOL    HW217331   4.469   4.080   4.624 -0.6046  1.6677  0.9462
 1899SOL     OW17332   4.652   2.073   4.944  0.8544  0.1336 -0.3979
 1899SOL    HW117333   4.594   2.139   4.906 -2.3994 -1.6301  1.4500
 1899SOL    HW217334   4.603   2.056   5.025  0.6344  0.4333 -0.4667
 1900SOL     OW17335   2.348   3.160   4.153  0.0049  0.3801 -0.4646
 1900SOL    HW117336   2.306   3.074   4.159 -0.0400  0.4328 -0.0566
 1900SOL    HW217337   2.322   3.167   4.061 -0.2914  1.3288 -0.3040
 1901SOL     OW17338   2.680   4.611   2.734 -0.4280 -0.5052  0.6339
 1901SOL    HW117339   2.698   4.556   2.658  2.0638  4.1210 -2.1417
 1901SOL    HW217340   2.619   4.557   2.784 -0.1192 -0.4020  1.1279
 1902SOL     OW17341   0.864   1.423  16.995 -0.1336  0.2078 -0.1102
 1902SOL    HW117342   0.889   1.487  16.927  1.6593  0.0030  0.3496
 1902SOL    HW217343   0.868   1.346  16.938  0.9593 -1.9460  2.8840
 1903SOL     OW17344   1.777   4.499  17.100 -0.1273  0.1456 -0.6654
 1903SOL    HW117345   1.712   4.546  17.153 -1.6864 -2.5893 -0.1694
 1903SOL    HW217346   1.787   4.423  17.157  0.1321  0.4708 -0.2739
 1904SOL     OW17347   2.686   2.344   4.109  0.1595 -0.1705 -0.3570
 1904SOL    HW117348   2.612   2.403   4.096 -0.7605 -0.9436  1.2836
 1904SOL    HW217349   2.758   2.404   4.130 -1.3683  0.3266  3.4752
 1905SOL     OW17350   0.160   3.071   6.982  0.2323 -0.4629  0.0674
 1905SOL    HW117351   0.136   2.981   6.961 -3.0294  0.0339  1.7101
 1905SOL    HW217352   0.089   3.120   6.941 -0.7206 -1.6714  0.2631
 1906SOL     OW17353   0.908   3.297   7.951  0.3790 -0.2130 -0.4826
 1906SOL    HW117354   0.989   3.287   7.999  0.6482  0.4273 -0.8076
 1906SOL    HW217355   0.837   3.280   8.013 -0.4726  1.9473 -0.8795
 1907SOL     OW17356   3.745   2.668   1.899  0.0895  0.1106  0.3750
 1907SOL    HW117357   3.654   2.640   1.892  0.3970 -1.1147  1.3734
 1907SOL    HW217358   3.777   2.650   1.811 -1.6980 -1.1236 -0.0214
 1908SOL     OW17359   1.019   3.076   6.912 -0.3798  0.8831  0.0827
 1908SOL    HW117360   1.040   3.023   6.988  0.2225 -0.8855 -1.3195
 1908SOL    HW217361   1.109   3.090   6.881 -0.5963  3.1725  0.4438
 1909SOL     OW17362   0.831   1.407  12.221  0.2640 -0.4284 -0.6777
 1909SOL    HW117363   0.920   1.441  12.225 -0.1814  0.8108 -1.3278
 1909SOL    HW217364   0.838   1.347  12.147 -0.4841 -0.2325 -0.9121
 1910SOL     OW17365   4.001   3.014  17.264  0.9187 -0.6718  0.3505
 1910SOL    HW117366   3.908   3.010  17.239  1.2863 -1.9220 -0.8388
 1910SOL    HW217367   4.042   2.983  17.183 -1.0347  0.5988 -1.1431
 1911SOL     OW17368   4.308   3.122  10.203 -0.2827 -0.0746 -0.6676
 1911SOL    HW117369   4.247   3.177  10.252  1.8792  1.1822  0.6401
 1911SOL    HW217370   4.254   3.044  10.195  0.3537 -0.4016 -1.7362
 1912SOL     OW17371   2.168   1.758   6.887  0.0863 -0.4097 -0.3107
 1912SOL    HW117372   2.162   1.783   6.980 -1.4904 -3.4980  0.4474
 1912SOL    HW217373   2.192   1.838   6.841  0.0240  0.9273  1.9699
 1913SOL     OW17374   4.377   3.763   5.767 -0.1789  0.2826  0.3433
 1913SOL    HW117375   4.444   3.732   5.705 -0.1812 -2.0433  1.5034
 1913SOL    HW217376   4.355   3.844   5.722  0.4747 -0.3685 -1.1504
 1914SOL     OW17377   0.506   3.401  11.435  0.3205 -0.4901 -0.2223
 1914SOL    HW117378   0.567   3.360  11.374 -1.9804  2.1702 -4.2577
 1914SOL    HW217379   0.434   3.338  11.445 -0.3994  0.5987  1.4741
 1915SOL     OW17380   4.170   0.489   2.103 -0.5042 -0.0037  0.1813
 1915SOL    HW117381   4.163   0.428   2.029  0.8238 -1.9639  1.6662
 1915SOL    HW217382   4.231   0.437   2.156  0.9618 -1.4737 -2.9151
 1916SOL     OW17383   2.657   1.555   5.779 -0.4602 -0.3834 -0.1343
 1916SOL    HW117384   2.639   1.632   5.725 -0.6389 -1.6356 -1.8335
 1916SOL    HW217385   2.611   1.571   5.861 -1.3606 -2.0775 -0.3041
 1917SOL     OW17386   2.284   4.589   6.379  0.6578 -0.0336 -0.5398
 1917SOL    HW117387   2.195   4.625   6.387  1.9328  3.0866 -0.1775
 1917SOL    HW217388   2.326   4.663   6.334 -0.2675  0.4571 -0.5971
 1918SOL     OW17389   1.990   0.346   5.897  0.3375  0.2653  0.6496
 1918SOL    HW117390   2.012   0.436   5.922  1.5573 -0.6981  2.9486
 1918SOL    HW217391   1.945   0.363   5.814  3.3395  0.6491 -0.8955
 1919SOL     OW17392   4.121   0.302   8.971  0.1940 -0.1273 -0.1832
 1919SOL    HW117393   4.092   0.248   8.897  0.0200 -0.2842 -0.0034
 1919SOL    HW217394   4.216   0.295   8.966  0.1221  0.5047 -2.3574
 1920SOL     OW17395   4.306   4.181   2.010 -0.0709  1.0420  0.2830
 1920SOL    HW117396   4.371   4.144   2.069 -0.8903 -0.5890  0.1718
 1920SOL    HW217397   4.269   4.099   1.976  2.0414 -0.4018  1.4982
 1921SOL     OW17398   3.648   2.988   6.153 -0.3267  0.1008  0.1934
 1921SOL    HW117399   3.608   2.950   6.231 -0.6197  1.0780  0.5280
 1921SOL    HW217400   3.741   2.972   6.163 -0.5440 -0.0006  1.9988
 1922SOL     OW17401   3.356   1.558  15.083  0.0008 -0.2745  0.4979
 1922SOL    HW117402   3.392   1.470  15.071  0.2215  0.0713 -1.3728
 1922SOL    HW217403   3.314   1.581  15.000  0.6819  2.1305  0.8023
 1923SOL     OW17404   1.142   2.628   4.686  0.4349  0.4607  0.2638
 1923SOL    HW117405   1.172   2.685   4.757 -2.2389  1.6109  0.4940
 1923SOL    HW217406   1.200   2.650   4.614  1.7502  0.9308  1.4778
 1924SOL     OW17407   3.833   1.967   9.956  0.4940 -0.3643 -0.0050
 1924SOL    HW117408   3.852   2.033  10.022 -0.4830 -0.4610  0.3745
 1924SOL    HW217409   3.917   1.921   9.958 -1.5801 -4.1592  1.5458
 1925SOL     OW17410   4.228   4.257  13.676 -0.0226 -0.3661 -0.5704
 1925SOL    HW117411   4.217   4.285  13.585 -4.9376 -0.7296 -0.0557
 1925SOL    HW217412   4.140   4.230  13.702 -1.1772  1.5724 -2.4664
 1926SOL     OW17413   3.887   4.726   8.214 -0.0072 -0.1437 -0.0972
 1926SOL    HW117414   3.881   0.078   8.173 -0.2000  0.3144  0.9058
 1926SOL    HW217415   3.878   4.663   8.142 -0.5980  1.6125 -1.5578
 1927SOL     OW17416   4.268   2.535  12.235  0.3071  0.1218  0.0749
 1927SOL    HW117417   4.297   2.503  12.150  0.1488  0.8572 -0.2581
 1927SOL    HW217418   4.321   2.612  12.256  1.9597 -0.8888 -0.4945
 1928SOL     OW17419   1.181   3.250   0.976  0.3987 -0.2529  0.4819
 1928SOL    HW117420   1.105   3.195   0.957 -0.2348 -0.1197  2.6611
 1928SOL    HW217421   1.178   3.313   0.904  0.6443 -0.0012  0.6954
 1929SOL     OW17422   3.168   2.407   4.049  0.5045  0.5474  0.4977
 1929SOL    HW117423   3.246   2.408   4.104 -0.8438  3.2304  2.3386
 1929SOL    HW217424   3.103   2.445   4.108  0.0284  1.8917 -0.8987
 1930SOL     OW17425   0.941   0.866  11.834 -0.4228  0.2065 -0.0736
 1930SOL    HW117426   0.916   0.871  11.927 -0.6184 -2.0790 -0.0130
 1930SOL    HW217427   0.873   0.802  11.814  2.1087 -2.6716  0.4544
 1931SOL     OW17428   2.966   4.040  15.194 -0.7111  0.2970 -0.0032
 1931SOL    HW117429   2.900   3.984  15.153 -0.8704  0.6202 -0.1917
 1931SOL    HW217430   3.040   4.011  15.140 -2.4401 -0.0561 -2.1621
 1932SOL     OW17431   0.776   1.718  14.912 -0.3823 -0.0905  0.3377
 1932SOL    HW117432   0.834   1.793  14.926 -2.5995  1.7630 -0.4938
 1932SOL    HW217433   0.843   1.649  14.908  0.1777  0.6835 -3.5283
 1933SOL     OW17434   0.087   0.641   8.600  0.1650  0.4293 -0.2675
 1933SOL    HW117435   0.049   0.554   8.617 -0.2919  1.4646  3.9558
 1933SOL    HW217436   0.176   0.634   8.634  0.2723  0.3958 -0.5647
 1934SOL     OW17437   0.320   0.426   6.383 -0.0541  0.4544  0.6509
 1934SOL    HW117438   0.415   0.411   6.384  0.0235  0.9105 -0.4703
 1934SOL    HW217439   0.312   0.522   6.384  3.1493  0.7518 -2.5419
 1935SOL     OW17440   3.517   4.391  12.049 -0.1363 -0.2433  0.2520
 1935SOL    HW117441   3.517   4.435  11.964  2.0272  0.1719  0.4654
 1935SOL    HW217442   3.575   4.316  12.037 -0.6200 -0.6341  0.3802
 1936SOL     OW17443   1.869   0.274   2.861  0.1918 -0.5783  0.1545
 1936SOL    HW117444   1.948   0.242   2.819  0.1693 -0.4500  0.0130
 1936SOL    HW217445   1.830   0.328   2.792 -1.0149  1.9161  2.7897
 1937SOL     OW17446   2.920   3.354  13.197 -0.0779 -0.3283 -0.4907
 1937SOL    HW117447   2.919   3.414  13.272  0.8187  1.7846 -2.1787
 1937SOL    HW217448   2.942   3.269  13.234 -1.3723 -0.5339 -0.1700
 1938SOL     OW17449   3.940   2.410   4.420  0.1740  0.2071  0.3463
 1938SOL    HW117450   3.994   2.372   4.489 -1.0980  0.3188  1.3938
 1938SOL    HW217451   3.981   2.364   4.347 -1.4598  2.1167 -1.7619
 1939SOL     OW17452   4.676   1.881   2.136  0.3051  0.1290 -0.5629
 1939SOL    HW117453   4.623   1.960   2.145 -1.5949 -1.2626  0.3097
 1939SOL    HW217454   4.679   1.842   2.223  0.2637 -1.1104 -1.1186
 1940SOL     OW17455   3.394   3.375   8.721  0.0532  0.2604  0.6774
 1940SOL    HW117456   3.486   3.390   8.701  0.0259  1.2992  1.3203
 1940SOL    HW217457   3.393   3.428   8.801 -1.3137  0.6658  0.4039
 1941SOL     OW17458   4.073   1.567   0.544  0.1156  0.3638  0.1865
 1941SOL    HW117459   4.006   1.529   0.600 -0.9189 -0.0217 -1.3218
 1941SOL    HW217460   4.116   1.487   0.514  1.0014  1.4199 -1.3445
 1942SOL     OW17461   2.660   3.462   7.017 -0.1799  0.2939 -0.0750
 1942SOL    HW117462   2.673   3.548   6.975  5.5818 -0.3975  0.2520
 1942SOL    HW217463   2.581   3.433   6.973 -0.7419  1.0889  0.4192
 1943SOL     OW17464   1.423   0.420   3.509 -0.5326 -0.2522  0.3459
 1943SOL    HW117465   1.416   0.326   3.495  0.3198 -0.1518 -0.7401
 1943SOL    HW217466   1.430   0.462   3.423 -1.1206 -0.4211  0.2160
 1944SOL     OW17467   1.181   1.333  17.407 -0.2421 -0.1413  0.1347
 1944SOL    HW117468   1.140   1.343  17.321 -0.8065 -2.0478  0.1854
 1944SOL    HW217469   1.177   1.426  17.431 -0.1370 -0.1110  0.0371
 1945SOL     OW17470   3.614   2.545   1.552 -0.5081  0.3276 -0.5632
 1945SOL    HW117471   3.527   2.558   1.591 -0.5496  0.9158 -0.8491
 1945SOL    HW217472   3.654   2.471   1.598  0.5309  1.0345 -0.3328
 1946SOL     OW17473   1.816   0.874   8.044 -0.0127 -0.4764 -0.2950
 1946SOL    HW117474   1.794   0.954   8.092  3.8939  0.2089  0.4053
 1946SOL    HW217475   1.846   0.918   7.965  1.6799 -0.1381  0.5433
 1947SOL     OW17476   2.223   4.560   9.820  0.1823 -0.4254 -0.4204
 1947SOL    HW117477   2.178   4.476   9.816  1.9729 -1.3625 -0.8761
 1947SOL    HW217478   2.217   4.578   9.914 -2.0334  0.2741 -0.7042
 1948SOL     OW17479   0.955   2.311   2.114 -0.2891  0.4387 -0.1318
 1948SOL    HW117480   0.887   2.363   2.070 -0.2464  0.1710 -0.5174
 1948SOL    HW217481   0.904   2.240   2.153 -0.0198 -0.2602 -1.0497
 1949SOL     OW17482   2.809   3.435   7.705 -0.4299 -0.4152  0.3698
 1949SOL    HW117483   2.726   3.390   7.724 -0.3311 -0.1702  1.3939
 1949SOL    HW217484   2.875   3.395   7.762 -0.6522 -1.0922  0.1522
 1950SOL     OW17485   1.435   3.635  14.120 -0.1214 -0.4389 -0.1219
 1950SOL    HW117486   1.378   3.638  14.043  0.1900 -1.3432 -0.3852
 1950SOL    HW217487   1.522   3.628  14.080  0.9507 -1.0623  2.3084
 1951SOL     OW17488   1.248   2.315   8.460 -0.4916  0.5784 -0.1294
 1951SOL    HW117489   1.232   2.292   8.369  0.3741  0.3776 -0.2374
 1951SOL    HW217490   1.215   2.239   8.508  1.2530  0.1576  0.4342
 1952SOL     OW17491   3.674   3.887   1.974  0.3202  0.2850  0.4029
 1952SOL    HW117492   3.655   3.978   1.952  0.9675 -0.1480 -1.9110
 1952SOL    HW217493   3.593   3.863   2.019 -0.7220  1.1749 -1.0241
 1953SOL     OW17494   0.118   3.974  10.068  0.0936  0.1371  0.0388
 1953SOL    HW117495   0.120   4.066  10.045 -2.6723  0.3766  0.7723
 1953SOL    HW217496   0.038   3.963  10.121 -1.0413  0.2218 -1.6656
 1954SOL     OW17497   1.040   1.181  15.423  0.4870 -0.0287  0.0750
 1954SOL    HW117498   1.014   1.142  15.506  0.6309 -1.5370 -0.5839
 1954SOL    HW217499   1.096   1.250  15.457  1.9375 -1.0048 -0.3011
 1955SOL     OW17500   2.149   0.298   0.637 -0.3956 -0.1984  0.0109
 1955SOL    HW117501   2.183   0.260   0.556  0.8511 -1.1477  0.9736
 1955SOL    HW217502   2.109   0.375   0.596 -0.0356  0.2976  0.5897
 1956SOL     OW17503   0.557   4.360  14.826  0.0435  0.0994 -0.8341
 1956SOL    HW117504   0.627   4.426  14.823  2.2112 -2.2701 -1.9850
 1956SOL    HW217505   0.478   4.413  14.826 -0.3143 -0.4373 -0.7547
 1957SOL     OW17506   3.622   3.408   5.656  0.2219  0.0461 -0.4851
 1957SOL    HW117507   3.533   3.387   5.685  1.0337 -1.0506  1.1809
 1957SOL    HW217508   3.670   3.395   5.738  0.9507 -0.0042 -0.9156
 1958SOL     OW17509   2.581   3.933   2.600 -0.2602  0.0483  0.1315
 1958SOL    HW117510   2.491   3.907   2.619 -0.2536  0.8766  1.3215
 1958SOL    HW217511   2.567   4.019   2.559 -0.4807 -0.9279 -1.8610
 1959SOL     OW17512   0.484   3.766   9.292 -0.0905  0.0475 -0.2830
 1959SOL    HW117513   0.492   3.822   9.215  0.8503 -0.6817 -0.7226
 1959SOL    HW217514   0.545   3.695   9.269 -2.3293 -1.9213 -0.1643
 1960SOL     OW17515   0.305   3.826   6.697  0.4467 -0.1901 -0.0414
 1960SOL    HW117516   0.352   3.881   6.635 -1.1279  0.2409 -0.8352
 1960SOL    HW217517   0.226   3.880   6.692  1.2808  0.9000 -1.4124
 1961SOL     OW17518   4.273   1.897  12.622  0.0455 -0.1936 -0.7793
 1961SOL    HW117519   4.355   1.852  12.605  0.8245  0.5373  1.0437
 1961SOL    HW217520   4.227   1.861  12.546  0.5007 -1.1247 -0.6066
 1962SOL     OW17521   3.427   4.266  10.404 -0.0743  0.7131 -0.4418
 1962SOL    HW117522   3.334   4.247  10.416 -0.1945 -0.6901 -3.7183
 1962SOL    HW217523   3.418   4.329  10.333 -1.0047  1.6714  0.5226
 1963SOL     OW17524   0.827   4.296  10.267  0.1434  0.0255 -0.1287
 1963SOL    HW117525   0.796   4.208  10.247 -1.5347  0.5959  0.0097
 1963SOL    HW217526   0.908   4.286  10.318  0.0276 -0.3043 -0.0072
 1964SOL     OW17527   0.341   4.570   5.162  0.3898  0.0387 -0.1060
 1964SOL    HW117528   0.409   4.637   5.155 -0.2489  0.4061 -2.7310
 1964SOL    HW217529   0.393   4.489   5.165  0.9172  0.3908  0.4280
 1965SOL     OW17530   0.444   3.599   6.669  0.7008 -0.2647  0.4534
 1965SOL    HW117531   0.390   3.552   6.605  0.5665 -0.6726  0.8652
 1965SOL    HW217532   0.408   3.688   6.668  0.5847 -0.3113  0.4602
 1966SOL     OW17533   0.132   4.331   5.393 -0.0495 -0.6702 -0.3811
 1966SOL    HW117534   0.105   4.245   5.359 -2.7134 -1.2015  3.0118
 1966SOL    HW217535   0.227   4.328   5.383  0.1719  0.1842  1.4047
 1967SOL     OW17536   2.371   2.812   8.070 -0.0269  0.1060 -0.4099
 1967SOL    HW117537   2.337   2.886   8.121  0.4552 -1.0248  1.5666
 1967SOL    HW217538   2.295   2.754   8.064 -1.4804  2.1053 -1.4237
 1968SOL     OW17539   1.451   0.389   2.676  0.0828  0.6197  0.2554
 1968SOL    HW117540   1.378   0.411   2.617 -0.1901 -2.6632 -0.6541
 1968SOL    HW217541   1.424   0.305   2.714  0.7252 -0.6509 -2.0948
 1969SOL     OW17542   2.346   1.972   2.154  0.0454  0.2375  0.0823
 1969SOL    HW117543   2.337   2.047   2.212  3.2352 -0.5618  1.5813
 1969SOL    HW217544   2.287   2.005   2.086 -0.7527 -0.6486  0.3326
 1970SOL     OW17545   0.181   3.203   3.673  0.3749 -0.0692 -0.4189
 1970SOL    HW117546   0.166   3.233   3.583  2.4906 -0.9796 -1.0654
 1970SOL    HW217547   0.092   3.177   3.696  0.7615 -0.2915  0.7900
 1971SOL     OW17548   3.316   3.240  11.974 -0.0351 -0.0730  0.3072
 1971SOL    HW117549   3.221   3.248  11.975  0.0093  0.7789 -1.7677
 1971SOL    HW217550   3.347   3.297  12.044  1.9038 -0.5018 -0.1885
 1972SOL     OW17551   4.531   3.940   9.528 -0.0162  0.0179  0.0056
 1972SOL    HW117552   4.506   4.025   9.565  1.0905 -0.1496  1.1545
 1972SOL    HW217553   4.456   3.917   9.474 -1.7644 -0.3058  2.5732
 1973SOL     OW17554   1.090   0.469   5.618 -0.2058 -0.3157 -0.0298
 1973SOL    HW117555   1.167   0.479   5.563  0.0335  1.0673  0.5674
 1973SOL    HW217556   1.112   0.394   5.673 -1.5269 -1.2025 -0.6921
 1974SOL     OW17557   3.314   1.063   7.039 -0.4166  0.1978 -0.4339
 1974SOL    HW117558   3.269   1.097   6.962 -1.2254  0.7475  0.2892
 1974SOL    HW217559   3.356   1.145   7.065 -0.4155 -0.5742  1.9655
 1975SOL     OW17560   3.105   3.962   6.282  0.4086  0.1246 -0.7051
 1975SOL    HW117561   3.022   3.930   6.317  0.4169  0.2137 -0.6044
 1975SOL    HW217562   3.112   4.044   6.331 -0.1503  1.4429 -2.7876
 1976SOL     OW17563   2.061   3.895   2.499 -0.5427  0.4173  0.5551
 1976SOL    HW117564   2.031   3.944   2.423  0.5564 -0.8043 -0.6436
 1976SOL    HW217565   1.994   3.921   2.562 -1.8751 -2.1059  0.1525
 1977SOL     OW17566   4.108   0.112   2.164  0.0611  0.0198  0.1910
 1977SOL    HW117567   4.045   0.167   2.210 -0.4579 -0.5959  0.2258
 1977SOL    HW217568   4.187   0.166   2.163  0.3042 -0.3347  0.7323
 1978SOL     OW17569   4.571   3.468   5.092  0.2530 -0.7475  0.5446
 1978SOL    HW117570   4.555   3.459   4.998 -1.2014  0.9285  0.6172
 1978SOL    HW217571   4.608   3.383   5.117  2.5701  0.5167  1.4385
 1979SOL     OW17572   4.688   2.788  16.129 -0.6262 -0.3217  0.0793
 1979SOL    HW117573   0.011   2.798  16.052  2.3806 -0.7350  2.2660
 1979SOL    HW217574   4.626   2.721  16.103  0.8730 -1.8851  0.5599
 1980SOL     OW17575   3.432   1.635   3.773  0.0114  0.1404 -0.5261
 1980SOL    HW117576   3.491   1.564   3.801 -0.2576  1.4668  3.3431
 1980SOL    HW217577   3.360   1.584   3.736  1.9344 -2.6859 -0.3825
 1981SOL     OW17578   2.350   3.176  10.482 -0.1668  0.0905 -0.3088
 1981SOL    HW117579   2.269   3.138  10.516 -0.1684  0.8693  0.5682
 1981SOL    HW217580   2.402   3.098  10.501 -2.6532 -1.5479 -0.1978
 1982SOL     OW17581   3.746   1.346   8.960  0.0877 -0.0247  0.1340
 1982SOL    HW117582   3.654   1.319   8.963 -0.1191  0.8241  1.5347
 1982SOL    HW217583   3.744   1.379   9.050  3.5829 -0.6019  0.4073
 1983SOL     OW17584   3.961   3.403   6.599  0.2044 -0.3696  0.1819
 1983SOL    HW117585   3.882   3.442   6.562  0.3542 -0.5949 -0.3757
 1983SOL    HW217586   3.944   3.311   6.581  0.2989 -0.4014  0.2558
 1984SOL     OW17587   2.153   2.247  16.896  0.0539 -0.3886  0.4995
 1984SOL    HW117588   2.123   2.338  16.889  0.9747 -0.3148 -2.1911
 1984SOL    HW217589   2.075   2.199  16.867 -0.1076 -0.1174  0.4854
 1985SOL     OW17590   1.837   0.065   5.660 -0.4833 -0.4866  0.0380
 1985SOL    HW117591   1.843   0.029   5.749 -0.6126  0.8287  0.5761
 1985SOL    HW217592   1.877   0.152   5.661 -1.5014 -0.0301  2.2551
 1986SOL     OW17593   3.684   0.383   4.405 -0.5492 -0.0418  0.1694
 1986SOL    HW117594   3.700   0.450   4.471 -0.7988  1.1361 -0.9792
 1986SOL    HW217595   3.589   0.380   4.401 -0.6415 -0.8241  3.2411
 1987SOL     OW17596   0.081   2.712   5.828  0.1893  0.3905  0.0214
 1987SOL    HW117597   0.011   2.690   5.766  2.2997  0.8487 -2.5154
 1987SOL    HW217598   0.147   2.736   5.763  0.6460  0.2124  0.4249
 1988SOL     OW17599   2.254   0.108  13.621  0.2366 -0.1565  0.2056
 1988SOL    HW117600   2.301   0.031  13.589  1.8792  1.7881 -2.0588
 1988SOL    HW217601   2.324   0.140  13.677 -0.8307 -1.8124  2.4627
 1989SOL     OW17602   2.122   1.085   1.912 -0.2689  0.4106 -0.2776
 1989SOL    HW117603   2.056   1.151   1.890 -0.0673  0.8024  0.2934
 1989SOL    HW217604   2.188   1.120   1.852 -0.3449  0.4655 -0.3293
 1990SOL     OW17605   0.396   1.117   4.683 -0.6332 -0.2697  0.9020
 1990SOL    HW117606   0.319   1.094   4.735 -1.4036 -1.5550 -0.7913
 1990SOL    HW217607   0.434   1.029   4.684  1.3524  0.5836  0.3263
 1991SOL     OW17608   2.554   3.455   6.035  0.0335  0.2804 -0.1284
 1991SOL    HW117609   2.498   3.445   5.958 -0.4555  0.9493  0.1474
 1991SOL    HW217610   2.503   3.515   6.088  1.0963  2.8562 -2.0120
 1992SOL     OW17611   3.060   3.789   4.332 -0.0670 -0.2422 -0.0316
 1992SOL    HW117612   3.014   3.752   4.408  0.3691 -0.8380 -0.0519
 1992SOL    HW217613   3.150   3.755   4.341  0.6208  2.4276  3.3533
 1993SOL     OW17614   0.739   2.828   4.882 -0.0850  0.3319  0.1162
 1993SOL    HW117615   0.710   2.917   4.900 -1.5727  0.0069 -0.7057
 1993SOL    HW217616   0.830   2.830   4.912  0.2230  2.7859 -1.0337
 1994SOL     OW17617   1.783   0.718   5.327  0.2291 -0.3071  0.2242
 1994SOL    HW117618   1.815   0.712   5.236  1.3089 -0.3937  0.6094
 1994SOL    HW217619   1.717   0.649   5.313  0.8555 -1.0503  0.9609
 1995SOL     OW17620   2.185   3.694   0.730  0.0402  0.1334 -0.3744
 1995SOL    HW117621   2.212   3.634   0.660 -2.2247  2.0007 -2.8353
 1995SOL    HW217622   2.097   3.714   0.698 -0.8194 -1.0897  1.2646
 1996SOL     OW17623   2.689   4.048  11.336  0.0860  0.2626  0.4402
 1996SOL    HW117624   2.698   3.964  11.381  2.6238 -0.5789 -1.6059
 1996SOL    HW217625   2.743   4.045  11.257 -1.4456 -0.6625 -0.5802
 1997SOL     OW17626   1.888   3.676   5.037 -0.7022  0.2002  0.0131
 1997SOL    HW117627   1.921   3.614   4.971 -0.9890 -2.1885  2.1094
 1997SOL    HW217628   1.836   3.623   5.098 -2.8936  0.8858 -1.2637
 1998SOL     OW17629   3.661   2.653   7.930 -0.1191 -0.1299 -0.1633
 1998SOL    HW117630   3.685   2.615   7.846 -1.5072 -2.5235  0.5310
 1998SOL    HW217631   3.718   2.730   7.927 -0.7793  0.3018 -1.8981
 1999SOL     OW17632   0.683   0.062  11.422  0.7725  0.3204  0.0373
 1999SOL    HW117633   0.648   4.709  11.437  1.6814  0.0706  0.7389
 1999SOL    HW217634   0.642   0.061  11.336 -1.1742 -0.9173  0.9770
 2000SOL     OW17635   1.808   1.346   2.131  0.1452  0.5461 -0.0320
 2000SOL    HW117636   1.745   1.395   2.079 -1.1170 -0.1326  0.8770
 2000SOL    HW217637   1.865   1.318   2.060 -1.8521 -1.6113 -0.7772
 2001SOL     OW17638   3.379   1.490   2.133  0.3765 -0.3398 -0.2756
 2001SOL    HW117639   3.437   1.548   2.182 -1.0537  1.2577 -0.4775
 2001SOL    HW217640   3.380   1.419   2.197  3.9742 -0.2992 -0.2876
 2002SOL     OW17641   2.870   2.563   9.311  0.6103  0.1306  0.1064
 2002SOL    HW117642   2.808   2.589   9.243 -0.2059 -3.7504 -0.6520
 2002SOL    HW217643   2.950   2.560   9.260 -1.2301 -1.2460 -2.6821
 2003SOL     OW17644   1.226   0.505   2.552  0.1690 -0.1526  0.3663
 2003SOL    HW117645   1.138   0.531   2.582  1.2502  0.8718  2.6574
 2003SOL    HW217646   1.210   0.449   2.477 -0.1852  0.8262 -0.2948
 2004SOL     OW17647   4.627   3.117   4.174 -0.2889  0.6642 -0.4355
 2004SOL    HW117648   4.616   3.022   4.177 -2.0760  0.7659 -4.5263
 2004SOL    HW217649   4.705   3.122   4.119 -0.9712 -1.4535 -1.6104
 2005SOL     OW17650   1.067   4.662   6.765 -0.2831 -0.1064  0.0224
 2005SOL    HW117651   1.038   4.674   6.675 -0.5945  0.0949  0.1476
 2005SOL    HW217652   1.118   0.008   6.767  0.4577 -0.5230 -2.5647
 2006SOL     OW17653   0.827   2.697   2.347  0.3854  0.6553 -0.1867
 2006SOL    HW117654   0.893   2.766   2.343  1.3028 -0.1304  1.3769
 2006SOL    HW217655   0.803   2.687   2.255 -0.8681  2.3812 -0.0347
 2007SOL     OW17656   0.527   0.953   0.234  0.3089  0.4064 -0.3539
 2007SOL    HW117657   0.500   1.031   0.283  1.0395  0.2075  0.3614
 2007SOL    HW217658   0.598   0.912   0.282 -1.9199 -3.2896 -0.2128
 2008SOL     OW17659   2.941   2.025  13.985  0.0218  0.4924  0.1216
 2008SOL    HW117660   2.970   2.095  14.043  0.1267  1.2549 -0.8591
 2008SOL    HW217661   2.862   2.066  13.948 -0.0967 -0.6655 -0.9067
 2009SOL     OW17662   2.809   2.502   5.728 -0.4928  0.0816  0.2554
 2009SOL    HW117663   2.864   2.546   5.793  0.6080 -0.0441 -0.6036
 2009SOL    HW217664   2.753   2.452   5.788 -1.2905 -1.4414 -1.7670
 2010SOL     OW17665   2.225   3.652   6.827 -0.6704  0.7753  0.7549
 2010SOL    HW117666   2.206   3.744   6.843  1.6593  1.5520 -0.9608
 2010SOL    HW217667   2.281   3.645   6.904  0.2312  1.1293  0.1251
 2011SOL     OW17668   1.208   0.389   8.110 -0.7061  0.3163  0.4934
 2011SOL    HW117669   1.121   0.430   8.117 -0.7553 -0.0097  1.6712
 2011SOL    HW217670   1.267   0.457   8.141  1.9725 -1.0090 -1.7339
 2012SOL     OW17671   0.546   2.199  16.207  0.3528 -0.0633 -0.2837
 2012SOL    HW117672   0.590   2.207  16.292 -1.0110  2.8271  0.1680
 2012SOL    HW217673   0.567   2.108  16.185 -1.5827 -0.0019 -2.4056
 2013SOL     OW17674   1.608   2.044  14.687 -0.2433 -0.6035 -0.1262
 2013SOL    HW117675   1.559   2.118  14.723  0.5566 -0.5107  0.7934
 2013SOL    HW217676   1.558   1.973  14.727 -0.9013  0.8941  1.6829
 2014SOL     OW17677   1.091   1.340  14.973 -1.0513  0.1784 -0.2840
 2014SOL    HW117678   1.089   1.275  15.043 -1.8798  1.0132  0.4739
 2014SOL    HW217679   1.182   1.329  14.944 -1.5736  0.2036 -1.9166
 2015SOL     OW17680   3.682   2.791   1.026 -0.2028 -0.3009  0.1524
 2015SOL    HW117681   3.661   2.868   1.078 -2.1014  1.0273 -2.5344
 2015SOL    HW217682   3.678   2.723   1.094  0.1975 -0.7693 -0.2873
 2016SOL     OW17683   2.865   4.162  12.333  0.0980  0.2408  0.0027
 2016SOL    HW117684   2.937   4.162  12.270 -1.2610 -1.1373 -1.5568
 2016SOL    HW217685   2.809   4.226  12.289  0.7786 -0.0198 -1.2116
 2017SOL     OW17686   4.257   1.081   9.524 -0.0236 -0.5759 -0.1509
 2017SOL    HW117687   4.200   1.131   9.583  1.9483  0.2737  1.0113
 2017SOL    HW217688   4.227   1.111   9.439  1.1072  2.0827  0.3914
 2018SOL     OW17689   1.620   1.347   8.341 -0.1883 -0.2360  0.0186
 2018SOL    HW117690   1.644   1.431   8.300  1.4606 -1.8050 -2.2272
 2018SOL    HW217691   1.678   1.342   8.417 -2.2875  0.5986  1.6914
 2019SOL     OW17692   2.658   1.433  16.139  0.3931  0.5418 -0.5786
 2019SOL    HW117693   2.652   1.357  16.197 -1.7061  0.1091 -1.3677
 2019SOL    HW217694   2.620   1.402  16.057 -1.5903 -0.8195  0.8482
 2020SOL     OW17695   2.952   1.771   2.202  0.2781 -0.2508 -0.0445
 2020SOL    HW117696   3.027   1.807   2.250 -0.2970 -0.9561  1.3794
 2020SOL    HW217697   2.987   1.695   2.155  2.0029  0.8511 -0.5335
 2021SOL     OW17698   2.815   3.439   2.790  0.1170 -0.6280  0.2083
 2021SOL    HW117699   2.762   3.492   2.731 -0.2037 -0.2928  0.7946
 2021SOL    HW217700   2.821   3.361   2.734  2.7658  0.1839 -0.5967
 2022SOL     OW17701   1.793   4.283  17.282  0.0839  0.2642 -0.5068
 2022SOL    HW117702   1.714   4.299  17.334 -0.5696 -0.7784 -1.1957
 2022SOL    HW217703   1.860   4.290  17.350 -0.7425  1.2744  0.2156
 2023SOL     OW17704   2.068   1.185   6.721  0.2705  0.5264 -0.0448
 2023SOL    HW117705   2.147   1.177   6.775 -0.9218  1.6124  1.8191
 2023SOL    HW217706   2.095   1.246   6.651  1.4133 -1.0309 -0.9658
 2024SOL     OW17707   4.706   1.691   5.272  0.1017 -0.1668 -0.2405
 2024SOL    HW117708   4.730   1.662   5.184 -0.5980 -0.6824 -0.2667
 2024SOL    HW217709   4.648   1.764   5.251  0.8098 -0.5228 -3.4403
 2025SOL     OW17710   1.318   1.865   2.822  0.1243 -0.0012  0.6430
 2025SOL    HW117711   1.386   1.920   2.782 -1.9610  2.9428  1.1501
 2025SOL    HW217712   1.246   1.876   2.761 -0.2751 -0.6589  0.9971
 2026SOL     OW17713   4.605   1.075   2.525  0.0610  0.2668 -0.0564
 2026SOL    HW117714   4.548   1.122   2.587  0.8427  1.1363  0.0045
 2026SOL    HW217715   4.543   1.041   2.461 -1.0635  0.8416  0.7059
 2027SOL     OW17716   4.375   1.476   3.761  0.3699 -0.5724 -0.2391
 2027SOL    HW117717   4.367   1.496   3.854 -0.6864 -0.8023 -0.2765
 2027SOL    HW217718   4.288   1.439   3.743  1.0600 -1.4836 -1.6179
 2028SOL     OW17719   3.732   0.478   8.026 -0.1517 -0.2177  0.4386
 2028SOL    HW117720   3.808   0.528   8.056 -0.3280 -0.2740  0.9912
 2028SOL    HW217721   3.670   0.509   8.092  0.1726 -0.7970  1.0162
 2029SOL     OW17722   3.734   4.513   9.418 -0.1038  0.4034  0.1109
 2029SOL    HW117723   3.750   4.479   9.506 -0.6437 -0.2203 -0.0307
 2029SOL    HW217724   3.638   4.513   9.419 -0.0970  1.2529  0.5452
 2030SOL     OW17725   3.525   3.513   1.472  0.0009  0.0595  0.5836
 2030SOL    HW117726   3.614   3.547   1.461 -0.2960  1.2815  2.0394
 2030SOL    HW217727   3.537   3.419   1.461  0.4010  0.4314 -2.3110
 2031SOL     OW17728   4.588   4.649  11.342 -0.1360 -0.3698  0.0698
 2031SOL    HW117729   4.526   4.619  11.409  0.5907 -1.3630  0.2981
 2031SOL    HW217730   4.612   0.006  11.354  2.2308 -1.2671  2.2267
 2032SOL     OW17731   1.512   2.137   5.196  0.3159 -0.1579  0.5439
 2032SOL    HW117732   1.586   2.083   5.170 -0.2703 -0.1784 -1.0919
 2032SOL    HW217733   1.559   2.207   5.241 -1.9242  1.2306  0.7518
 2033SOL     OW17734   0.913   0.881   3.191 -0.0830 -0.4547 -0.2500
 2033SOL    HW117735   0.841   0.819   3.209  1.1537 -1.9308 -0.3630
 2033SOL    HW217736   0.921   0.931   3.271 -1.0204  1.8757 -1.6203
 2034SOL     OW17737   3.335   2.745   0.981 -0.1354  0.1761 -0.4403
 2034SOL    HW117738   3.305   2.701   0.901 -0.6063 -1.6802  0.7616
 2034SOL    HW217739   3.346   2.836   0.953  0.7651 -0.1689 -1.2084
 2035SOL     OW17740   1.069   3.595   2.537 -0.2405  0.1674  0.1313
 2035SOL    HW117741   1.069   3.691   2.537 -2.0873  0.1808  0.2536
 2035SOL    HW217742   0.994   3.576   2.480 -1.2197  1.1309  1.0791
 2036SOL     OW17743   4.587   3.437   9.360  0.0078 -0.1009 -0.0992
 2036SOL    HW117744   4.565   3.520   9.318 -0.2611 -0.0886  0.0660
 2036SOL    HW217745   4.652   3.459   9.426 -0.2579  0.9550 -0.1879
 2037SOL     OW17746   4.327   3.320   5.590  0.4487 -0.0365 -0.1318
 2037SOL    HW117747   4.351   3.228   5.604  0.8125  0.1230  0.3016
 2037SOL    HW217748   4.407   3.365   5.618 -0.3087  0.7578  0.7448
 2038SOL     OW17749   3.439   4.192   7.786  0.3191 -0.2515 -0.1322
 2038SOL    HW117750   3.443   4.097   7.780 -0.9296 -0.3754  0.9552
 2038SOL    HW217751   3.529   4.216   7.806 -0.0122  0.3721  0.5816
 2039SOL     OW17752   0.499   2.522   7.237  0.4540 -0.6383  0.4570
 2039SOL    HW117753   0.580   2.494   7.195  0.2028 -1.6908  0.6815
 2039SOL    HW217754   0.521   2.520   7.331 -2.5721 -0.8497  1.1607
 2040SOL     OW17755   0.948   3.955   0.353  0.2018 -0.2857 -0.4426
 2040SOL    HW117756   1.032   3.969   0.397  0.2511 -1.2081 -0.2428
 2040SOL    HW217757   0.936   4.045   0.324  0.8133 -0.9571 -2.8078
 2041SOL     OW17758   3.763   3.131   9.699  0.2401 -0.1723  0.4992
 2041SOL    HW117759   3.773   3.127   9.794  3.2604  1.6517  0.2298
 2041SOL    HW217760   3.674   3.095   9.697  1.0136 -1.9960 -0.9701
 2042SOL     OW17761   1.010   2.627   6.633  0.2551  0.4163  0.3062
 2042SOL    HW117762   0.984   2.642   6.724  1.3816 -0.9141  0.8410
 2042SOL    HW217763   1.054   2.542   6.634 -1.7414 -0.5858  2.1273
 2043SOL     OW17764   2.358   2.055  14.430  0.4401  0.5113 -0.0934
 2043SOL    HW117765   2.306   2.102  14.364  0.1695 -0.0158 -0.2615
 2043SOL    HW217766   2.387   2.128  14.485  2.3825  0.0235 -0.4667
 2044SOL     OW17767   4.105   1.694  16.581 -0.3359  0.3000 -0.3369
 2044SOL    HW117768   4.097   1.676  16.487  0.2149 -0.0696 -0.3158
 2044SOL    HW217769   4.059   1.777  16.592 -1.0046  0.3143 -3.2462
 2045SOL     OW17770   4.135   2.146   3.084  0.0521  0.1698  0.4571
 2045SOL    HW117771   4.162   2.055   3.070 -0.0189  0.3325 -0.7823
 2045SOL    HW217772   4.130   2.180   2.994 -1.2424  1.1875  0.9035
 2046SOL     OW17773   0.052   2.868   5.041 -0.0604  0.1085  0.5968
 2046SOL    HW117774   4.703   2.891   5.002  0.3429  0.3045 -0.1407
 2046SOL    HW217775   0.107   2.910   4.976 -1.2592 -1.7488 -1.5959
 2047SOL     OW17776   3.612   2.261   3.511 -0.1994 -0.1938  0.3662
 2047SOL    HW117777   3.601   2.167   3.527 -0.8393 -0.0320  0.8435
 2047SOL    HW217778   3.578   2.264   3.421 -0.4931 -0.3095  0.4747
 2048SOL     OW17779   1.263   3.672   1.040 -0.2822  0.6305 -0.3028
 2048SOL    HW117780   1.267   3.720   1.122 -0.1327 -0.0839  0.1086
 2048SOL    HW217781   1.291   3.582   1.055  0.4127  1.0098  0.6250
 2049SOL     OW17782   4.475   0.884   3.946 -0.5013 -0.9066  0.1316
 2049SOL    HW117783   4.405   0.873   4.011 -0.8248 -2.5142 -0.4727
 2049SOL    HW217784   4.549   0.910   4.001 -1.4620  0.3772  0.8141
 2050SOL     OW17785   0.113   4.569   1.042  0.1653  0.0333  0.4764
 2050SOL    HW117786   0.139   4.653   1.079  1.5175  0.4688 -1.4424
 2050SOL    HW217787   0.179   4.559   0.973 -0.9266  0.8460 -0.6894
 2051SOL     OW17788   3.200   1.773   6.466 -0.0221 -0.5867 -0.4149
 2051SOL    HW117789   3.142   1.849   6.473  2.0875  1.1254 -1.5278
 2051SOL    HW217790   3.176   1.739   6.380 -0.6614 -0.1666 -0.4030
 2052SOL     OW17791   0.648   3.848  17.080 -0.5827 -0.3439  0.2001
 2052SOL    HW117792   0.722   3.908  17.080 -2.4536  1.9714  0.3115
 2052SOL    HW217793   0.582   3.904  17.121 -0.0894  1.3545 -1.3056
 2053SOL     OW17794   2.397   0.006   1.717  0.6304 -0.3116 -0.3501
 2053SOL    HW117795   2.416   0.051   1.799  0.6650 -0.4728 -0.2688
 2053SOL    HW217796   2.482   4.707   1.692  0.0206 -1.6505 -0.6254
 2054SOL     OW17797   4.555   0.605   4.778  0.7970  0.0475 -0.4903
 2054SOL    HW117798   4.488   0.673   4.783  1.0627  0.3431 -0.8842
 2054SOL    HW217799   4.596   0.619   4.864  1.5354 -0.6078 -0.7386
 2055SOL     OW17800   3.724   0.755   9.378  0.5337 -0.3905 -0.7687
 2055SOL    HW117801   3.643   0.802   9.356 -0.3634 -1.3265  0.5248
 2055SOL    HW217802   3.690   0.695   9.444  0.7102 -1.8704 -2.0269
 2056SOL     OW17803   4.551   0.013   1.048 -0.4176 -0.5294 -0.2244
 2056SOL    HW117804   4.507   4.663   1.041  0.0767 -0.9549  1.9106
 2056SOL    HW217805   4.579   0.022   1.139 -0.2571 -1.4232 -0.1873
 2057SOL     OW17806   4.538   2.958   1.326 -0.1627 -0.4390  0.0744
 2057SOL    HW117807   4.524   2.873   1.366  0.0008 -0.5613 -0.1261
 2057SOL    HW217808   4.474   2.956   1.255  0.6633 -0.1143 -0.6940
 2058SOL     OW17809   1.736   3.903   9.221  0.7137 -0.6633  0.4772
 2058SOL    HW117810   1.704   3.926   9.308  0.4341  0.6677  0.0231
 2058SOL    HW217811   1.668   3.955   9.177  1.1403  0.4586  1.1413
 2059SOL     OW17812   2.076   4.419   4.412  0.1103  0.0841 -0.0722
 2059SOL    HW117813   2.128   4.475   4.355 -0.7915  0.0839 -0.8986
 2059SOL    HW217814   1.998   4.398   4.360 -1.4120  1.4454  1.6910
 2060SOL     OW17815   2.850   4.632   0.998 -0.0722  0.0283  0.0926
 2060SOL    HW117816   2.870   4.568   1.067 -1.7398 -2.7849 -2.0000
 2060SOL    HW217817   2.906   4.607   0.924 -1.0849  0.4112 -0.8004
 2061SOL     OW17818   1.119   0.500   4.001  0.7889  0.2044 -0.9908
 2061SOL    HW117819   1.209   0.530   4.010 -1.3922  5.5053  2.6379
 2061SOL    HW217820   1.111   0.474   3.909  1.5886 -0.7565 -0.7899
 2062SOL     OW17821   0.154   3.465   1.731 -0.1565 -0.8545 -0.5605
 2062SOL    HW117822   0.074   3.413   1.737  1.0211 -2.5086  0.9327
 2062SOL    HW217823   0.119   3.550   1.756  1.4005 -0.9345  1.9264
 2063SOL     OW17824   0.495   4.508   9.161  0.3241 -0.1346 -0.5045
 2063SOL    HW117825   0.403   4.486   9.175  0.2300  0.7073  0.1340
 2063SOL    HW217826   0.487   4.601   9.182  0.2022 -0.4130  0.6787
 2064SOL     OW17827   4.410   3.872   8.842 -0.2220  0.1643  0.1495
 2064SOL    HW117828   4.393   3.941   8.906 -1.3195  1.4029 -1.4893
 2064SOL    HW217829   4.351   3.799   8.861 -0.1124  0.2239  0.7344
 2065SOL     OW17830   3.161   0.487   5.753 -0.4750  0.1262 -0.0151
 2065SOL    HW117831   3.194   0.399   5.771  2.7939  1.2228 -0.6679
 2065SOL    HW217832   3.159   0.497   5.658  4.3265 -0.5427 -0.1572
 2066SOL     OW17833   2.463   1.117   3.169 -0.2442 -0.2824  0.3141
 2066SOL    HW117834   2.417   1.178   3.227  1.9656  1.4614  0.2219
 2066SOL    HW217835   2.397   1.129   3.101  0.7456 -2.1755 -0.9791
 2067SOL     OW17836   1.802   1.404   6.719  0.4997  0.4309  0.1456
 2067SOL    HW117837   1.807   1.383   6.626 -1.9897 -1.0233  0.3385
 2067SOL    HW217838   1.890   1.421   6.753  0.5345  3.2254 -1.3969
 2068SOL     OW17839   1.215   1.588   0.330 -0.5668  0.2821  0.0414
 2068SOL    HW117840   1.200   1.666   0.383 -2.6134  0.3886 -0.6756
 2068SOL    HW217841   1.144   1.606   0.268 -0.4273 -0.1948 -0.2578
 2069SOL     OW17842   2.280   4.201   2.748 -0.5970 -0.7762 -0.8431
 2069SOL    HW117843   2.352   4.197   2.811 -2.1362 -1.2878  0.8632
 2069SOL    HW217844   2.316   4.269   2.691 -2.8148 -0.1909 -1.5681
 2070SOL     OW17845   2.542   2.293   4.518  0.0766  0.8784 -0.1294
 2070SOL    HW117846   2.566   2.201   4.527 -2.7562  0.0575 -0.6992
 2070SOL    HW217847   2.543   2.321   4.609 -0.8675  1.8826 -0.4209
 2071SOL     OW17848   1.347   2.351   5.474 -0.3963 -0.5487 -0.3650
 2071SOL    HW117849   1.292   2.351   5.395 -2.2457  1.4021  0.9476
 2071SOL    HW217850   1.349   2.258   5.497 -0.0477 -0.0444  1.6068
 2072SOL     OW17851   1.054   3.140   4.100 -0.2834 -0.3659 -0.1664
 2072SOL    HW117852   1.031   3.196   4.174 -0.0724 -2.3583  1.4083
 2072SOL    HW217853   0.994   3.171   4.032 -0.0215 -2.1427 -1.2117
 2073SOL     OW17854   2.364   3.160   5.746  0.0560 -0.7745  0.4813
 2073SOL    HW117855   2.269   3.172   5.747  0.2341  0.7812 -0.5902
 2073SOL    HW217856   2.385   3.206   5.665 -0.1119 -2.1807 -0.3596
 2074SOL     OW17857   0.978   4.398  17.049 -0.2807  0.4985  0.4302
 2074SOL    HW117858   0.906   4.449  17.013  0.5291 -0.8556 -3.1009
 2074SOL    HW217859   1.049   4.442  17.003 -0.9801 -0.7493 -1.8217
 2075SOL     OW17860   4.309   0.522  12.776  0.0347 -0.7125 -0.7323
 2075SOL    HW117861   4.258   0.459  12.724 -1.4787  1.7833 -2.2646
 2075SOL    HW217862   4.338   0.585  12.711  2.0752 -1.5499 -0.6248
 2076SOL     OW17863   1.492   0.737  17.255  0.1606 -0.8277 -0.0194
 2076SOL    HW117864   1.499   0.670  17.187 -0.1935  1.0819 -1.9329
 2076SOL    HW217865   1.402   0.767  17.244 -0.3117 -2.0952  0.3759
 2077SOL     OW17866   4.037   2.932   4.746 -0.4468  0.6588 -0.1740
 2077SOL    HW117867   3.968   2.998   4.753 -0.7394  0.2296  0.9385
 2077SOL    HW217868   4.051   2.893   4.832  0.3410  0.4467 -0.3973
 2078SOL     OW17869   1.257   4.053   7.965 -0.1076 -0.0876  0.5837
 2078SOL    HW117870   1.265   3.990   8.036  3.0748  0.7733  0.9993
 2078SOL    HW217871   1.173   4.026   7.929  0.4195  0.8883 -1.4062
 2079SOL     OW17872   2.973   3.029  15.174  0.7226 -0.1415 -0.2315
 2079SOL    HW117873   3.011   3.032  15.086  0.7886 -0.8459 -0.2344
 2079SOL    HW217874   2.933   2.941  15.171  1.0260 -0.2204 -1.8854
 2080SOL     OW17875   1.492   3.728   5.190 -0.2595  0.3382  0.0760
 2080SOL    HW117876   1.582   3.700   5.203  0.1599  0.2987 -3.0715
 2080SOL    HW217877   1.459   3.717   5.280  1.5414  0.2083  0.7256
 2081SOL     OW17878   2.729   1.393   3.267 -0.4411  0.5752 -0.5014
 2081SOL    HW117879   2.733   1.405   3.173  0.8184 -1.3063 -0.6945
 2081SOL    HW217880   2.815   1.418   3.299 -0.3113 -1.1672  0.5296
 2082SOL     OW17881   2.905   3.537   9.558 -0.1221 -0.0328 -0.2897
 2082SOL    HW117882   2.908   3.446   9.586  0.8215 -0.4841 -1.8269
 2082SOL    HW217883   2.995   3.557   9.585 -1.3288  1.6502  2.4355
 2083SOL     OW17884   4.002   4.029   9.644  0.5068  0.1136  0.2090
 2083SOL    HW117885   4.048   4.044   9.562  1.9346  0.4346  1.0700
 2083SOL    HW217886   4.058   3.956   9.669  1.0449  0.5536  0.2876
 2084SOL     OW17887   4.548   2.107   6.719  0.8563  0.1190 -0.0872
 2084SOL    HW117888   4.632   2.075   6.750  1.5403  1.3838 -0.6552
 2084SOL    HW217889   4.489   2.087   6.791  0.7339 -0.6441 -0.4037
 2085SOL     OW17890   4.148   1.775  13.194 -0.3118  0.2646  0.0177
 2085SOL    HW117891   4.243   1.763  13.200 -0.3025  1.0233  1.4365
 2085SOL    HW217892   4.128   1.704  13.255 -0.5884  0.0107 -0.3694
 2086SOL     OW17893   3.270   1.621   7.890  0.3417 -0.4872 -0.8293
 2086SOL    HW117894   3.240   1.587   7.805 -2.7112  0.0546  0.0332
 2086SOL    HW217895   3.225   1.705   7.894  0.2877 -0.6265  1.2513
 2087SOL     OW17896   3.879   3.645   8.112  1.1883 -0.1066  0.0848
 2087SOL    HW117897   3.914   3.629   8.199  0.3536 -2.1248  0.0394
 2087SOL    HW217898   3.793   3.686   8.124  0.1074 -2.4399  0.3480
 2088SOL     OW17899   0.942   1.192   9.431  0.2916  0.0305 -0.2706
 2088SOL    HW117900   0.991   1.109   9.425  0.1768 -0.1405  1.1050
 2088SOL    HW217901   0.983   1.232   9.507 -0.4522 -0.5487  0.4365
 2089SOL     OW17902   1.072   4.102  12.588 -0.7791  0.0340  0.0031
 2089SOL    HW117903   1.055   4.191  12.559  2.5690  0.6008 -0.1702
 2089SOL    HW217904   1.057   4.102  12.683  1.3548  0.4931  0.3455
 2090SOL     OW17905   3.593   3.299   6.574 -0.2379  0.0216  0.3806
 2090SOL    HW117906   3.636   3.373   6.617  3.0788 -1.9053  0.3504
 2090SOL    HW217907   3.656   3.228   6.585 -0.6373 -0.5274 -0.9661
 2091SOL     OW17908   4.701   0.031   7.964 -0.1973 -0.1929 -0.2459
 2091SOL    HW117909   4.641   0.020   8.038 -0.8083  1.8955 -0.4547
 2091SOL    HW217910   4.688   4.682   7.918  0.0001 -1.7348  2.5085
 2092SOL     OW17911   4.558   2.006   3.424 -0.0979  0.1589 -0.4044
 2092SOL    HW117912   4.477   1.986   3.472 -0.3397 -1.9365 -1.6878
 2092SOL    HW217913   4.533   2.009   3.332  1.4425  1.5140 -0.7913
 2093SOL     OW17914   0.159   4.256   6.260 -0.3488 -0.7699  0.0962
 2093SOL    HW117915   0.194   4.240   6.172  0.9957 -1.0148  0.6805
 2093SOL    HW217916   0.216   4.330   6.281 -1.4323  0.1058 -0.0269
 2094SOL     OW17917   4.232   4.041  13.075  0.1763  0.2323  0.2456
 2094SOL    HW117918   4.320   4.037  13.112  0.7108  0.8289 -0.9521
 2094SOL    HW217919   4.223   3.947  13.056  2.5815 -0.1503  0.9045
 2095SOL     OW17920   2.288   4.226   6.804  0.1297 -0.1462  0.1085
 2095SOL    HW117921   2.239   4.172   6.865 -1.1955  0.7131 -0.2025
 2095SOL    HW217922   2.246   4.312   6.808  0.1668 -0.2171  1.8916
 2096SOL     OW17923   1.234   1.253   9.040 -0.4765  0.2930 -0.1935
 2096SOL    HW117924   1.275   1.201   8.971 -1.4916 -0.2373 -0.4024
 2096SOL    HW217925   1.163   1.195   9.067  0.8664 -1.2516  0.0532
 2097SOL     OW17926   1.131   0.524   6.832  0.6831 -0.0128 -0.3638
 2097SOL    HW117927   1.074   0.478   6.893  0.2004  0.9241 -0.1104
 2097SOL    HW217928   1.143   0.613   6.864  0.0707 -0.1852  0.3221
 2098SOL     OW17929   0.212   0.866   3.280 -0.1412 -0.0518 -0.4183
 2098SOL    HW117930   0.211   0.924   3.204  1.1354  0.0061 -0.3984
 2098SOL    HW217931   0.214   0.786   3.227  1.2420  0.2456 -0.8168
 2099SOL     OW17932   3.267   1.166  14.149 -0.4126  0.2348  0.2660
 2099SOL    HW117933   3.184   1.171  14.103 -0.0327  0.2948 -0.4204
 2099SOL    HW217934   3.253   1.100  14.217 -1.2888  2.6734  2.4823
 2100SOL     OW17935   4.429   4.474   7.621 -0.2536  0.1895 -1.3015
 2100SOL    HW117936   4.336   4.471   7.603 -0.9713 -1.7671  2.6103
 2100SOL    HW217937   4.476   4.518   7.550 -1.1462 -0.1888 -2.1276
 2101SOL     OW17938   4.231   1.265   2.182 -0.5446  0.1929 -0.0964
 2101SOL    HW117939   4.229   1.170   2.193 -1.9665  0.3165  0.6077
 2101SOL    HW217940   4.283   1.256   2.102 -0.3157 -1.1440  0.2097
 2102SOL     OW17941   3.472   1.167   7.419  0.3708 -0.3667 -0.6313
 2102SOL    HW117942   3.465   1.183   7.325  1.0675  0.3346 -0.5633
 2102SOL    HW217943   3.420   1.087   7.424 -0.9992  0.5380 -0.0492
 2103SOL     OW17944   1.450   4.620   6.038 -0.6430  0.2827 -0.2052
 2103SOL    HW117945   1.426   4.700   6.085  0.6371  1.0501 -0.8639
 2103SOL    HW217946   1.398   4.558   6.089 -0.2161 -1.4014 -1.8003
 2104SOL     OW17947   0.090   3.923   9.057  0.7450 -0.3464 -0.4029
 2104SOL    HW117948   0.170   3.916   9.005  0.1657  0.3860 -1.3885
 2104SOL    HW217949   0.030   3.872   9.003 -0.6544  2.9459 -1.9736
 2105SOL     OW17950   4.234   2.259   0.395  0.1130 -0.3705  0.3982
 2105SOL    HW117951   4.143   2.234   0.383  0.5211 -0.0717 -3.2986
 2105SOL    HW217952   4.248   2.325   0.327  3.1158 -0.2793  1.1052
 2106SOL     OW17953   1.550   0.986   0.913 -0.0957  0.6427 -0.1436
 2106SOL    HW117954   1.509   0.957   0.994  0.7585 -2.0653 -0.6966
 2106SOL    HW217955   1.607   0.913   0.890  2.0010  1.0914  3.6342
 2107SOL     OW17956   0.429   4.397   7.086  0.4180  0.2282 -0.1903
 2107SOL    HW117957   0.387   4.339   7.021  0.2081 -0.4574  0.5577
 2107SOL    HW217958   0.357   4.426   7.141  0.9172 -0.6467  0.9244
 2108SOL     OW17959   3.595   0.221   2.639 -0.2096 -0.2283  0.2803
 2108SOL    HW117960   3.640   0.281   2.698  1.1360  0.0843 -1.0674
 2108SOL    HW217961   3.603   0.140   2.689 -0.4243 -0.3137  0.1758
 2109SOL     OW17962   0.491   4.344   0.506 -0.0786 -0.0696 -0.6654
 2109SOL    HW117963   0.542   4.266   0.484  1.0726  0.1849  1.1402
 2109SOL    HW217964   0.565   4.397   0.536 -0.4604  0.9640 -1.5573
 2110SOL     OW17965   1.215   1.130  17.608 -0.0502  0.0724  0.6212
 2110SOL    HW117966   1.276   1.172  17.668 -0.2345  1.5928 -0.2437
 2110SOL    HW217967   1.208   1.199  17.542 -0.9186  0.0699  0.7130
 2111SOL     OW17968   2.104   2.185   1.131  0.0354  0.4849  0.2800
 2111SOL    HW117969   2.089   2.154   1.220  0.7439  3.1234  1.3241
 2111SOL    HW217970   2.193   2.216   1.150  1.0753 -1.9894 -0.4626
 2112SOL     OW17971   3.185   0.927  14.977  0.0680 -0.3420  0.4273
 2112SOL    HW117972   3.141   0.897  14.897 -1.6807 -2.2918  2.1348
 2112SOL    HW217973   3.179   0.842  15.020 -3.3773 -0.9900 -1.3401
 2113SOL     OW17974   0.998   0.497   5.064 -0.6974 -0.5888 -0.4267
 2113SOL    HW117975   1.077   0.536   5.103 -0.3763 -1.4474 -0.2211
 2113SOL    HW217976   0.927   0.543   5.110 -1.5441 -0.9572 -1.3856
 2114SOL     OW17977   4.618   4.110   3.546 -0.5348 -0.5861  0.3328
 2114SOL    HW117978   4.610   4.083   3.454  0.2264 -2.5831  0.8542
 2114SOL    HW217979   4.600   4.033   3.600  0.1598 -0.1885  1.1339
 2115SOL     OW17980   3.245   1.559   3.335  0.3970 -0.1445 -0.7652
 2115SOL    HW117981   3.211   1.471   3.317  1.7791 -1.3630  2.7900
 2115SOL    HW217982   3.317   1.552   3.273  0.5685  0.1841 -0.5986
 2116SOL     OW17983   0.660   0.263   3.382  0.6171 -0.3765  0.0104
 2116SOL    HW117984   0.681   0.237   3.293 -1.7465  0.7574 -0.8878
 2116SOL    HW217985   0.607   0.340   3.362  1.8180  0.2665 -0.6716
 2117SOL     OW17986   2.642   3.532  14.330 -0.2691  0.0149  0.2447
 2117SOL    HW117987   2.593   3.560  14.407 -0.8486 -1.6864  0.4721
 2117SOL    HW217988   2.582   3.471  14.288  0.7080 -0.1392 -0.9580
 2118SOL     OW17989   1.998   1.729   5.358  0.3206 -0.2081  0.1949
 2118SOL    HW117990   2.001   1.760   5.268 -0.7221 -0.0327  0.2193
 2118SOL    HW217991   2.023   1.638   5.345 -2.1468 -0.8386 -0.0934
 2119SOL     OW17992   2.676   0.113   7.167 -0.4766  0.2100 -0.3675
 2119SOL    HW117993   2.711   0.024   7.170 -0.6342  0.2487  3.3399
 2119SOL    HW217994   2.606   0.105   7.232 -0.6228  1.5150 -0.3718
 2120SOL     OW17995   3.533   4.552   8.384  0.5424  0.3629 -0.2236
 2120SOL    HW117996   3.583   4.476   8.354 -1.7102 -1.0391 -0.3796
 2120SOL    HW217997   3.603   4.609   8.417 -0.3873  2.3975 -1.7201
 2121SOL     OW17998   1.855   3.120   9.115  0.1378 -0.1689  0.5179
 2121SOL    HW117999   1.810   3.096   9.196  0.4257  0.8023  0.9722
 2121SOL    HW218000   1.781   3.143   9.059 -0.6328  0.1579  1.6572
 2122SOL     OW18001   3.626   3.862   8.933  1.0858  0.7770 -0.0594
 2122SOL    HW118002   3.640   3.952   8.903 -0.1267  1.2059  0.6524
 2122SOL    HW218003   3.690   3.820   8.876 -1.2970 -0.8813 -1.4995
 2123SOL     OW18004   0.659   0.959   5.870 -0.0902  0.0384  0.0399
 2123SOL    HW118005   0.681   1.004   5.789 -0.3570 -2.6628 -1.5081
 2123SOL    HW218006   0.667   0.866   5.849  0.0273  0.0848 -0.1142
 2124SOL     OW18007   4.396   1.879   3.622  0.0864 -0.4862 -0.4603
 2124SOL    HW118008   4.475   1.826   3.607  2.1495  2.3662  0.2728
 2124SOL    HW218009   4.392   1.864   3.717 -0.2833 -2.9593 -0.8581
 2125SOL     OW18010   2.510   4.273   8.629 -0.0707  0.1898  0.7780
 2125SOL    HW118011   2.591   4.261   8.678  1.1163 -1.5067 -1.5690
 2125SOL    HW218012   2.449   4.231   8.690  0.1466  2.4537  2.5197
 2126SOL     OW18013   3.013   4.034   0.205 -0.1078  0.1470  0.7203
 2126SOL    HW118014   3.030   3.949   0.246 -0.0417 -0.3160 -0.2562
 2126SOL    HW218015   3.061   4.025   0.123 -2.1476 -1.6400 -0.2986
 2127SOL     OW18016   4.628   3.369  17.548 -0.0551 -0.0335  0.1621
 2127SOL    HW118017   4.577   3.290  17.567 -0.8419  1.1406  2.8448
 2127SOL    HW218018   4.703   3.355  17.606 -0.3217 -2.3807 -0.0443
 2128SOL     OW18019   3.917   0.953   9.859 -0.0517 -0.0234  0.2541
 2128SOL    HW118020   3.849   0.916   9.916 -0.5259 -0.4303 -0.5761
 2128SOL    HW218021   3.875   0.937   9.774 -1.6517 -0.0874  1.0535
 2129SOL     OW18022   3.095   0.388  14.169  0.4396  0.2751 -1.0049
 2129SOL    HW118023   3.040   0.354  14.239  0.6125  1.8952 -0.0581
 2129SOL    HW218024   3.180   0.368  14.208  0.2906 -1.9726 -1.8171
 2130SOL     OW18025   0.916   3.554  17.044  0.0973 -0.5792  0.1666
 2130SOL    HW118026   0.925   3.511  17.129 -0.3506  0.1005  0.5608
 2130SOL    HW218027   0.969   3.632  17.059 -1.2663  0.3340  0.2896
 2131SOL     OW18028   0.360   2.265   7.203 -0.1643 -0.3350 -0.0277
 2131SOL    HW118029   0.381   2.356   7.224 -0.8561 -0.1397 -0.1634
 2131SOL    HW218030   0.264   2.265   7.195 -0.4411 -3.3166  3.6852
 2132SOL     OW18031   3.103   2.586   8.215  0.5078 -0.0686 -0.0859
 2132SOL    HW118032   3.198   2.578   8.219  0.5504  1.1355  1.3475
 2132SOL    HW218033   3.081   2.627   8.299  0.3405 -1.2484  0.4515
 2133SOL     OW18034   2.610   4.436   1.757  0.4199 -0.3764  0.0281
 2133SOL    HW118035   2.589   4.486   1.678  3.1442  0.1556 -0.3474
 2133SOL    HW218036   2.602   4.505   1.822  0.3054 -0.2042 -0.1704
 2134SOL     OW18037   2.642   0.593   3.856  0.0516  0.1011 -0.3377
 2134SOL    HW118038   2.565   0.597   3.912  0.0253 -1.3256 -0.2633
 2134SOL    HW218039   2.684   0.679   3.859 -1.1354  0.6859 -0.9842
 2135SOL     OW18040   3.321   1.259  13.832  0.0320  0.0013  0.4201
 2135SOL    HW118041   3.274   1.227  13.909 -1.0559  1.2595  0.2604
 2135SOL    HW218042   3.259   1.236  13.764 -3.2050  0.3805  3.2405
 2136SOL     OW18043   0.186   1.770   7.004  0.3368 -0.2456  0.1680
 2136SOL    HW118044   0.246   1.746   7.075  0.5758 -0.2706 -0.0417
 2136SOL    HW218045   0.244   1.828   6.954 -1.1079  2.2795  1.4010
 2137SOL     OW18046   0.565   2.302  14.152  0.1642  0.3651 -0.2956
 2137SOL    HW118047   0.503   2.366  14.115  1.1595  2.0779  0.9809
 2137SOL    HW218048   0.599   2.257  14.074  1.1108 -0.7481  0.7689
 2138SOL     OW18049   3.857   0.749  14.036 -0.0475 -0.4808  0.2759
 2138SOL    HW118050   3.906   0.741  13.954 -2.3170  0.3634 -1.1694
 2138SOL    HW218051   3.812   0.833  14.020  0.7565 -0.1015  0.0066
 2139SOL     OW18052   4.243   3.710   6.586 -0.0062  0.6304  0.3056
 2139SOL    HW118053   4.220   3.746   6.500  0.9295  0.0110 -0.2097
 2139SOL    HW218054   4.177   3.731   6.652 -0.5737 -0.3898  0.0570
 2140SOL     OW18055   4.680   2.942   9.167 -0.3182  0.6369  0.2611
 2140SOL    HW118056   4.680   2.887   9.088  2.9041  0.7017  0.2287
 2140SOL    HW218057   0.002   3.017   9.151 -0.9554  1.2879  1.0077
 2141SOL     OW18058   4.146   3.417   2.256  0.3018 -0.4507 -0.8548
 2141SOL    HW118059   4.123   3.447   2.343  1.3993 -1.6230 -0.1642
 2141SOL    HW218060   4.061   3.423   2.211 -0.4747 -1.2142  0.4986
 2142SOL     OW18061   0.541   2.883   0.241 -0.4255 -0.2177  0.4561
 2142SOL    HW118062   0.616   2.824   0.234 -0.5534 -0.1287 -1.7669
 2142SOL    HW218063   0.593   2.959   0.269 -1.0962  0.3034  0.2840
 2143SOL     OW18064   3.143   2.307   6.628  0.3404 -0.1995 -0.3699
 2143SOL    HW118065   3.086   2.372   6.670 -1.8845 -2.2599 -0.1837
 2143SOL    HW218066   3.080   2.258   6.574  0.8195 -0.4683 -0.6852
 2144SOL     OW18067   2.409   1.746  11.265  0.1936 -0.1652  0.1555
 2144SOL    HW118068   2.446   1.734  11.352 -0.8478  0.0328  0.6186
 2144SOL    HW218069   2.402   1.841  11.254 -1.0593 -0.4986 -2.0603
 2145SOL     OW18070   2.068   1.496   9.991 -0.2633 -0.4745  0.1338
 2145SOL    HW118071   1.999   1.476  10.055 -0.7241  3.2334  0.7763
 2145SOL    HW218072   2.144   1.517  10.046 -0.5868 -0.2486  0.4969
 2146SOL     OW18073   3.995   3.736   2.822 -0.4573 -0.0754  0.0907
 2146SOL    HW118074   4.009   3.646   2.791 -0.8404 -1.3870  3.7196
 2146SOL    HW218075   3.974   3.781   2.740  1.3593 -0.8900 -0.8210
 2147SOL     OW18076   1.675   3.851   2.083 -0.0793 -0.3223 -0.2318
 2147SOL    HW118077   1.681   3.855   2.178  1.3980  2.7678 -0.4704
 2147SOL    HW218078   1.600   3.907   2.064 -1.1476 -2.1022 -1.3636
 2148SOL     OW18079   0.558   1.461   5.413 -0.1916 -0.3158  0.1728
 2148SOL    HW118080   0.574   1.479   5.320  0.2684  0.3154  0.3720
 2148SOL    HW218081   0.468   1.430   5.416 -0.2122 -0.2215  0.5088
 2149SOL     OW18082   3.122   1.862  15.747 -0.1274  0.2720  0.2132
 2149SOL    HW118083   3.178   1.842  15.672 -0.9864  1.2411 -0.6956
 2149SOL    HW218084   3.066   1.937  15.722  0.6961  1.2773  1.4044
 2150SOL     OW18085   1.925   4.072   1.818 -0.3862 -0.0374  0.1070
 2150SOL    HW118086   1.871   4.141   1.856  0.0428  0.0314  0.5957
 2150SOL    HW218087   1.869   3.996   1.832 -0.0675 -0.6711 -2.0735
 2151SOL     OW18088   0.674   4.697   2.941  0.7419  0.1588 -0.4387
 2151SOL    HW118089   0.700   4.622   2.888  1.1709 -1.1929  1.6908
 2151SOL    HW218090   0.757   4.705   2.988 -0.2442  0.0462  1.2962
 2152SOL     OW18091   4.190   2.800   7.836 -0.8056 -0.2984 -0.1849
 2152SOL    HW118092   4.174   2.784   7.929 -1.5354  2.3441  0.1478
 2152SOL    HW218093   4.143   2.725   7.800  2.7758 -1.1736 -2.9866
 2153SOL     OW18094   4.399   2.560  11.692 -0.0449 -0.2828 -0.4758
 2153SOL    HW118095   4.396   2.653  11.715 -3.0854 -0.3124 -0.8687
 2153SOL    HW218096   4.476   2.552  11.635  1.2401  2.4898  0.8398
 2154SOL     OW18097   2.989   0.726   1.256  0.0531  0.5573 -0.2534
 2154SOL    HW118098   2.897   0.702   1.243  0.2966  0.1137 -1.1212
 2154SOL    HW218099   3.000   0.803   1.201  0.9982  0.6879  0.1268
 2155SOL     OW18100   2.563   0.320  15.472 -0.2954  0.3334  0.0505
 2155SOL    HW118101   2.514   0.377  15.530 -0.6149  0.1262 -0.0144
 2155SOL    HW218102   2.496   0.254  15.454 -1.0251  1.2252 -0.4893
 2156SOL     OW18103   0.230   1.737   4.444  0.7440  0.1140 -0.5035
 2156SOL    HW118104   0.217   1.643   4.457  3.2205 -0.4382 -1.9162
 2156SOL    HW218105   0.222   1.751   4.350  2.2933  2.5243 -0.2568
 2157SOL     OW18106   0.529   4.684  15.422  0.1210 -0.0167 -0.5552
 2157SOL    HW118107   0.585   4.685  15.500 -2.7637 -2.0965  1.5450
 2157SOL    HW218108   0.595   4.701  15.355  0.3164 -0.8330 -0.5715
 2158SOL     OW18109   0.150   2.820   3.487  0.3356 -0.0229  0.0338
 2158SOL    HW118110   0.210   2.755   3.450 -0.5694 -0.6053 -0.4079
 2158SOL    HW218111   0.092   2.843   3.414 -1.9041 -0.0460  1.8156
 2159SOL     OW18112   3.527   1.057  15.095 -0.7732  0.1453  0.3703
 2159SOL    HW118113   3.514   1.074  15.002  0.6187 -0.2385  0.1085
 2159SOL    HW218114   3.485   0.972  15.106  1.5936 -1.0400  0.0634
 2160SOL     OW18115   0.262   0.734   6.032  0.2048 -0.5629 -0.1128
 2160SOL    HW118116   0.311   0.658   6.063  0.9939 -0.7255 -1.7335
 2160SOL    HW218117   0.292   0.803   6.091  0.8442 -1.6718  0.8480
 2161SOL     OW18118   0.303   2.422   9.444 -0.6715  0.0061 -0.8171
 2161SOL    HW118119   0.270   2.456   9.360  0.7645  1.1374 -0.9255
 2161SOL    HW218120   0.334   2.499   9.492 -0.0391 -0.1894 -0.9161
 2162SOL     OW18121   2.825   0.415   2.504 -0.6162 -0.0061 -0.2177
 2162SOL    HW118122   2.828   0.455   2.591 -0.6613 -2.6804  1.0252
 2162SOL    HW218123   2.874   0.336   2.527 -0.4541  1.1263  3.4000
 2163SOL     OW18124   2.418   1.704  11.579 -0.4806 -0.3861  0.2162
 2163SOL    HW118125   2.509   1.727  11.600 -0.9842 -1.1519  3.2692
 2163SOL    HW218126   2.420   1.608  11.575 -0.8971 -0.5054  2.8138
 2164SOL     OW18127   4.041   4.412   3.191 -0.4327 -0.3692 -0.0248
 2164SOL    HW118128   4.020   4.479   3.126 -0.1484 -0.5173 -0.2633
 2164SOL    HW218129   3.989   4.456   3.259  1.7091  1.9058  0.1346
 2165SOL     OW18130   3.177   1.841   4.892 -0.1359  0.5920 -0.0952
 2165SOL    HW118131   3.096   1.872   4.851 -0.1103 -0.0497 -0.6326
 2165SOL    HW218132   3.203   1.924   4.930  0.8455  0.0196  0.4802
 2166SOL     OW18133   0.301   0.912   0.942 -0.3341  0.5435 -0.4833
 2166SOL    HW118134   0.283   0.831   0.990 -0.1253  0.8461  0.1083
 2166SOL    HW218135   0.327   0.887   0.853 -2.0030 -0.8899 -0.5733
 2167SOL     OW18136   2.901   2.713   3.992  0.2313  0.0694  0.5173
 2167SOL    HW118137   2.979   2.734   3.940  0.2040  0.3387  0.5848
 2167SOL    HW218138   2.858   2.794   3.965 -0.5410 -0.8864 -1.0992
 2168SOL     OW18139   2.522   2.388  13.853  0.1624 -0.7472 -0.8439
 2168SOL    HW118140   2.481   2.302  13.843  0.3929 -0.9436 -0.1102
 2168SOL    HW218141   2.482   2.440  13.784 -1.4062 -0.7786  0.0519
 2169SOL     OW18142   2.421   3.246   7.971  0.3608 -0.5284  0.2047
 2169SOL    HW118143   2.391   3.173   8.025  0.2226 -0.4394  0.2483
 2169SOL    HW218144   2.340   3.252   7.922 -0.0206 -1.2498  0.7447
 2170SOL     OW18145   3.270   0.976   8.381 -0.0712  0.1137  0.4172
 2170SOL    HW118146   3.314   0.896   8.409  1.0719  0.1573 -1.2444
 2170SOL    HW218147   3.342   1.020   8.336  1.0817 -2.1742  0.0397
 2171SOL     OW18148   1.851   4.037  17.524 -0.4815 -0.1754  0.2741
 2171SOL    HW118149   1.934   4.079  17.500  1.1591 -2.0461  2.6991
 2171SOL    HW218150   1.833   4.070  17.612 -2.0716 -1.5703  0.4618
 2172SOL     OW18151   0.904   1.340   9.052 -0.1754  0.2561 -0.2539
 2172SOL    HW118152   0.868   1.256   9.078 -0.2855 -0.3803 -2.4362
 2172SOL    HW218153   0.965   1.322   8.980  1.6538 -2.0188  1.9190
 2173SOL     OW18154   3.189   0.630   8.618  0.0109  0.5164  0.4343
 2173SOL    HW118155   3.205   0.535   8.614 -1.3618  0.3533 -1.8796
 2173SOL    HW218156   3.130   0.638   8.542 -1.4476  0.1386  1.5313
 2174SOL     OW18157   2.988   2.727   5.709  0.0182 -0.3893  0.5158
 2174SOL    HW118158   3.027   2.640   5.706  0.0345 -0.4691  2.8288
 2174SOL    HW218159   2.941   2.731   5.626 -1.2095  3.3027  1.3644
 2175SOL     OW18160   0.048   4.180   5.845 -0.3322  0.4699 -0.3199
 2175SOL    HW118161   4.703   4.214   5.805 -1.2797 -0.6846  0.6023
 2175SOL    HW218162   0.074   4.103   5.795 -1.8945 -0.8413  0.9064
 2176SOL     OW18163   0.027   0.213  13.957  0.7729  0.2324 -0.4023
 2176SOL    HW118164   4.704   0.189  13.884 -0.7098 -0.9755  1.1768
 2176SOL    HW218165   4.728   0.297  13.988 -1.0506 -0.3278 -0.8462
 2177SOL     OW18166   3.241   3.878   8.548  0.2880  0.3460 -0.0982
 2177SOL    HW118167   3.309   3.821   8.512 -0.0462 -0.8298  1.1244
 2177SOL    HW218168   3.207   3.829   8.623  1.9269 -1.4521 -0.5080
 2178SOL     OW18169   4.592   2.915  12.975  0.8349  0.8516 -0.3580
 2178SOL    HW118170   4.578   2.883  13.064  1.5723  0.6121 -0.3267
 2178SOL    HW218171   4.531   2.989  12.981 -0.2247  0.2293 -3.2403
 2179SOL     OW18172   1.353   4.607   7.468  0.0829 -0.3537  0.1005
 2179SOL    HW118173   1.286   4.552   7.510  0.1956 -0.9834 -0.5462
 2179SOL    HW218174   1.357   4.687   7.521 -1.5735 -2.0087  2.7275
 2180SOL     OW18175   4.582   0.844  17.114 -0.2225  0.3849 -0.4176
 2180SOL    HW118176   4.526   0.777  17.073  0.0949 -1.8691  2.8229
 2180SOL    HW218177   4.657   0.796  17.151 -1.4572 -0.1453  1.4293
 2181SOL     OW18178   4.493   0.946   7.458 -0.0602  0.7094 -0.7373
 2181SOL    HW118179   4.542   0.889   7.517 -1.2245  1.3312  0.8143
 2181SOL    HW218180   4.482   1.020   7.518  0.4197 -0.7134  1.0952
 2182SOL     OW18181   0.930   2.120   8.240  0.1624  0.4175 -0.0579
 2182SOL    HW118182   0.864   2.096   8.174 -0.5019  0.8057  0.4675
 2182SOL    HW218183   0.888   2.081   8.317  0.8383 -0.6394 -0.2229
 2183SOL     OW18184   4.642   2.570   6.472 -0.5385 -0.1349 -0.1683
 2183SOL    HW118185   4.731   2.558   6.440 -0.2905  2.9140 -0.6373
 2183SOL    HW218186   4.639   2.521   6.554  1.7761  2.2070  1.3079
 2184SOL     OW18187   4.411   1.131   8.355 -0.4900  0.0520 -0.4565
 2184SOL    HW118188   4.318   1.105   8.352 -0.8064  1.1237  0.2419
 2184SOL    HW218189   4.401   1.203   8.417  0.3723 -0.3350  0.1259
 2185SOL     OW18190   1.995   3.628  16.322  0.0444 -0.2346  0.5143
 2185SOL    HW118191   2.046   3.569  16.378  0.8664 -1.7284 -1.8273
 2185SOL    HW218192   1.978   3.708  16.372 -2.2654  1.1132 -2.4128
 2186SOL     OW18193   4.202   4.555   9.732  0.2131  0.1276 -0.2784
 2186SOL    HW118194   4.135   4.580   9.668  1.9650  1.9698 -1.3963
 2186SOL    HW218195   4.260   4.631   9.735 -0.2669  0.4880 -0.1164
 2187SOL     OW18196   2.293   3.829   6.119 -0.5887 -0.8800  0.0422
 2187SOL    HW118197   2.355   3.900   6.136 -0.4813 -1.5326  2.2521
 2187SOL    HW218198   2.246   3.873   6.047 -0.9180 -0.2038  0.6730
 2188SOL     OW18199   0.674   4.186   1.783  0.8499  0.3738 -0.0105
 2188SOL    HW118200   0.646   4.218   1.869 -1.1109  1.3930 -1.0488
 2188SOL    HW218201   0.651   4.266   1.735 -2.2748 -1.1446 -1.0067
 2189SOL     OW18202   3.199   1.118   0.899 -0.1784  0.1617  0.5123
 2189SOL    HW118203   3.175   1.113   0.991 -1.3313 -0.2080  0.1844
 2189SOL    HW218204   3.291   1.094   0.916 -0.2682  0.6842  1.7204
 2190SOL     OW18205   2.027   4.063   7.607 -0.1903 -0.3590 -0.0909
 2190SOL    HW118206   2.069   4.135   7.654 -0.2739  1.2286 -2.4593
 2190SOL    HW218207   1.942   4.066   7.650 -0.5303 -0.2962 -0.7722
 2191SOL     OW18208   0.458   2.143  15.037  0.4105 -0.1190  0.3272
 2191SOL    HW118209   0.384   2.203  15.030 -0.2718 -0.8770  1.0768
 2191SOL    HW218210   0.476   2.131  14.944  0.7107 -1.3250  0.5392
 2192SOL     OW18211   2.239   2.016   6.395  0.1664  0.2861 -0.3173
 2192SOL    HW118212   2.261   2.011   6.302 -1.3119  1.0252 -0.7046
 2192SOL    HW218213   2.206   1.928   6.411 -0.6556  0.8469  1.0297
 2193SOL     OW18214   2.256   0.717   7.519 -0.2553 -0.0012 -0.6204
 2193SOL    HW118215   2.255   0.783   7.450 -1.1867  3.0394  2.3352
 2193SOL    HW218216   2.351   0.718   7.532 -0.5632  0.0108  1.6845
 2194SOL     OW18217   0.774   1.291   4.116 -0.1230 -0.0801  0.0792
 2194SOL    HW118218   0.686   1.324   4.103 -0.0143 -1.0148 -2.9583
 2194SOL    HW218219   0.789   1.219   4.056  0.0487 -0.9861  1.2079
 2195SOL     OW18220   0.999   0.888   7.615 -0.4653 -0.1569  0.2218
 2195SOL    HW118221   0.972   0.975   7.642 -0.9619  0.0191 -0.8670
 2195SOL    HW218222   0.933   0.832   7.655  1.5672  0.4729  4.4682
 2196SOL     OW18223   3.018   3.606   2.508  0.0476  0.7754 -0.1941
 2196SOL    HW118224   2.929   3.641   2.509 -0.3877 -0.3304 -0.8317
 2196SOL    HW218225   3.072   3.682   2.531  1.2565 -0.2699  0.4158
 2197SOL     OW18226   4.022   2.746   2.483  0.3131 -0.5435  0.1232
 2197SOL    HW118227   4.040   2.665   2.436 -0.1218 -0.3283 -0.4159
 2197SOL    HW218228   3.939   2.784   2.453  2.1346  2.4095 -1.2817
 2198SOL     OW18229   2.148   3.688   5.735  0.0064 -0.3129  0.1846
 2198SOL    HW118230   2.134   3.703   5.641 -0.3462  1.3092  0.4970
 2198SOL    HW218231   2.060   3.661   5.759 -1.3662  2.5739 -1.6192
 2199SOL     OW18232   0.432   4.677  16.017 -0.3566  0.1573  0.3649
 2199SOL    HW118233   0.442   4.695  15.924 -3.0258 -0.7465 -0.1092
 2199SOL    HW218234   0.337   4.664  16.028 -0.2023  0.7571  2.4265
 2200SOL     OW18235   3.778   1.854  14.595  0.0414 -0.4884 -0.3973
 2200SOL    HW118236   3.756   1.793  14.525 -2.2023  1.8592 -1.7181
 2200SOL    HW218237   3.867   1.819  14.605 -0.1465 -0.8470 -0.0067
 2201SOL     OW18238   2.954   0.256   6.882  0.0999 -0.0048  0.5876
 2201SOL    HW118239   3.031   0.313   6.877 -0.5071  0.8860  1.5436
 2201SOL    HW218240   2.902   0.305   6.946  1.5797 -0.9778  2.5480
 2202SOL     OW18241   1.148   1.695  17.628 -0.4687  0.1635 -0.2616
 2202SOL    HW118242   1.212   1.762  17.653  0.1877 -0.8159  0.6882
 2202SOL    HW218243   1.115   1.730  17.545 -1.3798 -0.6940 -0.2597
 2203SOL     OW18244   0.256   3.538   3.942 -0.3711  0.4917  0.4916
 2203SOL    HW118245   0.188   3.470   3.946 -0.7079  0.7557 -0.7752
 2203SOL    HW218246   0.217   3.607   3.997 -0.8355  0.8227 -0.2610
 2204SOL     OW18247   3.213   0.366   4.768 -0.4787  0.0803  0.1573
 2204SOL    HW118248   3.146   0.303   4.794 -0.4748  0.1418  0.3190
 2204SOL    HW218249   3.294   0.322   4.797 -0.4013  1.7445  2.4783
 2205SOL     OW18250   3.463   3.177   6.072 -0.0406 -0.1515  0.5400
 2205SOL    HW118251   3.525   3.111   6.104  2.3263  1.7487 -0.1813
 2205SOL    HW218252   3.397   3.123   6.030  0.7799  0.6430 -1.7717
 2206SOL     OW18253   2.819   3.762   7.321 -0.2804  0.1575  0.0352
 2206SOL    HW118254   2.854   3.735   7.236  0.0230 -1.2829  0.6094
 2206SOL    HW218255   2.845   3.681   7.364 -0.2265  1.0128  1.6124
 2207SOL     OW18256   2.961   4.199   9.467  0.3449  0.3574 -0.4636
 2207SOL    HW118257   2.955   4.288   9.432  0.2888  0.4687 -0.1723
 2207SOL    HW218258   2.871   4.189   9.498  0.6550  2.7080  1.1693
 2208SOL     OW18259   3.485   0.489   5.639  0.0844 -0.3017  0.2389
 2208SOL    HW118260   3.410   0.548   5.643  0.2579 -0.0575 -0.0294
 2208SOL    HW218261   3.537   0.519   5.714 -0.6340 -1.2577  1.1173
 2209SOL     OW18262   2.666   3.226   7.863 -0.6674  0.6294 -0.1002
 2209SOL    HW118263   2.711   3.232   7.947 -2.3667 -0.6750  0.9128
 2209SOL    HW218264   2.575   3.247   7.885 -0.3930  1.2386  0.4889
 2210SOL     OW18265   2.736   1.051   4.781 -0.2375  0.1841  0.1056
 2210SOL    HW118266   2.663   1.060   4.842 -0.7517  1.7440 -0.7664
 2210SOL    HW218267   2.680   1.055   4.703 -1.6111  0.8774  1.1346
 2211SOL     OW18268   2.471   3.237   9.052 -0.4485  0.1420 -0.2264
 2211SOL    HW118269   2.503   3.302   9.115 -1.0830  1.6605 -1.4833
 2211SOL    HW218270   2.408   3.296   9.011  0.2505  0.3696 -0.9696
 2212SOL     OW18271   3.309   3.362   5.349  0.1223  0.2088  0.3255
 2212SOL    HW118272   3.366   3.286   5.333  0.3548 -0.0477  2.3627
 2212SOL    HW218273   3.224   3.321   5.365 -0.9868  2.1156 -0.7083
 2213SOL     OW18274   3.633   1.711   8.729  0.3534  0.3782 -0.0928
 2213SOL    HW118275   3.550   1.729   8.773  0.0419  1.2407 -1.0427
 2213SOL    HW218276   3.625   1.744   8.639 -3.5490  0.2228  0.1746
 2214SOL     OW18277   2.260   3.906  17.202  0.1920 -0.1343  0.1956
 2214SOL    HW118278   2.347   3.907  17.161  1.2638 -0.7590  2.4425
 2214SOL    HW218279   2.200   3.869  17.137 -0.1058 -0.2579  0.5373
 2215SOL     OW18280   3.838   3.251   7.806  0.2057 -0.4418 -0.6301
 2215SOL    HW118281   3.861   3.219   7.718  1.2634 -3.5744  0.7635
 2215SOL    HW218282   3.767   3.187   7.819  0.3448 -0.3890  0.3194
 2216SOL     OW18283   1.649   1.843  12.535  0.2201 -0.2484  0.5799
 2216SOL    HW118284   1.696   1.887  12.464 -0.8941 -0.3803 -0.2358
 2216SOL    HW218285   1.599   1.777  12.487  0.1184 -1.4730  2.3664
 2217SOL     OW18286   2.832   2.064   3.167  0.4061  1.0888 -0.4859
 2217SOL    HW118287   2.887   2.110   3.104 -0.4591  0.6506 -1.5521
 2217SOL    HW218288   2.780   2.132   3.211 -0.1305 -0.1864  0.8652
 2218SOL     OW18289   3.751   2.975   9.079 -0.2608  0.6222  0.2354
 2218SOL    HW118290   3.673   2.977   9.023  0.6123 -0.3405 -0.9979
 2218SOL    HW218291   3.782   2.886   9.060  0.7516  1.1853 -0.6906
 2219SOL     OW18292   0.756   3.648  15.553  0.1845  0.4282  0.5978
 2219SOL    HW118293   0.707   3.612  15.627 -0.0173 -1.4380 -0.4431
 2219SOL    HW218294   0.694   3.719  15.535 -0.1082 -0.2949 -1.1962
 2220SOL     OW18295   1.237   1.561  17.254  0.1642 -0.3280 -0.2972
 2220SOL    HW118296   1.262   1.547  17.163 -1.0716  1.0783 -0.8428
 2220SOL    HW218297   1.315   1.606  17.287 -1.3796  1.7276  0.5240
 2221SOL     OW18298   2.024   3.062   8.101  0.1664 -0.4681  0.3750
 2221SOL    HW118299   1.956   3.062   8.168  0.0587  1.5435  0.2444
 2221SOL    HW218300   1.993   3.141   8.056 -0.1538  0.1064  1.6087
 2222SOL     OW18301   2.151   1.235   2.711  0.2662  0.0814  0.2617
 2222SOL    HW118302   2.179   1.309   2.658 -1.0617  0.3979  0.0062
 2222SOL    HW218303   2.135   1.171   2.642  2.3801  0.1417 -0.2971
 2223SOL     OW18304   4.420   3.987   6.923  0.0972 -0.2046  0.0052
 2223SOL    HW118305   4.370   4.030   6.854  0.7333  1.0317  0.3185
 2223SOL    HW218306   4.449   3.912   6.871 -0.1482 -0.6055  0.4423
 2224SOL     OW18307   2.619   2.166   5.989  0.3987 -0.1122 -0.0760
 2224SOL    HW118308   2.596   2.079   5.958 -1.4078 -0.6811  2.9039
 2224SOL    HW218309   2.605   2.147   6.082 -0.4278  0.2678 -0.1299
 2225SOL     OW18310   2.291   4.102   3.347  0.4052 -0.7203  0.1677
 2225SOL    HW118311   2.348   4.172   3.379 -0.8864  0.8325 -0.9581
 2225SOL    HW218312   2.317   4.095   3.255  0.8875  0.0539  0.2445
 2226SOL     OW18313   0.702   3.510  12.305 -0.1526  0.9111 -0.3740
 2226SOL    HW118314   0.672   3.525  12.395  0.2867  0.7065 -0.1967
 2226SOL    HW218315   0.780   3.563  12.320 -2.1370  4.2303 -1.7036
 2227SOL     OW18316   2.982   1.948  10.243 -0.4530 -0.1813 -0.9551
 2227SOL    HW118317   3.070   1.986  10.246 -1.6543  2.5422 -0.3421
 2227SOL    HW218318   2.990   1.922  10.151 -2.6629 -0.6484 -0.9950
 2228SOL     OW18319   2.770   3.034   3.282  0.1499 -0.4230 -0.4014
 2228SOL    HW118320   2.860   3.041   3.251 -0.6651  1.8517 -2.3047
 2228SOL    HW218321   2.764   3.087   3.362  1.1829 -0.7436 -0.1146
 2229SOL     OW18322   1.623   2.115   5.557 -0.0759 -0.3032 -0.8060
 2229SOL    HW118323   1.590   2.129   5.646  0.5089  0.3391 -0.6969
 2229SOL    HW218324   1.710   2.153   5.556  0.7470 -2.2136 -2.3700
 2230SOL     OW18325   0.199   0.910   7.565 -0.1838  1.2028  0.7202
 2230SOL    HW118326   0.162   0.998   7.566 -0.2572  1.1849 -0.2725
 2230SOL    HW218327   0.273   0.912   7.626  1.0496 -1.0951 -0.6868
 2231SOL     OW18328   4.619   0.109   9.112  0.5036 -0.3091 -0.6306
 2231SOL    HW118329   4.608   0.162   9.191  1.4930  0.7412 -1.1985
 2231SOL    HW218330   4.711   0.084   9.122  0.1546 -0.1528  3.0743
 2232SOL     OW18331   0.311   1.845   5.710  0.1767 -0.6371  0.1770
 2232SOL    HW118332   0.279   1.847   5.619 -0.7122 -1.3051  0.4822
 2232SOL    HW218333   0.396   1.810   5.682  0.1757  1.8609 -3.0054
 2233SOL     OW18334   4.565   0.289  17.584 -0.0012 -0.1228 -0.0668
 2233SOL    HW118335   4.487   0.257  17.630  0.2346  1.1019  1.1769
 2233SOL    HW218336   4.561   0.384  17.589 -0.4681 -0.1426 -0.0078
 2234SOL     OW18337   4.243   0.148   0.944  0.3041  0.3685  0.0822
 2234SOL    HW118338   4.259   0.056   0.921  1.9300  0.5712  0.3745
 2234SOL    HW218339   4.151   0.144   0.972  0.1919 -3.4704 -0.8116
 2235SOL     OW18340   2.564   3.397   4.222 -0.2937  0.4908 -0.1131
 2235SOL    HW118341   2.585   3.353   4.304  0.6563  0.0177 -0.6151
 2235SOL    HW218342   2.647   3.401   4.175 -1.4296 -0.1703 -2.2199
 2236SOL     OW18343   3.796   3.385   5.868  0.0501 -0.5195  0.0660
 2236SOL    HW118344   3.872   3.402   5.923  0.0210  0.9047 -0.3450
 2236SOL    HW218345   3.790   3.293   5.893 -1.5875  0.2349  2.4337
 2237SOL     OW18346   1.270   4.618  10.822  0.3073  0.1932  0.0744
 2237SOL    HW118347   1.327   4.685  10.858 -1.2631  2.3481 -1.3880
 2237SOL    HW218348   1.337   4.552  10.807 -1.0051 -1.1864  0.2390
 2238SOL     OW18349   4.562   2.353   2.329  0.1031  0.3478  0.0754
 2238SOL    HW118350   4.548   2.404   2.249 -1.1802  1.3784  0.9798
 2238SOL    HW218351   4.636   2.298   2.304 -2.0211 -0.6016 -4.1734
 2239SOL     OW18352   4.048   2.760   9.649 -0.5880  0.1179 -0.1043
 2239SOL    HW118353   4.136   2.730   9.670  0.3905  3.1782  0.2649
 2239SOL    HW218354   4.045   2.761   9.554 -0.6971 -0.5411 -0.1040
 2240SOL     OW18355   0.828   1.270   9.759  0.5645 -0.0012  0.0869
 2240SOL    HW118356   0.864   1.196   9.711 -0.8066 -0.1946 -0.6352
 2240SOL    HW218357   0.906   1.324   9.778  0.6344 -0.0126 -0.1718
 2241SOL     OW18358   2.378   0.314   7.164 -0.0252 -0.3148 -0.1353
 2241SOL    HW118359   2.365   0.251   7.092 -2.2662  0.7378 -0.6798
 2241SOL    HW218360   2.443   0.372   7.124 -1.0528  0.6748 -0.3901
 2242SOL     OW18361   0.760   1.174   5.352 -0.1254 -0.0396 -0.2080
 2242SOL    HW118362   0.764   1.235   5.279  2.3256  0.7391  0.5649
 2242SOL    HW218363   0.795   1.219   5.429  1.1696 -0.5172 -0.5295
 2243SOL     OW18364   3.118   3.394   1.991  0.2270  0.3959  0.2076
 2243SOL    HW118365   3.176   3.397   2.067 -0.2987  0.8325  0.5986
 2243SOL    HW218366   3.084   3.484   1.995  0.6132  0.6119 -1.1281
 2244SOL     OW18367   0.171   4.006   3.293  0.2831 -0.3346 -0.0369
 2244SOL    HW118368   0.235   4.075   3.278 -2.2648  2.5208  2.3023
 2244SOL    HW218369   0.226   3.933   3.322  2.3212  1.5398  0.8302
 2245SOL     OW18370   2.580   3.686   7.690 -0.1795 -0.3567  0.4721
 2245SOL    HW118371   2.518   3.683   7.763  0.3603  0.7780  0.9723
 2245SOL    HW218372   2.631   3.605   7.688  0.1090 -0.1283 -1.4174
 2246SOL     OW18373   1.506   1.351   6.355  0.1143 -0.0447  0.3668
 2246SOL    HW118374   1.429   1.346   6.411  0.1886  0.3208  0.5038
 2246SOL    HW218375   1.535   1.443   6.351  0.0550 -0.0627 -0.6491
 2247SOL     OW18376   4.548   3.496   8.306 -0.2431  0.2149 -0.0941
 2247SOL    HW118377   4.546   3.501   8.211  1.2547 -0.2161 -0.1577
 2247SOL    HW218378   4.638   3.527   8.321  0.7651 -3.0010  0.4193
 2248SOL     OW18379   1.594   1.299  11.163  0.1444 -0.0094  0.4050
 2248SOL    HW118380   1.630   1.210  11.155  0.2747  0.1424 -0.6796
 2248SOL    HW218381   1.672   1.352  11.146 -0.4827  1.1787  1.2477
 2249SOL     OW18382   0.121   0.331   8.164  0.4879 -0.1865  0.9889
 2249SOL    HW118383   0.077   0.328   8.249  0.1144 -1.9908  0.7442
 2249SOL    HW218384   0.195   0.381   8.198  0.0243  0.9810  0.2540
 2250SOL     OW18385   0.135   0.145   9.400 -0.1451 -0.2710  0.0377
 2250SOL    HW118386   0.129   0.236   9.373  1.6835  0.6441  2.7185
 2250SOL    HW218387   0.044   0.120   9.420 -1.0108  0.9255 -2.4031
 2251SOL     OW18388   1.518   1.270   2.829 -0.5656 -0.4097 -0.0409
 2251SOL    HW118389   1.539   1.187   2.786  1.4282 -0.5618  1.1819
 2251SOL    HW218390   1.460   1.226   2.892 -0.4867  0.6978  0.8024
 2252SOL     OW18391   0.157   2.146   4.892 -0.1966  0.0737 -0.3808
 2252SOL    HW118392   0.158   2.209   4.819  0.6757 -0.2367 -0.6447
 2252SOL    HW218393   0.064   2.131   4.903 -0.2418 -0.2473 -1.2224
 2253SOL     OW18394   1.431   4.101   2.908 -0.1426 -0.0807  0.1639
 2253SOL    HW118395   1.405   4.193   2.898 -2.4360 -0.6981  0.5185
 2253SOL    HW218396   1.502   4.098   2.972 -1.6540  0.5601  1.8638
 2254SOL     OW18397   0.556   3.615   3.644 -0.0852  0.4495 -0.0084
 2254SOL    HW118398   0.541   3.637   3.736  1.8536 -0.0995  0.4247
 2254SOL    HW218399   0.471   3.578   3.620  0.7523  2.1515 -5.7095
 2255SOL     OW18400   1.610   0.634   8.828  0.2967 -0.8862 -0.4863
 2255SOL    HW118401   1.601   0.715   8.779 -3.5954 -0.3632  1.1001
 2255SOL    HW218402   1.640   0.578   8.756 -0.3106 -1.3226 -0.4039
 2256SOL     OW18403   3.866   4.079   3.821  0.3442  0.3601 -0.4468
 2256SOL    HW118404   3.919   4.028   3.759 -0.7657 -2.2209  0.7496
 2256SOL    HW218405   3.926   4.086   3.896 -2.5494 -1.6332  2.0122
 2257SOL     OW18406   1.320   2.206   4.203 -0.0173  0.2421 -1.0015
 2257SOL    HW118407   1.243   2.250   4.166  1.0736  2.3005 -0.8008
 2257SOL    HW218408   1.305   2.209   4.298  0.6350 -1.5883 -0.8558
 2258SOL     OW18409   2.655   0.259  10.141  0.2115  0.6549 -0.1769
 2258SOL    HW118410   2.626   0.208  10.065 -0.8482 -0.0137  0.6771
 2258SOL    HW218411   2.728   0.301  10.095  0.5567  0.9836  0.6764
 2259SOL     OW18412   1.084   0.590   3.520 -0.1591  0.1429  0.5059
 2259SOL    HW118413   1.148   0.617   3.454 -2.2828  1.9550 -0.8152
 2259SOL    HW218414   1.001   0.589   3.473  1.6875  1.6868 -2.8579
 2260SOL     OW18415   4.266   1.846  10.792  0.3280 -0.7209  0.3963
 2260SOL    HW118416   4.171   1.841  10.802 -0.0436  3.2360 -1.1469
 2260SOL    HW218417   4.276   1.941  10.796  1.0109 -0.8383  1.4384
 2261SOL     OW18418   1.475   1.301  17.460  0.0064 -0.0399 -0.0800
 2261SOL    HW118419   1.381   1.313  17.446  0.2990  2.2322 -0.0242
 2261SOL    HW218420   1.476   1.343  17.545 -1.2482 -1.3488  0.5909
 2262SOL     OW18421   1.761   0.863   3.308  0.2765  0.5674  0.6216
 2262SOL    HW118422   1.850   0.852   3.273  0.0193  0.5135 -0.0069
 2262SOL    HW218423   1.747   0.791   3.370 -0.9517  0.6119  0.3845
 2263SOL     OW18424   2.923   1.620   3.186  0.3156 -0.2469  0.3303
 2263SOL    HW118425   2.834   1.656   3.188  0.8843  1.1141  1.0486
 2263SOL    HW218426   2.959   1.612   3.274  0.0326 -3.0145  0.1978
 2264SOL     OW18427   4.167   1.866   3.134 -0.1763  0.2925  0.0586
 2264SOL    HW118428   4.186   1.800   3.200 -1.4185 -0.2380 -0.1216
 2264SOL    HW218429   4.074   1.856   3.114  0.0875 -2.7865  0.3464
 2265SOL     OW18430   0.671   2.817   6.625 -0.1285 -0.3874 -0.4444
 2265SOL    HW118431   0.726   2.763   6.569  2.6715  0.6016  1.3301
 2265SOL    HW218432   0.672   2.900   6.579 -0.5604 -1.2477 -2.0113
 2266SOL     OW18433   0.731   2.925   7.690  0.2272  0.2988 -0.3126
 2266SOL    HW118434   0.741   2.854   7.626 -0.3424  1.1794 -1.3712
 2266SOL    HW218435   0.702   2.997   7.634 -1.9231 -0.6665 -0.4463
 2267SOL     OW18436   1.645   0.511   5.238  0.5236 -0.1208  0.2941
 2267SOL    HW118437   1.574   0.447   5.233 -0.1918  0.6963 -0.0554
 2267SOL    HW218438   1.654   0.521   5.143 -0.4947  0.6636  0.2753
 2268SOL     OW18439   1.591   4.107   6.835  0.0340 -0.4041  0.4042
 2268SOL    HW118440   1.536   4.076   6.907  0.4332  0.3499  1.0322
 2268SOL    HW218441   1.613   4.026   6.789  2.9773  0.5268  0.2053
 2269SOL     OW18442   4.612   1.618   4.852  0.6907 -0.5136  0.1961
 2269SOL    HW118443   4.675   1.676   4.809  1.6980 -0.0100  2.3667
 2269SOL    HW218444   4.579   1.670   4.925  3.4210  0.5816  0.6285
 2270SOL     OW18445   2.139   0.625  10.816  0.1727  0.5557 -0.1588
 2270SOL    HW118446   2.204   0.592  10.754  0.5445 -0.3380  0.7202
 2270SOL    HW218447   2.094   0.542  10.832 -0.3333  0.9742  0.6054
 2271SOL     OW18448   4.548   1.815   6.384  0.3171 -0.3359 -0.0996
 2271SOL    HW118449   4.458   1.830   6.355  0.8969  0.3608 -1.5569
 2271SOL    HW218450   4.590   1.838   6.301 -0.0346 -0.7809 -0.3983
 2272SOL     OW18451   4.391   3.673   3.878  0.1488 -0.1989 -0.2984
 2272SOL    HW118452   4.348   3.645   3.959  1.0502 -1.3962 -0.2252
 2272SOL    HW218453   4.314   3.660   3.822 -0.5996  1.0839  0.4381
 2273SOL     OW18454   4.396   4.713   3.669 -0.4567  0.0268 -0.3684
 2273SOL    HW118455   4.450   4.657   3.725 -0.6644  0.1056 -0.0870
 2273SOL    HW218456   4.342   4.650   3.621 -0.2929  0.5375 -1.2189
 2274SOL     OW18457   1.064   0.658  12.889 -0.5977  0.6698 -0.0181
 2274SOL    HW118458   0.985   0.686  12.935 -0.7620  0.2069 -0.0085
 2274SOL    HW218459   1.105   0.744  12.884  0.4853  0.0797 -1.0810
 2275SOL     OW18460   1.222   4.023   5.021 -0.0249  0.0497  0.8800
 2275SOL    HW118461   1.304   4.046   4.978 -0.7596  1.5628  0.2778
 2275SOL    HW218462   1.154   4.033   4.954 -1.4150 -0.7622  2.1608
 2276SOL     OW18463   0.608   1.683   2.516 -0.5402  0.1668 -0.5588
 2276SOL    HW118464   0.535   1.641   2.470 -1.0818 -0.8914  1.2649
 2276SOL    HW218465   0.681   1.633   2.481 -0.2406  0.0656  0.2237
 2277SOL     OW18466   0.775   3.864   9.696  0.4318  0.2627 -0.6837
 2277SOL    HW118467   0.803   3.915   9.620 -2.9689  0.5272 -1.7510
 2277SOL    HW218468   0.720   3.799   9.652 -1.5169 -0.6047  3.0625
 2278SOL     OW18469   1.951   1.638   8.048 -0.1835  0.0105  0.4775
 2278SOL    HW118470   2.038   1.636   8.009  0.0144 -1.5375  0.9941
 2278SOL    HW218471   1.951   1.733   8.039  2.8042 -0.3609 -3.4354
 2279SOL     OW18472   0.139   4.207   3.698 -0.9694  0.2785  0.3128
 2279SOL    HW118473   0.125   4.273   3.630  1.0141 -1.7143 -2.0455
 2279SOL    HW218474   0.084   4.145   3.651  0.5350 -0.2881 -0.7199
 2280SOL     OW18475   4.615   2.276   7.815 -0.2145 -0.1520  0.1749
 2280SOL    HW118476   4.702   2.303   7.845  0.5367 -2.2989 -0.0466
 2280SOL    HW218477   4.575   2.248   7.898  0.7333 -1.2175  0.2719
 2281SOL     OW18478   0.526   2.550  14.995  0.7828 -0.0394 -0.3089
 2281SOL    HW118479   0.618   2.525  14.998  0.7995  0.1554  0.7979
 2281SOL    HW218480   0.523   2.588  15.082  0.2144  0.6754 -0.6382
 2282SOL     OW18481   1.174   3.814   9.410  0.6916  0.3062  0.3385
 2282SOL    HW118482   1.105   3.759   9.447  1.0996  0.4806  1.3496
 2282SOL    HW218483   1.201   3.874   9.479  1.1162 -1.2286  1.4995
 2283SOL     OW18484   0.387   2.295   3.032  0.5751 -0.3949 -0.0881
 2283SOL    HW118485   0.361   2.229   3.096  0.7179  0.9015  1.3055
 2283SOL    HW218486   0.482   2.289   3.029  0.6450  0.2212  1.0587
 2284SOL     OW18487   1.740   1.077   7.459  0.0624  0.1623 -1.0513
 2284SOL    HW118488   1.692   0.994   7.458 -0.0087  0.1858  0.0706
 2284SOL    HW218489   1.831   1.048   7.470  0.1680  1.1810  0.6838
 2285SOL     OW18490   2.605   1.507   8.098 -0.3448 -0.4299  0.1354
 2285SOL    HW118491   2.644   1.464   8.022  0.1149  1.8127 -0.8956
 2285SOL    HW218492   2.655   1.465   8.168  1.2067  1.2517  0.0524
 2286SOL     OW18493   3.346   2.928   8.556 -0.0986 -0.0598  0.8449
 2286SOL    HW118494   3.263   2.955   8.517  0.9519 -0.0734 -1.3911
 2286SOL    HW218495   3.392   3.007   8.585 -0.3341  0.3629  0.0545
 2287SOL     OW18496   1.366   0.901   1.692 -0.0571  0.5924 -0.5097
 2287SOL    HW118497   1.448   0.913   1.644 -0.5060  0.3311 -1.3457
 2287SOL    HW218498   1.374   0.972   1.756  1.4342  0.1240 -0.1704
 2288SOL     OW18499   4.648   3.302   6.586 -0.1498  0.4659 -0.2718
 2288SOL    HW118500   4.589   3.253   6.529  1.7423 -1.9614 -0.1464
 2288SOL    HW218501   4.584   3.365   6.619  2.1275  3.9846 -2.5642
 2289SOL     OW18502   1.623   2.485   3.400 -0.4862 -0.0908 -0.3452
 2289SOL    HW118503   1.559   2.516   3.336 -0.8688 -2.9548 -1.3575
 2289SOL    HW218504   1.702   2.514   3.354  0.6649 -1.2125  0.9104
 2290SOL     OW18505   3.343   2.743   5.637  0.3451  0.4105  0.0572
 2290SOL    HW118506   3.425   2.742   5.687  1.0732 -3.1433 -1.2035
 2290SOL    HW218507   3.281   2.707   5.701  0.8270  0.1688  0.3931
 2291SOL     OW18508   2.415   1.792   4.329  0.3832 -0.1414 -0.1320
 2291SOL    HW118509   2.461   1.721   4.374 -0.2304  0.0771  0.8310
 2291SOL    HW218510   2.326   1.758   4.320  0.4875 -0.8752  1.6123
 2292SOL     OW18511   2.917   1.781   1.586  0.7100 -0.3403 -0.5581
 2292SOL    HW118512   2.933   1.694   1.550  0.9799  0.2146 -1.8006
 2292SOL    HW218513   2.823   1.787   1.572  0.6132  0.9048  0.5972
 2293SOL     OW18514   3.281   1.407   2.933  0.5913 -0.3472  0.2156
 2293SOL    HW118515   3.330   1.329   2.905  0.9077 -0.5763  1.4177
 2293SOL    HW218516   3.192   1.373   2.930  0.5182  0.0058 -1.8570
 2294SOL     OW18517   3.042   1.010   1.917  0.0193 -0.1858 -0.3051
 2294SOL    HW118518   2.977   0.984   1.982 -1.0786  0.4348 -1.1631
 2294SOL    HW218519   3.118   1.021   1.974 -0.5928 -0.7961  0.6238
 2295SOL     OW18520   1.819   1.338  16.522  0.0555  0.2098 -0.5351
 2295SOL    HW118521   1.813   1.353  16.428 -1.8263 -4.1210 -1.0970
 2295SOL    HW218522   1.750   1.275  16.542  0.8520 -0.7672 -0.8748
 2296SOL     OW18523   2.013   0.046   3.025 -0.0305  0.0334 -0.1397
 2296SOL    HW118524   2.101   0.083   3.019  1.7229 -4.0030  0.7175
 2296SOL    HW218525   1.967   0.123   2.992 -1.9965 -0.7408  0.7620
 2297SOL     OW18526   2.591   3.705   6.852  0.5505 -0.1066 -0.4061
 2297SOL    HW118527   2.584   3.801   6.853  1.1269 -0.0684 -0.4435
 2297SOL    HW218528   2.567   3.680   6.763 -0.8841 -3.6499  0.9639
 2298SOL     OW18529   2.913   1.630   4.350  0.0044 -0.1044  0.4330
 2298SOL    HW118530   2.998   1.674   4.359  0.9128 -1.4632 -1.4677
 2298SOL    HW218531   2.856   1.662   4.420 -2.2369 -0.8036 -1.0874
 2299SOL     OW18532   1.376   3.342   4.650  0.0357 -0.0093  0.7277
 2299SOL    HW118533   1.408   3.304   4.568  0.7136 -0.2318  1.0932
 2299SOL    HW218534   1.384   3.436   4.637  0.0057 -0.3151 -1.5036
 2300SOL     OW18535   3.933   4.661   0.764 -0.0729  0.2502 -0.2888
 2300SOL    HW118536   3.870   4.718   0.719  1.7563  0.9697 -1.9071
 2300SOL    HW218537   3.959   4.720   0.834 -0.2098  1.0898 -0.9443
 2301SOL     OW18538   3.763   3.923   7.106  0.2269  0.4711  0.2145
 2301SOL    HW118539   3.817   3.878   7.170  0.0904  0.5741  0.4012
 2301SOL    HW218540   3.810   4.005   7.092 -0.2065  0.2645 -2.6158
 2302SOL     OW18541   3.811   2.313  15.617  0.1020 -0.0484 -0.3706
 2302SOL    HW118542   3.775   2.402  15.614  0.7091  0.2087 -0.0207
 2302SOL    HW218543   3.882   2.315  15.553  1.1809 -0.4591  0.8103
 2303SOL     OW18544   4.541   3.882   8.396  0.3605  0.1769 -0.6033
 2303SOL    HW118545   4.592   3.962   8.405  2.0340 -0.7441 -1.9627
 2303SOL    HW218546   4.512   3.901   8.307 -0.1240  2.6641  0.0971
 2304SOL     OW18547   2.347   0.751   7.241  0.3952 -0.4103  0.0875
 2304SOL    HW118548   2.405   0.706   7.302  1.7730  2.7713  1.1405
 2304SOL    HW218549   2.415   0.750   7.173 -0.2607  2.7189 -0.6155
 2305SOL     OW18550   0.504   1.871   2.872 -0.1603  0.7183  0.1949
 2305SOL    HW118551   0.485   1.864   2.965 -0.9182  1.1681  0.0711
 2305SOL    HW218552   0.547   1.786   2.863 -1.3146  0.0983  0.5162
 2306SOL     OW18553   2.370   3.362   7.661  0.1176  0.2865 -0.7289
 2306SOL    HW118554   2.356   3.441   7.610  0.3265  1.9459  1.8003
 2306SOL    HW218555   2.439   3.316   7.612  1.1763  1.8910 -0.7418
 2307SOL     OW18556   4.336   3.774   3.451  0.3827 -0.6617 -0.2001
 2307SOL    HW118557   4.281   3.849   3.474 -1.1979 -1.0098 -2.8552
 2307SOL    HW218558   4.274   3.705   3.427  0.9277 -0.8536 -1.0313
 2308SOL     OW18559   0.322   1.514  16.799 -0.1006  0.3995 -0.0457
 2308SOL    HW118560   0.358   1.590  16.845  0.3859 -0.6003  1.2169
 2308SOL    HW218561   0.228   1.531  16.790 -0.4703  0.2258  3.2349
 2309SOL     OW18562   0.897   1.101   2.076  0.0239  0.1986  0.1475
 2309SOL    HW118563   0.820   1.099   2.020  1.5335 -1.0575 -1.8783
 2309SOL    HW218564   0.891   1.175   2.137 -1.3740 -0.3919  0.7198
 2310SOL     OW18565   2.103   3.251   5.725 -0.3573 -0.0132 -0.5011
 2310SOL    HW118566   2.088   3.319   5.659  0.1802 -0.7130 -1.3522
 2310SOL    HW218567   2.028   3.249   5.784  0.2528  5.2642  0.4637
 2311SOL     OW18568   1.787   1.388  16.235 -0.1919 -0.6739 -0.3053
 2311SOL    HW118569   1.776   1.483  16.231  0.0551 -0.6408 -0.1911
 2311SOL    HW218570   1.829   1.370  16.152  0.6820 -0.1850  0.0371
 2312SOL     OW18571   3.718   1.073   9.461 -0.1042 -0.5263  0.1743
 2312SOL    HW118572   3.706   1.025   9.543  0.7561  0.2377  0.7330
 2312SOL    HW218573   3.674   1.156   9.477 -0.7745 -1.1846  1.7192
 2313SOL     OW18574   4.185   2.259   5.548  0.6440 -0.3573 -0.2840
 2313SOL    HW118575   4.232   2.249   5.630 -0.9489 -1.2308  0.5150
 2313SOL    HW218576   4.107   2.308   5.577  1.5442  1.2971 -0.6370
 2314SOL     OW18577   0.537   1.285  15.834 -0.3916 -0.4281 -0.5064
 2314SOL    HW118578   0.623   1.311  15.800  0.9230 -0.8385  2.5606
 2314SOL    HW218579   0.550   1.276  15.928  1.2883 -2.1513 -0.9177
 2315SOL     OW18580   1.828   1.173   3.468  0.2536  0.4338  0.6246
 2315SOL    HW118581   1.766   1.101   3.454 -0.0600  0.6606  0.8441
 2315SOL    HW218582   1.873   1.153   3.550  0.5648  1.4841  0.7204
 2316SOL     OW18583   1.917   3.145  10.031 -0.6173  1.1082 -0.8398
 2316SOL    HW118584   1.924   3.083   9.958  1.4603 -0.6519  0.8820
 2316SOL    HW218585   2.007   3.175  10.040 -0.1214  0.1514 -2.6848
 2317SOL     OW18586   1.531   1.452   5.400  0.5991 -0.2171  0.0607
 2317SOL    HW118587   1.541   1.377   5.460 -0.2121 -0.5147 -0.1815
 2317SOL    HW218588   1.601   1.512   5.425 -0.4714  1.3421 -0.7647
 2318SOL     OW18589   2.190   1.744   6.489 -0.5217  0.1391 -0.2740
 2318SOL    HW118590   2.109   1.769   6.535 -0.0610  1.7335 -0.3202
 2318SOL    HW218591   2.244   1.695   6.551  1.6364  1.5355 -1.0353
 2319SOL     OW18592   2.855   4.285   4.608  0.0948  0.4158  0.0322
 2319SOL    HW118593   2.845   4.286   4.703  0.5956 -0.1289  0.0897
 2319SOL    HW218594   2.808   4.205   4.586  1.9093 -0.8833  0.8086
 2320SOL     OW18595   1.153   1.859   4.390  0.3117 -0.3303 -0.1254
 2320SOL    HW118596   1.099   1.925   4.346 -0.4755  0.3348  1.8176
 2320SOL    HW218597   1.243   1.879   4.364  0.2799 -1.9922 -1.4706
 2321SOL     OW18598   2.384   2.881   4.323 -0.1545  0.3561  0.3413
 2321SOL    HW118599   2.404   2.876   4.230  0.5424  0.8372  0.4627
 2321SOL    HW218600   2.404   2.973   4.343  0.1839  0.5403 -0.8634
 2322SOL     OW18601   2.968   3.630   8.069  0.1526  0.7421  0.3180
 2322SOL    HW118602   3.040   3.689   8.048 -0.6704  3.0146  3.7393
 2322SOL    HW218603   2.981   3.555   8.011  1.2766  1.3841 -0.2710
 2323SOL     OW18604   2.543   4.592   2.224  0.1280  0.1722 -0.0363
 2323SOL    HW118605   2.618   4.533   2.217  0.5207  0.3764  2.2873
 2323SOL    HW218606   2.473   4.527   2.215  1.8845 -1.9744  1.6348
 2324SOL     OW18607   3.117   3.745   6.606 -0.2981  0.0523  0.1437
 2324SOL    HW118608   3.197   3.781   6.644  1.7604 -4.5265  0.1166
 2324SOL    HW218609   3.082   3.705   6.685  0.1566  0.3361  0.4898
 2325SOL     OW18610   3.119   0.189  15.627  0.1280  0.1789 -0.4209
 2325SOL    HW118611   3.122   0.140  15.709 -1.1212 -1.5975 -1.4383
 2325SOL    HW218612   3.198   0.243  15.634  0.9220 -0.5972 -3.4866
 2326SOL     OW18613   0.866   0.237   9.604  0.6871 -0.5923  0.2802
 2326SOL    HW118614   0.900   0.279   9.683  2.1469 -0.5447 -0.3615
 2326SOL    HW218615   0.951   0.210   9.569  1.4007  0.7736  0.9178
 2327SOL     OW18616   0.231   3.672   5.953  0.4525 -0.3847  0.1405
 2327SOL    HW118617   0.195   3.601   6.006  0.4429 -0.4023  0.1104
 2327SOL    HW218618   0.260   3.742   6.011  1.9081 -1.8217  1.1449
 2328SOL     OW18619   2.952   4.507  15.920  0.0786  0.5656 -0.2465
 2328SOL    HW118620   2.962   4.412  15.917 -1.5775  0.3940 -0.5993
 2328SOL    HW218621   2.967   4.522  15.827 -2.0907 -1.1583 -0.8950
 2329SOL     OW18622   1.514   3.353   1.857  0.0850 -0.0864  0.5109
 2329SOL    HW118623   1.490   3.412   1.929 -0.2292  0.5117 -0.0798
 2329SOL    HW218624   1.605   3.332   1.876  0.5438  1.0136 -0.4595
 2330SOL     OW18625   1.542   0.013   2.270 -0.2686  0.3762 -0.2615
 2330SOL    HW118626   1.522   0.105   2.253  1.2979  1.1466  1.9964
 2330SOL    HW218627   1.503   4.717   2.188  0.9407  2.1071 -1.5036
 2331SOL     OW18628   2.388   2.630  13.052 -0.0545  0.0698  0.2329
 2331SOL    HW118629   2.329   2.683  13.106  0.5645  0.8076  0.1872
 2331SOL    HW218630   2.339   2.647  12.971  0.2831 -1.2750 -0.2446
 2332SOL     OW18631   4.583   0.074   8.209  0.0321 -0.0618  0.5587
 2332SOL    HW118632   4.658   0.101   8.261  0.3737 -0.9864  0.5516
 2332SOL    HW218633   4.558   4.732   8.260 -0.0453 -0.8820 -0.7103
 2333SOL     OW18634   1.874   3.700   8.762 -0.5380 -0.4622 -0.3988
 2333SOL    HW118635   1.929   3.745   8.698  0.1208  1.0797  1.2656
 2333SOL    HW218636   1.876   3.757   8.839  2.3217 -2.5684  1.0460
 2334SOL     OW18637   3.711   3.343   5.418  0.3270  0.5013 -0.0557
 2334SOL    HW118638   3.695   3.249   5.408 -0.3013  0.4944  1.0606
 2334SOL    HW218639   3.681   3.360   5.507 -1.8483 -3.4507 -0.0568
 2335SOL     OW18640   0.469   0.852   6.813  0.5290 -0.4278  0.1344
 2335SOL    HW118641   0.459   0.933   6.863  0.6903  0.7946 -1.7756
 2335SOL    HW218642   0.501   0.886   6.729  1.1191  0.5472  0.7486
 2336SOL     OW18643   4.090   3.259   5.773 -0.2029  0.7766  0.3988
 2336SOL    HW118644   4.038   3.255   5.692 -0.4319 -0.5677  0.6124
 2336SOL    HW218645   4.176   3.284   5.738 -0.2971  0.3644 -0.1369
 2337SOL     OW18646   4.541   4.487   2.063  0.2343 -0.8710  0.6197
 2337SOL    HW118647   4.530   4.491   2.158  2.7814 -1.8261  0.9790
 2337SOL    HW218648   4.633   4.513   2.066  0.2282 -1.1495  2.9331
 2338SOL     OW18649   2.128   0.950   5.382 -0.2031  0.1906  0.1682
 2338SOL    HW118650   2.202   0.981   5.435 -0.5633  1.1088  0.1248
 2338SOL    HW218651   2.107   1.029   5.331 -1.2351 -0.6405 -0.6834
 2339SOL     OW18652   4.262   1.541   9.540 -0.4051 -0.0069  0.0173
 2339SOL    HW118653   4.333   1.596   9.573 -0.1810 -1.4930  2.0060
 2339SOL    HW218654   4.315   1.468   9.507 -1.5542 -1.2626  0.9447
 2340SOL     OW18655   3.963   2.834  14.860 -0.2534  0.4144  0.2632
 2340SOL    HW118656   3.995   2.924  14.849  0.3927  0.3677  1.7953
 2340SOL    HW218657   4.019   2.791  14.795  0.0804  1.3955 -0.1092
 2341SOL     OW18658   1.743   0.931   3.715 -0.1656 -0.2613 -0.1409
 2341SOL    HW118659   1.665   0.923   3.660  1.0650  0.6340 -2.0192
 2341SOL    HW218660   1.703   0.925   3.802  0.5156  4.0563  0.4785
 2342SOL     OW18661   4.429   0.921   9.958 -0.0578  0.5473 -0.2928
 2342SOL    HW118662   4.394   0.903  10.045 -2.2229 -1.0225 -1.5178
 2342SOL    HW218663   4.354   0.919   9.899 -1.2428 -1.8593  1.3314
 2343SOL     OW18664   3.993   2.194   5.320 -0.1986  0.3949 -0.1206
 2343SOL    HW118665   4.078   2.151   5.314  0.5536  1.9973 -1.1949
 2343SOL    HW218666   3.953   2.170   5.403  3.3374  3.3785  2.4378
 2344SOL     OW18667   0.784   4.060   9.888 -0.2436 -0.1533  0.0014
 2344SOL    HW118668   0.878   4.053   9.906 -0.2685  1.2198  0.6288
 2344SOL    HW218669   0.767   3.997   9.818  2.6932 -1.1627  0.2071
 2345SOL     OW18670   3.563   1.444   9.144  0.4089  0.1898 -0.1803
 2345SOL    HW118671   3.628   1.514   9.145 -0.5085  1.0453  0.4107
 2345SOL    HW218672   3.561   1.434   9.239 -1.6706  0.1966 -0.2181
 2346SOL     OW18673   0.245   4.381  14.676 -0.1815 -0.4019  0.5353
 2346SOL    HW118674   0.201   4.308  14.631 -1.2348  1.1165 -0.9123
 2346SOL    HW218675   0.199   4.370  14.759  0.2795 -0.8713  0.7213
 2347SOL     OW18676   3.656   2.457   9.157 -0.7831 -0.4473  0.3794
 2347SOL    HW118677   3.674   2.386   9.095  0.1124 -0.4539  0.6509
 2347SOL    HW218678   3.748   2.481   9.170 -0.7648 -0.4060  0.1698
 2348SOL     OW18679   4.718   3.687   5.178 -0.2892 -0.0359 -0.3657
 2348SOL    HW118680   4.654   3.618   5.161 -1.8122  0.8682  1.8139
 2348SOL    HW218681   4.724   3.732   5.094  1.2065  0.0257 -0.2222
 2349SOL     OW18682   1.507   3.384   7.353 -0.2875 -0.1522 -0.1101
 2349SOL    HW118683   1.468   3.467   7.327 -1.7200 -0.8144 -0.0383
 2349SOL    HW218684   1.558   3.355   7.277 -1.0097 -1.8369  0.0526
 2350SOL     OW18685   0.477   0.022   3.988 -0.2287  0.2333 -0.2859
 2350SOL    HW118686   0.503   0.018   3.897  3.9885 -2.0787  1.0567
 2350SOL    HW218687   0.539   0.086   4.024 -1.0081  0.6387  0.3593
 2351SOL     OW18688   2.773   2.919   3.911 -0.2693 -0.6947  0.1735
 2351SOL    HW118689   2.692   2.908   3.861 -0.0982 -0.4104 -0.1616
 2351SOL    HW218690   2.751   2.995   3.964  1.0993  0.4068 -0.8579
 2352SOL     OW18691   3.571   0.286   3.931  0.6582  0.1222 -0.1764
 2352SOL    HW118692   3.626   0.217   3.969  0.5696  1.4605  2.3371
 2352SOL    HW218693   3.523   0.230   3.870  1.5350  1.0707 -1.7543
 2353SOL     OW18694   1.688   2.343   5.319 -0.6491  0.5679 -0.2748
 2353SOL    HW118695   1.756   2.315   5.381 -1.3903 -1.4713 -0.3595
 2353SOL    HW218696   1.645   2.414   5.366 -3.0801 -1.2660  0.2842
 2354SOL     OW18697   0.444   2.486   2.804 -0.9658  0.4722 -0.2849
 2354SOL    HW118698   0.406   2.424   2.741  2.1877  0.8225 -2.5638
 2354SOL    HW218699   0.426   2.440   2.886  0.1151 -0.1908 -0.4061
 2355SOL     OW18700   2.679   2.486  15.475 -0.2450 -0.1375 -0.1043
 2355SOL    HW118701   2.586   2.485  15.499 -0.3406  0.3583 -0.4466
 2355SOL    HW218702   2.677   2.404  15.425  1.8115  0.4894 -1.2225
 2356SOL     OW18703   3.169   3.691  17.417  0.8416 -0.9182  0.4540
 2356SOL    HW118704   3.177   3.595  17.422 -0.6632 -1.0194  0.8423
 2356SOL    HW218705   3.136   3.710  17.505  0.1786  2.3154 -0.4931
 2357SOL     OW18706   3.294   3.771   6.396  0.2788  0.4107  0.2824
 2357SOL    HW118707   3.236   3.837   6.357  2.9580  1.2539 -2.3022
 2357SOL    HW218708   3.242   3.756   6.475 -1.8346 -2.9984 -1.7870
 2358SOL     OW18709   0.160   2.982  11.635 -0.1617 -0.1865  0.2646
 2358SOL    HW118710   0.127   2.937  11.557 -1.1988  0.4594  0.3297
 2358SOL    HW218711   0.256   2.978  11.633 -0.2050 -0.5087 -1.5190
 2359SOL     OW18712   0.272   1.123   0.752 -0.0467 -0.1668 -0.6100
 2359SOL    HW118713   0.315   1.090   0.831 -0.9230 -1.2690 -0.6110
 2359SOL    HW218714   0.341   1.169   0.704  1.5954 -0.9622  0.9924
 2360SOL     OW18715   2.438   2.569   2.521  0.0254  0.4968  0.0460
 2360SOL    HW118716   2.470   2.503   2.583 -0.4975  1.6238  1.5280
 2360SOL    HW218717   2.347   2.544   2.504  1.2168 -3.1751 -0.9874
 2361SOL     OW18718   2.731   1.054   3.052 -0.0874  0.1267  0.0904
 2361SOL    HW118719   2.764   1.142   3.032  1.9262 -1.1282 -1.9880
 2361SOL    HW218720   2.651   1.077   3.100 -0.8137  0.5808 -1.3402
 2362SOL     OW18721   3.884   1.183  16.151  0.2243  0.0579 -0.1905
 2362SOL    HW118722   3.961   1.129  16.131  2.6484  3.1082  0.7944
 2362SOL    HW218723   3.920   1.255  16.204  0.5547  1.4364 -2.2905
 2363SOL     OW18724   1.204   2.895   4.382  0.3846 -0.1589 -0.3528
 2363SOL    HW118725   1.188   2.910   4.289 -2.6093 -0.6294  0.1088
 2363SOL    HW218726   1.172   2.971   4.431 -0.7140 -2.1008  1.9345
 2364SOL     OW18727   0.869   3.515   6.459 -0.2579  0.4741  0.2211
 2364SOL    HW118728   0.796   3.518   6.397 -0.8152  1.4254  0.9242
 2364SOL    HW218729   0.872   3.420   6.467 -0.7709  0.3589 -0.9541
 2365SOL     OW18730   3.444   2.696   5.962  1.1254  0.3310  0.3014
 2365SOL    HW118731   3.503   2.682   5.889  2.2740  0.1218  1.2774
 2365SOL    HW218732   3.513   2.691   6.028  0.8212  2.2799  0.7809
 2366SOL     OW18733   0.463   0.747   9.392 -0.3367 -0.0973 -0.1171
 2366SOL    HW118734   0.385   0.737   9.337 -0.3433  0.0941 -0.1432
 2366SOL    HW218735   0.467   0.659   9.429 -0.2679  0.1075  0.3568
 2367SOL     OW18736   1.478   0.687   5.963 -0.1791  0.2816  0.2570
 2367SOL    HW118737   1.396   0.711   5.920  0.5811  1.6495 -0.4481
 2367SOL    HW218738   1.451   0.705   6.054 -0.2598 -1.2609  0.5324
 2368SOL     OW18739   1.993   3.569  16.707  0.1869 -0.0091  0.1613
 2368SOL    HW118740   2.035   3.564  16.793  2.3419  0.7995 -0.8353
 2368SOL    HW218741   2.012   3.483  16.670  1.7579  0.4817 -0.1914
 2369SOL     OW18742   3.179   1.913  14.175  0.3792  0.0337  0.0550
 2369SOL    HW118743   3.113   1.936  14.240 -0.0103  1.7291 -0.9520
 2369SOL    HW218744   3.122   1.875  14.109  0.3489  1.8627 -0.9711
 2370SOL     OW18745   1.701   1.859   5.629  0.5356  0.1711  0.3833
 2370SOL    HW118746   1.615   1.834   5.664  0.1266  1.3162  0.1869
 2370SOL    HW218747   1.684   1.948   5.600  1.7143  1.1042  2.5509
 2371SOL     OW18748   1.668   0.268   8.826 -0.2808 -0.2662  0.1735
 2371SOL    HW118749   1.649   0.315   8.907 -0.5002  1.2879 -0.7716
 2371SOL    HW218750   1.760   0.241   8.829 -0.5709 -1.2429  0.1035
 2372SOL     OW18751   0.254   1.296  15.294  0.0437 -0.3194 -0.1802
 2372SOL    HW118752   0.186   1.345  15.248  1.6650 -0.3590 -2.6081
 2372SOL    HW218753   0.232   1.321  15.384  0.5392  0.5544 -0.3006
 2373SOL     OW18754   4.339   2.484   0.249 -0.2116  0.0677  0.7550
 2373SOL    HW118755   4.374   2.568   0.219  0.6605 -0.0964  1.3108
 2373SOL    HW218756   4.372   2.429   0.179 -1.0790  0.2297  0.2119
 2374SOL     OW18757   4.704   3.704   8.532 -0.2743  0.1931  0.3350
 2374SOL    HW118758   4.633   3.750   8.488  0.2280  0.7480  0.1103
 2374SOL    HW218759   0.019   3.680   8.455 -1.8116  0.4724 -0.7434
 2375SOL     OW18760   2.941   0.460   3.226  0.5545 -0.2594  0.1401
 2375SOL    HW118761   2.964   0.375   3.263 -1.6265  0.5892  3.4692
 2375SOL    HW218762   3.002   0.524   3.263 -1.7186  1.6096  0.6743
 2376SOL     OW18763   3.609   3.717   8.139 -0.3642 -0.4352  0.0194
 2376SOL    HW118764   3.560   3.780   8.191  1.0643 -0.4260  1.3614
 2376SOL    HW218765   3.603   3.636   8.190 -0.4032  0.6353  1.6815
 2377SOL     OW18766   3.080   3.635   2.821 -0.8093  0.2387 -0.0582
 2377SOL    HW118767   3.009   3.572   2.810 -0.2589 -0.3789 -0.0266
 2377SOL    HW218768   3.140   3.598   2.885 -0.4839  0.1967 -0.3896
 2378SOL     OW18769   0.327   3.818   6.955 -0.5072  0.1034  0.6688
 2378SOL    HW118770   0.322   3.810   6.860 -1.5804 -4.4200  1.0929
 2378SOL    HW218771   0.405   3.873   6.957  0.1626 -0.8273  0.1529
 2379SOL     OW18772   0.347   1.776   0.980  0.3533  0.2231  0.1017
 2379SOL    HW118773   0.442   1.789   0.982  0.7427 -2.7272  0.7902
 2379SOL    HW218774   0.312   1.857   1.017 -0.7387 -0.1951 -0.0215
 2380SOL     OW18775   3.857   2.128   4.041 -0.3942 -0.1449 -0.1445
 2380SOL    HW118776   3.825   2.180   3.967 -0.4170 -1.2037 -0.8773
 2380SOL    HW218777   3.773   2.130   4.086 -0.1056 -1.6435  0.4621
 2381SOL     OW18778   2.723   4.460   5.708  0.8364 -0.3617  0.1635
 2381SOL    HW118779   2.767   4.375   5.713  1.4492 -0.0289  0.3381
 2381SOL    HW218780   2.731   4.482   5.800 -2.1690  0.7286  0.1810
 2382SOL     OW18781   1.751   1.368   0.834  0.4512  0.6878 -0.4237
 2382SOL    HW118782   1.669   1.335   0.871  0.7709 -0.1969 -0.4906
 2382SOL    HW218783   1.708   1.427   0.772 -2.0366 -0.0830  0.5936
 2383SOL     OW18784   4.551   2.388   2.016  0.2645  1.1566  0.0426
 2383SOL    HW118785   4.580   2.299   1.997 -0.6158  0.5545  1.5230
 2383SOL    HW218786   4.498   2.410   1.939 -2.1058 -0.1264  1.3158
 2384SOL     OW18787   0.285   0.562   7.100  0.0827  0.0125  0.3693
 2384SOL    HW118788   0.262   0.605   7.018 -0.8291  0.0753  0.6541
 2384SOL    HW218789   0.370   0.605   7.111  0.4953 -1.0755  1.4920
 2385SOL     OW18790   1.199   3.692   4.802  0.3665 -0.5633  0.0523
 2385SOL    HW118791   1.131   3.758   4.815 -1.5768 -2.5208 -0.1565
 2385SOL    HW218792   1.250   3.704   4.882 -1.3556  3.3445  0.5826
 2386SOL     OW18793   1.297   2.205   6.872  0.4340  0.3057 -0.4489
 2386SOL    HW118794   1.382   2.161   6.866  0.2842 -0.2166  1.4372
 2386SOL    HW218795   1.331   2.294   6.866  3.0433 -0.7279 -1.0973
 2387SOL     OW18796   1.111   1.542  12.038 -0.5235  0.2221 -0.1252
 2387SOL    HW118797   1.090   1.513  12.126 -0.2054 -2.2467 -0.8536
 2387SOL    HW218798   1.140   1.633  12.050 -2.1073  0.8695 -1.1448
 2388SOL     OW18799   1.197   0.811   7.175 -0.0894  0.5674 -0.5446
 2388SOL    HW118800   1.164   0.730   7.136  0.3980  0.9186 -1.7035
 2388SOL    HW218801   1.171   0.788   7.264 -0.8332  1.9887 -0.3856
 2389SOL     OW18802   2.290   2.203   7.307 -0.0927 -0.3368  0.3852
 2389SOL    HW118803   2.316   2.115   7.333  2.7760  0.6229  0.7999
 2389SOL    HW218804   2.276   2.240   7.394 -0.1289 -1.3096  0.7946
 2390SOL     OW18805   4.564   0.665   9.946  0.0536 -0.2400  0.2448
 2390SOL    HW118806   4.555   0.760   9.950  4.2166  0.0776  1.7642
 2390SOL    HW218807   4.659   0.655   9.939  0.0118  0.3672 -1.2602
 2391SOL     OW18808   0.760   2.223   5.340  0.6440 -0.2116 -0.0075
 2391SOL    HW118809   0.847   2.208   5.378  1.2399 -2.4267 -2.1791
 2391SOL    HW218810   0.789   2.276   5.266  2.2965  0.3515  1.0312
 2392SOL     OW18811   3.782   1.187  17.680 -0.2367 -0.3053 -0.0515
 2392SOL    HW118812   3.865   1.211  17.721 -2.3822  2.1671  2.8574
 2392SOL    HW218813   3.800   1.194  17.586  0.4200 -5.2619 -0.3075
 2393SOL     OW18814   4.643   4.212   2.803  0.5654 -0.0931 -0.3111
 2393SOL    HW118815   4.574   4.180   2.862  0.1858 -0.6701 -1.0741
 2393SOL    HW218816   4.612   4.172   2.722  0.8112 -1.1915  0.1435
 2394SOL     OW18817   0.912   2.648   2.066 -0.0986  0.2036  0.0035
 2394SOL    HW118818   1.001   2.627   2.039  0.0789  3.2565 -1.7936
 2394SOL    HW218819   0.882   2.701   1.992 -1.2269 -0.2563  0.1316
 2395SOL     OW18820   3.981   1.994   5.066  0.8745  0.0274 -0.0173
 2395SOL    HW118821   3.974   2.018   5.159  1.1911 -0.8171  0.2197
 2395SOL    HW218822   3.889   1.989   5.040  0.6446  2.0519  0.3610
 2396SOL     OW18823   0.723   4.336   9.856  0.0327 -0.3325  0.5467
 2396SOL    HW118824   0.639   4.320   9.812 -0.3232 -0.9955  1.4527
 2396SOL    HW218825   0.758   4.248   9.867 -1.2760 -1.0007 -0.5998
 2397SOL     OW18826   1.662   3.676  13.878  0.1338  0.2534  0.8613
 2397SOL    HW118827   1.628   3.694  13.791  2.0096  2.2011  0.5345
 2397SOL    HW218828   1.707   3.755  13.906  1.3547 -1.1760  2.9473
 2398SOL     OW18829   2.414   3.216  16.077  1.3608  0.3530  0.5286
 2398SOL    HW118830   2.475   3.241  16.146  1.3108 -1.3029  1.1769
 2398SOL    HW218831   2.462   3.142  16.039  0.9066 -0.2609  1.1577
 2399SOL     OW18832   0.112   2.062  16.570 -0.1463  0.1631 -0.4429
 2399SOL    HW118833   0.040   2.080  16.510  0.2347 -0.6856 -1.1534
 2399SOL    HW218834   0.145   1.977  16.540 -0.1589 -0.7214  2.0061
 2400SOL     OW18835   1.192   2.936   2.419 -0.2983  0.2942 -0.2516
 2400SOL    HW118836   1.285   2.926   2.440  0.1873 -0.4614 -2.6798
 2400SOL    HW218837   1.150   2.938   2.504  0.2751  1.1806  0.0129
 2401SOL     OW18838   4.219   0.904   5.930  0.0377 -0.7155 -0.1129
 2401SOL    HW118839   4.159   0.904   5.855  1.9056 -0.6125 -1.6115
 2401SOL    HW218840   4.270   0.985   5.923  1.4039 -1.6102 -0.6130
 2402SOL     OW18841   3.673   4.016   7.492 -0.1485 -0.3296  0.5299
 2402SOL    HW118842   3.741   3.968   7.446  1.2222  0.8506  1.3298
 2402SOL    HW218843   3.689   4.107   7.465  0.0323 -0.4664  0.1887
 2403SOL     OW18844   0.497   1.757   6.340 -0.0241  0.0715 -0.0807
 2403SOL    HW118845   0.536   1.715   6.416 -0.3527  0.4998  0.3240
 2403SOL    HW218846   0.583   1.786   6.307  0.9312 -2.3665  0.2880
 2404SOL     OW18847   2.773   3.740  16.491  0.6342  0.1122  0.5207
 2404SOL    HW118848   2.679   3.725  16.503  0.5860  0.9935  1.2735
 2404SOL    HW218849   2.780   3.700  16.405 -0.8486  0.8213  0.0693
 2405SOL     OW18850   1.741   1.404   8.589  0.7116  0.5532  0.0789
 2405SOL    HW118851   1.800   1.472   8.622  0.4520  0.1176  1.4621
 2405SOL    HW218852   1.773   1.326   8.635  0.1281  1.0464  1.3436
 2406SOL     OW18853   3.082   1.824  11.391  0.1194 -0.0384  0.0262
 2406SOL    HW118854   3.116   1.838  11.480 -1.3199 -3.2680  1.0960
 2406SOL    HW218855   2.994   1.856  11.409  1.1727  1.4550  2.4757
 2407SOL     OW18856   2.340   2.391  16.207 -0.6035  0.0799  0.1614
 2407SOL    HW118857   2.343   2.480  16.171 -0.1476 -0.3181 -0.8007
 2407SOL    HW218858   2.434   2.386  16.226 -0.5949 -3.2757 -0.7482
 2408SOL     OW18859   0.643   3.145   7.571 -0.0910 -0.0999 -0.2269
 2408SOL    HW118860   0.623   3.158   7.478 -1.5142  2.0270  0.3856
 2408SOL    HW218861   0.713   3.208   7.587 -0.1447  0.1748 -1.0479
 2409SOL     OW18862   3.334   2.705  13.182 -0.2092 -0.5837 -0.3815
 2409SOL    HW118863   3.264   2.748  13.133  0.7868  1.0969 -0.3429
 2409SOL    HW218864   3.394   2.779  13.194 -0.1063 -0.8249  0.6367
 2410SOL     OW18865   0.004   1.967   5.978  0.4458  0.3119 -0.0026
 2410SOL    HW118866   0.048   1.916   5.910 -0.5602 -2.2320  1.2350
 2410SOL    HW218867   4.675   1.907   6.018 -0.7233  0.7846 -1.1311
 2411SOL     OW18868   2.138   0.653   0.827  0.5321  0.4642  0.1469
 2411SOL    HW118869   2.125   0.634   0.735 -2.4555  2.6102  0.1311
 2411SOL    HW218870   2.214   0.600   0.851  0.3239 -0.1130 -0.4907
 2412SOL     OW18871   3.614   3.550  16.671 -0.1033  0.6364  0.8563
 2412SOL    HW118872   3.638   3.631  16.716 -0.6363  0.9432  0.5896
 2412SOL    HW218873   3.595   3.594  16.588 -0.5859 -0.3698  0.4327
 2413SOL     OW18874   4.058   1.577   9.731  0.0765 -0.1881  0.0576
 2413SOL    HW118875   4.137   1.553   9.682 -0.9698 -0.0076 -1.7258
 2413SOL    HW218876   4.003   1.588   9.653  0.1828 -0.6556 -0.0871
 2414SOL     OW18877   1.365   4.107  17.094 -0.1480  0.1245  0.4413
 2414SOL    HW118878   1.412   4.024  17.093  1.6148  1.2170 -4.6198
 2414SOL    HW218879   1.389   4.142  17.180  0.2837  0.3780  0.2116
 2415SOL     OW18880   4.492   1.724   1.305  0.7625  0.7113  0.0143
 2415SOL    HW118881   4.463   1.652   1.249 -0.8949  1.3200  0.0921
 2415SOL    HW218882   4.583   1.697   1.289  1.1487  1.9361  0.1236
 2416SOL     OW18883   0.029   2.184   2.280  0.0789  0.1533  0.0589
 2416SOL    HW118884   0.065   2.111   2.331  0.7632 -0.2830 -1.0275
 2416SOL    HW218885   0.110   2.226   2.249  0.2071 -1.9127 -2.4559
 2417SOL     OW18886   2.732   0.639  17.339  0.1239 -0.2958 -0.4737
 2417SOL    HW118887   2.680   0.692  17.400  1.9265 -0.1086  0.8984
 2417SOL    HW218888   2.787   0.706  17.297  0.7845 -0.2567  0.4394
 2418SOL     OW18889   0.150   3.416   9.098 -0.3980 -0.0019 -0.3193
 2418SOL    HW118890   0.224   3.428   9.157  0.2583 -1.1405 -0.9105
 2418SOL    HW218891   0.084   3.408   9.167 -1.7163  1.8231 -1.3611
 2419SOL     OW18892   4.618   0.442  10.396 -0.2674  0.0586 -0.5532
 2419SOL    HW118893   4.704   0.454  10.435 -1.1518  0.4758  1.2999
 2419SOL    HW218894   4.567   0.415  10.473 -0.0562  1.8399  0.2115
 2420SOL     OW18895   0.655   0.233   8.336  0.0565  0.1282 -0.8130
 2420SOL    HW118896   0.743   0.264   8.316  0.5283 -0.6101  0.1139
 2420SOL    HW218897   0.639   0.146   8.299  1.4736 -0.7866  0.7240
 2421SOL     OW18898   3.002   0.217   2.265  0.3091 -0.1541  0.2747
 2421SOL    HW118899   2.973   0.278   2.334 -1.9719 -0.1134 -0.7429
 2421SOL    HW218900   3.067   0.169   2.316 -0.3095 -1.9825 -0.6835
 2422SOL     OW18901   2.733   1.925  16.671 -0.2413  0.2774 -0.8332
 2422SOL    HW118902   2.765   1.890  16.587 -0.4716 -3.7259  0.7627
 2422SOL    HW218903   2.639   1.933  16.653 -0.1444  1.2209 -0.9329
 2423SOL     OW18904   3.598   0.167  16.626  0.0127  0.4780  0.0575
 2423SOL    HW118905   3.662   0.164  16.555  0.0110 -3.7450  0.2477
 2423SOL    HW218906   3.599   0.082  16.670  0.5389  0.4129 -0.0785
 2424SOL     OW18907   0.591   2.609   3.262  0.7567  0.6806  0.3798
 2424SOL    HW118908   0.551   2.615   3.175 -0.9789  0.3787  1.1611
 2424SOL    HW218909   0.638   2.527   3.247  1.2866  0.3700  3.8905
 2425SOL     OW18910   1.855   3.589   1.786 -0.0048  0.1889  0.0000
 2425SOL    HW118911   1.930   3.598   1.845  0.1355 -1.9989  0.1651
 2425SOL    HW218912   1.826   3.680   1.780  0.8804  0.2750 -3.0946
 2426SOL     OW18913   2.584   4.650   1.912 -0.3427 -0.2670 -0.6729
 2426SOL    HW118914   2.661   4.669   1.966 -0.9089  0.8321 -0.2564
 2426SOL    HW218915   2.525   4.702   1.966  1.3500  1.0706 -0.1400
 2427SOL     OW18916   3.544   1.266   9.613 -0.1740 -0.2100  0.0338
 2427SOL    HW118917   3.481   1.203   9.650  0.8400 -0.3297  1.5377
 2427SOL    HW218918   3.547   1.338   9.676  1.1559  0.5150 -0.8704
 2428SOL     OW18919   4.340   1.949   1.432 -0.6799  0.7589  0.2411
 2428SOL    HW118920   4.261   1.913   1.393 -0.0077 -0.1670 -0.2804
 2428SOL    HW218921   4.405   1.886   1.400 -0.7731  0.1190  1.3066
 2429SOL     OW18922   1.916   0.896   1.659  0.1572  0.3373  0.8072
 2429SOL    HW118923   1.879   0.983   1.647  0.6632  0.4515  0.0478
 2429SOL    HW218924   1.834   0.847   1.669 -0.4305  1.7588  2.9235
 2430SOL     OW18925   0.190   4.705   0.807  0.1720  0.0656  0.5376
 2430SOL    HW118926   0.256   4.672   0.746  0.1533  2.9463 -1.0342
 2430SOL    HW218927   0.109   4.662   0.779  0.6087 -1.3137  1.4031
 2431SOL     OW18928   3.502   2.367  14.283 -0.8516  0.2228 -0.7543
 2431SOL    HW118929   3.498   2.427  14.209 -1.1986 -0.1612 -1.0460
 2431SOL    HW218930   3.448   2.294  14.253  1.3758 -1.3316 -0.9848
 2432SOL     OW18931   4.027   1.278   8.876 -0.2330  0.5080  0.1933
 2432SOL    HW118932   4.051   1.193   8.913  1.3511  1.1556  0.6446
 2432SOL    HW218933   3.935   1.286   8.901 -0.3125  0.5207 -0.1038
 2433SOL     OW18934   3.449   4.411   2.346  0.5424  0.1480  0.4508
 2433SOL    HW118935   3.540   4.429   2.323  0.2459  2.4158  1.0412
 2433SOL    HW218936   3.468   4.343   2.411  3.0002  0.3650 -0.0535
 2434SOL     OW18937   3.828   0.209   6.084  0.0344 -0.0858  0.6823
 2434SOL    HW118938   3.817   0.189   6.177 -0.4998 -0.1231  0.6109
 2434SOL    HW218939   3.840   0.125   6.039 -0.3689  0.0663  0.3026
 2435SOL     OW18940   0.786   1.759   1.469 -0.4382 -0.0549 -0.4229
 2435SOL    HW118941   0.803   1.680   1.521  0.0021 -1.5938 -2.9207
 2435SOL    HW218942   0.813   1.833   1.523 -0.5141 -1.6747  1.8326
 2436SOL     OW18943   4.484   2.316   3.211 -0.1128  0.3905 -0.5577
 2436SOL    HW118944   4.394   2.314   3.243 -0.6007 -2.0084 -2.1198
 2436SOL    HW218945   4.475   2.278   3.123  0.2265  0.9838 -0.8554
 2437SOL     OW18946   2.253   3.904   4.689 -0.3511  0.9571 -0.1507
 2437SOL    HW118947   2.221   3.830   4.741  3.5185 -0.6119  0.0231
 2437SOL    HW218948   2.221   3.881   4.602 -1.9651 -2.6077  1.3874
 2438SOL     OW18949   1.688   4.590   9.764  0.1578 -0.4731 -0.4221
 2438SOL    HW118950   1.768   4.576   9.816 -0.8043 -2.0678  0.6399
 2438SOL    HW218951   1.652   4.502   9.770 -2.8116  0.7522 -0.4543
 2439SOL     OW18952   4.541   3.653  14.992  0.5293 -0.1075  0.1480
 2439SOL    HW118953   4.554   3.605  15.074 -0.5426  1.0334  0.9780
 2439SOL    HW218954   4.634   3.665  14.971  0.3592 -0.8844 -1.0362
 2440SOL     OW18955   3.494   1.709   9.798 -0.0940  0.2911 -0.2328
 2440SOL    HW118956   3.493   1.718   9.893  1.3300 -1.0064 -0.0923
 2440SOL    HW218957   3.545   1.790   9.789  0.2494 -0.0941 -1.6757
 2441SOL     OW18958   0.474   1.302   4.909 -0.6240  0.4212 -0.3877
 2441SOL    HW118959   0.567   1.298   4.884 -0.2483  1.0228  0.9196
 2441SOL    HW218960   0.442   1.259   4.830 -2.2028  0.0685  0.4613
 2442SOL     OW18961   1.213   3.453   1.834 -0.4137  0.3978  0.5466
 2442SOL    HW118962   1.281   3.487   1.893  0.2101 -0.7327  0.4759
 2442SOL    HW218963   1.263   3.486   1.759  1.0655 -1.4257  0.7429
 2443SOL     OW18964   1.683   3.895   9.539 -0.0608 -0.3110  0.3330
 2443SOL    HW118965   1.631   3.938   9.606 -1.4037  0.9249 -1.4822
 2443SOL    HW218966   1.685   3.802   9.561  0.0730 -0.4330 -0.1882
 2444SOL     OW18967   0.960   3.198  13.858 -0.1331 -0.0085  0.2338
 2444SOL    HW118968   1.040   3.243  13.886  1.1236 -2.2069  0.2167
 2444SOL    HW218969   0.921   3.177  13.943  0.2903 -0.1414  0.3998
 2445SOL     OW18970   0.378   3.302   8.406  0.0424 -0.1175 -0.4640
 2445SOL    HW118971   0.334   3.267   8.483  0.7874 -0.0591 -0.0060
 2445SOL    HW218972   0.368   3.396   8.417  1.1008  0.0651 -1.0346
 2446SOL     OW18973   4.325   0.659   7.744 -0.1677 -0.1498  0.5767
 2446SOL    HW118974   4.391   0.664   7.813 -0.7903 -1.4724  1.2598
 2446SOL    HW218975   4.254   0.602   7.774 -0.7478  0.1299 -0.2719
 2447SOL     OW18976   3.216   2.107  13.912 -0.1523 -0.0547 -0.1221
 2447SOL    HW118977   3.176   2.120  13.825  0.7951  0.0153 -0.5470
 2447SOL    HW218978   3.152   2.050  13.954 -0.0365 -0.7918 -0.9464
 2448SOL     OW18979   1.657   3.207  11.912 -0.7566 -0.1558  0.0127
 2448SOL    HW118980   1.697   3.222  11.998  0.4200  0.5501 -0.6578
 2448SOL    HW218981   1.712   3.252  11.848  0.3967 -0.6624  0.6424
 2449SOL     OW18982   0.076   3.568   3.254 -0.3632  0.4834 -1.1227
 2449SOL    HW118983   0.118   3.595   3.173  2.0042  1.2289  0.3430
 2449SOL    HW218984   4.726   3.613   3.251 -0.5122  0.2043 -1.0148
 2450SOL     OW18985   1.734   4.255   1.887 -0.1068 -0.2667 -0.4266
 2450SOL    HW118986   1.670   4.186   1.907  0.4732 -0.6798  0.0117
 2450SOL    HW218987   1.702   4.321   1.949  1.5812 -0.1303  0.2960
 2451SOL     OW18988   0.292   0.005   7.845  0.4974 -0.5198 -0.2271
 2451SOL    HW118989   0.338   4.688   7.912 -0.6107  0.0512  0.9769
 2451SOL    HW218990   0.217   0.035   7.897 -0.0560 -1.9320 -0.2068
 2452SOL     OW18991   3.711   2.568   7.670  0.0845 -0.1682 -0.3049
 2452SOL    HW118992   3.755   2.646   7.636 -1.1286  0.3834 -0.6038
 2452SOL    HW218993   3.637   2.563   7.610 -1.2091  1.8268  1.1243
 2453SOL     OW18994   3.884   2.093   8.907  0.8378 -0.1386  0.1599
 2453SOL    HW118995   3.882   1.998   8.906 -2.2870 -0.0796  0.2461
 2453SOL    HW218996   3.964   2.112   8.957  0.8519 -0.1709  0.1495
 2454SOL     OW18997   0.894   2.950  12.973  0.0965 -0.1098  0.7831
 2454SOL    HW118998   0.859   2.923  13.058 -0.7589  0.7879  0.7190
 2454SOL    HW218999   0.981   2.973  13.005  0.7196 -1.0390 -0.2762
 2455SOL     OW19000   4.541   1.719   5.586 -0.3561 -0.2192  0.3626
 2455SOL    HW119001   4.488   1.648   5.549 -0.4249 -0.4764  0.9662
 2455SOL    HW219002   4.625   1.681   5.559  0.4839  0.3598  2.1649
 2456SOL     OW19003   2.928   4.459   4.162  0.2511  0.3088 -0.4630
 2456SOL    HW119004   2.954   4.485   4.074 -0.5875  3.5018  0.2308
 2456SOL    HW219005   2.832   4.451   4.155  0.3085 -1.0248  0.1672
 2457SOL     OW19006   1.279   3.106   6.822  0.2226  0.5443 -0.2489
 2457SOL    HW119007   1.351   3.168   6.828  0.3673  0.2770  0.8233
 2457SOL    HW219008   1.244   3.119   6.734  0.9557 -0.0021 -0.6144
 2458SOL     OW19009   0.674   0.185   4.122 -0.2787  0.2646 -0.4992
 2458SOL    HW119010   0.751   0.227   4.084  0.6636 -1.8014 -0.8852
 2458SOL    HW219011   0.616   0.256   4.150 -0.2174  0.2141 -0.2454
 2459SOL     OW19012   3.976   0.384   5.025  0.2059 -0.3212 -0.4532
 2459SOL    HW119013   4.067   0.360   5.041  0.0983  0.8678  1.9939
 2459SOL    HW219014   3.944   0.295   5.039  1.7483 -0.6258  1.1865
 2460SOL     OW19015   1.505   2.898   3.111 -0.0841 -0.0306  0.1569
 2460SOL    HW119016   1.508   2.851   3.195 -1.2948 -1.6555 -0.6998
 2460SOL    HW219017   1.499   2.989   3.139  0.6533 -0.1375  0.6606
 2461SOL     OW19018   4.586   2.190   0.533  0.0315  0.0521 -0.1057
 2461SOL    HW119019   4.554   2.198   0.623 -1.0773 -2.2591 -0.2994
 2461SOL    HW219020   4.665   2.137   0.546 -0.0591  0.1977  1.0378
 2462SOL     OW19021   0.015   0.765   2.437 -0.2142  0.0800 -0.5345
 2462SOL    HW119022   0.077   0.836   2.451 -0.6751  0.3783 -0.0094
 2462SOL    HW219023   4.672   0.810   2.403 -1.2915 -1.4104 -0.0721
 2463SOL     OW19024   3.433   0.348   6.102  0.4982  0.1084  0.0186
 2463SOL    HW119025   3.473   0.408   6.166  0.9761  1.2085 -1.3110
 2463SOL    HW219026   3.366   0.408   6.070 -0.1027 -0.5582  0.0264
 2464SOL     OW19027   0.279   3.048   3.304  0.3137 -0.0060  0.1586
 2464SOL    HW119028   0.259   2.963   3.344  0.6614  0.4680  1.3331
 2464SOL    HW219029   0.348   3.022   3.243  0.2198 -2.2023  1.0142
 2465SOL     OW19030   1.660   2.485   3.006  0.3564  0.8643  0.1895
 2465SOL    HW119031   1.661   2.516   2.915 -0.2705  2.2502  0.6522
 2465SOL    HW219032   1.680   2.574   3.036  1.2153  0.6979  0.1072
 2466SOL     OW19033   1.974   0.272   9.910  0.1149  0.0687  0.4378
 2466SOL    HW119034   1.900   0.287   9.850  0.3261  0.6392  0.3243
 2466SOL    HW219035   1.915   0.231   9.974  0.1680 -0.3463  0.2232
 2467SOL     OW19036   2.586   3.438  17.682 -0.3449 -0.3517 -0.0812
 2467SOL    HW119037   2.512   3.450  17.623 -2.3609  0.2597  2.5947
 2467SOL    HW219038   2.543   3.417   0.027  1.6150 -1.7220  0.5811
 2468SOL     OW19039   3.869   0.959   6.589 -0.2071  0.2250  0.3280
 2468SOL    HW119040   3.927   0.883   6.586 -2.4023 -1.3915 -0.4182
 2468SOL    HW219041   3.865   0.975   6.683  1.6698 -0.3409  0.5196
 2469SOL     OW19042   1.543   1.550   6.674 -0.0964  0.2005 -0.1298
 2469SOL    HW119043   1.634   1.526   6.687  0.2077  0.0112 -2.6709
 2469SOL    HW219044   1.531   1.594   6.758 -1.1176 -1.0915  0.4065
 2470SOL     OW19045   4.337   3.547  17.605  0.1202  0.3188  0.3102
 2470SOL    HW119046   4.318   3.459  17.574 -1.5042  0.9682 -0.5683
 2470SOL    HW219047   4.288   3.551  17.687 -0.3778 -2.0891  0.1097
 2471SOL     OW19048   0.063   1.478   0.194 -0.4356 -0.2620 -0.0418
 2471SOL    HW119049   4.725   1.447   0.140 -1.5038  2.4713 -0.1879
 2471SOL    HW219050   0.114   1.397   0.188 -0.3239 -0.1938 -0.0107
 2472SOL     OW19051   1.920   2.329   0.073  0.2121  0.7293  0.3081
 2472SOL    HW119052   1.879   2.306  17.728 -3.3015  0.5036  2.1351
 2472SOL    HW219053   2.014   2.324   0.055  0.1109  0.2212 -0.0627
 2473SOL     OW19054   2.442   1.122   4.172  0.2018  0.4175  0.1978
 2473SOL    HW119055   2.448   1.204   4.221  0.3519  0.9400 -0.6954
 2473SOL    HW219056   2.451   1.061   4.246  1.4128 -0.1410 -0.4116
 2474SOL     OW19057   2.081   2.890   2.951  0.0109  0.4945 -0.5661
 2474SOL    HW119058   1.995   2.930   2.935 -0.2519 -1.0411 -2.9324
 2474SOL    HW219059   2.092   2.912   3.044  1.4209 -1.3801 -0.2984
 2475SOL     OW19060   2.204   3.397  10.585  0.3879  0.5273  0.1183
 2475SOL    HW119061   2.121   3.370  10.547  0.6382 -0.7614  0.5037
 2475SOL    HW219062   2.246   3.312  10.575  0.3411  0.4981  0.1693
 2476SOL     OW19063   2.254   2.041   3.738 -0.1940  0.5754 -0.1698
 2476SOL    HW119064   2.322   2.091   3.783  0.3336 -0.0243 -0.3093
 2476SOL    HW219065   2.205   2.010   3.814 -0.8835 -0.2732 -0.9700
 2477SOL     OW19066   1.550   4.344   9.422  0.4400  0.9438 -0.2632
 2477SOL    HW119067   1.595   4.321   9.503  0.1193 -0.9103 -0.6085
 2477SOL    HW219068   1.615   4.321   9.356 -0.0043  0.3592 -0.4987
 2478SOL     OW19069   1.733   1.122   4.600  0.3691  0.4735 -0.2604
 2478SOL    HW119070   1.765   1.057   4.663 -2.2827  0.7714  1.4005
 2478SOL    HW219071   1.638   1.113   4.590  0.7482 -2.1808 -1.3578
 2479SOL     OW19072   3.729   3.024   9.956  0.3590  0.7292 -0.3324
 2479SOL    HW119073   3.783   3.046  10.031 -0.5824 -0.2979  0.6390
 2479SOL    HW219074   3.640   3.014   9.989  0.7469  0.6257  0.6708
 2480SOL     OW19075   0.412   0.609   3.989  0.4485 -0.0923  0.3666
 2480SOL    HW119076   0.431   0.632   4.080 -0.4377 -0.7048  0.7031
 2480SOL    HW219077   0.499   0.625   3.951  1.0943 -2.2469  0.9149
 2481SOL     OW19078   0.865   0.705   1.851  0.0847 -0.1464 -0.3253
 2481SOL    HW119079   0.952   0.745   1.852  0.3993 -0.8041 -2.3232
 2481SOL    HW219080   0.900   0.620   1.824 -1.0091 -1.0451  1.0274
 2482SOL     OW19081   1.989   2.065   7.237  0.2194 -0.0922  0.1388
 2482SOL    HW119082   2.002   2.028   7.325 -0.2966 -0.2313  0.1565
 2482SOL    HW219083   2.004   2.158   7.251 -0.6831 -0.2115  1.9331
 2483SOL     OW19084   2.994   0.575  17.506  0.0882 -0.1149 -0.0241
 2483SOL    HW119085   3.066   0.512  17.504 -1.5732 -2.0077  0.2907
 2483SOL    HW219086   3.025   0.633  17.436  1.3789  0.5206  1.0599
 2484SOL     OW19087   0.537   2.071   2.697  0.3122  0.2175 -0.2796
 2484SOL    HW119088   0.449   2.111   2.701  0.7194  1.2151 -1.1496
 2484SOL    HW219089   0.523   1.994   2.751  1.0615 -0.0575 -0.4851
 2485SOL     OW19090   0.050   0.902   7.849  0.2588  0.2071  0.1753
 2485SOL    HW119091   0.050   0.912   7.754  0.8240  1.8812  0.3411
 2485SOL    HW219092   4.729   0.978   7.870 -1.2367 -0.4870 -1.2073
 2486SOL     OW19093   3.094   1.625  17.726  0.2350  0.6180 -0.7733
 2486SOL    HW119094   3.186   1.607   0.006 -0.3482 -0.4198  1.1852
 2486SOL    HW219095   3.062   1.659   0.072  0.2322 -0.2434 -0.4231
 2487SOL     OW19096   3.003   3.498   3.452  0.5391  0.4031 -0.5616
 2487SOL    HW119097   2.913   3.467   3.462  0.0361  2.2474  0.6589
 2487SOL    HW219098   3.000   3.576   3.507  0.9949  0.1249 -0.1364
 2488SOL     OW19099   0.999   4.454  16.529 -0.0551  0.8075  0.0440
 2488SOL    HW119100   1.053   4.445  16.607  0.0354 -0.4064 -0.1613
 2488SOL    HW219101   0.948   4.534  16.545 -0.6770  1.0600 -3.1131
 2489SOL     OW19102   0.375   0.793   1.444  0.3712 -0.1780  0.2841
 2489SOL    HW119103   0.298   0.846   1.463  0.0395 -0.1659 -1.1526
 2489SOL    HW219104   0.376   0.729   1.515 -0.2172 -1.6350 -1.0213
 2490SOL     OW19105   4.421   1.219   2.746 -0.0904  0.2362 -0.4491
 2490SOL    HW119106   4.416   1.127   2.722  0.4176  0.6943 -2.3032
 2490SOL    HW219107   4.370   1.223   2.828  1.8236 -0.0610  0.7546
 2491SOL     OW19108   3.234   0.030   6.715 -0.1408 -0.0485  0.0427
 2491SOL    HW119109   3.249   0.025   6.809  1.6886 -1.5495 -0.3171
 2491SOL    HW219110   3.284   0.103   6.680  0.7400 -1.5459 -1.8360
 2492SOL     OW19111   3.809   2.866   7.293  0.2587 -0.1440  0.4960
 2492SOL    HW119112   3.842   2.955   7.276  0.0241 -0.5317 -1.8969
 2492SOL    HW219113   3.738   2.865   7.230  1.0005  0.7919 -0.3509
 2493SOL     OW19114   2.837   1.976   3.742  0.2264  0.0694  0.1380
 2493SOL    HW119115   2.930   1.987   3.720 -0.3634 -0.1102 -2.5189
 2493SOL    HW219116   2.836   2.000   3.834 -0.6948 -3.4379  1.0242
 2494SOL     OW19117   4.129   1.059   8.375  0.2443  0.0640 -0.5761
 2494SOL    HW119118   4.146   0.985   8.434 -1.9811 -0.2328 -0.3119
 2494SOL    HW219119   4.080   1.116   8.434  0.9912 -0.6035  0.6865
 2495SOL     OW19120   1.119   1.202   4.800  0.3061 -0.2094 -0.2076
 2495SOL    HW119121   1.169   1.204   4.882  1.4353 -1.1030 -0.8725
 2495SOL    HW219122   1.119   1.292   4.769 -0.4078 -0.5815 -1.2988
 2496SOL     OW19123   2.198   0.435   6.275  0.0222 -0.2406 -0.0124
 2496SOL    HW119124   2.175   0.511   6.222  0.8267  0.3617  0.5091
 2496SOL    HW219125   2.231   0.486   6.348  0.9587  1.9122 -1.9726
 2497SOL     OW19126   1.111   4.303   5.671  0.4982 -0.0474  0.0720
 2497SOL    HW119127   1.098   4.213   5.640 -0.3480 -0.0052  0.2995
 2497SOL    HW219128   1.151   4.291   5.757  2.3706 -0.8775 -0.9165
 2498SOL     OW19129   4.433   0.375   0.947 -0.0010  0.9418 -0.3211
 2498SOL    HW119130   4.362   0.313   0.929 -1.0551  1.1151  3.3103
 2498SOL    HW219131   4.510   0.319   0.950 -1.5077 -1.1374 -0.9209
 2499SOL     OW19132   2.196   4.048   9.926 -0.4585  0.9477 -0.0224
 2499SOL    HW119133   2.158   4.084   9.846 -0.7762  1.3849  0.3242
 2499SOL    HW219134   2.283   4.018   9.901  0.0129  0.8569  1.7023
 2500SOL     OW19135   2.768   1.476   5.043 -0.2433 -0.5303  0.4045
 2500SOL    HW119136   2.756   1.452   4.951 -1.1028  0.8708  0.1604
 2500SOL    HW219137   2.720   1.558   5.050 -2.0942 -1.7375  1.7270
 2501SOL     OW19138   1.695   1.901   6.939 -0.4921 -0.2020  0.5684
 2501SOL    HW119139   1.772   1.909   6.883 -1.7797  1.1685 -1.0130
 2501SOL    HW219140   1.740   1.901   7.023  0.3724  2.5221  0.1021
 2502SOL     OW19141   1.159   1.595   4.050 -0.6263 -0.0526  0.6922
 2502SOL    HW119142   1.136   1.516   4.002  1.1621 -0.0421 -0.1648
 2502SOL    HW219143   1.193   1.654   3.982 -0.7044  0.7325  1.3241
 2503SOL     OW19144   4.572   3.746  15.697  0.4943 -0.1349 -0.2262
 2503SOL    HW119145   4.592   3.776  15.786  0.2140 -3.5939  1.0227
 2503SOL    HW219146   4.489   3.712  15.730 -0.3743 -0.8037 -3.1766
 2504SOL     OW19147   0.492   2.046  16.556 -1.1297  0.2272 -0.5791
 2504SOL    HW119148   0.440   2.015  16.482  1.4741 -2.7598 -1.1587
 2504SOL    HW219149   0.465   2.138  16.562 -2.2379 -0.2507  2.0165
 2505SOL     OW19150   2.956   2.904   4.487 -0.5193 -0.5635 -0.3516
 2505SOL    HW119151   2.982   2.869   4.401  1.0488 -0.9278  0.2716
 2505SOL    HW219152   2.876   2.950   4.461 -0.5589 -1.8442 -2.5850
 2506SOL     OW19153   3.460   0.611  11.749 -0.2820  0.2220  0.1690
 2506SOL    HW119154   3.518   0.684  11.729  0.0210 -0.5762 -1.7769
 2506SOL    HW219155   3.487   0.601  11.841  1.6220 -0.2463 -0.4552
 2507SOL     OW19156   1.458   2.356  13.485  0.1921  0.1732  0.0295
 2507SOL    HW119157   1.504   2.421  13.538 -0.4617  0.8458 -0.2159
 2507SOL    HW219158   1.447   2.403  13.402  1.1874 -2.2921 -1.4932
 2508SOL     OW19159   2.328   2.555   7.869 -0.0144  0.3281  0.4643
 2508SOL    HW119160   2.351   2.482   7.812 -2.0220 -0.4619  0.6536
 2508SOL    HW219161   2.394   2.621   7.851 -1.1898  1.5307  0.5988
 2509SOL     OW19162   0.183   3.720   4.180 -0.5399  0.3063 -0.6813
 2509SOL    HW119163   0.154   3.707   4.270  2.7785 -1.4194  0.1415
 2509SOL    HW219164   0.108   3.773   4.151  0.2716  1.1996 -1.1541
 2510SOL     OW19165   0.302   0.686  11.857  0.2342  0.0253 -0.4841
 2510SOL    HW119166   0.336   0.605  11.818 -1.1115 -1.1843  0.7980
 2510SOL    HW219167   0.211   0.672  11.829  0.8923  1.3492 -3.2475
 2511SOL     OW19168   3.535   4.091   5.387  0.8993 -0.2567  0.3073
 2511SOL    HW119169   3.610   4.127   5.435  0.8459 -0.0005  0.1994
 2511SOL    HW219170   3.561   4.123   5.300 -2.2366 -1.8101 -1.2178
 2512SOL     OW19171   4.428   1.914   7.692  0.0714  0.5505  0.2446
 2512SOL    HW119172   4.380   1.945   7.769  0.5367 -0.0356  0.7591
 2512SOL    HW219173   4.516   1.946   7.707 -0.2919  1.2638  0.8807
 2513SOL     OW19174   3.070   1.464   8.468  0.3074 -0.7799  0.0205
 2513SOL    HW119175   3.105   1.520   8.538 -1.7797 -0.4461  0.7988
 2513SOL    HW219176   3.149   1.452   8.417  2.0783 -1.9760  3.0456
 2514SOL     OW19177   3.944   0.989   7.574 -0.1523  0.0362  0.7739
 2514SOL    HW119178   4.032   0.980   7.611  0.8980  1.1306 -1.4713
 2514SOL    HW219179   3.946   1.072   7.526 -0.1238 -0.1758  0.4079
 2515SOL     OW19180   0.829   3.739   5.018 -0.0854 -0.8486  0.1726
 2515SOL    HW119181   0.776   3.761   5.095 -0.1241 -1.6097  0.3643
 2515SOL    HW219182   0.768   3.703   4.954 -0.5498  0.9677 -0.4308
 2516SOL     OW19183   0.745   3.398  10.652  0.1777 -0.4525  0.5787
 2516SOL    HW119184   0.802   3.442  10.714  0.8078 -0.8764  0.2936
 2516SOL    HW219185   0.804   3.348  10.596 -1.4781 -2.4200  0.5643
 2517SOL     OW19186   2.325   2.794   4.046 -0.3683  0.4860 -0.4410
 2517SOL    HW119187   2.310   2.794   3.952  0.6583 -5.1825 -0.6454
 2517SOL    HW219188   2.237   2.780   4.081 -0.1961 -3.9113 -1.7931
 2518SOL     OW19189   1.159   2.438  17.645  0.1758 -0.1306  0.6196
 2518SOL    HW119190   1.073   2.420  17.608  0.2893  2.7926 -0.9893
 2518SOL    HW219191   1.138   2.512  17.701 -0.3220  0.1960 -0.0111
 2519SOL     OW19192   0.514   0.394  14.171 -0.7671  0.7666  0.2510
 2519SOL    HW119193   0.502   0.457  14.242  1.2785 -0.3320  1.5520
 2519SOL    HW219194   0.444   0.417  14.110 -0.7834 -1.4256 -0.5454
 2520SOL     OW19195   2.725   0.996   6.702  0.0200  0.4321  0.1128
 2520SOL    HW119196   2.810   1.036   6.687 -1.0118  2.3609 -0.6323
 2520SOL    HW219197   2.727   0.993   6.798 -1.1000  2.2188  0.1971
 2521SOL     OW19198   4.086   1.138   9.943 -0.1647  0.0991 -0.3566
 2521SOL    HW119199   4.030   1.073   9.900 -0.7815 -0.2916  1.0416
 2521SOL    HW219200   4.048   1.148  10.030 -2.2955 -0.9156 -1.1668
 2522SOL     OW19201   2.851   2.749   6.809 -0.8656  0.1316  0.0138
 2522SOL    HW119202   2.858   2.775   6.717  0.3838 -1.3102 -0.3170
 2522SOL    HW219203   2.785   2.680   6.801 -0.4451 -0.3678  0.8491
 2523SOL     OW19204   2.727   1.769  12.231  0.1014  0.2613 -0.1880
 2523SOL    HW119205   2.641   1.778  12.192  0.0554 -0.8609 -0.3697
 2523SOL    HW219206   2.726   1.673  12.231 -0.9518  0.2802  0.1914
 2524SOL     OW19207   3.419   4.688   2.180 -0.5656  0.1272  0.0598
 2524SOL    HW119208   3.501   4.734   2.159  0.5419 -2.1033 -0.5266
 2524SOL    HW219209   3.424   4.606   2.131  2.2256  0.2426  0.1358
 2525SOL     OW19210   2.449   3.886  17.014 -0.1844  0.6706 -0.8621
 2525SOL    HW119211   2.479   3.801  16.981  1.7748  0.0997  2.3754
 2525SOL    HW219212   2.498   3.944  16.956  3.8225 -0.3940  1.4766
 2526SOL     OW19213   2.239   1.712  13.168 -0.0861 -0.3826  0.1628
 2526SOL    HW119214   2.214   1.697  13.076 -1.5086  0.0843  0.4658
 2526SOL    HW219215   2.220   1.625  13.202  1.2649 -0.4123  0.8455
 2527SOL     OW19216   4.438   1.476   4.480 -0.0776 -0.1142  0.0233
 2527SOL    HW119217   4.514   1.433   4.517  0.4923  0.9466  0.0958
 2527SOL    HW219218   4.394   1.500   4.562  0.4760 -2.9290  1.1466
 2528SOL     OW19219   3.521   4.569   5.036  0.2743 -0.3091 -0.3058
 2528SOL    HW119220   3.514   4.533   5.124  0.0360  0.1718 -0.1311
 2528SOL    HW219221   3.432   4.596   5.014  1.2698  2.2629 -1.3024
 2529SOL     OW19222   3.664   1.534   5.609  0.4622 -0.7649 -0.5830
 2529SOL    HW119223   3.716   1.574   5.539  0.8444 -0.1596  0.0525
 2529SOL    HW219224   3.741   1.497   5.653 -0.1433 -0.9267  0.3344
 2530SOL     OW19225   4.422   3.772   7.744  0.4486 -0.5137 -0.1546
 2530SOL    HW119226   4.404   3.686   7.706  1.3120 -1.0108  0.5646
 2530SOL    HW219227   4.380   3.825   7.677 -1.5282  0.8160  2.1071
 2531SOL     OW19228   0.217   0.232   8.799  0.0435 -0.0437  0.1661
 2531SOL    HW119229   0.281   0.161   8.802 -0.0717 -0.2816 -2.7748
 2531SOL    HW219230   0.223   0.270   8.711  1.0800  0.3647  0.4222
 2532SOL     OW19231   4.509   2.682   1.462  0.3135 -0.5730  0.3260
 2532SOL    HW119232   4.472   2.595   1.481  0.8468 -1.3646 -2.3208
 2532SOL    HW219233   4.587   2.685   1.517 -1.5842  2.8815  2.8631
 2533SOL     OW19234   1.199   2.223   9.273 -1.3475 -0.1044 -0.5481
 2533SOL    HW119235   1.163   2.303   9.235 -2.5989 -1.0946 -1.4366
 2533SOL    HW219236   1.204   2.163   9.199  0.9193 -0.1970 -0.3058
 2534SOL     OW19237   3.231   4.415   0.085  0.1647  0.0713  0.4335
 2534SOL    HW119238   3.325   4.413   0.070  0.0211 -0.2045 -0.4730
 2534SOL    HW219239   3.212   4.508   0.075  1.4367  0.3075  0.2806
 2535SOL     OW19240   1.316   1.411   6.558  0.0202  0.5896  0.1220
 2535SOL    HW119241   1.397   1.439   6.601  1.4577 -0.8858 -1.6431
 2535SOL    HW219242   1.286   1.350   6.626  2.1926 -1.1081 -0.4389
 2536SOL     OW19243   3.614   3.019  14.160  0.0726  0.2204  0.0033
 2536SOL    HW119244   3.560   3.013  14.080  2.2297  1.6986 -1.5783
 2536SOL    HW219245   3.643   2.930  14.177  0.1258  0.6682  2.1966
 2537SOL     OW19246   2.746   0.080   0.195 -0.8698  0.0750 -0.3605
 2537SOL    HW119247   2.834   0.041   0.191 -0.8360 -0.2313  4.1009
 2537SOL    HW219248   2.770   0.170   0.172 -1.5440  0.8632  2.0231
 2538SOL     OW19249   1.793   4.308   2.225 -0.1788 -0.0080 -0.0892
 2538SOL    HW119250   1.784   4.337   2.315  0.5209 -0.6404  0.1751
 2538SOL    HW219251   1.744   4.226   2.234 -0.2420 -0.3865 -3.6819
 2539SOL     OW19252   3.362   2.839   3.669 -0.2013 -0.2745  0.4158
 2539SOL    HW119253   3.344   2.928   3.639 -0.1383 -0.2647  0.4076
 2539SOL    HW219254   3.328   2.783   3.599  0.4836  2.1505 -1.8525
 2540SOL     OW19255   1.028   2.661   7.116 -0.3026  0.0516  0.7792
 2540SOL    HW119256   0.953   2.680   7.172 -0.8587  2.0352 -0.6412
 2540SOL    HW219257   1.096   2.641   7.180 -0.4318  1.2131  1.2841
 2541SOL     OW19258   4.483   0.719   2.160 -0.0929  0.3190 -0.6648
 2541SOL    HW119259   4.508   0.629   2.139 -0.2809 -0.2875  1.7704
 2541SOL    HW219260   4.535   0.758   2.089 -1.4476 -0.7905 -2.2705
 2542SOL     OW19261   3.917   3.493   2.100  0.3196  0.6284  0.0399
 2542SOL    HW119262   3.825   3.510   2.122  0.0450  0.5850 -1.0860
 2542SOL    HW219263   3.932   3.556   2.029 -0.5561  2.2666  1.3074
 2543SOL     OW19264   3.131   1.547   9.851 -0.0545 -0.3182 -0.5037
 2543SOL    HW119265   3.045   1.536   9.891  0.1681 -0.7650 -0.1520
 2543SOL    HW219266   3.137   1.461   9.808 -0.8730 -1.0704  0.8718
 2544SOL     OW19267   3.006   4.583   4.415 -0.7473 -0.1104  0.7612
 2544SOL    HW119268   3.043   4.501   4.450  0.4190  1.0292  2.2247
 2544SOL    HW219269   2.961   4.555   4.336  0.1913  0.3445  0.0682
 2545SOL     OW19270   3.469   2.619   2.148  0.0407  0.3751  0.1261
 2545SOL    HW119271   3.445   2.528   2.161  2.0081 -0.1825 -0.1131
 2545SOL    HW219272   3.395   2.640   2.091  1.4275  0.3301 -1.7133
 2546SOL     OW19273   2.832   4.047   2.302  0.2786 -0.4700 -0.4148
 2546SOL    HW119274   2.784   3.986   2.247 -2.5992  0.3657  1.1956
 2546SOL    HW219275   2.908   4.083   2.256 -0.9249  1.6514 -0.7581
 2547SOL     OW19276   2.236   3.215  14.490 -0.6710 -0.2017  0.1469
 2547SOL    HW119277   2.144   3.192  14.480 -0.3512 -1.4661  0.1054
 2547SOL    HW219278   2.256   3.167  14.571 -0.0972 -1.3713 -0.6788
 2548SOL     OW19279   2.523   4.570   4.271  0.2088  0.7307  0.0914
 2548SOL    HW119280   2.570   4.530   4.198  0.5580 -0.7008  1.0931
 2548SOL    HW219281   2.532   4.502   4.338 -3.2849 -1.1294 -1.3350
 2549SOL     OW19282   4.192   2.178   4.923 -0.8781 -0.0458 -0.2907
 2549SOL    HW119283   4.191   2.110   4.856  0.2770 -2.4556  2.1279
 2549SOL    HW219284   4.140   2.135   4.991  0.1471 -1.2344 -0.2572
 2550SOL     OW19285   4.577   4.718   9.462 -0.1172  0.1455  0.0756
 2550SOL    HW119286   4.582   0.017   9.551 -1.4435 -2.2187  1.0307
 2550SOL    HW219287   4.485   4.732   9.437  0.2310 -0.3794 -1.4901
 2551SOL     OW19288   4.598   3.505  15.235  0.1005 -0.4235 -0.1766
 2551SOL    HW119289   4.646   3.439  15.284  0.3088 -0.6334 -0.6632
 2551SOL    HW219290   4.600   3.570  15.306 -0.4046 -0.5013 -0.0893
 2552SOL     OW19291   0.604   2.024   5.247 -0.2888  0.0426  0.0282
 2552SOL    HW119292   0.643   2.038   5.160 -1.4334 -2.1668 -0.8275
 2552SOL    HW219293   0.660   2.085   5.295 -1.9848  1.5031  0.1467
 2553SOL     OW19294   1.573   3.127   4.671  0.3432 -0.6409 -0.5996
 2553SOL    HW119295   1.521   3.179   4.732 -1.5355 -0.4077 -2.4103
 2553SOL    HW219296   1.658   3.132   4.715 -0.9129  3.1865  1.3737
 2554SOL     OW19297   3.930   4.474   8.071 -0.6749  0.7092  0.0693
 2554SOL    HW119298   3.971   4.512   7.993  0.2871 -0.2793  0.0974
 2554SOL    HW219299   4.006   4.466   8.128 -1.3559 -3.2359  0.3693
 2555SOL     OW19300   1.093   2.867   3.551  0.1470 -0.0482 -0.0229
 2555SOL    HW119301   1.117   2.942   3.495  1.2933 -1.7463 -1.8038
 2555SOL    HW219302   1.070   2.810   3.478 -0.8975  0.9376 -0.4705
 2556SOL     OW19303   1.955   1.544   4.717  0.3690  0.5911  0.2690
 2556SOL    HW119304   2.046   1.529   4.692 -0.2668 -1.5859 -0.7256
 2556SOL    HW219305   1.934   1.451   4.722 -1.1263  0.9617  0.7733
 2557SOL     OW19306   1.821   3.819   0.590 -0.1530  0.2439 -0.4357
 2557SOL    HW119307   1.874   3.740   0.603 -0.5092  0.4684  2.3818
 2557SOL    HW219308   1.760   3.814   0.664  0.5611 -2.0392  0.0301
 2558SOL     OW19309   4.306   0.742   2.521 -0.2935 -0.1401  0.6800
 2558SOL    HW119310   4.212   0.761   2.513  0.8697  4.6041 -1.6153
 2558SOL    HW219311   4.313   0.650   2.493  1.1138  0.0494  0.4518
 2559SOL     OW19312   1.537   1.580   7.421  0.4656  0.7047 -0.4497
 2559SOL    HW119313   1.539   1.658   7.477  1.0394  1.0875 -0.9986
 2559SOL    HW219314   1.466   1.534   7.466 -0.2270  1.4037 -0.8196
 2560SOL     OW19315   4.352   1.951  11.210 -0.7737  0.2952  0.3466
 2560SOL    HW119316   4.314   1.926  11.294  0.5265 -2.8627  0.0001
 2560SOL    HW219317   4.444   1.942  11.236 -1.6149 -3.4604  2.0707
 2561SOL     OW19318   0.660   1.918   7.444  0.5824  0.4001 -0.0973
 2561SOL    HW119319   0.582   1.972   7.452  0.3129 -0.1189  0.8071
 2561SOL    HW219320   0.657   1.868   7.526 -1.3820  0.2062 -0.2940
 2562SOL     OW19321   2.273   0.016  15.052 -0.0119  0.6848  0.0340
 2562SOL    HW119322   2.348   0.015  14.994 -0.3697 -0.0268 -0.4171
 2562SOL    HW219323   2.254   4.658  15.038 -2.9144  1.6764 -2.6266
 2563SOL     OW19324   4.687   0.167   0.549  0.2701  0.4470  0.4157
 2563SOL    HW119325   4.594   0.154   0.534  0.2339  0.0850  0.9960
 2563SOL    HW219326   4.704   0.090   0.602  2.4925  2.6519  2.9605
 2564SOL     OW19327   3.351   4.009   8.943 -0.4817 -0.3195  0.1830
 2564SOL    HW119328   3.342   4.016   8.848 -1.2123  0.4846  0.3114
 2564SOL    HW219329   3.261   3.987   8.966 -0.1676 -0.2163  1.4837
 2565SOL     OW19330   2.635   2.349   2.989 -0.1386 -0.5336 -0.3309
 2565SOL    HW119331   2.722   2.310   2.995  1.2767  2.5865 -0.2918
 2565SOL    HW219332   2.627   2.390   3.075 -1.6758  0.3520 -0.8817
 2566SOL     OW19333   2.735   1.056  10.374 -0.2687  0.1132 -0.6423
 2566SOL    HW119334   2.813   1.106  10.399  0.7922 -0.6621 -2.4228
 2566SOL    HW219335   2.777   0.974  10.349 -0.4236  0.0025 -0.5383
 2567SOL     OW19336   2.556   3.430   3.153 -0.0412 -0.5690  0.0841
 2567SOL    HW119337   2.482   3.434   3.214 -1.7340  2.2921 -2.1419
 2567SOL    HW219338   2.525   3.367   3.089  1.6047 -2.6496  1.3270
 2568SOL     OW19339   2.579   3.795   3.954 -0.1805 -0.2473  0.5803
 2568SOL    HW119340   2.542   3.820   4.039 -1.3697  0.8918 -0.2711
 2568SOL    HW219341   2.499   3.803   3.903  0.5155 -3.1962 -0.9915
 2569SOL     OW19342   3.515   4.553   8.862  0.7688 -0.6846  0.1555
 2569SOL    HW119343   3.607   4.577   8.872 -0.2822  3.0704  1.0132
 2569SOL    HW219344   3.507   4.509   8.946  1.8664  0.6140  0.9460
 2570SOL     OW19345   1.527   1.002   3.543 -0.2178 -0.6383 -0.3432
 2570SOL    HW119346   1.475   1.081   3.528  0.8759 -0.0434 -0.9898
 2570SOL    HW219347   1.449   0.947   3.550 -1.6709  1.6369  1.6269
 2571SOL     OW19348   2.641   0.726   9.087  0.0515  0.1340 -0.5370
 2571SOL    HW119349   2.590   0.677   9.023  0.1406 -0.4732 -0.1485
 2571SOL    HW219350   2.675   0.656   9.143 -1.3430  0.7259  1.0551
 2572SOL     OW19351   0.970   0.463   2.665  0.0584  0.5888  0.1457
 2572SOL    HW119352   0.998   0.483   2.754  1.9078 -0.0303 -0.3029
 2572SOL    HW219353   0.887   0.511   2.659 -0.3983  0.0090  1.9625
 2573SOL     OW19354   1.671   3.845  15.135 -0.0205 -0.1250 -0.2803
 2573SOL    HW119355   1.761   3.849  15.100 -0.8776 -1.3296 -2.5948
 2573SOL    HW219356   1.696   3.831  15.226  0.7363  0.6103 -0.3656
 2574SOL     OW19357   4.518   3.938   5.164  0.6278 -0.1291 -0.2809
 2574SOL    HW119358   4.466   3.860   5.148 -0.0715  0.2595  0.1289
 2574SOL    HW219359   4.600   3.901   5.129 -0.2653 -1.5730 -0.8377
 2575SOL     OW19360   1.520   1.550   8.672  0.2963  0.0729  0.3531
 2575SOL    HW119361   1.595   1.508   8.630  1.4791  1.4927  1.0641
 2575SOL    HW219362   1.480   1.472   8.712  0.5399  0.3273  1.1004
 2576SOL     OW19363   2.005   0.617  11.128 -0.7471 -0.2663  0.4279
 2576SOL    HW119364   2.015   0.660  11.214  0.6705 -0.3673  0.2981
 2576SOL    HW219365   2.090   0.583  11.104 -0.6302  0.8322 -0.7137
 2577SOL     OW19366   0.903   3.821   1.294 -0.1593 -0.4449  0.0558
 2577SOL    HW119367   0.809   3.841   1.289 -0.1401  0.2888  2.3594
 2577SOL    HW219368   0.921   3.787   1.207 -0.4298  1.3373 -0.6873
 2578SOL     OW19369   2.651   4.293   7.826  0.8233 -0.1646 -0.0348
 2578SOL    HW119370   2.663   4.343   7.745 -0.9279 -0.7426 -0.6519
 2578SOL    HW219371   2.741   4.280   7.857  0.1954 -2.2407  0.8732
 2579SOL     OW19372   3.071   3.963   9.025  0.4549 -0.1200 -0.1819
 2579SOL    HW119373   2.978   3.941   9.037  1.0789 -1.8512  1.5161
 2579SOL    HW219374   3.085   4.009   9.107  0.1296 -0.3974  0.0287
 2580SOL     OW19375   4.097   0.470   7.725  0.6079  0.7261 -0.2081
 2580SOL    HW119376   4.031   0.538   7.735  0.8181  0.7599  0.9578
 2580SOL    HW219377   4.045   0.400   7.686 -1.6755  1.7313  1.0316
 2581SOL     OW19378   1.151   3.281  12.160  0.5529  0.0079 -0.5633
 2581SOL    HW119379   1.224   3.263  12.101  0.8039  1.6995 -0.7829
 2581SOL    HW219380   1.200   3.250  12.235 -0.2025  0.6451  0.1951
 2582SOL     OW19381   0.883   0.977   0.671 -0.3264  0.3769  0.2036
 2582SOL    HW119382   0.853   1.051   0.724  0.7270  1.0282 -0.0945
 2582SOL    HW219383   0.821   0.909   0.695 -0.8621  1.2658  1.3395
 2583SOL     OW19384   3.785   4.470   5.632  0.2361  0.2592  0.0907
 2583SOL    HW119385   3.824   4.516   5.557  0.8846 -0.9673 -0.3265
 2583SOL    HW219386   3.698   4.449   5.600 -0.1025  0.1312  1.1243
 2584SOL     OW19387   4.165   0.064   8.101  0.0805  0.0727 -0.3624
 2584SOL    HW119388   4.162   0.056   8.005  0.6790  3.6299 -0.6933
 2584SOL    HW219389   4.130   0.153   8.114 -0.1282  0.1769 -1.5604
 2585SOL     OW19390   1.554   4.330   7.880 -0.2550  0.0617  0.1318
 2585SOL    HW119391   1.640   4.373   7.873 -0.0120 -0.1446  1.8409
 2585SOL    HW219392   1.497   4.404   7.858 -3.3454 -2.3746 -0.0714
 2586SOL     OW19393   1.927   1.523  10.244  0.0088  0.0289 -0.0760
 2586SOL    HW119394   1.835   1.541  10.264  0.1769 -0.8958  1.5665
 2586SOL    HW219395   1.940   1.442  10.294  0.2383 -0.0263 -0.2282
 2587SOL     OW19396   3.990   1.228   3.638  0.1740  0.0359  0.0511
 2587SOL    HW119397   4.021   1.188   3.720 -3.2278 -1.4578  0.5972
 2587SOL    HW219398   4.052   1.187   3.579  1.7350  0.1254  1.6222
 2588SOL     OW19399   1.603   3.600   2.135 -0.4489 -0.3374  0.3349
 2588SOL    HW119400   1.689   3.575   2.170 -1.1366 -1.2809  1.3742
 2588SOL    HW219401   1.631   3.679   2.090 -0.4671 -0.6521 -0.2248
 2589SOL     OW19402   1.566   3.296   5.543  0.5171  0.0759 -0.5522
 2589SOL    HW119403   1.626   3.341   5.483  3.0144  0.5126  2.2698
 2589SOL    HW219404   1.481   3.306   5.500  0.3461 -1.0820 -0.4804
 2590SOL     OW19405   2.658   2.915   3.601 -0.0280 -0.1343 -0.1306
 2590SOL    HW119406   2.734   2.859   3.580  0.1768  0.3276 -0.6222
 2590SOL    HW219407   2.628   2.944   3.514 -1.3824 -1.1937 -0.0217
 2591SOL     OW19408   4.044   3.803   6.998  0.4323  0.5666  0.4954
 2591SOL    HW119409   3.981   3.874   7.010 -0.5670 -0.2286  0.0055
 2591SOL    HW219410   4.118   3.852   6.962  0.0967 -0.6098 -1.8318
 2592SOL     OW19411   3.118   3.153   7.878  0.4134 -0.0479  0.8824
 2592SOL    HW119412   3.162   3.075   7.913  1.6410 -0.4208 -1.5517
 2592SOL    HW219413   3.115   3.131   7.785  0.5173 -3.8498  1.7926
 2593SOL     OW19414   1.498   0.492   1.361 -0.1546 -0.5051 -0.1393
 2593SOL    HW119415   1.509   0.436   1.438 -1.2685 -1.4435 -0.6701
 2593SOL    HW219416   1.409   0.473   1.332 -0.6114 -1.4391  1.8733
 2594SOL     OW19417   4.310   1.550   6.997 -0.0554 -0.2381 -0.9218
 2594SOL    HW119418   4.231   1.568   7.048 -0.1630 -4.2063  0.2822
 2594SOL    HW219419   4.274   1.519   6.914  1.2354 -1.0826 -1.1613
 2595SOL     OW19420   3.892   4.019   4.882  0.0360 -0.3978  0.2789
 2595SOL    HW119421   3.925   3.993   4.968 -0.1867 -1.8221 -0.0645
 2595SOL    HW219422   3.872   4.112   4.896 -1.1338 -0.5375 -0.4550
 2596SOL     OW19423   1.437   3.849  16.620 -0.0687  0.2853  0.3897
 2596SOL    HW119424   1.385   3.789  16.674 -0.0119 -1.6124 -1.6613
 2596SOL    HW219425   1.452   3.917  16.685  1.3072  0.4160 -0.0580
 2597SOL     OW19426   2.666   2.271   7.795  0.5051  1.1823  0.3722
 2597SOL    HW119427   2.663   2.189   7.845 -0.9214  1.0597  0.0857
 2597SOL    HW219428   2.759   2.283   7.775  1.2737 -2.7805  1.5411
 2598SOL     OW19429   4.620   0.472   6.660  0.0474 -0.0021 -0.1851
 2598SOL    HW119430   4.670   0.429   6.590 -0.8737  0.9297 -1.4219
 2598SOL    HW219431   4.594   0.404   6.722  0.9886  0.6872  0.9625
 2599SOL     OW19432   0.391   1.301   2.095 -0.0694  0.4300 -0.8235
 2599SOL    HW119433   0.361   1.265   2.012  0.3422  2.0257 -1.6580
 2599SOL    HW219434   0.320   1.358   2.123 -2.3668 -3.6432  1.7204
 2600SOL     OW19435   3.635   4.273   3.565 -0.2802 -0.0900  0.1443
 2600SOL    HW119436   3.649   4.179   3.578  1.1371  0.6015  3.4308
 2600SOL    HW219437   3.576   4.291   3.638  0.7664  1.0780  0.6891
 2601SOL     OW19438   1.652   2.965   8.950  0.1914  0.6075  0.3569
 2601SOL    HW119439   1.617   2.926   9.030  0.8141 -2.7429 -1.0191
 2601SOL    HW219440   1.568   2.980   8.905  0.6820 -0.1058 -0.8015
 2602SOL     OW19441   3.008   0.149   1.994 -0.0321 -0.0844 -0.0611
 2602SOL    HW119442   3.011   0.191   2.079 -0.5994  1.4329 -0.8064
 2602SOL    HW219443   2.970   0.063   2.014  2.1225 -0.9982  0.1845
 2603SOL     OW19444   3.660   1.538   3.160  0.1474 -0.1908  0.0495
 2603SOL    HW119445   3.566   1.558   3.156  0.3175  1.1306  2.6600
 2603SOL    HW219446   3.692   1.628   3.169 -3.3340  0.9544  0.9554
 2604SOL     OW19447   3.764   2.856   8.386 -0.6589 -0.0022 -0.2978
 2604SOL    HW119448   3.776   2.901   8.470  1.8998 -0.7139 -0.2490
 2604SOL    HW219449   3.702   2.785   8.405 -0.4440 -0.3153 -0.7728
 2605SOL     OW19450   1.938   2.638   5.344 -0.1066 -0.6128 -0.2455
 2605SOL    HW119451   1.852   2.610   5.316 -0.1185 -0.8854  0.0587
 2605SOL    HW219452   1.925   2.733   5.345  1.2390 -0.4209 -0.2699
 2606SOL     OW19453   0.227   1.810  16.480 -0.7689 -0.0291  0.2085
 2606SOL    HW119454   0.299   1.761  16.518 -0.7626  0.1635  0.4461
 2606SOL    HW219455   0.274   1.867  16.419  1.0964 -0.7330  0.9855
 2607SOL     OW19456   0.333   1.959   3.823 -0.1290 -0.1879 -0.2308
 2607SOL    HW119457   0.353   2.023   3.890  1.7421  1.0184 -1.9444
 2607SOL    HW219458   0.347   1.877   3.872  0.0107  0.7289  1.2495
 2608SOL     OW19459   1.334   3.361  14.171 -0.3879 -0.0352  0.3194
 2608SOL    HW119460   1.387   3.441  14.171 -0.7692  0.2316 -2.1717
 2608SOL    HW219461   1.296   3.363  14.259 -1.0036  0.4368  0.0424
 2609SOL     OW19462   4.152   1.198  12.428  0.0834 -0.8583 -0.2715
 2609SOL    HW119463   4.115   1.272  12.379 -0.2641 -0.4075  0.6700
 2609SOL    HW219464   4.074   1.144  12.420 -0.1493 -0.7792  1.3854
 2610SOL     OW19465   4.432   2.503   0.528 -0.1826  0.3819 -0.1370
 2610SOL    HW119466   4.401   2.441   0.595  0.6874  0.8591  0.7029
 2610SOL    HW219467   4.427   2.457   0.444  0.7323  0.7402 -0.3830
 2611SOL     OW19468   4.127   2.883   8.832 -0.3526 -0.9135  0.1963
 2611SOL    HW119469   4.153   2.861   8.921  3.3697  0.6829 -0.4938
 2611SOL    HW219470   4.051   2.939   8.851 -0.5924 -0.6304 -1.5099
 2612SOL     OW19471   4.160   4.413   8.278  0.0343  0.1047  0.2630
 2612SOL    HW119472   4.118   4.495   8.306  0.1176  0.6249 -1.1416
 2612SOL    HW219473   4.249   4.443   8.296 -0.1813  0.4825  0.6908
 2613SOL     OW19474   3.109   3.483   4.741  0.2282  0.1967 -0.1941
 2613SOL    HW119475   3.190   3.441   4.771  0.7209  1.0009 -0.3916
 2613SOL    HW219476   3.126   3.483   4.647  1.5026  1.2711  0.0294
 2614SOL     OW19477   1.999   3.661   9.554 -0.2202  0.2661  0.3544
 2614SOL    HW119478   2.056   3.736   9.572 -1.0157  1.1397 -0.7719
 2614SOL    HW219479   2.031   3.631   9.469  0.0706 -0.3540  0.6792
 2615SOL     OW19480   0.089   0.438   4.703 -0.1864 -0.0775 -0.3500
 2615SOL    HW119481   0.142   0.373   4.751  0.0626  0.1720 -0.2836
 2615SOL    HW219482   0.139   0.519   4.706  2.3076 -1.5710 -1.5906
 2616SOL     OW19483   0.840   2.388   8.228  0.0329  0.1886  0.0900
 2616SOL    HW119484   0.875   2.311   8.273  0.2116 -1.0952 -2.2642
 2616SOL    HW219485   0.751   2.395   8.261 -0.4895  1.3048 -1.5585
 2617SOL     OW19486   3.247   4.729   7.478 -1.7385 -0.0483  0.0528
 2617SOL    HW119487   3.336   0.029   7.474 -2.0036  0.4235 -2.0179
 2617SOL    HW219488   3.203   0.052   7.540  1.7060 -0.0864  2.5374
 2618SOL     OW19489   0.990   3.596   9.806 -0.3933 -0.6881  0.1030
 2618SOL    HW119490   0.969   3.514   9.851 -2.8470  0.6548  1.4408
 2618SOL    HW219491   0.928   3.604   9.734 -1.2005 -0.3999  0.8286
 2619SOL     OW19492   0.370   0.396   9.565  0.2018 -0.1885  0.6119
 2619SOL    HW119493   0.285   0.421   9.603  0.0174 -0.6654  0.5155
 2619SOL    HW219494   0.429   0.452   9.615 -0.4553  2.2253 -1.2969
 2620SOL     OW19495   0.188   1.247   7.343  0.0593 -0.5167 -0.3469
 2620SOL    HW119496   0.201   1.200   7.425  0.6922 -0.5430 -0.4631
 2620SOL    HW219497   0.159   1.329   7.384  1.5322 -1.9184  3.4253
 2621SOL     OW19498   3.537   0.683   9.079 -0.4296 -0.6555  0.1607
 2621SOL    HW119499   3.486   0.692   9.159  0.7680 -1.0705  0.9716
 2621SOL    HW219500   3.591   0.608   9.102  2.0609  1.4141  1.0498
 2622SOL     OW19501   3.286   1.194   4.658  0.5675  0.1042 -0.2584
 2622SOL    HW119502   3.257   1.283   4.676 -0.5845 -0.1422 -0.9396
 2622SOL    HW219503   3.244   1.166   4.576  1.0233  0.2211 -0.5357
 2623SOL     OW19504   1.286   1.012   8.429 -0.0685  0.4404 -0.0420
 2623SOL    HW119505   1.370   1.007   8.383 -1.2180 -1.9512 -1.8743
 2623SOL    HW219506   1.278   0.939   8.491 -1.0806  0.9179  0.3824
 2624SOL     OW19507   2.186   0.137   6.570  0.5145  0.3213  0.2303
 2624SOL    HW119508   2.272   0.179   6.573  0.2655  0.9301 -1.3516
 2624SOL    HW219509   2.194   0.082   6.649  0.5250  0.4419  0.3134
 2625SOL     OW19510   4.014   1.990  17.007  0.1033 -0.0734 -0.1436
 2625SOL    HW119511   4.089   1.958  17.057 -0.0360  1.6360  1.1930
 2625SOL    HW219512   4.035   1.957  16.920 -0.9717  1.5077 -1.0164
 2626SOL     OW19513   3.347   0.489   7.433 -0.1140 -0.3262  0.7622
 2626SOL    HW119514   3.335   0.568   7.380  0.5745 -2.4610 -2.5697
 2626SOL    HW219515   3.258   0.466   7.458 -0.2067  0.2959  1.0039
 2627SOL     OW19516   4.620   0.773   6.644 -0.1294  0.2022  0.1799
 2627SOL    HW119517   4.570   0.787   6.725  0.9671 -1.1149  1.1010
 2627SOL    HW219518   4.633   0.679   6.657 -1.0974 -0.3075 -2.6982
 2628SOL     OW19519   2.209   1.965  10.007 -0.2752  0.1084 -0.1749
 2628SOL    HW119520   2.270   1.927   9.943 -0.1946 -1.0896  0.6220
 2628SOL    HW219521   2.243   2.054  10.019 -0.3274 -0.0827  1.2928
 2629SOL     OW19522   4.533   2.089  14.794 -0.0735 -0.2087  0.0764
 2629SOL    HW119523   4.618   2.046  14.794  0.3864  0.7027 -0.4554
 2629SOL    HW219524   4.551   2.178  14.825  5.2941 -0.6767 -1.8063
 2630SOL     OW19525   3.412   4.041   4.005  0.1033 -0.1527 -0.4413
 2630SOL    HW119526   3.496   4.015   4.044 -0.7068  0.3570  1.6144
 2630SOL    HW219527   3.434   4.043   3.912  1.8606  3.0198  0.0281
 2631SOL     OW19528   1.118   3.801  12.778 -0.2222 -0.2814  0.8182
 2631SOL    HW119529   1.142   3.708  12.782  0.6708 -0.1087 -0.7996
 2631SOL    HW219530   1.186   3.848  12.827  0.5503  0.1148 -0.6300
 2632SOL     OW19531   4.037   0.357   9.223 -0.0748  0.3545  0.6636
 2632SOL    HW119532   4.010   0.273   9.260 -0.1749  0.1479  0.1276
 2632SOL    HW219533   4.055   0.340   9.130  3.0420  0.2612  1.2717
 2633SOL     OW19534   1.601   0.539   3.787  0.2453  0.0037 -0.0363
 2633SOL    HW119535   1.513   0.516   3.756  0.2140 -2.3194  1.8517
 2633SOL    HW219536   1.579   0.623   3.828 -0.7911 -0.6691  0.7773
 2634SOL     OW19537   3.801   2.803   7.606  0.0583  0.0794 -0.3836
 2634SOL    HW119538   3.871   2.846   7.654  1.6446 -1.4425 -1.3425
 2634SOL    HW219539   3.824   2.807   7.513 -0.0317  1.0909 -0.3607
 2635SOL     OW19540   4.386   1.872   3.905  0.2477 -0.0672  0.6214
 2635SOL    HW119541   4.322   1.815   3.949  0.8124 -1.1488  0.0391
 2635SOL    HW219542   4.366   1.960   3.937  0.8648  1.4500 -3.2006
 2636SOL     OW19543   4.066   3.773  11.583  0.4693 -0.6330  0.2738
 2636SOL    HW119544   4.033   3.858  11.612 -1.9183 -1.9330  1.3343
 2636SOL    HW219545   4.138   3.813  11.533 -0.5820  0.9641  0.0426
 2637SOL     OW19546   0.350   2.306  11.041 -0.2621  0.2594  0.1339
 2637SOL    HW119547   0.298   2.307  11.122 -0.7998  0.8320 -0.2142
 2637SOL    HW219548   0.359   2.400  11.026  0.9943  0.0253 -0.4694
 2638SOL     OW19549   2.498   2.321   7.050 -0.4813 -0.2204  0.2369
 2638SOL    HW119550   2.487   2.272   6.969 -1.5610  0.6687 -0.1591
 2638SOL    HW219551   2.445   2.264   7.107 -1.2422 -1.8996 -2.1371
 2639SOL     OW19552   3.671   0.403   7.785  0.2802  0.0773 -0.2451
 2639SOL    HW119553   3.587   0.445   7.770  0.6073  0.9717  0.4304
 2639SOL    HW219554   3.692   0.446   7.868  0.3775 -1.1502  0.3613
 2640SOL     OW19555   1.010   2.416   6.238  0.3945 -0.2213  0.9677
 2640SOL    HW119556   0.960   2.496   6.229  1.2559  0.2323  0.1254
 2640SOL    HW219557   1.096   2.451   6.263  0.4138  0.1762  0.3331
 2641SOL     OW19558   4.382   4.152   7.638 -0.0731 -0.9348 -0.0524
 2641SOL    HW119559   4.449   4.176   7.702 -0.4845 -0.5744  0.2440
 2641SOL    HW219560   4.323   4.222   7.666 -0.1892 -1.1646  0.2773
 2642SOL     OW19561   2.543   4.304  16.428 -0.0930  0.1171  0.3462
 2642SOL    HW119562   2.533   4.329  16.337 -2.8822 -0.2411  0.5492
 2642SOL    HW219563   2.580   4.382  16.469 -0.4887  0.4957 -0.0197
 2643SOL     OW19564   3.774   3.125   5.912 -0.1821  0.8947 -0.4192
 2643SOL    HW119565   3.858   3.081   5.922 -1.6677 -1.7166  0.4697
 2643SOL    HW219566   3.744   3.124   6.003  0.2112  1.9158 -0.2835
 2644SOL     OW19567   1.664   1.855   8.124  0.3816  0.8581  0.3805
 2644SOL    HW119568   1.715   1.807   8.188 -1.1338  0.6092  1.4018
 2644SOL    HW219569   1.684   1.945   8.150  1.4949  1.0416 -1.0858
 2645SOL     OW19570   3.554   4.432   0.739 -0.0990 -0.2066  0.1927
 2645SOL    HW119571   3.595   4.486   0.671 -0.9037  1.2257  0.8557
 2645SOL    HW219572   3.510   4.367   0.685  1.0915 -0.5655 -0.3413
 2646SOL     OW19573   0.428   4.501  13.866 -0.2321  0.7180  0.0078
 2646SOL    HW119574   0.332   4.505  13.870 -0.3042 -0.3834 -0.4916
 2646SOL    HW219575   0.447   4.477  13.957  1.5324  0.9991 -0.2826
 2647SOL     OW19576   3.043   3.367   0.049 -0.9059 -0.0978 -0.0348
 2647SOL    HW119577   2.965   3.422   0.050 -0.7518  0.1566 -1.3480
 2647SOL    HW219578   3.120   3.421   0.032 -0.8866 -0.4186 -0.9468
 2648SOL     OW19579   3.246   0.577   2.370 -0.1610  0.0803 -0.1487
 2648SOL    HW119580   3.339   0.555   2.369 -0.2090 -0.1293  0.1723
 2648SOL    HW219581   3.224   0.599   2.279  1.4550  0.4126 -0.4543
 2649SOL     OW19582   2.888   4.423  12.508  0.1011 -0.0728 -0.0442
 2649SOL    HW119583   2.817   4.486  12.495  0.4706  0.6429  1.3340
 2649SOL    HW219584   2.870   4.350  12.449 -1.1153 -0.2279  0.5181
 2650SOL     OW19585   3.819   1.080   5.707  0.1320  0.1231 -0.1905
 2650SOL    HW119586   3.789   1.081   5.798  1.1463  0.3555  0.1451
 2650SOL    HW219587   3.814   0.986   5.688  1.1879  0.0353 -0.0089
 2651SOL     OW19588   0.278   4.082   1.572 -0.0821 -0.7292  0.0915
 2651SOL    HW119589   0.308   4.165   1.608 -0.0662 -0.8124  0.2724
 2651SOL    HW219590   0.327   4.031   1.637 -1.3299 -0.7485  1.0233
 2652SOL     OW19591   1.170   2.814   5.364  0.2223  0.3549 -0.5834
 2652SOL    HW119592   1.093   2.823   5.420 -0.5483 -1.0680 -1.4120
 2652SOL    HW219593   1.144   2.794   5.274  0.5154 -0.8788 -0.3945
 2653SOL     OW19594   1.190   4.196  15.561  1.1526 -0.0891  0.3114
 2653SOL    HW119595   1.213   4.284  15.589 -0.0534  0.1829  0.4263
 2653SOL    HW219596   1.168   4.213  15.469  2.7581  1.0010  0.1396
 2654SOL     OW19597   1.925   1.236   3.764  0.0348  1.0323  0.4511
 2654SOL    HW119598   1.871   1.241   3.843  2.3724  0.0109  2.1009
 2654SOL    HW219599   1.935   1.330   3.745 -1.9617  1.0166 -0.6684
 2655SOL     OW19600   0.610   4.273   9.426 -0.0905 -0.2530 -0.0048
 2655SOL    HW119601   0.702   4.259   9.451  0.2451  0.3442 -0.8969
 2655SOL    HW219602   0.611   4.368   9.431  0.2889 -0.3373  1.7505
 2656SOL     OW19603   2.036   4.683   2.615  0.2634  0.3610 -0.2385
 2656SOL    HW119604   2.039   0.002   2.694 -0.0179  1.7313 -1.1687
 2656SOL    HW219605   2.074   4.597   2.635  0.3722  0.1370 -1.4602
 2657SOL     OW19606   0.737   4.108   3.073 -0.5963 -0.1487 -0.4047
 2657SOL    HW119607   0.753   4.192   3.115 -0.8633 -0.7017  0.8110
 2657SOL    HW219608   0.667   4.073   3.128 -3.3228  2.4255 -2.2888
 2658SOL     OW19609   3.947   2.273  12.667 -0.0609 -0.1902  0.0851
 2658SOL    HW119610   3.856   2.245  12.658 -0.9374  3.0128 -0.9908
 2658SOL    HW219611   3.957   2.340  12.599  2.0919 -0.2376  0.3628
 2659SOL     OW19612   2.842   3.346   7.152 -0.4585  0.0657  0.0152
 2659SOL    HW119613   2.893   3.317   7.076 -1.2306  0.1502 -0.5296
 2659SOL    HW219614   2.770   3.394   7.113 -0.3267  0.6390  0.4773
 2660SOL     OW19615   0.919   3.563  12.075  0.2316 -0.2676  0.0501
 2660SOL    HW119616   0.895   3.528  12.161  0.1999 -0.1709  0.0806
 2660SOL    HW219617   0.838   3.548  12.026  1.2590 -1.2073 -1.3901
 2661SOL     OW19618   1.113   4.193   3.235 -0.7387  0.2225  0.4456
 2661SOL    HW119619   1.173   4.120   3.251 -0.4839  0.4417  0.5038
 2661SOL    HW219620   1.157   4.241   3.164  0.7202 -0.6124  0.7734
 2662SOL     OW19621   0.205   0.021  16.726  0.4393 -0.4705 -0.1478
 2662SOL    HW119622   0.286   4.707  16.710  0.9455  0.8707 -1.8052
 2662SOL    HW219623   0.189   4.722  16.814 -0.3696  1.1896  0.3478
 2663SOL     OW19624   2.432   0.399   6.884  0.3390  0.2097 -0.2677
 2663SOL    HW119625   2.495   0.458   6.841 -0.2978  2.6541  2.1981
 2663SOL    HW219626   2.476   0.314   6.874 -2.2454 -1.0447 -1.0223
 2664SOL     OW19627   2.586   2.629   8.132 -0.5322 -0.3119  0.7112
 2664SOL    HW119628   2.563   2.538   8.114 -0.6306 -0.2447  0.5073
 2664SOL    HW219629   2.518   2.676   8.085  0.0199 -0.8866 -0.6565
 2665SOL     OW19630   3.378   2.331  13.502 -0.2141 -0.4057 -0.6035
 2665SOL    HW119631   3.328   2.250  13.502  0.0351 -0.5525  0.3409
 2665SOL    HW219632   3.311   2.396  13.479 -1.1987 -1.7574 -1.5350
 2666SOL     OW19633   1.090   4.643   9.309 -0.3405  0.2594  0.2532
 2666SOL    HW119634   1.081   4.647   9.213  2.1517 -1.9458 -0.1067
 2666SOL    HW219635   1.133   4.558   9.318  0.5286  0.6138 -0.4796
 2667SOL     OW19636   1.514   2.278   3.525  0.0446  0.5789  0.2174
 2667SOL    HW119637   1.550   2.361   3.495  1.6235 -0.9124 -1.9976
 2667SOL    HW219638   1.426   2.288   3.489  0.6727  1.8031 -0.9622
 2668SOL     OW19639   0.386   0.420  11.633 -0.1128  0.7126 -0.1638
 2668SOL    HW119640   0.449   0.370  11.686  0.6799  3.6375  1.6226
 2668SOL    HW219641   0.435   0.475  11.573 -0.0044  0.5689 -0.2075
 2669SOL     OW19642   4.650   2.540  11.521  0.4730 -0.3264 -0.2285
 2669SOL    HW119643   4.657   2.469  11.457 -0.9281 -2.2490  1.7868
 2669SOL    HW219644   4.733   2.527  11.566  0.8796 -2.2006 -1.4907
 2670SOL     OW19645   1.013   2.938  15.291 -0.3769  0.2733  0.1420
 2670SOL    HW119646   1.001   2.846  15.267 -1.3580  0.8745 -1.7260
 2670SOL    HW219647   1.087   2.964  15.236  0.3759 -0.5637  0.7787
 2671SOL     OW19648   2.900   3.324   2.382  0.1614  0.0143 -0.0481
 2671SOL    HW119649   2.911   3.246   2.436  0.1089 -1.8708 -2.7313
 2671SOL    HW219650   2.844   3.383   2.433  1.0067  1.4797 -0.8069
 2672SOL     OW19651   3.558   4.212   6.151 -0.8296  0.3096  0.2261
 2672SOL    HW119652   3.488   4.168   6.103 -1.6438  2.1216 -0.2620
 2672SOL    HW219653   3.500   4.278   6.187 -0.4512  2.4146 -2.9481
 2673SOL     OW19654   4.552   3.365   4.824  0.4749  0.6768  0.2052
 2673SOL    HW119655   4.591   3.400   4.744 -1.7117 -0.3115 -1.2904
 2673SOL    HW219656   4.557   3.273   4.799  0.4327  0.4762  0.9494
 2674SOL     OW19657   1.567   2.232   8.405 -0.3306  0.1125 -0.1453
 2674SOL    HW119658   1.596   2.295   8.471 -0.2704  1.3487 -1.3413
 2674SOL    HW219659   1.540   2.153   8.452 -0.0953  0.9154  1.3465
 2675SOL     OW19660   2.342   1.771   1.690 -0.0476  0.2569 -0.2072
 2675SOL    HW119661   2.355   1.865   1.683  1.4235  0.0788  0.0936
 2675SOL    HW219662   2.254   1.755   1.657 -0.5237 -0.0365  1.1922
 2676SOL     OW19663   4.678   4.545  16.210  0.3035  0.2138  0.2792
 2676SOL    HW119664   4.595   4.497  16.212  0.7817 -0.6216  0.3445
 2676SOL    HW219665   0.006   4.474  16.226  0.7403  0.4922 -0.1872
 2677SOL     OW19666   2.230   2.504   5.649  0.0388 -0.4775  0.0495
 2677SOL    HW119667   2.233   2.456   5.731  1.9046 -0.9550 -0.2879
 2677SOL    HW219668   2.170   2.577   5.664 -0.6730 -1.4148  1.7258
 2678SOL     OW19669   4.637   0.774   5.707  0.1429  0.7680 -0.6348
 2678SOL    HW119670   4.562   0.719   5.683 -1.5632  1.9358  2.0916
 2678SOL    HW219671   4.682   0.711   5.764  0.2856 -1.9420 -3.7041
 2679SOL     OW19672   1.028   2.155  14.884  0.3350 -0.1002 -0.2290
 2679SOL    HW119673   1.091   2.109  14.828  0.7800 -0.3918  0.5067
 2679SOL    HW219674   0.952   2.151  14.826 -1.0858  0.1457  1.6463
 2680SOL     OW19675   3.237   1.494   8.781 -0.0163  0.2259 -0.4278
 2680SOL    HW119676   3.298   1.431   8.743  1.5665  0.3161  2.0267
 2680SOL    HW219677   3.248   1.474   8.874  0.0407  0.8831 -0.2964
 2681SOL     OW19678   0.666   3.839  13.708  0.3668 -0.4677  0.3536
 2681SOL    HW119679   0.707   3.814  13.625 -3.4151 -1.4886 -1.1835
 2681SOL    HW219680   0.603   3.905  13.680  0.3802 -0.8386 -0.5317
 2682SOL     OW19681   2.919   3.587   4.077  0.2402  0.0725 -0.2472
 2682SOL    HW119682   2.892   3.608   3.987  1.4408  0.6623 -0.4682
 2682SOL    HW219683   2.934   3.672   4.119  2.0399 -0.2350 -0.2923
 2683SOL     OW19684   3.067   0.886   1.641 -0.5676  0.2950 -0.0237
 2683SOL    HW119685   3.039   0.941   1.714  1.3846  0.3734  0.6632
 2683SOL    HW219686   2.994   0.905   1.582 -0.5641  0.2549 -0.0414
 2684SOL     OW19687   1.836   3.420   1.552  0.0098  0.0638 -0.3874
 2684SOL    HW119688   1.870   3.487   1.612  0.8407 -1.0691  0.4035
 2684SOL    HW219689   1.908   3.359   1.534  0.9643  0.9987  0.2426
 2685SOL     OW19690   0.177   2.279  14.128  0.4104  0.2143 -0.5199
 2685SOL    HW119691   0.186   2.322  14.213 -0.9955 -2.9236  1.2061
 2685SOL    HW219692   0.270   2.262  14.110  0.5385 -0.8594  1.1313
 2686SOL     OW19693   0.232   0.455   3.805  0.0392  0.2380 -0.1760
 2686SOL    HW119694   0.171   0.382   3.812  0.6243 -0.1818  0.5176
 2686SOL    HW219695   0.224   0.494   3.892 -1.2282  1.0861 -0.6771
 2687SOL     OW19696   2.089   4.368   9.358  0.4775  0.2090 -0.4839
 2687SOL    HW119697   2.073   4.379   9.452  1.2114  1.0129 -0.4511
 2687SOL    HW219698   2.030   4.433   9.321  0.7374 -0.2502 -1.6907
 2688SOL     OW19699   3.609   3.335  12.530  0.0673 -0.0257  0.1942
 2688SOL    HW119700   3.586   3.303  12.617 -2.0958 -0.5572 -0.5785
 2688SOL    HW219701   3.523   3.332  12.487 -0.3223  0.8097  0.9249
 2689SOL     OW19702   0.907   4.214  17.263 -0.7879  0.6194  0.0852
 2689SOL    HW119703   0.871   4.157  17.195  0.0214 -0.4966  0.5946
 2689SOL    HW219704   0.936   4.289  17.210 -0.5352 -0.6854 -1.6075
 2690SOL     OW19705   4.580   1.550  13.512  0.0410  0.2325 -0.0550
 2690SOL    HW119706   4.577   1.641  13.542 -2.3711  1.6061 -4.3074
 2690SOL    HW219707   4.628   1.517  13.587  1.9460  2.0536 -0.4913
 2691SOL     OW19708   4.465   3.594   1.275 -0.2505 -0.0639 -0.4497
 2691SOL    HW119709   4.529   3.637   1.332 -0.4701  0.0422 -0.2858
 2691SOL    HW219710   4.490   3.503   1.291  2.7006  0.9202  0.5577
 2692SOL     OW19711   0.898   4.288   4.219  0.3341  0.3159  0.2778
 2692SOL    HW119712   0.836   4.339   4.166 -1.3643 -0.1646  1.7965
 2692SOL    HW219713   0.962   4.272   4.150  1.1787 -1.1869  1.4229
 2693SOL     OW19714   2.291   2.918   5.901 -0.0100 -0.3894  0.2429
 2693SOL    HW119715   2.360   2.980   5.927 -0.2144  0.3751 -1.0712
 2693SOL    HW219716   2.309   2.909   5.807  0.9414 -0.7488  0.4511
 2694SOL     OW19717   2.164   0.383   6.849  0.3284  0.0002  0.2491
 2694SOL    HW119718   2.136   0.401   6.759 -1.2509 -0.3115  0.6786
 2694SOL    HW219719   2.255   0.411   6.846  0.1633  0.4427 -0.5800
 2695SOL     OW19720   2.220   2.421   0.134 -0.3442  0.1954 -0.3084
 2695SOL    HW119721   2.169   2.502   0.141  1.4231  1.2663  0.2774
 2695SOL    HW219722   2.240   2.418   0.041  1.6830 -1.7642  0.1849
 2696SOL     OW19723   4.703   4.519   3.542 -0.1526  0.8915  0.0154
 2696SOL    HW119724   0.022   4.569   3.604 -1.8758  1.2591  1.2121
 2696SOL    HW219725   0.043   4.464   3.519 -1.0427 -0.3689  0.1037
 2697SOL     OW19726   3.516   4.657  13.499  0.1534  0.0401  0.1112
 2697SOL    HW119727   3.549   4.634  13.413  0.9419 -3.7736  1.4340
 2697SOL    HW219728   3.593   4.692  13.543  0.2941 -1.1298  0.7984
 2698SOL     OW19729   3.704   0.389   1.610 -0.4924 -0.4494 -0.0463
 2698SOL    HW119730   3.738   0.300   1.596  0.6264  0.1923 -1.3738
 2698SOL    HW219731   3.616   0.374   1.575 -0.1042 -2.3726 -0.2018
 2699SOL     OW19732   3.565   1.637  14.653 -0.2771  0.5211  0.3967
 2699SOL    HW119733   3.629   1.618  14.722 -1.4718  0.5379  1.5104
 2699SOL    HW219734   3.511   1.559  14.655 -3.2748  2.5992  0.1816
 2700SOL     OW19735   0.503   2.460  16.068  0.5459 -0.0107  0.3585
 2700SOL    HW119736   0.554   2.380  16.084 -1.3772 -1.4810 -0.8489
 2700SOL    HW219737   0.414   2.425  16.054  0.7733 -1.0755  1.5200
 2701SOL     OW19738   4.422   0.196   4.444  0.0148  0.2560 -0.0947
 2701SOL    HW119739   4.445   0.135   4.514 -1.0110  2.5373  2.2242
 2701SOL    HW219740   4.497   0.256   4.445 -2.0431  2.8790 -0.7683
 2702SOL     OW19741   1.673   3.780  15.636 -0.3240 -0.3880 -0.3060
 2702SOL    HW119742   1.580   3.793  15.651 -0.0265  1.0194  0.3223
 2702SOL    HW219743   1.695   3.768  15.728  0.4882 -0.0479 -0.4527
 2703SOL     OW19744   2.566   2.927   5.477  0.3170 -0.7861  0.0945
 2703SOL    HW119745   2.628   2.998   5.494  0.0160  0.0318 -2.1984
 2703SOL    HW219746   2.612   2.851   5.514  0.8889 -0.7369 -0.5170
 2704SOL     OW19747   2.542   0.633   7.360  0.0032 -0.4369 -0.3377
 2704SOL    HW119748   2.626   0.594   7.335  1.1575  0.2756  2.4022
 2704SOL    HW219749   2.527   0.611   7.452  0.7998  2.2783  0.4606
 2705SOL     OW19750   3.379   3.229  10.310  0.2313 -0.4304  0.6665
 2705SOL    HW119751   3.292   3.190  10.295 -0.6296  2.0434 -0.7915
 2705SOL    HW219752   3.355   3.294  10.376  2.7685  1.2914 -0.1111
 2706SOL     OW19753   0.571   2.192  11.388  0.5053 -0.0721 -0.5190
 2706SOL    HW119754   0.575   2.106  11.347  1.5528 -0.6160  0.7342
 2706SOL    HW219755   0.502   2.180  11.453 -0.7900 -2.0189 -2.2562
 2707SOL     OW19756   4.086   0.388   6.309 -0.3231 -0.6612  0.2352
 2707SOL    HW119757   4.177   0.404   6.333 -0.3996 -0.1965  0.2123
 2707SOL    HW219758   4.090   0.292   6.306  3.4944 -0.3662 -3.5593
 2708SOL     OW19759   2.628   0.147   8.457  0.1686 -0.0562 -0.3100
 2708SOL    HW119760   2.552   0.172   8.509 -0.8994 -2.3631 -0.7730
 2708SOL    HW219761   2.680   0.092   8.516  1.2348  0.3876 -0.8419
 2709SOL     OW19762   1.314   3.205   4.029  0.4963 -0.3471  0.1540
 2709SOL    HW119763   1.231   3.178   4.070 -0.6126 -0.3251 -2.0427
 2709SOL    HW219764   1.345   3.128   3.981 -1.1595 -0.9312  0.0111
 2710SOL     OW19765   2.325   0.632   3.456 -0.4211 -0.2074  0.0466
 2710SOL    HW119766   2.402   0.689   3.456 -1.6852  1.4599 -3.4828
 2710SOL    HW219767   2.254   0.687   3.489 -0.8647 -1.9699  2.0013
 2711SOL     OW19768   2.510   0.355   6.316 -0.5114 -0.1486 -0.3639
 2711SOL    HW119769   2.431   0.409   6.313 -1.3987 -1.5100 -1.5536
 2711SOL    HW219770   2.507   0.300   6.394  1.6037 -0.7166 -0.6832
 2712SOL     OW19771   4.541   0.616   6.108 -0.2726  0.0789 -0.4389
 2712SOL    HW119772   4.481   0.582   6.041  1.6605 -4.5439  0.1440
 2712SOL    HW219773   4.508   0.705   6.121  0.3555  0.4189 -1.1602
 2713SOL     OW19774   2.916   1.975  14.291 -0.4551 -0.3209 -0.5776
 2713SOL    HW119775   2.846   2.004  14.232 -1.0701 -1.1370 -0.2481
 2713SOL    HW219776   2.943   2.058  14.331  0.7782 -0.8036 -0.4000
 2714SOL     OW19777   0.829   3.402   5.351  0.7556 -0.1283 -0.5717
 2714SOL    HW119778   0.882   3.479   5.333  0.8083 -0.1120 -0.3393
 2714SOL    HW219779   0.865   3.382   5.437  0.9954 -0.0400 -0.6531
 2715SOL     OW19780   2.008   2.681   3.729 -0.7227  0.3944  0.1200
 2715SOL    HW119781   1.983   2.605   3.677  0.8362 -0.4159  0.5447
 2715SOL    HW219782   2.018   2.635   3.813 -1.2265 -1.2427 -0.7240
 2716SOL     OW19783   3.125   1.552   2.127  1.0586 -0.0788 -0.3339
 2716SOL    HW119784   3.134   1.483   2.061 -0.5454 -0.0895 -0.5383
 2716SOL    HW219785   3.217   1.555   2.151  0.8814  1.5182  0.1677
 2717SOL     OW19786   0.335   1.798   9.295  0.4559  0.3078 -0.5704
 2717SOL    HW119787   0.241   1.783   9.279  0.5058  0.1979 -0.7681
 2717SOL    HW219788   0.351   1.829   9.206 -1.4615 -0.6437 -1.2439
 2718SOL     OW19789   4.644   1.357  15.771  0.3328 -0.5921 -0.4234
 2718SOL    HW119790   4.612   1.315  15.691  0.4339 -0.3635 -0.5817
 2718SOL    HW219791   4.716   1.304  15.804  0.5088  0.1210  0.3504
 2719SOL     OW19792   0.778   3.865   2.549  0.2289 -0.0217  0.1201
 2719SOL    HW119793   0.696   3.823   2.522  0.3987  0.4408 -1.0924
 2719SOL    HW219794   0.843   3.797   2.530  0.0891  0.5907 -2.5086
 2720SOL     OW19795   4.134   2.557   9.917  0.2412 -0.4980  0.3830
 2720SOL    HW119796   4.061   2.615   9.894  0.8333  0.8679  1.9709
 2720SOL    HW219797   4.146   2.587  10.007 -0.0481  0.5197  0.0805
 2721SOL     OW19798   3.525   0.202   5.877 -0.2991  0.0214  0.1173
 2721SOL    HW119799   3.448   0.146   5.886  0.9186 -1.6192  0.2383
 2721SOL    HW219800   3.520   0.255   5.957 -1.4816  0.3676 -0.1837
 2722SOL     OW19801   2.426   2.142   8.340 -0.0827  0.3539 -0.1407
 2722SOL    HW119802   2.378   2.225   8.338 -1.4219 -0.4324 -0.7204
 2722SOL    HW219803   2.517   2.171   8.348  0.8461 -2.4739 -0.6528
 2723SOL     OW19804   2.664   0.157  12.502 -0.5541  0.2638 -0.3799
 2723SOL    HW119805   2.638   0.116  12.584  2.5677  1.1319  1.0303
 2723SOL    HW219806   2.677   0.249  12.524 -2.0488  0.4171 -0.1295
 2724SOL     OW19807   1.883   3.177   4.060  0.7905 -0.0806 -0.6409
 2724SOL    HW119808   1.948   3.216   4.118 -1.7770  1.8006  1.0019
 2724SOL    HW219809   1.940   3.122   4.006 -0.5203 -0.3207 -1.7691
 2725SOL     OW19810   1.489   0.944   6.146  0.5563  0.4071  0.5368
 2725SOL    HW119811   1.438   1.020   6.121  3.0200  1.0402 -2.5114
 2725SOL    HW219812   1.424   0.890   6.191 -0.4518  0.5558 -0.7660
 2726SOL     OW19813   2.451   3.270   5.494  0.2066 -0.1706  0.4901
 2726SOL    HW119814   2.543   3.243   5.500  0.2786 -0.4868 -2.2008
 2726SOL    HW219815   2.449   3.312   5.408 -0.1313 -2.5335 -0.6567
 2727SOL     OW19816   2.002   1.131   7.025  0.2690 -0.0186 -0.2055
 2727SOL    HW119817   1.926   1.074   7.013  0.8495 -0.3108 -2.5596
 2727SOL    HW219818   2.061   1.093   6.960  1.7906 -0.1865  1.3060
 2728SOL     OW19819   3.165   0.407   3.971  0.1919  0.5154 -0.3360
 2728SOL    HW119820   3.227   0.357   4.025 -0.3797 -0.3889 -0.5275
 2728SOL    HW219821   3.098   0.409   4.039  0.9822  1.3824  0.4142
 2729SOL     OW19822   3.716   2.712   3.780 -0.6701 -0.7483  0.2361
 2729SOL    HW119823   3.661   2.773   3.830 -0.0151 -0.3035  0.4140
 2729SOL    HW219824   3.649   2.679   3.720 -1.4675 -0.1502  0.7914
 2730SOL     OW19825   4.624   0.182   6.493 -0.0217  0.0058  0.0690
 2730SOL    HW119826   4.682   0.109   6.470 -1.1990 -1.1888  0.8463
 2730SOL    HW219827   4.665   0.259   6.455  2.9184 -2.8028 -2.5084
 2731SOL     OW19828   4.389   1.634   7.650  0.6249 -0.0607 -0.0218
 2731SOL    HW119829   4.422   1.723   7.665 -0.8210  0.7529 -1.5276
 2731SOL    HW219830   4.299   1.663   7.631  0.2862 -0.7692  0.5478
 2732SOL     OW19831   4.446   0.680   2.795  0.1061 -0.7433 -0.0694
 2732SOL    HW119832   4.468   0.657   2.704  1.5387  1.4636 -0.2812
 2732SOL    HW219833   4.355   0.654   2.808 -0.0869 -0.1391 -0.2258
 2733SOL     OW19834   1.415   1.934  16.466 -0.1239 -0.4287 -0.7208
 2733SOL    HW119835   1.433   1.973  16.380  1.3071 -0.7304 -0.5578
 2733SOL    HW219836   1.465   1.856  16.442 -1.1608 -1.1063 -0.6509
 2734SOL     OW19837   4.183   4.532  10.828 -0.3462  0.1267  0.1692
 2734SOL    HW119838   4.115   4.594  10.854  0.5741  1.6015 -0.9317
 2734SOL    HW219839   4.158   4.511  10.739  2.4952 -2.6455  0.0050
 2735SOL     OW19840   1.132   3.616   6.103 -0.3538 -0.7110 -0.0812
 2735SOL    HW119841   1.130   3.709   6.126  0.8057 -0.3015 -1.6592
 2735SOL    HW219842   1.205   3.614   6.041  0.5636 -0.6901  1.0085
 2736SOL     OW19843   2.008   3.292  16.240  0.3771 -0.2205 -0.1965
 2736SOL    HW119844   2.068   3.285  16.166 -0.8554  0.9781 -1.2990
 2736SOL    HW219845   1.931   3.333  16.202 -0.3069 -0.9173  0.4445
 2737SOL     OW19846   4.464   3.612   0.940 -0.3804 -0.5116  0.4317
 2737SOL    HW119847   4.408   3.592   0.866 -1.3512 -0.3476  1.1203
 2737SOL    HW219848   4.431   3.550   1.006 -1.5974 -0.2830  0.0257
 2738SOL     OW19849   0.801   3.123   3.935  0.2226  0.7617 -0.2620
 2738SOL    HW119850   0.834   3.046   3.890 -0.3095 -0.3544  1.2335
 2738SOL    HW219851   0.765   3.081   4.013 -0.0323  1.1539 -0.1657
 2739SOL     OW19852   3.891   4.498   7.775  0.1224  0.4274 -0.3333
 2739SOL    HW119853   3.884   4.593   7.764 -1.1468  0.2991 -0.6947
 2739SOL    HW219854   3.803   4.470   7.751 -0.4524  0.1906  1.9881
 2740SOL     OW19855   3.253   3.540   5.574 -0.1071  0.1955 -0.0014
 2740SOL    HW119856   3.324   3.590   5.533 -0.5744  0.2185 -0.7906
 2740SOL    HW219857   3.241   3.467   5.514 -0.4372  0.0892  0.1985
 2741SOL     OW19858   2.278   1.191   8.788  0.0327  0.7086  0.0408
 2741SOL    HW119859   2.336   1.218   8.716 -0.2110 -1.1744 -0.8634
 2741SOL    HW219860   2.333   1.154   8.856 -0.8531  1.2424  1.0352
 2742SOL     OW19861   3.133   3.909   4.919  0.5610 -0.5393  0.3490
 2742SOL    HW119862   3.176   3.827   4.893  1.5923  0.2491 -0.3829
 2742SOL    HW219863   3.160   3.908   5.011  2.0394 -0.9180 -0.0965
 2743SOL     OW19864   2.045   0.945   7.440  0.1142  0.7479  0.6622
 2743SOL    HW119865   1.992   0.882   7.392 -0.5641  2.4358 -0.7903
 2743SOL    HW219866   2.051   0.895   7.521 -2.9912 -0.3344  0.2166
 2744SOL     OW19867   1.745   0.964   6.221 -0.3951  0.4399 -0.1418
 2744SOL    HW119868   1.653   0.951   6.203 -1.2561  2.0759  2.8810
 2744SOL    HW219869   1.723   1.039   6.278  1.4981  1.2655 -0.4867
 2745SOL     OW19870   2.288   2.776   6.370  0.3407  0.9304 -0.1226
 2745SOL    HW119871   2.362   2.721   6.346  0.9076  1.4545  0.4312
 2745SOL    HW219872   2.290   2.845   6.304  0.9967  2.4349  1.4721
 2746SOL     OW19873   0.783   3.909   9.412  0.2695  0.3112 -0.4505
 2746SOL    HW119874   0.740   3.842   9.359  0.5900  0.0608 -0.3926
 2746SOL    HW219875   0.862   3.936   9.363  1.3093 -1.2867  0.3576
 2747SOL     OW19876   4.247   4.546   3.507  0.2119 -0.2000 -0.9524
 2747SOL    HW119877   4.159   4.526   3.476 -0.5386  0.9511  0.4483
 2747SOL    HW219878   4.261   4.462   3.550  1.1021  1.3367  1.7283
 2748SOL     OW19879   4.458   1.748   5.048  0.2854 -0.0901 -0.1895
 2748SOL    HW119880   4.364   1.738   5.037  0.1399 -0.4606  1.3290
 2748SOL    HW219881   4.454   1.843   5.053 -2.6015 -0.1835 -1.1729
 2749SOL     OW19882   3.874   2.813  16.970  0.3304 -0.1915 -0.4641
 2749SOL    HW119883   3.836   2.863  16.898  0.1055 -0.6761 -0.6803
 2749SOL    HW219884   3.793   2.767  16.995  0.3194  1.1583  1.9657
 2750SOL     OW19885   4.449   4.253  17.665 -0.7527  0.7773  0.0169
 2750SOL    HW119886   4.494   4.174  17.694  0.1932  0.7272 -1.6034
 2750SOL    HW219887   4.487   4.282  17.582 -1.0218 -0.2781 -0.4739
 2751SOL     OW19888   3.528   0.926   7.121  0.0670 -0.2770 -0.3964
 2751SOL    HW119889   3.456   0.980   7.088  0.6337  0.9773  0.4344
 2751SOL    HW219890   3.486   0.888   7.198  1.6328 -3.5000 -1.1335
 2752SOL     OW19891   1.680   2.855   6.436 -0.4470  0.4190  0.4031
 2752SOL    HW119892   1.650   2.945   6.445  0.5849  0.9595 -1.5265
 2752SOL    HW219893   1.609   2.800   6.404  2.2741 -1.8620 -1.7144
 2753SOL     OW19894   2.951   3.244   6.948  0.1402 -0.1436 -0.5886
 2753SOL    HW119895   2.962   3.259   6.855 -4.0769 -0.4552 -1.1445
 2753SOL    HW219896   2.994   3.159   6.956 -0.2811 -0.1745  1.5622
 2754SOL     OW19897   3.232   4.197   7.277 -0.0347  0.1494 -0.9769
 2754SOL    HW119898   3.291   4.146   7.332 -0.4701  0.5663 -0.1214
 2754SOL    HW219899   3.295   4.235   7.216  2.1514 -0.9885  0.5449
 2755SOL     OW19900   4.184   3.543   5.542  0.2288 -0.1376  0.5159
 2755SOL    HW119901   4.219   3.457   5.565 -0.3006  0.4029  3.4033
 2755SOL    HW219902   4.218   3.556   5.454 -0.0640 -1.8545  0.1572
 2756SOL     OW19903   2.287   0.476   3.208  0.4306  0.5444 -0.1966
 2756SOL    HW119904   2.310   0.513   3.293 -0.1246 -1.5442  0.8668
 2756SOL    HW219905   2.352   0.521   3.154 -0.8002  1.3703 -0.9833
 2757SOL     OW19906   4.663   0.965   3.027  0.0644  0.1939 -0.0893
 2757SOL    HW119907   4.632   0.876   3.018  1.4134 -0.4464  1.6317
 2757SOL    HW219908   4.618   0.998   3.104 -1.4873 -0.8287 -0.5763
 2758SOL     OW19909   2.188   1.923   3.969 -0.5056 -0.0702  0.3034
 2758SOL    HW119910   2.275   1.895   3.998 -1.4456 -1.7933  1.4778
 2758SOL    HW219911   2.141   1.963   4.043  0.2935 -0.0893  0.8235
 2759SOL     OW19912   1.105   4.191   6.481  0.3844  0.1716  0.2915
 2759SOL    HW119913   1.082   4.108   6.523 -0.0313 -0.5034 -1.2728
 2759SOL    HW219914   1.024   4.239   6.500 -2.3303 -3.8151 -1.4072
 2760SOL     OW19915   2.980   0.087   9.170  0.1516 -0.7630  0.8333
 2760SOL    HW119916   2.967   0.007   9.119 -0.5653  1.2776 -2.1745
 2760SOL    HW219917   2.890   0.112   9.191 -0.2753 -0.3629 -1.4489
 2761SOL     OW19918   1.073   4.246   1.933 -0.1416 -0.4912  0.7450
 2761SOL    HW119919   1.087   4.249   1.838  0.4389 -0.9830  0.8143
 2761SOL    HW219920   1.107   4.160   1.959 -0.0395  0.4210  3.5766
 2762SOL     OW19921   0.434   1.454   6.294  0.0196  0.2731  0.1614
 2762SOL    HW119922   0.464   1.540   6.325  0.2665  1.1258 -2.4145
 2762SOL    HW219923   0.428   1.402   6.374 -0.7196  0.4400  0.2060
 2763SOL     OW19924   3.148   3.046   6.986 -0.2155  0.3231  0.6960
 2763SOL    HW119925   3.148   3.059   7.081  3.0214 -0.0898  0.7567
 2763SOL    HW219926   3.149   2.951   6.982  1.1715  0.4481 -1.8420
 2764SOL     OW19927   3.519   4.461   5.575  0.1000 -0.5258 -0.5137
 2764SOL    HW119928   3.443   4.516   5.594 -0.1440 -0.6334 -1.1719
 2764SOL    HW219929   3.510   4.382   5.628 -3.2211  0.0765 -0.1647
 2765SOL     OW19930   2.861   2.827   2.911  0.3524  0.5159 -0.1881
 2765SOL    HW119931   2.807   2.754   2.881  1.5028 -0.9511  1.2964
 2765SOL    HW219932   2.884   2.856   2.823  1.2646 -1.9294 -0.7612
 2766SOL     OW19933   1.743   2.015   6.107 -0.1664 -0.2293 -0.2118
 2766SOL    HW119934   1.732   2.039   6.199 -1.1922 -1.0357 -0.1307
 2766SOL    HW219935   1.707   2.089   6.058  1.0288  0.8456  0.5203
 2767SOL     OW19936   0.836   0.134   2.734  0.1574 -0.3111  0.6454
 2767SOL    HW119937   0.930   0.135   2.748  0.3870 -0.8516 -0.8821
 2767SOL    HW219938   0.809   0.194   2.804  0.1415 -0.1855  0.5327
 2768SOL     OW19939   4.060   3.767   3.354 -0.1500  0.3067  0.3085
 2768SOL    HW119940   4.094   3.683   3.386  1.2933  0.3585 -1.0504
 2768SOL    HW219941   4.065   3.744   3.261 -0.5440  0.7548  0.1812
 2769SOL     OW19942   1.930   0.163   3.560 -0.1302  0.2129 -0.3798
 2769SOL    HW119943   1.970   0.198   3.640  1.1306  1.1298 -1.4211
 2769SOL    HW219944   1.843   0.196   3.584 -1.2189 -0.5786 -3.3268
 2770SOL     OW19945   1.748   2.643   5.668 -0.0611  0.0759  0.4409
 2770SOL    HW119946   1.819   2.698   5.634  0.1321  1.5141  3.1669
 2770SOL    HW219947   1.800   2.596   5.732  0.6694 -2.1249 -1.7892
 2771SOL     OW19948   2.780   1.080  14.526 -0.1306  0.1751 -0.3960
 2771SOL    HW119949   2.874   1.084  14.504 -0.2170 -0.8180 -0.9588
 2771SOL    HW219950   2.785   1.055  14.618 -2.7671  1.8517  0.1857
 2772SOL     OW19951   4.406   4.690   1.642 -0.1475  0.1609  0.3734
 2772SOL    HW119952   4.357   4.650   1.713 -0.3011  0.0525  0.2049
 2772SOL    HW219953   4.419   4.619   1.580 -0.1615 -0.4467  1.0703
 2773SOL     OW19954   2.585   1.590  11.064  0.8821  0.1805 -0.6521
 2773SOL    HW119955   2.606   1.674  11.022 -0.6166  0.7738 -0.2486
 2773SOL    HW219956   2.505   1.618  11.110  1.5326  1.4988 -0.3136
 2774SOL     OW19957   3.147   0.305   5.350 -0.2305 -0.0951  0.3168
 2774SOL    HW119958   3.148   0.353   5.267 -1.4137  0.3749  0.5687
 2774SOL    HW219959   3.079   0.356   5.393  0.1562  0.3263  0.4293
 2775SOL     OW19960   1.747   2.782   6.695  0.2802 -0.1093 -0.0519
 2775SOL    HW119961   1.724   2.788   6.603  2.5514 -0.5613 -0.6421
 2775SOL    HW219962   1.716   2.867   6.727 -1.7628 -1.2412  0.9284
 2776SOL     OW19963   4.256   1.868  16.334 -0.0539 -0.1026 -0.7875
 2776SOL    HW119964   4.199   1.862  16.257 -3.0439 -0.2233  1.4687
 2776SOL    HW219965   4.219   1.937  16.388 -0.1537 -0.2681 -0.6435
 2777SOL     OW19966   2.345   1.335   4.904 -0.4238  0.0074 -0.3026
 2777SOL    HW119967   2.273   1.282   4.872 -0.2989 -0.7320  0.6409
 2777SOL    HW219968   2.347   1.405   4.839 -1.3532 -0.1648 -0.5147
 2778SOL     OW19969   0.649   4.209   6.668 -0.3157  0.1348 -0.1605
 2778SOL    HW119970   0.568   4.243   6.631 -0.2452  1.5702  1.0084
 2778SOL    HW219971   0.639   4.229   6.761  0.3732 -1.1178  0.1930
 2779SOL     OW19972   4.126   2.904  10.150 -0.0558 -0.3553  0.2437
 2779SOL    HW119973   4.089   2.931  10.065  0.6647 -0.4501 -0.1003
 2779SOL    HW219974   4.040   2.901  10.192  1.5184 -2.9022  3.2642
 2780SOL     OW19975   3.925   0.978  15.773  0.0186  0.3874 -0.0647
 2780SOL    HW119976   3.858   0.989  15.705  0.1556 -0.7654 -0.3906
 2780SOL    HW219977   3.960   1.067  15.778  1.5169 -0.2862  1.4284
 2781SOL     OW19978   3.168   4.212   6.391 -0.1375  0.5927 -0.1970
 2781SOL    HW119979   3.237   4.169   6.440 -1.7769 -1.4644  0.3170
 2781SOL    HW219980   3.167   4.307   6.400  1.6907  0.6487 -0.6223
 2782SOL     OW19981   1.817   2.028  12.751  0.0578 -0.4905  0.5821
 2782SOL    HW119982   1.852   2.033  12.663 -1.0045  0.7148  0.2272
 2782SOL    HW219983   1.803   2.122  12.757  2.7681  0.0188 -1.1574
 2783SOL     OW19984   3.460   3.587   5.430  0.2065  0.0713 -0.2025
 2783SOL    HW119985   3.465   3.497   5.399 -2.1196 -0.1153 -0.0180
 2783SOL    HW219986   3.542   3.582   5.478 -0.1986  1.7541  0.6581
 2784SOL     OW19987   4.572   2.329  14.902  0.1130 -0.3307 -0.3339
 2784SOL    HW119988   4.549   2.292  14.988 -0.9300 -0.0129 -0.4765
 2784SOL    HW219989   4.653   2.379  14.912  0.5110 -1.1321  0.5766
 2785SOL     OW19990   2.747   1.403   7.202  0.5923  0.3333 -0.2400
 2785SOL    HW119991   2.662   1.410   7.159  1.0649 -0.0710 -1.2293
 2785SOL    HW219992   2.794   1.473   7.157  0.6458  0.5586  0.1655
 2786SOL     OW19993   3.063   0.060   5.517  0.1781  0.1913  0.3284
 2786SOL    HW119994   3.026   0.147   5.528 -3.1872 -1.2141 -0.0813
 2786SOL    HW219995   2.990   0.012   5.556  1.7349 -2.2802  0.1971
 2787SOL     OW19996   3.298   1.031   2.082  0.4421  0.1709 -0.1471
 2787SOL    HW119997   3.372   0.971   2.082 -1.2686 -1.9606 -1.7558
 2787SOL    HW219998   3.286   1.045   2.176  0.1286  2.6439 -0.5622
 2788SOL     OW19999   4.230   2.183   6.703 -0.6123 -0.1335 -0.2561
 2788SOL    HW120000   4.287   2.199   6.779  0.2547  1.7303 -1.2927
 2788SOL    HW220001   4.274   2.239   6.639 -1.9328  0.8455 -0.3269
 2789SOL     OW20002   2.578   4.667   6.807 -0.3829  0.2341  0.0161
 2789SOL    HW120003   2.502   4.646   6.752 -0.0285 -1.0200 -0.0076
 2789SOL    HW220004   2.632   4.596   6.772 -1.4866 -0.4608 -0.2903
 2790SOL     OW20005   4.372   1.357   9.782 -0.3124  0.3862 -0.1706
 2790SOL    HW120006   4.402   1.425   9.722 -1.6974  1.1731  0.0373
 2790SOL    HW220007   4.295   1.317   9.742 -2.3606  1.0233  3.0857
 2791SOL     OW20008   0.452   3.161   0.880  0.1616  0.0823 -0.0280
 2791SOL    HW120009   0.415   3.080   0.845  1.0314  0.1359 -1.0403
 2791SOL    HW220010   0.376   3.221   0.884 -0.1240 -0.3138  0.4627
 2792SOL     OW20011   1.264   4.291  14.946  0.6751  0.1381 -0.0273
 2792SOL    HW120012   1.223   4.350  15.008 -0.7221  0.3012 -1.1067
 2792SOL    HW220013   1.308   4.366  14.905 -2.1942  2.5427  1.3720
 2793SOL     OW20014   4.382   0.485   6.543  0.0819  0.0188 -0.0003
 2793SOL    HW120015   4.463   0.484   6.595  2.2119 -0.2447 -3.3073
 2793SOL    HW220016   4.407   0.426   6.472  0.1551  0.9721 -0.7674
 2794SOL     OW20017   0.189   0.292   7.118 -0.2963  0.1203 -0.4504
 2794SOL    HW120018   0.214   0.264   7.206 -1.2401 -2.5846 -1.0539
 2794SOL    HW220019   0.223   0.381   7.124 -1.0829  0.3758  0.2242
 2795SOL     OW20020   0.767   2.158   7.867  0.1534 -0.2645 -0.4932
 2795SOL    HW120021   0.826   2.122   7.800  1.5962 -1.0897  1.2239
 2795SOL    HW220022   0.827   2.221   7.907 -0.1371 -2.0732  2.7672
 2796SOL     OW20023   1.268   1.732   9.696 -0.1585 -0.1438  0.0002
 2796SOL    HW120024   1.324   1.766   9.627  1.2199  1.6340  2.0068
 2796SOL    HW220025   1.241   1.805   9.753 -0.8663 -1.2624  1.1176
 2797SOL     OW20026   1.604   0.661   3.075 -0.2903 -0.3832  0.1817
 2797SOL    HW120027   1.635   0.702   2.994 -2.4155 -0.6641 -0.7629
 2797SOL    HW220028   1.641   0.721   3.140 -2.4367 -0.1707  1.2138
 2798SOL     OW20029   1.780   4.313  12.222  0.0626  0.0889 -0.4836
 2798SOL    HW120030   1.688   4.305  12.198  0.3658  1.0120 -2.0069
 2798SOL    HW220031   1.817   4.235  12.182  0.7357 -0.0670  0.4586
 2799SOL     OW20032   3.722   2.087  17.449  0.2781 -0.0805  0.3858
 2799SOL    HW120033   3.800   2.070  17.397 -0.1022  2.4361 -1.0180
 2799SOL    HW220034   3.666   2.025  17.402  2.7706 -1.4813 -0.7127
 2800SOL     OW20035   0.521   1.462   5.119 -0.1688  0.3321 -0.2977
 2800SOL    HW120036   0.479   1.412   5.049 -3.6982  0.4996  1.6990
 2800SOL    HW220037   0.501   1.546   5.079 -0.5508  0.0034 -0.8018
 2801SOL     OW20038   3.053   3.809   0.390 -0.1421 -0.4942  0.4427
 2801SOL    HW120039   3.108   3.841   0.461 -4.4068  0.0516  3.4814
 2801SOL    HW220040   3.118   3.747   0.357  1.0567  1.8142 -1.4853
 2802SOL     OW20041   1.033   2.792   7.897 -0.3187  0.0213  0.4208
 2802SOL    HW120042   0.988   2.869   7.863  1.8110 -0.2413 -2.8864
 2802SOL    HW220043   1.122   2.811   7.868  0.1855 -0.3645  1.6861
 2803SOL     OW20044   0.569   2.109   0.561  0.3288  0.3687  0.6226
 2803SOL    HW120045   0.625   2.172   0.515  1.6140  0.6817  2.6190
 2803SOL    HW220046   0.545   2.167   0.633 -2.0181 -0.2890  0.3791
 2804SOL     OW20047   1.145   0.285   0.052  0.0911  0.4130  0.1242
 2804SOL    HW120048   1.154   0.292   0.147  0.0103  0.6408  0.1142
 2804SOL    HW220049   1.066   0.336   0.039  0.9861  1.4854 -1.0134
 2805SOL     OW20050   3.911   0.192   2.542 -0.3543  0.2191 -0.0146
 2805SOL    HW120051   3.951   0.274   2.513 -2.4082  0.7119 -1.4500
 2805SOL    HW220052   3.823   0.209   2.508 -0.1541 -0.4040 -0.8179
 2806SOL     OW20053   2.214   0.112   8.299  0.2645 -0.5889  0.3979
 2806SOL    HW120054   2.137   0.067   8.263  1.1614 -0.7733 -1.3086
 2806SOL    HW220055   2.202   0.097   8.393 -0.6630  1.1691  0.5608
 2807SOL     OW20056   1.287   4.322  16.924 -0.3378  0.7428  0.3052
 2807SOL    HW120057   1.315   4.252  16.982 -0.5304 -1.3700 -2.1300
 2807SOL    HW220058   1.363   4.380  16.929  0.2680  0.1924 -2.4051
 2808SOL     OW20059   4.310   0.270  11.690  0.0802 -0.0949  0.1346
 2808SOL    HW120060   4.390   0.221  11.677  0.8778  0.8164  1.6771
 2808SOL    HW220061   4.325   0.361  11.662  1.3820 -0.4852 -0.4396
 2809SOL     OW20062   1.565   1.805   3.758 -0.1516 -0.1090 -0.3252
 2809SOL    HW120063   1.589   1.858   3.834  0.2455 -1.7510  0.6971
 2809SOL    HW220064   1.538   1.873   3.696 -2.2269 -0.9991 -0.3954
 2810SOL     OW20065   2.451   2.065   6.916  0.2427  0.1486  0.2135
 2810SOL    HW120066   2.389   2.021   6.857 -0.2589  0.3147  0.6306
 2810SOL    HW220067   2.453   1.998   6.984  0.5483 -0.7097 -0.6285
 2811SOL     OW20068   3.016   0.595  15.407 -0.0938 -0.1245 -0.5590
 2811SOL    HW120069   3.021   0.501  15.419  0.5186  0.0386  0.4838
 2811SOL    HW220070   3.059   0.622  15.488  2.2905  0.8585 -2.1427
 2812SOL     OW20071   4.025   0.041   3.868 -0.1367 -0.1575 -0.5380
 2812SOL    HW120072   4.071   4.693   3.853  0.2076  0.1404 -1.1469
 2812SOL    HW220073   4.081   0.106   3.826 -1.0794 -0.0240 -1.6012
 2813SOL     OW20074   0.640   2.966   2.357 -0.0342 -0.3006 -0.1429
 2813SOL    HW120075   0.702   2.982   2.286  0.2127  1.0544  0.3825
 2813SOL    HW220076   0.674   3.010   2.434 -0.2611 -0.1788 -0.1122
 2814SOL     OW20077   2.455   3.381   6.770  0.3892 -0.3984  0.3952
 2814SOL    HW120078   2.410   3.325   6.707 -1.3975  1.8220 -0.2994
 2814SOL    HW220079   2.415   3.465   6.749  0.4985 -0.3048  0.5647
 2815SOL     OW20080   2.446   3.690   9.069  0.0629  0.2344 -0.7505
 2815SOL    HW120081   2.382   3.659   9.006 -0.9220 -1.5975  1.1537
 2815SOL    HW220082   2.414   3.772   9.106  4.8578  0.9805  1.8058
 2816SOL     OW20083   1.683   1.727   6.041 -0.2979 -1.0789  0.1254
 2816SOL    HW120084   1.702   1.809   6.087  0.9816 -1.0445 -0.4689
 2816SOL    HW220085   1.759   1.729   5.983  0.2465  0.7277  0.8799
 2817SOL     OW20086   3.248   4.128   3.685  0.7641 -0.5596 -0.6347
 2817SOL    HW120087   3.337   4.120   3.652  1.8129  3.0456  1.2947
 2817SOL    HW220088   3.221   4.178   3.608 -2.1989 -0.7725  0.2753
 2818SOL     OW20089   4.211   2.828   6.316  0.5508  0.0511  0.6743
 2818SOL    HW120090   4.221   2.901   6.255  1.0158 -0.1006  0.5668
 2818SOL    HW220091   4.248   2.759   6.260  3.0326  1.8259  0.1235
 2819SOL     OW20092   4.235   4.361   1.666  0.3364  0.4234  0.0752
 2819SOL    HW120093   4.212   4.450   1.693 -3.1761 -0.5606  0.2494
 2819SOL    HW220094   4.186   4.309   1.730 -0.3775  0.6628 -0.2818
 2820SOL     OW20095   2.714   0.954   2.711  0.6520  0.0886 -0.3881
 2820SOL    HW120096   2.648   0.965   2.643  1.7377  1.0527 -1.2952
 2820SOL    HW220097   2.664   0.982   2.788  3.2780  0.0467  1.3611
 2821SOL     OW20098   3.884   4.346   4.132 -0.0621 -0.0200 -0.4991
 2821SOL    HW120099   3.892   4.385   4.219 -1.6265 -1.3468  0.2384
 2821SOL    HW220100   3.938   4.400   4.075  3.1413 -3.6714 -0.9234
 2822SOL     OW20101   2.485   1.755   2.090  0.0011 -0.0296  0.5468
 2822SOL    HW120102   2.516   1.776   2.002  0.9217  1.6129  1.2635
 2822SOL    HW220103   2.426   1.826   2.115 -1.7227 -1.5009  0.5856
 2823SOL     OW20104   3.681   2.775  10.948 -0.1762 -0.2734 -0.1241
 2823SOL    HW120105   3.716   2.686  10.938  2.2986  0.7602 -0.7009
 2823SOL    HW220106   3.588   2.754  10.933 -0.2500  1.8557 -2.6417
 2824SOL     OW20107   0.260   2.685   6.164 -0.5121  0.1549  0.0950
 2824SOL    HW120108   0.319   2.630   6.113  0.6784  1.0536  0.5005
 2824SOL    HW220109   0.326   2.731   6.215  0.7904 -1.5687 -0.0538
 2825SOL     OW20110   4.647   4.710   2.890  0.2500  0.7007 -0.5832
 2825SOL    HW120111   4.581   4.643   2.868  0.5657  0.2253 -0.0939
 2825SOL    HW220112   4.627   4.709   2.984  2.5226  0.3632 -0.1147
 2826SOL     OW20113   4.128   2.474   4.928 -0.2434 -0.0555 -0.1667
 2826SOL    HW120114   4.164   2.388   4.907 -0.6179 -0.2377 -0.0787
 2826SOL    HW220115   4.078   2.446   5.005 -1.0514 -1.0072 -1.0224
 2827SOL     OW20116   2.497   3.996   5.788 -0.4356  0.4556  0.0954
 2827SOL    HW120117   2.583   3.956   5.781 -0.1540  0.7061  2.0946
 2827SOL    HW220118   2.516   4.063   5.854 -2.7437  1.5575 -0.3367
 2828SOL     OW20119   4.682   1.124  10.184  0.4803 -0.9136 -0.0768
 2828SOL    HW120120   4.689   1.075  10.266 -0.3281 -0.5317  0.2266
 2828SOL    HW220121   4.625   1.073  10.126  0.3101  0.3651 -1.0300
 2829SOL     OW20122   3.221   4.479   3.906  0.0018  0.4932  0.5197
 2829SOL    HW120123   3.137   4.513   3.877 -0.7875  0.6038  2.9589
 2829SOL    HW220124   3.197   4.396   3.945 -0.0175  0.6047  0.7419
 2830SOL     OW20125   1.614   4.347   4.129  0.4249  0.1978 -0.0370
 2830SOL    HW120126   1.633   4.440   4.147 -0.4755  0.0667  1.6217
 2830SOL    HW220127   1.575   4.366   4.044 -0.9498 -1.1716  0.3066
 2831SOL     OW20128   3.842   1.579   6.969  0.3070  0.5178  0.4232
 2831SOL    HW120129   3.761   1.605   6.925  0.0586 -0.8796  0.0621
 2831SOL    HW220130   3.892   1.557   6.890 -0.6343 -1.5572  0.4257
 2832SOL     OW20131   3.759   4.313   3.311  0.4759 -0.0103 -0.5071
 2832SOL    HW120132   3.739   4.265   3.231  1.4302  0.2142 -0.8754
 2832SOL    HW220133   3.710   4.260   3.374 -1.8598  2.2186 -0.4652
 2833SOL     OW20134   0.524   1.062   3.406  0.1361  0.2565 -1.0532
 2833SOL    HW120135   0.446   1.118   3.404 -0.3314 -0.3803 -0.9452
 2833SOL    HW220136   0.536   1.024   3.319  1.8942 -1.6974  0.0440
 2834SOL     OW20137   1.829   1.234   5.509 -0.0801  0.0906  0.1454
 2834SOL    HW120138   1.826   1.183   5.428 -0.0934 -0.2526  0.3626
 2834SOL    HW220139   1.868   1.164   5.562  0.2528  0.7275  0.7403
 2835SOL     OW20140   3.570   1.388   3.383  0.1588  0.4559 -0.0726
 2835SOL    HW120141   3.623   1.426   3.313  1.4422  0.5953  0.9717
 2835SOL    HW220142   3.639   1.390   3.449  1.6009  2.2486 -1.6393
 2836SOL     OW20143   2.136   3.130  15.796 -0.3497  0.0623  0.6948
 2836SOL    HW120144   2.121   3.225  15.800 -4.2766 -0.6434  3.1572
 2836SOL    HW220145   2.049   3.094  15.777  0.6907 -1.8566 -0.4216
 2837SOL     OW20146   3.812   1.930   9.206  0.5417  0.1698 -0.0029
 2837SOL    HW120147   3.907   1.926   9.207  0.5405  0.4415  1.2669
 2837SOL    HW220148   3.798   2.021   9.181  0.6430 -0.2080 -1.4533
 2838SOL     OW20149   2.400   2.259   3.422 -0.9910 -0.3877  0.1461
 2838SOL    HW120150   2.381   2.212   3.341  1.9606 -0.1607 -0.6566
 2838SOL    HW220151   2.457   2.203   3.475  0.2597  0.4683 -0.2920
 2839SOL     OW20152   2.176   3.885   8.607  0.1201 -0.0463  0.3925
 2839SOL    HW120153   2.169   3.931   8.524 -0.4698 -0.4112  0.2449
 2839SOL    HW220154   2.097   3.921   8.647 -0.8966  0.0609 -1.7150
 2840SOL     OW20155   0.241   4.308   7.748 -0.0851 -0.2425  0.2671
 2840SOL    HW120156   0.211   4.274   7.833 -2.0849  2.8260  0.7916
 2840SOL    HW220157   0.160   4.287   7.702  0.6997  1.4112 -1.8360
 2841SOL     OW20158   3.349   4.327   7.073 -0.0356 -0.3158 -0.0086
 2841SOL    HW120159   3.310   4.339   6.986  0.2024 -1.0698 -0.2198
 2841SOL    HW220160   3.308   4.389   7.134  0.3732  0.3711 -0.4295
 2842SOL     OW20161   0.437   4.309  16.163  0.2321 -0.8373  0.0053
 2842SOL    HW120162   0.404   4.287  16.076 -1.4084 -1.1239  0.7153
 2842SOL    HW220163   0.360   4.347  16.205  0.2566  0.2589 -0.9365
 2843SOL     OW20164   3.326   3.328   1.183 -0.0029 -0.0405 -0.0765
 2843SOL    HW120165   3.295   3.332   1.092  1.7089  0.8263 -0.6339
 2843SOL    HW220166   3.413   3.367   1.175 -0.2351  0.3430 -0.7560
 2844SOL     OW20167   1.939   3.855   5.974  0.5247 -0.3330  0.5849
 2844SOL    HW120168   1.895   3.899   6.047  0.2124 -0.1012  0.2599
 2844SOL    HW220169   2.016   3.909   5.953  0.7194 -1.2636 -1.0767
 2845SOL     OW20170   4.207   4.006   8.157  0.0394  0.4345 -0.1081
 2845SOL    HW120171   4.251   3.929   8.122 -0.5400  0.4880 -0.9489
 2845SOL    HW220172   4.280   4.066   8.143  0.0489  0.4824  0.1453
 2846SOL     OW20173   2.589   2.159  12.023 -0.1834  0.4733 -0.5163
 2846SOL    HW120174   2.666   2.127  12.071 -0.4602  0.3046 -0.1846
 2846SOL    HW220175   2.585   2.245  12.065 -0.6039 -0.2986  1.0492
 2847SOL     OW20176   2.712   2.287   7.464 -0.1283  0.5060 -0.0223
 2847SOL    HW120177   2.736   2.209   7.413 -0.9756 -0.1615  0.6155
 2847SOL    HW220178   2.783   2.289   7.528  0.3893 -0.4996 -0.5632
 2848SOL     OW20179   4.458   2.474   7.713 -0.2793 -0.0185 -0.6535
 2848SOL    HW120180   4.529   2.425   7.755  0.7371  1.1026 -1.0806
 2848SOL    HW220181   4.484   2.564   7.729 -1.8090  0.3258 -0.1051
 2849SOL     OW20182   1.342   3.866   3.364 -0.2875 -0.2290 -0.1852
 2849SOL    HW120183   1.316   3.894   3.452  0.6269  0.0931 -0.0239
 2849SOL    HW220184   1.290   3.925   3.311 -0.3117  0.3434  0.4760
 2850SOL     OW20185   2.484   0.466   4.123 -0.1247 -0.0320 -0.2146
 2850SOL    HW120186   2.574   0.437   4.136  0.6890  2.4936 -0.2407
 2850SOL    HW220187   2.448   0.454   4.211 -1.1898 -2.2601 -0.9592
 2851SOL     OW20188   3.038   3.877  12.266  0.2038  0.2274  0.3123
 2851SOL    HW120189   3.089   3.921  12.334 -1.4601 -0.0064  1.7109
 2851SOL    HW220190   2.955   3.855  12.308  0.5910 -4.0749 -1.1103
 2852SOL     OW20191   0.271   0.847   4.128 -0.0224  0.7261 -0.0262
 2852SOL    HW120192   0.181   0.816   4.122  0.3544  0.2347 -3.1221
 2852SOL    HW220193   0.300   0.800   4.050  0.4202  4.3128 -2.0545
 2853SOL     OW20194   3.586   0.016   9.188  0.8433 -0.1368  0.3106
 2853SOL    HW120195   3.579   4.689   9.261  2.0948 -0.6971 -0.0374
 2853SOL    HW220196   3.617   0.096   9.233 -1.9773  1.7310 -1.0886
 2854SOL     OW20197   3.160   0.082  11.038  0.1931 -0.3242  0.1365
 2854SOL    HW120198   3.093   0.041  10.983  1.0324  0.2166 -1.2964
 2854SOL    HW220199   3.120   0.168  11.042  1.5661  0.3246  0.1039
 2855SOL     OW20200   1.748   4.522   1.800  0.0214  0.2133 -0.1150
 2855SOL    HW120201   1.738   4.430   1.822  0.8647  0.1782  0.1283
 2855SOL    HW220202   1.679   4.549   1.860 -0.6238  0.5420 -1.0051
 2856SOL     OW20203   2.608   2.307   8.660 -0.1808  0.7713  0.1589
 2856SOL    HW120204   2.541   2.356   8.611 -1.4150  0.2875  1.3675
 2856SOL    HW220205   2.665   2.375   8.697  1.1206 -0.6628  0.7856
 2857SOL     OW20206   2.683   1.562   4.083 -0.0519 -0.1498 -0.0191
 2857SOL    HW120207   2.637   1.508   4.019  1.3884 -0.1320 -1.0750
 2857SOL    HW220208   2.632   1.644   4.080  0.5049  0.0978 -2.5238
 2858SOL     OW20209   1.225   4.498  16.183  0.1858  0.3787  0.8076
 2858SOL    HW120210   1.200   4.578  16.229  1.0841  0.2911  1.4511
 2858SOL    HW220211   1.266   4.436  16.243 -0.2797 -1.0699 -0.3922
 2859SOL     OW20212   1.018   3.797   7.622 -0.3376 -0.2613 -0.0470
 2859SOL    HW120213   0.941   3.854   7.616  1.1423  1.7276  0.1688
 2859SOL    HW220214   0.984   3.733   7.684 -0.0192  0.2363  0.6345
 2860SOL     OW20215   3.789   0.232   8.142  0.3256  0.5264  0.2546
 2860SOL    HW120216   3.816   0.290   8.070  0.4833 -0.8584 -0.7974
 2860SOL    HW220217   3.739   0.290   8.199 -2.3930 -1.5471 -0.0494
 2861SOL     OW20218   3.884   4.350   2.396 -0.1225 -0.6064 -0.3764
 2861SOL    HW120219   3.850   4.267   2.361 -0.8050  0.0816 -1.3668
 2861SOL    HW220220   3.818   4.409   2.358 -0.2224  0.5298  1.5713
 2862SOL     OW20221   3.092   4.382   4.610 -0.1567 -0.2128 -0.0938
 2862SOL    HW120222   3.148   4.306   4.626 -0.7458 -1.3814 -3.5458
 2862SOL    HW220223   3.005   4.344   4.598  0.2921 -1.2793  0.0165
 2863SOL     OW20224   2.808   3.079   2.106  0.5765 -0.4131  0.5510
 2863SOL    HW120225   2.765   3.024   2.041  2.2656 -1.7076  0.5197
 2863SOL    HW220226   2.794   3.169   2.077  1.6775 -0.4164  0.0326
 2864SOL     OW20227   2.955   2.754  10.261  0.2639  0.2303 -0.2021
 2864SOL    HW120228   2.937   2.734  10.353  1.2132 -1.7869 -0.4447
 2864SOL    HW220229   2.882   2.812  10.242  0.9893  0.8488 -1.0668
 2865SOL     OW20230   1.428   2.381   2.829 -0.1441  0.4003 -0.3502
 2865SOL    HW120231   1.482   2.459   2.821 -0.3688  0.6687  0.7556
 2865SOL    HW220232   1.412   2.360   2.737 -1.0700 -1.4015  0.2209
 2866SOL     OW20233   3.006   2.212   3.925 -0.0750 -0.1302  0.0125
 2866SOL    HW120234   3.055   2.274   3.979 -0.4022  1.0061 -0.9810
 2866SOL    HW220235   2.933   2.186   3.981  0.0788 -2.0213 -0.6593
 2867SOL     OW20236   4.445   0.169   0.694  0.1026  0.1032  0.3628
 2867SOL    HW120237   4.453   0.076   0.713 -0.4859 -0.1495 -0.6477
 2867SOL    HW220238   4.349   0.170   0.685 -0.1074 -2.1963  2.3675
 2868SOL     OW20239   2.000   1.376   8.326 -0.5775 -0.0557  0.5422
 2868SOL    HW120240   2.035   1.452   8.279 -2.3132 -0.5567 -1.5701
 2868SOL    HW220241   2.044   1.389   8.410 -1.5341  1.5958  0.7951
 2869SOL     OW20242   3.736   3.149   8.407 -0.2790 -0.1771  0.1648
 2869SOL    HW120243   3.656   3.176   8.453 -0.1932 -0.5798  0.5558
 2869SOL    HW220244   3.707   3.063   8.375 -0.3563 -0.7374  1.7101
 2870SOL     OW20245   4.525   4.167   5.279  0.2838 -0.0143  0.0412
 2870SOL    HW120246   4.531   4.079   5.241  1.6400 -0.8582  2.2040
 2870SOL    HW220247   4.523   4.211   5.194  1.1688 -0.8501 -0.4123
 2871SOL     OW20248   4.704   3.856   4.110  0.4377  0.8341  1.1040
 2871SOL    HW120249   4.658   3.884   4.031 -0.0149 -1.0146  0.7262
 2871SOL    HW220250   4.671   3.926   4.166 -0.9558  0.6545  0.5218
 2872SOL     OW20251   1.593   4.108   3.388 -0.0356  0.4443  0.6562
 2872SOL    HW120252   1.514   4.054   3.388 -0.5971  1.2517 -0.1155
 2872SOL    HW220253   1.652   4.072   3.322 -1.0799 -2.2736  1.2144
 2873SOL     OW20254   3.484   1.420   4.530 -0.2702  0.0748  0.2795
 2873SOL    HW120255   3.481   1.491   4.594 -2.1126  0.0482  0.2212
 2873SOL    HW220256   3.466   1.343   4.584 -0.9030 -0.4510 -0.6885
 2874SOL     OW20257   0.467   2.802   6.265 -0.1281  0.3216  0.0297
 2874SOL    HW120258   0.512   2.731   6.309  0.7088 -0.0087 -1.3729
 2874SOL    HW220259   0.517   2.817   6.185  0.1381  0.4637  0.2208
 2875SOL     OW20260   3.622   1.811   3.159 -0.2343  0.3859 -0.3264
 2875SOL    HW120261   3.529   1.809   3.138 -0.0642 -0.7978 -0.9692
 2875SOL    HW220262   3.613   1.894   3.206 -0.0387  0.7983 -1.0239
 2876SOL     OW20263   4.176   0.075   5.918  0.6454  0.2168 -0.0776
 2876SOL    HW120264   4.113   0.075   5.845 -2.9267 -0.8785  2.9835
 2876SOL    HW220265   4.196   4.718   5.934 -0.7107  0.1434  1.2225
 2877SOL     OW20266   0.023   0.670   4.105  0.2441  0.3939  0.0427
 2877SOL    HW120267   0.037   0.577   4.124  2.0938  0.5631 -0.4295
 2877SOL    HW220268   4.665   0.680   4.125 -0.1321 -1.4540 -0.7125
 2878SOL     OW20269   0.836   3.322   7.227  0.0875  0.1220  0.3786
 2878SOL    HW120270   0.829   3.369   7.311 -0.6906  0.6823  0.0006
 2878SOL    HW220271   0.780   3.373   7.169  0.9482 -0.1773 -0.7071
 2879SOL     OW20272   2.294   1.584  15.044  0.0035  0.2778 -0.0284
 2879SOL    HW120273   2.234   1.611  14.974  0.3087  2.9977  0.7677
 2879SOL    HW220274   2.340   1.509  15.006  0.5997  0.2482  0.7605
 2880SOL     OW20275   2.413   2.131   2.957 -0.2117 -0.1873  0.0198
 2880SOL    HW120276   2.488   2.190   2.949  0.5820 -1.2116 -0.1907
 2880SOL    HW220277   2.462   2.049   2.956 -1.2107 -0.7926  0.2309
 2881SOL     OW20278   1.413   0.180   8.202  0.6539 -0.4813 -0.5393
 2881SOL    HW120279   1.497   0.214   8.171  0.0902  1.7779  0.4507
 2881SOL    HW220280   1.355   0.235   8.151 -0.4127 -0.9467  0.1733
 2882SOL     OW20281   4.411   4.218   8.533  0.4653 -0.2746 -0.0976
 2882SOL    HW120282   4.323   4.180   8.524  0.1718 -0.6812  4.4318
 2882SOL    HW220283   4.444   4.211   8.443  2.4341 -3.1933  0.8417
 2883SOL     OW20284   4.317   1.579   6.674  0.2198  0.1764 -0.9773
 2883SOL    HW120285   4.412   1.587   6.665  0.0150  2.5194 -1.1024
 2883SOL    HW220286   4.297   1.499   6.626  0.4477 -0.9900  0.8861
 2884SOL     OW20287   3.840   0.501   5.409 -0.5689  0.3884  0.2697
 2884SOL    HW120288   3.907   0.536   5.469  0.6762 -3.0755  0.9176
 2884SOL    HW220289   3.846   0.560   5.335  0.7724 -0.5711 -0.3868
 2885SOL     OW20290   3.962   0.888   9.398  0.1507 -0.2531 -0.9636
 2885SOL    HW120291   3.887   0.830   9.388  0.4881 -0.4955 -2.1370
 2885SOL    HW220292   3.999   0.873   9.485  1.9784  1.2554 -1.4764
 2886SOL     OW20293   2.472   2.700  15.276 -0.6086  0.0697 -0.2841
 2886SOL    HW120294   2.394   2.680  15.224 -1.0155 -0.0974  0.3826
 2886SOL    HW220295   2.443   2.753  15.351  1.4853  2.5129 -1.2171
 2887SOL     OW20296   2.362   3.655   2.473  0.6387  0.4794 -0.7440
 2887SOL    HW120297   2.274   3.630   2.500 -0.1074  3.2085 -0.6522
 2887SOL    HW220298   2.418   3.602   2.530  1.0148  2.8765  1.1425
 2888SOL     OW20299   3.427   3.248   9.295  0.4371 -0.3781  0.3814
 2888SOL    HW120300   3.363   3.263   9.364  0.6466 -0.6696  0.6447
 2888SOL    HW220301   3.440   3.339   9.268  2.9337 -1.1180 -0.9224
 2889SOL     OW20302   2.036   4.494   5.608 -0.3613 -0.0109 -0.3182
 2889SOL    HW120303   1.987   4.427   5.559  3.7801 -1.1702 -2.8896
 2889SOL    HW220304   2.038   4.564   5.542 -2.0829  0.3662  0.0227
 2890SOL     OW20305   0.230   3.926   0.305  0.2067 -0.1350  0.4826
 2890SOL    HW120306   0.190   3.981   0.372  0.6509 -0.8552  1.3274
 2890SOL    HW220307   0.314   3.922   0.350 -0.7742  3.0200  2.5491
 2891SOL     OW20308   2.990   0.863  14.780  0.1892 -0.2951 -0.5604
 2891SOL    HW120309   2.939   0.899  14.853  0.3235 -1.1993 -0.0146
 2891SOL    HW220310   2.948   0.776  14.778 -2.6087  1.0662 -0.6150
 2892SOL     OW20311   3.789   4.594   5.325 -0.0236 -0.0961 -0.0353
 2892SOL    HW120312   3.770   4.687   5.309 -2.6063 -0.0542  3.1664
 2892SOL    HW220313   3.862   4.602   5.387  0.0013 -1.4833  0.1074
 2893SOL     OW20314   3.728   0.412  16.644 -0.5876  0.3428  0.5354
 2893SOL    HW120315   3.672   0.333  16.639 -1.1729  0.6560  2.2743
 2893SOL    HW220316   3.670   0.475  16.685 -2.7157 -1.5955  0.5512
 2894SOL     OW20317   2.397   3.893   1.986  0.2042  0.4257  0.0092
 2894SOL    HW120318   2.388   3.937   1.902  0.4196 -0.6630 -0.5906
 2894SOL    HW220319   2.315   3.914   2.030 -1.4959 -0.2581 -2.8725
 2895SOL     OW20320   4.325   2.574   6.618  0.5235 -0.2061 -0.8586
 2895SOL    HW120321   4.355   2.483   6.611 -2.5007 -1.2644  0.1249
 2895SOL    HW220322   4.232   2.558   6.601  0.3331  1.8916 -1.8707
 2896SOL     OW20323   0.060   3.721   6.453  0.4748 -0.2283 -0.2469
 2896SOL    HW120324   0.103   3.643   6.418  0.0790  0.3276 -1.9902
 2896SOL    HW220325   0.018   3.763   6.378 -0.5746 -1.1233 -0.1680
 2897SOL     OW20326   2.100   0.778   7.130  0.3549 -0.3238  1.0738
 2897SOL    HW120327   2.190   0.767   7.161  0.0772 -1.2092  1.5461
 2897SOL    HW220328   2.090   0.690   7.093 -1.8392  0.3762  0.0216
 2898SOL     OW20329   1.636   2.429   8.635  0.5306 -0.6526  0.1492
 2898SOL    HW120330   1.720   2.475   8.639 -1.4712  2.8936  1.0967
 2898SOL    HW220331   1.624   2.414   8.729  2.4153 -0.2765  0.4456
 2899SOL     OW20332   4.205   4.035   1.132  0.0255 -0.5191 -0.0223
 2899SOL    HW120333   4.214   3.955   1.184 -3.1088  0.1792  1.5998
 2899SOL    HW220334   4.136   4.013   1.069  0.3167  1.8359 -1.1399
 2900SOL     OW20335   4.330   4.626   1.901  0.2681 -0.2312 -0.5112
 2900SOL    HW120336   4.335   4.706   1.953 -1.5172  0.3763 -1.2820
 2900SOL    HW220337   4.401   4.575   1.941 -1.2035 -1.9572 -0.0779
 2901SOL     OW20338   4.550   0.456   2.017  0.4042 -0.4104 -0.3507
 2901SOL    HW120339   4.612   0.521   1.985  0.3999 -0.4386 -0.4161
 2901SOL    HW220340   4.589   0.373   1.991 -1.8656 -1.2718 -1.0704
 2902SOL     OW20341   0.463   2.286   9.252  0.1298  0.0484  0.1822
 2902SOL    HW120342   0.504   2.317   9.332 -0.6853 -2.2404  1.4732
 2902SOL    HW220343   0.396   2.231   9.293  1.9065 -1.1269  1.5067
 2903SOL     OW20344   1.753   3.199   0.175 -0.0412  0.3416 -0.0793
 2903SOL    HW120345   1.814   3.154   0.234  0.4279  1.3185  0.1849
 2903SOL    HW220346   1.817   3.261   0.140 -0.8454  0.1648 -1.8032
 2904SOL     OW20347   1.773   3.839   1.810  0.4063 -0.1607 -0.1770
 2904SOL    HW120348   1.756   3.830   1.903  0.1211 -0.5035 -0.2616
 2904SOL    HW220349   1.690   3.851   1.765  0.9653 -0.8138 -1.3919
 2905SOL     OW20350   2.560   1.909   8.874 -0.3809 -0.2058 -0.3685
 2905SOL    HW120351   2.541   1.861   8.955 -1.6065 -0.6084 -0.8998
 2905SOL    HW220352   2.562   1.841   8.807  1.0868  0.3163 -0.8504
 2906SOL     OW20353   2.383   2.516  13.657 -0.0521 -0.4369 -0.4800
 2906SOL    HW120354   2.372   2.611  13.648 -1.1904 -0.2020  3.2573
 2906SOL    HW220355   2.311   2.489  13.601  0.3585  2.3060 -2.3325
 2907SOL     OW20356   0.469   0.656   3.508  0.0563 -0.2048 -0.0770
 2907SOL    HW120357   0.394   0.711   3.483 -0.4270 -0.0403  1.7252
 2907SOL    HW220358   0.421   0.591   3.559 -1.1488  0.4791 -0.3172
 2908SOL     OW20359   3.817   2.565   4.105  0.1947 -0.0162 -0.2682
 2908SOL    HW120360   3.891   2.518   4.068  0.1243 -0.3457  0.0095
 2908SOL    HW220361   3.852   2.651   4.129  1.2230 -1.0410  1.8214
 2909SOL     OW20362   3.979   2.833   2.741 -0.1264  0.6752  0.1314
 2909SOL    HW120363   4.010   2.813   2.653  0.0846 -0.4674  0.4753
 2909SOL    HW220364   3.929   2.754   2.758 -1.4240  1.4753  0.0526
 2910SOL     OW20365   0.844   4.113   4.436  0.2500  0.0038 -0.2492
 2910SOL    HW120366   0.845   4.156   4.350 -2.0504 -1.4249 -1.0194
 2910SOL    HW220367   0.855   4.025   4.399  2.2552  1.0548 -2.1111
 2911SOL     OW20368   3.926   0.559   6.198  0.5084  0.2371 -0.1450
 2911SOL    HW120369   3.913   0.622   6.269  0.3244  0.3325 -0.2609
 2911SOL    HW220370   3.992   0.496   6.227  1.1335 -0.7738 -3.8285
 2912SOL     OW20371   4.066   2.991   5.900 -0.3019  0.3993 -0.4076
 2912SOL    HW120372   4.140   2.932   5.894 -1.3844 -1.2078  1.6975
 2912SOL    HW220373   4.076   3.063   5.838  2.0414  2.3221  2.2166
 2913SOL     OW20374   2.501   3.070   5.964  0.1210  0.0394  0.5463
 2913SOL    HW120375   2.454   3.119   5.897  2.4759  3.1010  1.1395
 2913SOL    HW220376   2.577   3.122   5.987  0.4367 -0.6026  0.9527
 2914SOL     OW20377   3.584   0.014   7.475  0.3563  0.3108 -0.2820
 2914SOL    HW120378   3.556   4.709   7.392  1.2799  0.7566 -0.8081
 2914SOL    HW220379   3.542   0.099   7.463 -0.8059 -0.2024  0.1712
 2915SOL     OW20380   2.304   3.674   8.763 -0.5525  0.2378 -0.5255
 2915SOL    HW120381   2.232   3.737   8.755 -0.1215  0.8939  0.7621
 2915SOL    HW220382   2.382   3.728   8.751 -1.5719  1.8140 -0.0713
 2916SOL     OW20383   4.235   0.630   5.099 -0.1102  0.0037 -0.1107
 2916SOL    HW120384   4.262   0.685   5.172  1.5055 -1.6651  0.5277
 2916SOL    HW220385   4.283   0.549   5.115  1.3308  0.7275 -0.8117
 2917SOL     OW20386   2.508   2.753   2.862  0.5575  0.1189 -0.7420
 2917SOL    HW120387   2.586   2.701   2.839  0.0499 -0.8437 -0.2653
 2917SOL    HW220388   2.450   2.681   2.886  0.5499  0.1713 -0.6067
 2918SOL     OW20389   3.281   1.822   7.291 -0.7765  0.1360 -0.2620
 2918SOL    HW120390   3.286   1.807   7.385 -0.7240  1.8477  0.0022
 2918SOL    HW220391   3.373   1.848   7.282 -1.4834  2.0103 -1.9735
 2919SOL     OW20392   1.819   0.367  10.594 -0.3393  0.1917  0.2430
 2919SOL    HW120393   1.768   0.446  10.575 -0.7804 -0.5194 -1.5038
 2919SOL    HW220394   1.910   0.385  10.574 -0.6418 -0.6024 -1.8143
 2920SOL     OW20395   1.596   3.708   9.085  0.4261 -0.0858 -0.0615
 2920SOL    HW120396   1.655   3.756   9.144  1.0750 -1.0749  0.0848
 2920SOL    HW220397   1.641   3.626   9.103 -3.2159 -2.1301 -0.4016
 2921SOL     OW20398   2.178   4.589   1.479  0.6257  0.1566 -0.3720
 2921SOL    HW120399   2.097   4.552   1.514  1.4480 -0.5703  0.8078
 2921SOL    HW220400   2.187   4.526   1.407  2.2242  0.4565 -0.4508
 2922SOL     OW20401   3.183   1.348   7.426  0.7515 -0.5889 -0.0213
 2922SOL    HW120402   3.221   1.264   7.398 -1.1191 -1.3962 -0.1087
 2922SOL    HW220403   3.116   1.372   7.363  1.2774  2.4148  0.5495
 2923SOL     OW20404   4.527   2.935   2.457  0.2771  0.0123  0.1072
 2923SOL    HW120405   4.466   2.864   2.480 -0.3735  0.5841  0.1279
 2923SOL    HW220406   4.523   2.994   2.532 -2.2745 -1.1347  0.8709
 2924SOL     OW20407   2.034   2.737   2.216 -0.0726  0.3226  0.0192
 2924SOL    HW120408   2.128   2.740   2.236  0.5458 -0.5037 -2.6663
 2924SOL    HW220409   2.034   2.690   2.132  1.3191 -0.9673  0.7328
 2925SOL     OW20410   0.534   3.171   2.087 -0.4261  0.3891 -1.0775
 2925SOL    HW120411   0.580   3.246   2.051  1.0585 -0.0483 -0.0996
 2925SOL    HW220412   0.609   3.111   2.088  0.5966  1.7879  3.7824
 2926SOL     OW20413   2.043   3.615   2.798  0.6130 -0.1443  0.0507
 2926SOL    HW120414   1.981   3.688   2.799  1.6395  0.7467 -2.9833
 2926SOL    HW220415   2.127   3.650   2.826  1.7821 -1.7667 -1.4885
 2927SOL     OW20416   4.549   0.218   9.666  0.1935 -0.1608  0.0932
 2927SOL    HW120417   4.625   0.170   9.700 -1.4411 -2.9996 -0.2554
 2927SOL    HW220418   4.564   0.305   9.705  1.9784 -0.5850  0.3668
 2928SOL     OW20419   3.180   1.934  11.132 -0.3810  0.1088 -0.2810
 2928SOL    HW120420   3.119   1.884  11.078  1.5958 -2.1006 -0.4592
 2928SOL    HW220421   3.144   1.924  11.219  0.4210  0.2666  0.0700
 2929SOL     OW20422   3.877   1.813   3.394 -0.5299 -0.7996  0.2246
 2929SOL    HW120423   3.936   1.888   3.383 -3.5939  1.4262 -1.1064
 2929SOL    HW220424   3.838   1.808   3.307 -1.3471  4.5344  0.2953
 2930SOL     OW20425   1.361   4.481   2.150 -0.2356 -0.1480  0.1618
 2930SOL    HW120426   1.266   4.470   2.153 -0.0665 -1.2050  1.3303
 2930SOL    HW220427   1.401   4.416   2.208  2.7357  1.1609 -0.3919
 2931SOL     OW20428   2.846   0.808  11.526  0.0960  0.2322 -0.3349
 2931SOL    HW120429   2.798   0.802  11.444  1.4307 -0.4704 -1.0525
 2931SOL    HW220430   2.935   0.798  11.491  0.4072 -0.4882  0.6508
 2932SOL     OW20431   0.699   1.111   1.877 -0.1805 -0.4861 -0.2240
 2932SOL    HW120432   0.691   1.018   1.898  0.2682 -0.6222 -0.6466
 2932SOL    HW220433   0.699   1.110   1.781  1.1870  1.7020 -0.2540
 2933SOL     OW20434   3.617   4.622   5.871 -0.1692 -0.1745  0.3078
 2933SOL    HW120435   3.712   4.623   5.869 -0.1604 -2.8863 -0.5163
 2933SOL    HW220436   3.597   4.686   5.939  0.9818 -0.1391  0.6089
 2934SOL     OW20437   0.820   3.584   4.416 -0.1035 -0.0757  0.2952
 2934SOL    HW120438   0.730   3.609   4.434 -0.2016 -0.7194  0.7106
 2934SOL    HW220439   0.812   3.588   4.320 -1.2017 -1.4259  0.3363
 2935SOL     OW20440   2.069   2.684  10.000 -0.7045 -0.2343  0.0377
 2935SOL    HW120441   2.060   2.730   9.917  2.5095 -0.6681 -0.5333
 2935SOL    HW220442   2.100   2.598   9.971  0.8497  0.2992  0.0914
 2936SOL     OW20443   0.774   3.948   6.556 -0.1038  0.1538 -0.1020
 2936SOL    HW120444   0.733   4.030   6.583  1.8461  0.9705  0.3646
 2936SOL    HW220445   0.760   3.901   6.638  2.9066 -0.0302  0.2832
 2937SOL     OW20446   2.496   3.116  17.432  1.0049  0.6635 -0.1514
 2937SOL    HW120447   2.411   3.081  17.405  1.1364  1.3787 -1.4856
 2937SOL    HW220448   2.560   3.049  17.406 -0.5771 -1.9601  2.6104
 2938SOL     OW20449   3.427   1.156   2.821 -0.0099 -0.1417 -0.1901
 2938SOL    HW120450   3.411   1.099   2.896  2.2997 -1.1861 -0.4651
 2938SOL    HW220451   3.520   1.164   2.842  0.4041 -0.6455 -1.7876
 2939SOL     OW20452   0.306   2.405   8.756 -0.6842 -0.2466  0.0011
 2939SOL    HW120453   0.331   2.352   8.832  0.8749  1.4441  0.6472
 2939SOL    HW220454   0.390   2.401   8.710 -1.0901 -0.1650 -0.7608
 2940SOL     OW20455   2.834   0.931   5.682 -0.0831  0.2102 -0.2728
 2940SOL    HW120456   2.842   0.891   5.595  1.4553  0.7839 -0.3852
 2940SOL    HW220457   2.776   0.871   5.730 -1.4937  2.9968  1.5004
 2941SOL     OW20458   1.038   0.196   8.719 -0.5204 -0.1608 -0.1419
 2941SOL    HW120459   1.094   0.139   8.773  0.0168  1.4060  0.9551
 2941SOL    HW220460   1.096   0.224   8.648 -2.0387  1.2459 -0.8291
 2942SOL     OW20461   3.952   4.182   3.527 -0.7117  0.0709 -0.0156
 2942SOL    HW120462   3.864   4.218   3.511 -0.4591  0.4159 -0.6376
 2942SOL    HW220463   3.991   4.246   3.587  1.9894  1.0292 -2.7893
 2943SOL     OW20464   1.463   0.955  13.162  0.2699  0.0248  0.2260
 2943SOL    HW120465   1.486   0.902  13.086  1.3236  1.4918 -0.4977
 2943SOL    HW220466   1.498   0.906  13.237 -0.0685  1.6881  1.4721
 2944SOL     OW20467   3.892   4.588   6.560  0.3531  0.5465  0.5445
 2944SOL    HW120468   3.980   4.625   6.546  0.1961  1.5641  2.2860
 2944SOL    HW220469   3.899   4.569   6.653  0.4606 -0.6918  0.2827
 2945SOL     OW20470   3.297   3.593   1.829 -0.1595 -0.2126 -0.1770
 2945SOL    HW120471   3.281   3.605   1.922 -0.4916 -0.8798 -0.1417
 2945SOL    HW220472   3.295   3.681   1.791  2.4692  0.6394  1.6974
 2946SOL     OW20473   1.642   0.587   4.935 -0.0423 -0.8273  0.3021
 2946SOL    HW120474   1.734   0.574   4.912 -0.6684 -1.6241 -1.6867
 2946SOL    HW220475   1.600   0.522   4.879 -2.2254  1.5178 -0.7925
 2947SOL     OW20476   2.606   0.100   2.986  0.4821 -0.5746 -1.0993
 2947SOL    HW120477   2.654   0.139   3.059 -1.5231  1.0653 -0.6604
 2947SOL    HW220478   2.680   0.099   2.925 -0.8778  1.6347 -2.7843
 2948SOL     OW20479   0.355   3.973   7.821  0.7535 -0.0768 -0.1414
 2948SOL    HW120480   0.406   4.054   7.817 -0.3271  0.7604  2.4791
 2948SOL    HW220481   0.295   3.978   7.747  1.0905  2.1522 -0.2526
 2949SOL     OW20482   0.448   3.884   0.435  0.1093 -0.4027 -0.3193
 2949SOL    HW120483   0.517   3.948   0.415  0.4523 -0.3371  1.0769
 2949SOL    HW220484   0.481   3.844   0.516 -3.3301 -0.8251  0.8895
 2950SOL     OW20485   3.132   2.281  14.821 -0.1216 -0.3041 -0.0432
 2950SOL    HW120486   3.157   2.229  14.744  1.3710  0.3063  0.0396
 2950SOL    HW220487   3.080   2.213  14.864  0.4197 -1.7597 -1.6520
 2951SOL     OW20488   2.966   0.893   3.220  0.1102  0.1695 -0.5002
 2951SOL    HW120489   3.010   0.890   3.305 -1.7172  0.2713  0.4352
 2951SOL    HW220490   2.893   0.834   3.241  0.1217 -1.4708 -5.0205
 2952SOL     OW20491   2.556   2.657   5.936  0.5313  0.3606  0.0546
 2952SOL    HW120492   2.639   2.669   5.983  0.7582  0.4830 -0.3819
 2952SOL    HW220493   2.563   2.569   5.899 -0.1537  0.8416 -1.2172
 2953SOL     OW20494   2.200   2.353   8.692  0.6254 -0.4057  0.6578
 2953SOL    HW120495   2.273   2.406   8.660  0.3036 -0.9293 -0.9274
 2953SOL    HW220496   2.236   2.268   8.718 -0.8658 -0.9575  0.9471
 2954SOL     OW20497   3.935   1.616   3.584  0.7477  0.1783  0.3564
 2954SOL    HW120498   3.890   1.677   3.526 -0.1495  0.5292  1.4307
 2954SOL    HW220499   4.009   1.673   3.607 -0.1160  1.3137  0.3048
 2955SOL     OW20500   0.590   1.665   0.465  0.1775 -0.1251  0.2713
 2955SOL    HW120501   0.516   1.638   0.519  0.7135  0.9803  1.5680
 2955SOL    HW220502   0.565   1.628   0.381 -0.8232 -1.6060  1.2293
 2956SOL     OW20503   0.983   0.021  16.099  0.1266 -0.0640  0.1231
 2956SOL    HW120504   0.926   4.685  16.130 -0.0679  0.2122  0.3887
 2956SOL    HW220505   1.017   0.066  16.176 -1.4148  0.3680  0.5396
 2957SOL     OW20506   0.527   3.556   0.986  0.4843  0.4743  0.3674
 2957SOL    HW120507   0.590   3.628   0.979 -0.0565  1.2553  3.4982
 2957SOL    HW220508   0.542   3.515   0.901  0.4282 -0.4878  0.8167
 2958SOL     OW20509   0.841   0.171  11.630  0.2313  0.0448  0.8245
 2958SOL    HW120510   0.915   0.112  11.641  0.9832  0.6933 -0.8154
 2958SOL    HW220511   0.797   0.142  11.550 -0.9779  2.2731  0.6804
 2959SOL     OW20512   2.722   2.991   4.444  0.3146 -0.1355 -0.2612
 2959SOL    HW120513   2.661   2.921   4.466 -1.7142  0.9627 -2.4422
 2959SOL    HW220514   2.660   3.063   4.437 -0.2766 -0.7308 -1.2289
 2960SOL     OW20515   3.416   3.795   5.248  0.2782 -0.2369  0.4581
 2960SOL    HW120516   3.357   3.720   5.243 -2.8190  2.3840 -1.8262
 2960SOL    HW220517   3.485   3.752   5.299  1.2687  2.4488  1.3949
 2961SOL     OW20518   1.569   4.584  16.448 -0.3621  0.2419 -0.3900
 2961SOL    HW120519   1.577   4.548  16.537 -1.9914 -2.0201 -1.1568
 2961SOL    HW220520   1.498   4.531  16.410 -2.1951  3.0208 -0.8565
 2962SOL     OW20521   2.798   1.566   1.930  0.5026 -0.6189  0.6623
 2962SOL    HW120522   2.735   1.637   1.916  0.2950 -1.1190 -0.9150
 2962SOL    HW220523   2.871   1.591   1.873 -0.8375  0.5549 -0.5435
 2963SOL     OW20524   2.987   1.017  15.142 -0.4733 -0.1736  0.0688
 2963SOL    HW120525   3.029   1.035  15.226 -0.6502 -0.5680  0.2398
 2963SOL    HW220526   3.061   1.003  15.083 -0.0339  1.2055  0.2900
 2964SOL     OW20527   0.735   3.776   5.728 -0.2233 -0.2207 -0.2414
 2964SOL    HW120528   0.830   3.786   5.727 -0.3377  0.5194 -3.1242
 2964SOL    HW220529   0.723   3.698   5.783 -0.2313  0.1581  0.2908
 2965SOL     OW20530   0.769   1.340   6.440  0.6214 -0.2635 -0.0002
 2965SOL    HW120531   0.828   1.349   6.514  1.8710 -1.8629 -0.7897
 2965SOL    HW220532   0.726   1.425   6.452  0.8331 -0.5180  2.5557
 2966SOL     OW20533   4.572   1.460   3.431  0.3325  0.4853  0.2757
 2966SOL    HW120534   4.546   1.483   3.341  2.8659  0.5089 -0.4449
 2966SOL    HW220535   4.610   1.372   3.427 -2.7858 -0.8716  0.6700
 2967SOL     OW20536   1.517   0.134   5.783  0.2326 -0.0179 -0.6006
 2967SOL    HW120537   1.441   0.085   5.751  1.0514 -0.9422 -1.1765
 2967SOL    HW220538   1.575   0.061   5.807 -1.6273 -1.7191 -1.2661
 2968SOL     OW20539   1.317   3.699  14.832 -0.2181  0.2127  0.4773
 2968SOL    HW120540   1.259   3.758  14.784  1.1456 -0.5423 -2.0944
 2968SOL    HW220541   1.314   3.746  14.915 -0.5187  1.6201 -0.3487
 2969SOL     OW20542   1.427   2.745  17.633 -0.4410  0.5548 -0.4336
 2969SOL    HW120543   1.473   2.687  17.693 -3.6131 -0.1912  1.2428
 2969SOL    HW220544   1.481   2.740  17.554  2.6441  0.5776  1.6654
 2970SOL     OW20545   2.924   1.144   6.256  0.0683 -0.6406  0.7615
 2970SOL    HW120546   2.845   1.094   6.238 -1.7865  2.1255  1.1499
 2970SOL    HW220547   2.923   1.207   6.183 -1.7345  0.2663  1.5750
 2971SOL     OW20548   3.313   1.660   8.508  0.0076 -0.3633  0.0032
 2971SOL    HW120549   3.404   1.689   8.509  0.3968 -1.5434 -0.6201
 2971SOL    HW220550   3.264   1.741   8.499 -0.3562 -0.5750  0.0491
 2972SOL     OW20551   0.974   3.771  10.010  0.1438 -0.1179 -0.3927
 2972SOL    HW120552   0.930   3.719   9.943 -0.6419  0.4865 -0.3488
 2972SOL    HW220553   0.980   3.710  10.084 -2.2380 -1.5678 -1.3805
 2973SOL     OW20554   3.631   1.059   6.496  0.1603 -0.3752  0.3168
 2973SOL    HW120555   3.613   0.999   6.569 -1.6490 -1.3199 -0.9124
 2973SOL    HW220556   3.725   1.049   6.508  0.3271 -0.7022 -1.3885
 2974SOL     OW20557   4.223   2.232  13.056  0.2203  0.5595  0.4828
 2974SOL    HW120558   4.306   2.239  13.103  1.2497 -0.2227 -1.2355
 2974SOL    HW220559   4.179   2.161  13.104  2.2430 -0.4872  0.7911
 2975SOL     OW20560   0.109   4.421   8.893  0.1885  0.4400  0.9409
 2975SOL    HW120561   0.157   4.432   8.975  0.3181  0.4197  0.8672
 2975SOL    HW220562   0.079   4.331   8.896  0.6664  0.2090 -1.5511
 2976SOL     OW20563   1.012   4.138   7.644 -0.7600 -0.1881 -0.1115
 2976SOL    HW120564   1.106   4.122   7.634 -0.7316 -1.0674  1.5713
 2976SOL    HW220565   0.963   4.105   7.569 -1.2228 -2.5322  1.2313
 2977SOL     OW20566   0.916   3.508   4.794 -0.0232 -0.7360  0.6748
 2977SOL    HW120567   0.976   3.549   4.732 -1.7601 -1.3568 -1.3954
 2977SOL    HW220568   0.945   3.552   4.875  1.3383  1.7812 -1.1671
 2978SOL     OW20569   1.305   4.457  15.683  0.2463 -0.2429 -0.0393
 2978SOL    HW120570   1.394   4.447  15.718 -0.3044  0.7562  1.6596
 2978SOL    HW220571   1.264   4.506  15.755  0.3818  0.0897 -0.1918
 2979SOL     OW20572   3.782   4.365   6.096 -0.4292  0.5607 -0.3392
 2979SOL    HW120573   3.691   4.334   6.100 -1.0766  2.4247 -0.6782
 2979SOL    HW220574   3.822   4.299   6.040  2.1545  2.6549 -0.9730
 2980SOL     OW20575   2.136   2.138   8.936  0.2275 -0.2441  0.6668
 2980SOL    HW120576   2.204   2.096   8.988  1.7472  3.1595  1.4497
 2980SOL    HW220577   2.162   2.231   8.940 -2.2600  0.4505  0.6198
 2981SOL     OW20578   2.810   3.153   4.058  0.1121  0.3323 -0.1554
 2981SOL    HW120579   2.826   3.213   4.130 -0.9630 -0.3768  0.6897
 2981SOL    HW220580   2.798   3.211   3.983 -2.4770  3.2610  2.5556
 2982SOL     OW20581   4.541   1.438   5.211  0.2997 -0.4564  0.7391
 2982SOL    HW120582   4.591   1.361   5.236  0.5160 -0.0765  1.4662
 2982SOL    HW220583   4.600   1.501   5.253  0.3827 -0.2976  0.3931
 2983SOL     OW20584   2.893   3.799   5.552 -0.1548 -0.6949 -0.5461
 2983SOL    HW120585   2.986   3.821   5.557 -0.1337 -0.9768  0.4424
 2983SOL    HW220586   2.906   3.717   5.600 -1.9488  1.9644  4.5351
 2984SOL     OW20587   1.120   2.151  17.524 -0.7061 -0.4489  0.3868
 2984SOL    HW120588   1.185   2.145  17.455  0.3898  1.9010  1.2133
 2984SOL    HW220589   1.153   2.218  17.585  0.7535  1.1972 -2.2306
 2985SOL     OW20590   3.640   0.952   6.172  0.0586  0.1143 -0.2798
 2985SOL    HW120591   3.584   0.957   6.250 -0.9248 -0.1861 -0.9595
 2985SOL    HW220592   3.726   0.939   6.213 -1.9109 -0.0507  3.8377
 2986SOL     OW20593   0.290   2.095  13.805  0.3922  0.0832  0.7021
 2986SOL    HW120594   0.335   2.076  13.887  1.2067  2.5319  0.8256
 2986SOL    HW220595   0.358   2.151  13.766  0.4156 -0.1031  0.4765
 2987SOL     OW20596   2.970   3.628   1.989  0.0992 -0.0958  0.4014
 2987SOL    HW120597   2.912   3.688   2.037 -0.3101 -1.9976  2.2885
 2987SOL    HW220598   2.988   3.669   1.905  0.4939  0.3282  0.6912
 2988SOL     OW20599   0.205   3.827   0.944  0.3817  0.3427 -0.3929
 2988SOL    HW120600   0.195   3.881   0.866  0.2393 -0.7635 -1.1278
 2988SOL    HW220601   0.113   3.804   0.956  0.1700  1.1966 -0.3696
 2989SOL     OW20602   3.470   2.801   1.786 -0.2540  0.4884 -0.6157
 2989SOL    HW120603   3.443   2.710   1.800 -1.2322  1.4146  3.4819
 2989SOL    HW220604   3.387   2.842   1.761 -1.3141 -1.1473  0.2459
 2990SOL     OW20605   0.033   0.889   6.013  0.4889 -0.2410 -0.1709
 2990SOL    HW120606   0.004   0.798   6.018 -0.7677  0.2198  0.9476
 2990SOL    HW220607   0.124   0.861   6.026  0.9936  2.0751  1.1617
 2991SOL     OW20608   1.502   0.477   4.745 -0.7314 -0.0506  0.1797
 2991SOL    HW120609   1.524   0.563   4.708  1.7680  0.7266  3.4526
 2991SOL    HW220610   1.516   0.424   4.667 -0.2793  1.2341 -0.6221
 2992SOL     OW20611   0.850   0.359   8.020  0.5594  0.0549  0.2329
 2992SOL    HW120612   0.870   0.311   8.100  0.5004 -0.5258 -0.0991
 2992SOL    HW220613   0.768   0.407   8.032  0.8467  0.7129 -0.4221
 2993SOL     OW20614   2.827   0.672  15.221  0.4581  0.3183  0.4510
 2993SOL    HW120615   2.780   0.593  15.249  0.3217 -0.1563 -1.1154
 2993SOL    HW220616   2.905   0.679  15.276 -1.1061 -0.0702  2.7209
 2994SOL     OW20617   2.734   3.939   7.638 -0.2890 -0.4970 -0.7863
 2994SOL    HW120618   2.687   3.993   7.701  2.2446  1.7151 -0.7727
 2994SOL    HW220619   2.751   3.863   7.695 -0.0949 -0.3459 -0.6403
 2995SOL     OW20620   0.454   1.135   9.263  0.3362  0.2775 -0.4341
 2995SOL    HW120621   0.484   1.172   9.179  0.0324  2.8111  0.5802
 2995SOL    HW220622   0.461   1.208   9.325  1.2878 -0.5788  0.4499
 2996SOL     OW20623   3.388   4.590   8.154  0.0674 -0.4388 -0.3418
 2996SOL    HW120624   3.429   4.676   8.143 -1.0962  0.4353  2.2769
 2996SOL    HW220625   3.427   4.571   8.239 -0.3338  0.5343  0.0634
 2997SOL     OW20626   4.001   0.406   4.447  0.2535  0.0115 -0.6766
 2997SOL    HW120627   4.022   0.499   4.453  0.2120  0.0379 -0.9637
 2997SOL    HW220628   4.091   0.374   4.455  0.3991  0.3398 -1.0173
 2998SOL     OW20629   2.531   0.817   3.409 -0.1288  0.1845  0.3128
 2998SOL    HW120630   2.604   0.766   3.373  1.9743  1.9633  2.0828
 2998SOL    HW220631   2.471   0.817   3.334  2.7223 -1.1728 -1.9526
 2999SOL     OW20632   4.055   4.042   3.308 -0.3456  0.0632  0.2344
 2999SOL    HW120633   4.053   3.957   3.351 -0.4870 -0.4226 -0.7405
 2999SOL    HW220634   4.008   4.093   3.374 -0.2640  0.0165  0.3284
 3000SOL     OW20635   1.199   2.563   7.299 -0.3280 -0.1689 -0.3532
 3000SOL    HW120636   1.282   2.580   7.253  0.7351 -1.4591  1.0621
 3000SOL    HW220637   1.202   2.467   7.291  1.0934 -0.2705  1.2002
 3001SOL     OW20638   3.535   0.157   6.424  0.3436 -0.4298  0.2127
 3001SOL    HW120639   3.621   0.181   6.391 -0.0038 -1.6224 -1.5921
 3001SOL    HW220640   3.560   0.158   6.516  1.0871  0.3156 -0.0037
 3002SOL     OW20641   2.632   2.273  15.295 -0.1797  0.6269 -0.3315
 3002SOL    HW120642   2.709   2.238  15.251  0.0590 -1.1316  1.4959
 3002SOL    HW220643   2.588   2.188  15.296  1.1279  0.0082  2.3712
 3003SOL     OW20644   2.017   2.841   7.575 -0.4647 -0.1807  0.3218
 3003SOL    HW120645   2.083   2.909   7.583 -0.4369 -0.2495  0.6922
 3003SOL    HW220646   2.067   2.760   7.564  0.4636  0.3704  0.5089
 3004SOL     OW20647   1.228   2.366   4.676  0.6159  0.1621 -0.4365
 3004SOL    HW120648   1.197   2.453   4.700  1.1281  0.4309 -0.7326
 3004SOL    HW220649   1.182   2.309   4.738  0.2321  0.6085 -0.3161
 3005SOL     OW20650   1.459   3.913   6.538 -0.2120 -0.0676 -0.4801
 3005SOL    HW120651   1.383   3.857   6.555 -0.5988  0.0578 -1.8169
 3005SOL    HW220652   1.525   3.894   6.604 -0.0823 -1.1458 -0.9187
 3006SOL     OW20653   4.305   2.410   2.487 -0.2685  0.1105  0.1341
 3006SOL    HW120654   4.286   2.317   2.501 -0.3450  0.0257 -0.5474
 3006SOL    HW220655   4.390   2.410   2.445 -1.4817 -2.6440 -2.3217
 3007SOL     OW20656   4.415   3.930   9.128 -0.0595 -0.4224 -0.4102
 3007SOL    HW120657   4.323   3.904   9.119 -0.1830  0.0694 -0.5824
 3007SOL    HW220658   4.446   3.858   9.182 -0.6215 -1.2586 -1.2108
 3008SOL     OW20659   3.229   3.334   6.121 -0.0932 -0.1415 -0.2405
 3008SOL    HW120660   3.311   3.286   6.123  0.0960  0.1954  0.2873
 3008SOL    HW220661   3.236   3.366   6.031  0.6868 -0.1087 -0.1701
 3009SOL     OW20662   4.715   3.372   7.303 -0.6086 -0.4203 -0.1331
 3009SOL    HW120663   0.057   3.400   7.253 -1.3102 -1.6329 -1.8725
 3009SOL    HW220664   4.705   3.278   7.292  1.1823 -0.8871  2.3120
 3010SOL     OW20665   3.736   3.061  12.567 -0.3905  0.6500 -0.3439
 3010SOL    HW120666   3.667   3.070  12.633  0.0308  0.8413  0.0690
 3010SOL    HW220667   3.718   3.138  12.513 -2.2050 -0.2060 -0.9755
 3011SOL     OW20668   2.191   0.257   6.054 -0.6229  0.3332 -0.5476
 3011SOL    HW120669   2.189   0.324   6.123 -2.0826 -0.1191 -0.1485
 3011SOL    HW220670   2.120   0.282   5.995  0.0915 -0.7307 -1.8540
 3012SOL     OW20671   0.151   2.135  10.918 -0.0146  0.0816 -0.2314
 3012SOL    HW120672   0.169   2.103  11.006  1.3102  0.2152 -0.4400
 3012SOL    HW220673   0.200   2.216  10.930  0.6183 -0.3398  0.0663
 3013SOL     OW20674   0.824   1.014   4.035 -0.3679 -0.6625  0.5246
 3013SOL    HW120675   0.765   0.991   3.962  2.5733  0.5182 -2.2194
 3013SOL    HW220676   0.903   0.962   4.021  0.6360  1.1144 -0.4274
 3014SOL     OW20677   0.611   3.237   5.836  0.0791 -0.4794  0.2657
 3014SOL    HW120678   0.687   3.283   5.873 -0.3169  0.9786 -0.7227
 3014SOL    HW220679   0.544   3.299   5.867  0.8227  1.2736 -1.6142
 3015SOL     OW20680   3.782   0.727  14.835  0.0833  0.8321  0.4525
 3015SOL    HW120681   3.795   0.792  14.903 -0.8264  2.9445 -1.4154
 3015SOL    HW220682   3.854   0.752  14.777 -0.1344  0.9179  0.2169
 3016SOL     OW20683   3.113   0.742   3.771 -0.1541 -0.6770  0.5484
 3016SOL    HW120684   3.096   0.831   3.802  0.0848 -0.8098  1.0642
 3016SOL    HW220685   3.089   0.680   3.840  3.9371  0.7298  3.2219
 3017SOL     OW20686   2.879   2.563   8.689  0.0771 -0.0390  0.1478
 3017SOL    HW120687   2.864   2.655   8.664  1.2637  0.5090  1.4659
 3017SOL    HW220688   2.957   2.535   8.642  0.2366  1.4981 -0.5054
 3018SOL     OW20689   0.731   4.635   9.046  0.0074 -0.3766  0.4910
 3018SOL    HW120690   0.652   4.590   9.074 -1.5457 -0.0318 -3.3140
 3018SOL    HW220691   0.705   4.646   8.955  0.7322  0.4862  0.3873
 3019SOL     OW20692   2.011   2.459  16.832  0.0947  0.1115  0.0198
 3019SOL    HW120693   1.935   2.514  16.811 -0.0744 -0.3420 -0.5414
 3019SOL    HW220694   2.039   2.436  16.744  2.2852  1.6666  0.3153
 3020SOL     OW20695   0.619   1.364   6.815  0.0442 -0.2318 -0.1423
 3020SOL    HW120696   0.628   1.457   6.795 -0.5315 -0.2488 -0.4773
 3020SOL    HW220697   0.526   1.355   6.792  0.6184 -1.1403 -2.1034
 3021SOL     OW20698   4.623   1.157   8.582  0.1840 -0.2573 -0.5302
 3021SOL    HW120699   4.655   1.074   8.618  1.7524  1.2139  1.5022
 3021SOL    HW220700   4.688   1.179   8.515 -0.3645 -2.0471 -1.6257
 3022SOL     OW20701   0.002   2.438   5.956  0.8207 -0.0376 -0.0013
 3022SOL    HW120702   4.728   2.374   6.026  0.2229 -0.6564 -0.6472
 3022SOL    HW220703   0.011   2.514   6.014 -1.0231  0.6926 -0.6800
 3023SOL     OW20704   4.721   3.007   1.868  0.1906 -0.3430 -0.0452
 3023SOL    HW120705   4.641   3.045   1.833  1.0450 -0.0167 -1.6468
 3023SOL    HW220706   4.716   3.042   1.957  2.6692  0.1439 -0.0971
 3024SOL     OW20707   3.677   0.049   1.825  0.0016 -0.7308  0.3426
 3024SOL    HW120708   3.676   4.705   1.772 -1.5918 -1.0348  0.8278
 3024SOL    HW220709   3.591   0.082   1.799  0.1119 -0.7786 -0.0898
 3025SOL     OW20710   3.265   1.958   8.505 -0.2399 -0.1291  0.4408
 3025SOL    HW120711   3.348   1.984   8.546 -0.4566 -3.6125  3.0996
 3025SOL    HW220712   3.208   1.996   8.571 -0.2120 -0.4924  0.6716
 3026SOL     OW20713   2.974   1.933   4.724 -0.0757 -0.1509 -0.2757
 3026SOL    HW120714   2.913   2.006   4.712 -0.3575 -0.2289  0.6222
 3026SOL    HW220715   3.002   1.915   4.634  1.4621  0.9795 -0.0109
 3027SOL     OW20716   3.797   2.091   6.320 -0.0540 -0.1875  0.3391
 3027SOL    HW120717   3.772   2.000   6.338 -1.6598 -0.2586 -2.2110
 3027SOL    HW220718   3.813   2.129   6.407 -1.3176 -1.5046  1.1467
 3028SOL     OW20719   2.155   4.462   6.837  0.0261 -0.1510  0.0100
 3028SOL    HW120720   2.062   4.442   6.830  0.3014 -1.3399 -0.2421
 3028SOL    HW220721   2.153   4.496   6.926 -0.0631  1.2663 -0.5386
 3029SOL     OW20722   4.244   2.816   2.780 -0.5010  0.1086 -0.2024
 3029SOL    HW120723   4.265   2.755   2.710  1.9770 -0.3757  0.9686
 3029SOL    HW220724   4.149   2.812   2.787 -0.7092  2.5652 -1.7655
 3030SOL     OW20725   4.362   2.814  10.245 -0.2796 -0.5439  0.1429
 3030SOL    HW120726   4.390   2.863  10.322  2.8377 -1.0991 -0.6553
 3030SOL    HW220727   4.284   2.868  10.228  0.2833  0.1032 -0.4050
 3031SOL     OW20728   3.917   4.387  10.827 -0.8316  0.0424  0.1377
 3031SOL    HW120729   3.875   4.451  10.770 -0.8563  0.5274  0.6984
 3031SOL    HW220730   3.906   4.416  10.917 -1.1999  2.2183 -0.6043
 3032SOL     OW20731   3.749   1.920   6.734  0.2391  0.0063  0.4300
 3032SOL    HW120732   3.747   1.949   6.825 -1.4428  1.4237 -0.0587
 3032SOL    HW220733   3.710   1.992   6.684  0.9220  0.2169  0.1879
 3033SOL     OW20734   3.203   4.121   6.734 -0.2951 -0.3949  0.2525
 3033SOL    HW120735   3.244   4.107   6.649 -2.4702  0.7995 -0.9979
 3033SOL    HW220736   3.257   4.074   6.797 -0.1615  0.7746  1.0044
 3034SOL     OW20737   3.723   1.844  10.787 -0.4015  0.9621  0.1409
 3034SOL    HW120738   3.689   1.860  10.875 -1.0640  0.3440  0.0044
 3034SOL    HW220739   3.684   1.762  10.755  0.5259  0.2771  0.7589
 3035SOL     OW20740   3.259   4.337  16.597 -0.3519 -0.2283 -0.2736
 3035SOL    HW120741   3.228   4.373  16.514  3.6549 -2.9250 -2.9685
 3035SOL    HW220742   3.210   4.255  16.604 -1.4198  0.3462 -1.1436
 3036SOL     OW20743   2.631   2.280   6.683  0.6208 -0.3833  0.4304
 3036SOL    HW120744   2.661   2.189   6.689 -0.4415 -0.7299  0.5076
 3036SOL    HW220745   2.547   2.262   6.641  0.5638  1.5107 -0.2724
 3037SOL     OW20746   4.322   2.007   6.520  0.1823  0.0824 -0.0414
 3037SOL    HW120747   4.241   1.958   6.505  1.7763 -2.3366 -0.5769
 3037SOL    HW220748   4.289   2.044   6.603 -1.2984 -0.3980 -0.4197
 3038SOL     OW20749   2.120   4.014   1.989 -0.7476 -0.7425 -0.1608
 3038SOL    HW120750   2.052   4.015   1.922  0.1484 -0.5539 -1.0666
 3038SOL    HW220751   2.154   4.103   1.980 -0.0228 -0.8306  1.7302
 3039SOL     OW20752   1.340   4.698  16.685  0.2065 -0.2572 -0.1489
 3039SOL    HW120753   1.270   0.028  16.684  0.8703  0.4731  0.4356
 3039SOL    HW220754   1.301   4.617  16.719 -3.5953  1.6647  0.0661
 3040SOL     OW20755   3.965   1.259   8.611  0.3507  0.2087 -0.4236
 3040SOL    HW120756   3.929   1.344   8.587 -1.1788 -0.6988 -1.4059
 3040SOL    HW220757   4.006   1.276   8.696  0.0956 -0.7423 -0.1110
 3041SOL     OW20758   2.637   2.618   1.090 -0.7746  0.1182  0.7244
 3041SOL    HW120759   2.670   2.654   1.172  0.5328  0.2695  0.1291
 3041SOL    HW220760   2.626   2.694   1.033 -0.6349  0.8243  1.6514
 3042SOL     OW20761   2.856   1.024  11.828 -0.1164  0.0863  0.4040
 3042SOL    HW120762   2.764   1.048  11.832  0.0097  0.5512  0.5358
 3042SOL    HW220763   2.882   1.086  11.761  2.3370 -0.5572  0.7502
 3043SOL     OW20764   0.604   3.892  15.532  0.9739 -0.6131  0.1398
 3043SOL    HW120765   0.597   3.870  15.438  0.1882  0.3235 -0.0207
 3043SOL    HW220766   0.537   3.833  15.569 -1.5432  1.0746 -1.7220
 3044SOL     OW20767   4.503   0.963   9.530 -0.0586 -0.6622  0.0293
 3044SOL    HW120768   4.410   0.984   9.522  0.1493  1.0997  2.1630
 3044SOL    HW220769   4.523   0.926   9.444 -1.2831 -2.9691  0.7477
 3045SOL     OW20770   1.364   1.111   3.028 -0.6686  0.1554  0.5885
 3045SOL    HW120771   1.424   1.097   3.102  2.3277 -0.4427 -1.9496
 3045SOL    HW220772   1.298   1.158   3.079 -1.5425  1.3853 -1.7092
 3046SOL     OW20773   4.365   3.266   7.328 -0.3219  0.2954 -0.6928
 3046SOL    HW120774   4.384   3.350   7.286  1.6208  0.6183  0.8828
 3046SOL    HW220775   4.322   3.294   7.409 -0.8478 -0.8981 -0.5652
 3047SOL     OW20776   2.493   1.810  12.111 -0.9576 -0.6004 -0.0055
 3047SOL    HW120777   2.464   1.890  12.154 -1.5880  1.6057 -4.4696
 3047SOL    HW220778   2.435   1.812  12.034  0.5440  0.1186 -1.1221
 3048SOL     OW20779   0.684   3.921   7.704  0.0548  0.4593  0.4081
 3048SOL    HW120780   0.602   3.970   7.699  0.5828  1.3087  0.0621
 3048SOL    HW220781   0.726   3.943   7.788 -0.4718  1.6885  0.3554
 3049SOL     OW20782   1.300   1.298   8.704 -0.6031  0.2821 -0.8609
 3049SOL    HW120783   1.331   1.208   8.709  0.5092  0.8339  2.1178
 3049SOL    HW220784   1.286   1.310   8.610 -3.1457  1.7688 -0.3109
 3050SOL     OW20785   3.071   4.499   5.451  0.6288 -0.0190 -0.0212
 3050SOL    HW120786   3.138   4.432   5.465  0.5482 -0.2979 -0.9792
 3050SOL    HW220787   3.126   4.578   5.447  1.5233 -0.5697  1.4704
 3051SOL     OW20788   4.240   4.495   6.798  0.3434 -0.6573  0.5279
 3051SOL    HW120789   4.227   4.462   6.887 -1.0383 -1.0429  0.1883
 3051SOL    HW220790   4.331   4.524   6.799  0.0377  0.3152  0.3294
 3052SOL     OW20791   4.630   3.649  15.449  0.6819  0.5998 -0.3436
 3052SOL    HW120792   4.592   3.695  15.524 -0.7653 -1.2415  0.0371
 3052SOL    HW220793   4.716   3.638  15.490  1.1381 -2.7034 -2.2106
 3053SOL     OW20794   2.585   0.659   5.109  0.1958 -0.3885  0.0950
 3053SOL    HW120795   2.672   0.697   5.124 -0.0452  0.6628 -1.1858
 3053SOL    HW220796   2.557   0.648   5.200  0.5257  0.5584  0.3110
 3054SOL     OW20797   0.138   2.800   5.294 -0.3063  0.2117  0.0045
 3054SOL    HW120798   0.223   2.841   5.307  0.1851 -0.4550 -1.1306
 3054SOL    HW220799   0.118   2.813   5.201 -2.5068  1.9520  0.7093
 3055SOL     OW20800   4.645   2.805   4.613  0.1040 -0.1431  0.5624
 3055SOL    HW120801   4.640   2.747   4.537  1.0021  0.3474  0.1282
 3055SOL    HW220802   4.725   2.851   4.590  0.2002  0.2501  1.6435
 3056SOL     OW20803   3.607   0.121   6.690 -0.1641  0.9627  0.6565
 3056SOL    HW120804   3.554   0.097   6.766 -0.0892 -0.0121  0.4000
 3056SOL    HW220805   3.699   0.111   6.716  0.5030  0.8219 -1.7360
 3057SOL     OW20806   0.888   1.709   4.093 -0.8374  0.7178 -0.1867
 3057SOL    HW120807   0.883   1.658   4.174  0.6285  1.5113  0.3999
 3057SOL    HW220808   0.980   1.696   4.070 -1.3795  0.0147 -1.9426
 3058SOL     OW20809   1.343   1.375   0.432  0.2991 -0.0230 -0.0959
 3058SOL    HW120810   1.384   1.326   0.362  0.2520  1.7884 -1.4086
 3058SOL    HW220811   1.294   1.442   0.384  2.2824  0.4917 -1.3952
 3059SOL     OW20812   3.041   1.567   1.795 -0.6192 -0.2332 -0.2527
 3059SOL    HW120813   3.126   1.611   1.791 -0.9656  0.3626 -1.0720
 3059SOL    HW220814   3.017   1.558   1.703  2.5231 -2.3000 -0.8461
 3060SOL     OW20815   4.572   4.462   6.050 -0.3156  0.2100 -0.1502
 3060SOL    HW120816   4.543   4.371   6.042  1.0261 -0.1955 -0.4513
 3060SOL    HW220817   4.664   4.461   6.023  0.3553 -2.3401  2.1957
 3061SOL     OW20818   1.582   2.620   6.131  0.1596  0.4269  0.4424
 3061SOL    HW120819   1.562   2.668   6.051 -2.4287  0.9373  1.3775
 3061SOL    HW220820   1.664   2.585   6.099 -0.3375 -0.5551  0.2503
 3062SOL     OW20821   1.876   1.987   1.661  0.0120 -0.1428 -0.2794
 3062SOL    HW120822   1.873   2.050   1.732  1.2340 -2.1305  1.5370
 3062SOL    HW220823   1.785   1.960   1.653 -0.2050  0.0088  1.9618
 3063SOL     OW20824   2.542   2.342   5.302  0.0906  0.2190 -0.2469
 3063SOL    HW120825   2.586   2.423   5.328  1.6626 -0.9074  0.6181
 3063SOL    HW220826   2.514   2.308   5.387 -0.8966  0.4160 -0.4916
 3064SOL     OW20827   2.750   0.907   6.202  0.2886  0.2271  0.1334
 3064SOL    HW120828   2.803   0.857   6.139  0.6289  2.2172 -1.1500
 3064SOL    HW220829   2.780   0.865   6.283 -0.1252  1.4542  0.9160
 3065SOL     OW20830   3.844   2.184   9.251 -0.0663  0.0430 -0.1538
 3065SOL    HW120831   3.859   2.237   9.330 -0.2652 -0.8230  0.4734
 3065SOL    HW220832   3.796   2.252   9.204 -0.8164 -0.8805 -0.7213
 3066SOL     OW20833   0.129   4.168   1.043 -0.3813  0.2226 -0.0384
 3066SOL    HW120834   0.198   4.209   1.095  0.4349  0.4021 -1.2680
 3066SOL    HW220835   0.109   4.092   1.097  0.9691  0.2632  0.5100
 3067SOL     OW20836   3.585   4.402   5.302  0.0220  0.0357 -0.2069
 3067SOL    HW120837   3.545   4.418   5.388 -1.1379  0.2309 -0.7884
 3067SOL    HW220838   3.664   4.456   5.307 -1.8198  2.5034  2.4986
 3068SOL     OW20839   1.263   0.604   7.827 -0.2030 -0.1925 -0.0367
 3068SOL    HW120840   1.294   0.590   7.917  2.5255 -1.9509 -1.2760
 3068SOL    HW220841   1.170   0.583   7.838 -0.5232  0.7695 -0.8811
 3069SOL     OW20842   2.259   4.369   9.094  0.2368 -0.0567  0.5729
 3069SOL    HW120843   2.323   4.436   9.119 -0.0348 -0.1357  1.4857
 3069SOL    HW220844   2.207   4.360   9.173  2.2442 -0.2026  1.8819
 3070SOL     OW20845   1.431   4.041  12.148  0.7398  0.7059 -0.3800
 3070SOL    HW120846   1.405   4.132  12.164  2.6979  1.4779 -1.5974
 3070SOL    HW220847   1.417   4.010  12.237 -4.1012  2.2183 -0.6104
 3071SOL     OW20848   3.099   2.738   6.212  0.5497 -0.3177  0.3326
 3071SOL    HW120849   3.128   2.826   6.238  0.0944 -0.3522  0.9721
 3071SOL    HW220850   3.059   2.701   6.291  1.7111  2.8226  2.4000
 3072SOL     OW20851   2.138   0.239   4.907  0.2848 -1.2435  0.2969
 3072SOL    HW120852   2.177   0.326   4.910  0.5523 -1.3447 -0.1905
 3072SOL    HW220853   2.100   0.240   4.819 -1.3667  1.2626  1.0062
 3073SOL     OW20854   2.125   3.435  16.485 -0.2867 -0.3321  0.0067
 3073SOL    HW120855   2.040   3.393  16.481 -0.6024  0.3657 -0.7482
 3073SOL    HW220856   2.179   3.378  16.429  0.0067 -1.0037  0.9719
 3074SOL     OW20857   1.367   1.076  15.146 -0.3421 -0.0450  0.0823
 3074SOL    HW120858   1.437   1.120  15.098 -0.0747  1.3015  1.7290
 3074SOL    HW220859   1.321   1.156  15.169 -0.7596 -0.9893  2.5345
 3075SOL     OW20860   0.621   2.924  17.663 -0.2189  0.4154  0.2422
 3075SOL    HW120861   0.623   2.829  17.670  2.0546  0.5612  1.4545
 3075SOL    HW220862   0.531   2.937  17.695  0.1666 -1.2420  1.9776
 3076SOL     OW20863   0.548   1.683   9.460  0.2532  0.3079  0.2297
 3076SOL    HW120864   0.618   1.650   9.404  0.5486  0.9567  0.2189
 3076SOL    HW220865   0.484   1.709   9.394  0.5802  0.7421  0.0891
 3077SOL     OW20866   3.069   0.895   0.498  0.2850  0.8833  0.8740
 3077SOL    HW120867   3.097   0.810   0.531  1.7543  1.2706  0.6434
 3077SOL    HW220868   3.104   0.955   0.564 -1.0700  1.7257  0.8334
 3078SOL     OW20869   0.762   1.490  15.814 -0.0467 -0.1094 -1.0861
 3078SOL    HW120870   0.799   1.502  15.901  0.2412 -0.1846 -1.2001
 3078SOL    HW220871   0.831   1.446  15.765 -1.1056 -1.1940 -1.6130
 3079SOL     OW20872   2.064   4.195   3.471 -0.6475  0.4232 -0.4809
 3079SOL    HW120873   2.101   4.238   3.548  0.8147 -2.6155  0.5028
 3079SOL    HW220874   2.148   4.190   3.425 -0.2305 -0.2014  0.3515
 3080SOL     OW20875   2.736   0.743  14.687 -0.6588  0.1471  0.4195
 3080SOL    HW120876   2.800   0.800  14.645  0.2801 -2.2611 -1.4255
 3080SOL    HW220877   2.723   0.671  14.624 -0.9858  2.1945 -1.8804
 3081SOL     OW20878   4.488   2.289   7.474 -0.2151 -0.2237 -0.1109
 3081SOL    HW120879   4.472   2.290   7.568  0.4495  0.7362  0.0019
 3081SOL    HW220880   4.533   2.373   7.462  1.3655 -0.8277  1.6435
 3082SOL     OW20881   2.673   1.950   1.680  0.6753 -0.4898  0.0906
 3082SOL    HW120882   2.691   2.009   1.753  1.8045  0.8676 -1.2990
 3082SOL    HW220883   2.726   2.005   1.623  0.7105 -0.0058  0.5849
 3083SOL     OW20884   2.971   0.758   8.938  0.0498  0.1174  0.3404
 3083SOL    HW120885   2.908   0.785   8.871  1.4962 -0.8456 -1.4101
 3083SOL    HW220886   3.048   0.803   8.902  0.2471  0.4482  1.1652
 3084SOL     OW20887   1.762   4.658   8.705  0.3959 -0.4108  0.2573
 3084SOL    HW120888   1.791   0.012   8.727 -0.7146  0.6869 -2.5863
 3084SOL    HW220889   1.689   4.674   8.645 -0.7982  0.4216  1.9163
 3085SOL     OW20890   4.636   0.854  15.565  0.2360  0.3906 -0.0627
 3085SOL    HW120891   4.601   0.846  15.477 -4.8009  1.7336  1.7878
 3085SOL    HW220892   4.684   0.936  15.556 -1.4617  1.1588 -1.9885
 3086SOL     OW20893   0.110   2.507   7.709  0.3293 -0.3662 -0.1521
 3086SOL    HW120894   0.197   2.485   7.741  0.0434  2.6365  2.6416
 3086SOL    HW220895   0.104   2.459   7.627 -0.6364  0.5319 -0.6037
 3087SOL     OW20896   2.172   0.061   5.369  0.4157  0.3676  0.1096
 3087SOL    HW120897   2.241   0.036   5.430 -0.8530 -1.0296  0.9733
 3087SOL    HW220898   2.220   0.130   5.324 -0.1884 -0.4268 -1.7627
 3088SOL     OW20899   1.085   0.813   8.244  0.2414 -0.6236  0.2066
 3088SOL    HW120900   1.044   0.892   8.207 -1.3920 -2.0105 -0.9934
 3088SOL    HW220901   1.101   0.835   8.335 -0.0643  0.9801 -0.1272
 3089SOL     OW20902   2.366   2.829   4.862  0.1759 -0.6260  0.8038
 3089SOL    HW120903   2.323   2.857   4.781  1.6346  2.1961  1.0377
 3089SOL    HW220904   2.448   2.794   4.826  0.9205  2.9577 -0.9324
 3090SOL     OW20905   3.577   0.657   9.584 -0.0787  0.4077  0.0983
 3090SOL    HW120906   3.489   0.626   9.561 -0.5490  0.5417  1.7728
 3090SOL    HW220907   3.629   0.577   9.592 -0.6233  0.0382 -0.0340
 3091SOL     OW20908   1.464   2.977   8.397 -0.5996 -0.0559 -0.2228
 3091SOL    HW120909   1.515   2.902   8.365 -0.0712  1.0000 -1.8711
 3091SOL    HW220910   1.402   2.932   8.455 -1.0802 -0.9500 -1.4153
 3092SOL     OW20911   4.159   2.849   4.136 -0.5605  0.3146 -0.0258
 3092SOL    HW120912   4.195   2.770   4.095 -0.8883 -0.2883  0.8482
 3092SOL    HW220913   4.159   2.825   4.228  2.3793 -0.6215 -0.2480
 3093SOL     OW20914   0.093   3.162   6.119  0.4634 -0.6974  0.4320
 3093SOL    HW120915   0.177   3.128   6.088 -0.5840 -1.7583 -1.2415
 3093SOL    HW220916   0.096   3.146   6.213  0.9548  0.2254  0.5794
 3094SOL     OW20917   2.969   1.160  10.481  0.3543 -0.1199 -0.2137
 3094SOL    HW120918   2.990   1.198  10.567  1.8579 -1.1119 -0.1431
 3094SOL    HW220919   3.029   1.086  10.489 -1.5760 -1.5644  0.8423
 3095SOL     OW20920   0.183   1.452   8.162  0.3965 -0.0201 -0.3786
 3095SOL    HW120921   0.258   1.431   8.107 -1.0519  1.1827 -2.7772
 3095SOL    HW220922   0.166   1.540   8.130 -0.5255 -0.6436 -1.6400
 3096SOL     OW20923   1.741   2.445  17.416 -0.1661  0.6894 -0.1797
 3096SOL    HW120924   1.657   2.425  17.374  0.3426  0.2254 -0.9634
 3096SOL    HW220925   1.787   2.504  17.357  0.6275 -0.0726 -0.3138
 3097SOL     OW20926   0.332   2.855  12.989 -0.1720 -0.2407  0.1447
 3097SOL    HW120927   0.414   2.876  12.945 -0.3932 -1.4684 -0.8231
 3097SOL    HW220928   0.263   2.861  12.924  1.2912  3.1491 -1.0818
 3098SOL     OW20929   4.099   2.572   8.965 -0.0640 -0.6162 -0.3884
 3098SOL    HW120930   4.045   2.578   8.886 -1.4605 -0.3910  0.5777
 3098SOL    HW220931   4.172   2.522   8.928 -0.6353 -3.0043  1.7219
 3099SOL     OW20932   2.535   0.139   4.561 -0.1792  0.3914  0.7484
 3099SOL    HW120933   2.601   0.096   4.507 -2.4797 -1.4743 -0.5788
 3099SOL    HW220934   2.487   0.064   4.595  0.6529  0.3961  1.9253
 3100SOL     OW20935   1.440   0.031   0.675 -0.3193 -0.2668 -0.6385
 3100SOL    HW120936   1.401   4.681   0.653  0.8017 -1.4106  1.7485
 3100SOL    HW220937   1.480   0.057   0.592  1.1102  1.9558  0.7442
 3101SOL     OW20938   4.460   1.641  16.069 -0.0063 -0.0932 -0.0719
 3101SOL    HW120939   4.436   1.630  15.977 -0.1902 -2.5928  0.2757
 3101SOL    HW220940   4.506   1.561  16.094 -2.8316 -1.6659  0.0702
 3102SOL     OW20941   2.327   3.916   9.193  0.4120 -0.4268 -0.1402
 3102SOL    HW120942   2.349   3.965   9.114 -1.7468  1.6581  0.5714
 3102SOL    HW220943   2.282   3.983   9.244  0.4488 -0.6033  0.1228
 3103SOL     OW20944   3.964   3.984   8.092  0.3551 -0.2413  0.2296
 3103SOL    HW120945   3.967   3.941   8.006 -0.0349  0.4583 -0.1301
 3103SOL    HW220946   4.050   4.000   8.131  0.8316 -1.6085 -0.2625
 3104SOL     OW20947   3.381   4.109   7.510  0.1956 -0.7610 -0.5582
 3104SOL    HW120948   3.348   4.047   7.575 -2.9163  0.4163 -1.0440
 3104SOL    HW220949   3.470   4.073   7.504  0.5448  0.1760 -0.9098
 3105SOL     OW20950   3.060   2.238   2.729 -0.0798  0.4553 -0.6937
 3105SOL    HW120951   3.038   2.217   2.638  1.0277  0.5983 -0.9879
 3105SOL    HW220952   3.087   2.155   2.768  1.0133 -0.7237 -4.0025
 3106SOL     OW20953   3.181   2.624   5.968  0.1282  0.1737 -0.2829
 3106SOL    HW120954   3.142   2.641   6.053 -0.9671  0.6555 -0.8800
 3106SOL    HW220955   3.266   2.664   5.984 -0.0741  0.5326 -0.1116
 3107SOL     OW20956   0.316   2.904   7.513  0.9796 -0.3836  0.3542
 3107SOL    HW120957   0.302   2.910   7.418 -0.5891 -1.1585  0.5313
 3107SOL    HW220958   0.228   2.933   7.540  0.2806 -1.1231 -1.1165
 3108SOL     OW20959   4.610   4.436   5.353 -0.7019 -0.3774  0.5646
 3108SOL    HW120960   4.698   4.411   5.380 -0.3046 -2.8307 -3.0657
 3108SOL    HW220961   4.573   4.348   5.350 -0.1385 -0.5966 -0.0255
 3109SOL     OW20962   3.201   1.384   0.932  1.1072 -0.2733 -0.2801
 3109SOL    HW120963   3.118   1.407   0.973  1.3909 -0.5021  0.4328
 3109SOL    HW220964   3.175   1.298   0.899 -0.9410  1.3349 -2.7877
 3110SOL     OW20965   0.804   2.153  12.791 -0.7612  0.1495 -0.3567
 3110SOL    HW120966   0.858   2.160  12.713  0.0497 -1.6914  0.0360
 3110SOL    HW220967   0.730   2.128  12.736 -1.0852  1.1475 -0.3799
 3111SOL     OW20968   0.401   4.313   6.566 -0.0682  0.1623 -0.4006
 3111SOL    HW120969   0.415   4.375   6.494  0.4080 -1.8115 -2.0363
 3111SOL    HW220970   0.307   4.320   6.582 -0.1155 -1.1658 -0.1074
 3112SOL     OW20971   3.219   2.631   4.407  0.3043 -0.0929  0.2976
 3112SOL    HW120972   3.155   2.673   4.350  1.7137  1.3699 -0.1929
 3112SOL    HW220973   3.280   2.593   4.345  1.5385  1.1996  0.7158
 3113SOL     OW20974   2.086   3.869   4.469 -0.7846  0.1392 -0.4495
 3113SOL    HW120975   2.003   3.838   4.505 -1.7508  1.3762 -1.5726
 3113SOL    HW220976   2.074   3.880   4.374 -1.1659  2.0885 -0.1762
 3114SOL     OW20977   0.878   4.462  10.059  0.3179 -0.5662  0.1781
 3114SOL    HW120978   0.863   4.410  10.138  1.8105 -1.4781 -0.1463
 3114SOL    HW220979   0.807   4.430  10.004 -0.0385 -1.3389  1.0821
 3115SOL     OW20980   2.433   2.463   8.524  0.1240 -0.1053 -0.0525
 3115SOL    HW120981   2.401   2.455   8.435  1.1682  0.6074 -0.4877
 3115SOL    HW220982   2.473   2.549   8.511  0.9863 -0.3153  1.1080
 3116SOL     OW20983   4.278   3.002   7.683  0.0008  0.6431 -0.0705
 3116SOL    HW120984   4.255   2.980   7.593 -1.0194 -0.2609  0.4072
 3116SOL    HW220985   4.247   2.926   7.734  1.0866  0.0539 -0.2810
 3117SOL     OW20986   2.684   2.373   9.388  0.7336  0.5303  0.4018
 3117SOL    HW120987   2.628   2.431   9.439  0.0426  0.0419  0.1987
 3117SOL    HW220988   2.758   2.429   9.362  1.4638 -0.1199  1.1031
 3118SOL     OW20989   3.188   0.827   4.424  0.3561  0.3540  0.0536
 3118SOL    HW120990   3.190   0.922   4.434  2.1247  0.1797  1.4295
 3118SOL    HW220991   3.205   0.803   4.515 -0.2657 -0.5987 -0.0801
 3119SOL     OW20992   0.951   2.743   9.478  0.1116 -0.6134  0.4261
 3119SOL    HW120993   1.037   2.726   9.441 -0.0531  0.9626 -0.7000
 3119SOL    HW220994   0.934   2.656   9.515 -3.4587 -0.5324 -1.0051
 3120SOL     OW20995   0.072   0.705  17.171  0.1144 -0.4210 -0.1309
 3120SOL    HW120996   0.054   0.663  17.256  0.7367  0.8857  0.6525
 3120SOL    HW220997   0.067   0.629  17.114  1.0561 -0.0598 -0.6872
 3121SOL     OW20998   2.748   1.273   5.198 -0.2014 -0.2873  0.0259
 3121SOL    HW120999   2.786   1.204   5.143  0.4928 -0.0168  0.1585
 3121SOL    HW221000   2.749   1.346   5.136  2.4173  0.2136  0.6389
 3122SOL     OW21001   3.923   1.367  15.812 -0.2288  0.4421 -0.7028
 3122SOL    HW121002   3.914   1.354  15.717 -3.3866  3.1996 -0.8002
 3122SOL    HW221003   3.849   1.419  15.843 -0.2739 -0.5565  0.8295
 3123SOL     OW21004   2.460   3.126   4.389  0.3749 -0.2286  0.8224
 3123SOL    HW121005   2.426   3.166   4.309  1.6925  0.9454  0.8529
 3123SOL    HW221006   2.407   3.170   4.456  2.8849 -2.0148  3.9655
 3124SOL     OW21007   3.492   1.854   3.983  0.3742 -0.4414  0.5354
 3124SOL    HW121008   3.497   1.801   3.903 -1.2164 -0.9358  0.7568
 3124SOL    HW221009   3.515   1.940   3.948 -3.0511 -0.9896 -3.0622
 3125SOL     OW21010   4.177   0.746   6.158 -0.1563  0.0180  0.3959
 3125SOL    HW121011   4.117   0.676   6.134 -1.8397  1.6059  0.0123
 3125SOL    HW221012   4.224   0.766   6.077 -1.4296  1.0458 -0.0880
 3126SOL     OW21013   3.860   3.276   4.016  0.0319  0.1132  0.1998
 3126SOL    HW121014   3.850   3.192   4.061 -1.7116  0.8697  1.2146
 3126SOL    HW221015   3.770   3.294   3.987  0.2596  1.3716  0.2859
 3127SOL     OW21016   2.755   2.480  13.997 -0.1005 -0.0816 -0.1030
 3127SOL    HW121017   2.732   2.556  14.050 -1.2168 -1.4269  1.3743
 3127SOL    HW221018   2.677   2.471  13.941 -0.0754 -0.4739 -0.0751
 3128SOL     OW21019   1.527   3.907  17.111 -0.2374 -0.6596  0.2130
 3128SOL    HW121020   1.541   3.824  17.064  0.0780 -1.2802  1.4127
 3128SOL    HW221021   1.607   3.929  17.158 -1.2607 -0.2654  1.7408
 3129SOL     OW21022   1.914   2.028   4.028 -0.1602 -0.2576 -0.2219
 3129SOL    HW121023   1.953   2.110   4.059  1.9630 -2.5802  3.3090
 3129SOL    HW221024   1.949   1.955   4.078 -0.1394  0.4763  0.8435
 3130SOL     OW21025   1.327   3.697  16.007  0.2202  1.0135  0.0293
 3130SOL    HW121026   1.285   3.634  16.065 -1.8120  1.0112 -1.4260
 3130SOL    HW221027   1.414   3.684  16.043 -1.8040  0.5822  4.7487
 3131SOL     OW21028   4.483   3.398   0.637  0.2228 -0.6436  0.1939
 3131SOL    HW121029   4.448   3.309   0.641 -1.5334  0.1062  1.1793
 3131SOL    HW221030   4.405   3.449   0.616  0.8378  0.8583  1.5519
 3132SOL     OW21031   0.425   1.279   1.654  0.2733  0.1069  0.0783
 3132SOL    HW121032   0.336   1.244   1.649  0.1264  0.6282 -1.0262
 3132SOL    HW221033   0.481   1.214   1.612  2.0528  0.2744  2.1941
 3133SOL     OW21034   0.669   2.160   6.269  0.1803  0.0901 -0.6074
 3133SOL    HW121035   0.650   2.242   6.316  0.4366 -0.3320  0.2273
 3133SOL    HW221036   0.579   2.136   6.248 -0.0659 -0.7131  1.3878
 3134SOL     OW21037   2.564   1.253   2.149  0.4708 -0.1036 -0.0354
 3134SOL    HW121038   2.573   1.205   2.067 -0.0193 -2.2182  1.1564
 3134SOL    HW221039   2.521   1.334   2.119 -1.0022 -1.0604 -0.5163
 3135SOL     OW21040   3.225   1.103   5.334 -0.1896 -0.2005 -0.2025
 3135SOL    HW121041   3.132   1.080   5.326 -0.0859 -0.1843 -1.4352
 3135SOL    HW221042   3.255   1.013   5.350 -0.7290 -0.5306 -1.0740
 3136SOL     OW21043   1.275   1.546   7.710  0.1231 -1.0973  0.1360
 3136SOL    HW121044   1.288   1.634   7.674  2.0801 -1.8309 -0.9394
 3136SOL    HW221045   1.320   1.546   7.794 -0.6726 -1.3694  0.5675
 3137SOL     OW21046   1.249   4.148   1.448 -0.4579  0.2132  0.4768
 3137SOL    HW121047   1.342   4.167   1.461  0.1828 -1.9296 -1.0473
 3137SOL    HW221048   1.217   4.196   1.372 -2.1295 -1.7623 -0.0575
 3138SOL     OW21049   2.980   2.711   9.518 -0.1445  0.5059 -0.0412
 3138SOL    HW121050   3.074   2.712   9.500 -0.3383 -0.0514 -1.1019
 3138SOL    HW221051   2.943   2.645   9.459 -1.1656  0.4414  0.6670
 3139SOL     OW21052   0.614   0.331   6.373 -0.0031 -0.0317  0.2203
 3139SOL    HW121053   0.671   0.407   6.383 -3.1389  2.5907 -1.8064
 3139SOL    HW221054   0.592   0.307   6.463 -0.6445  0.1641  0.1204
 3140SOL     OW21055   2.494   0.566   2.435 -0.2089  0.2372  0.1189
 3140SOL    HW121056   2.484   0.525   2.521  1.2067 -0.2604  0.0393
 3140SOL    HW221057   2.561   0.511   2.395 -2.8619 -0.7810 -3.0372
 3141SOL     OW21058   0.725   4.589   7.544 -0.0572  0.2435 -0.4099
 3141SOL    HW121059   0.710   4.637   7.625 -1.7733 -1.9596  0.5958
 3141SOL    HW221060   0.796   4.535   7.577 -1.7905 -0.1383  2.6639
 3142SOL     OW21061   2.333   4.342   4.479 -0.2183 -0.1727  0.2629
 3142SOL    HW121062   2.310   4.288   4.555  0.8932  0.2602  0.9099
 3142SOL    HW221063   2.247   4.380   4.462  0.0331 -0.0484 -0.7504
 3143SOL     OW21064   4.089   1.410   4.875 -0.1958  0.3170 -0.1436
 3143SOL    HW121065   4.113   1.350   4.804  0.8065  0.4406  0.0855
 3143SOL    HW221066   4.149   1.377   4.942  0.4118  1.1113 -0.2799
 3144SOL     OW21067   3.008   2.747   4.693  0.1832  0.3934 -0.3191
 3144SOL    HW121068   2.984   2.801   4.618  0.2285 -1.4177 -1.6434
 3144SOL    HW221069   2.983   2.663   4.654 -0.6047  0.2098  0.5719
 3145SOL     OW21070   0.923   4.439   7.671 -0.2604  0.0303  0.1940
 3145SOL    HW121071   0.987   4.502   7.638  0.0852 -0.7197 -0.5444
 3145SOL    HW221072   0.990   4.374   7.691 -0.9691 -0.5315  0.7394
 3146SOL     OW21073   3.483   1.364   5.460 -0.3058 -0.2935 -0.3173
 3146SOL    HW121074   3.496   1.314   5.540 -1.5187  0.1335  0.1491
 3146SOL    HW221075   3.508   1.454   5.480 -0.6082 -1.0009  3.1323
 3147SOL     OW21076   0.948   0.672  12.123 -0.4031 -0.0102  0.0508
 3147SOL    HW121077   0.902   0.747  12.084  1.3397  0.1864 -1.6062
 3147SOL    HW221078   0.960   0.705  12.212 -1.8239  1.7024 -0.3782
 3148SOL     OW21079   2.027   0.098   2.120  0.6087  0.1106  0.2340
 3148SOL    HW121080   2.096   0.050   2.164  0.2201 -0.5762  0.0915
 3148SOL    HW221081   2.048   0.084   2.027  0.6788 -0.1090  0.2834
 3149SOL     OW21082   2.036   1.314   8.789  0.3652 -0.0926  0.6332
 3149SOL    HW121083   2.104   1.247   8.790  0.0367 -0.4331  0.0361
 3149SOL    HW221084   2.060   1.369   8.715 -0.0206  0.3541  0.8365
 3150SOL     OW21085   0.421   2.526   4.607  0.0299 -0.2816  0.0650
 3150SOL    HW121086   0.502   2.576   4.617  0.7883 -1.5508  0.2365
 3150SOL    HW221087   0.459   2.442   4.629 -1.2117 -1.4458 -2.2210
 3151SOL     OW21088   0.602   3.242   3.732  0.3230  0.1582 -0.0639
 3151SOL    HW121089   0.592   3.330   3.769  0.5446  0.5411 -0.9137
 3151SOL    HW221090   0.661   3.195   3.791 -1.0095 -1.3846  0.0348
 3152SOL     OW21091   4.487   2.235   2.954 -0.2114 -0.0743 -0.0181
 3152SOL    HW121092   4.544   2.183   2.897 -0.9637 -1.3663  0.4010
 3152SOL    HW221093   4.408   2.238   2.901  1.3600  1.5183 -2.2755
 3153SOL     OW21094   0.696   1.906  15.281 -0.1039 -0.2640 -0.6161
 3153SOL    HW121095   0.708   1.812  15.293  2.1720  0.2037  0.5218
 3153SOL    HW221096   0.753   1.935  15.210 -1.3154 -0.9936 -1.9093
 3154SOL     OW21097   4.617   1.912  17.503  0.3902  0.6632 -0.2894
 3154SOL    HW121098   4.665   1.988  17.536  0.3483 -0.1228  1.5669
 3154SOL    HW221099   4.598   1.851  17.574 -2.7088 -0.6299 -2.2408
 3155SOL     OW21100   2.861   0.061   3.869  0.1944  0.0545 -0.6553
 3155SOL    HW121101   2.887   0.153   3.873 -0.9495  0.3282  0.8111
 3155SOL    HW221102   2.801   0.071   3.795 -1.1383 -0.3525  0.3564
 3156SOL     OW21103   3.753   0.534   9.142  0.0387 -0.2684 -0.6758
 3156SOL    HW121104   3.810   0.515   9.067 -0.8961 -3.0781 -0.6504
 3156SOL    HW221105   3.800   0.603   9.190 -1.1844  0.7748 -0.9793
 3157SOL     OW21106   3.841   2.081  15.731  0.1065 -0.0853 -0.1977
 3157SOL    HW121107   3.747   2.065  15.727 -0.2331  1.2925  1.9130
 3157SOL    HW221108   3.840   2.173  15.705 -1.9540  0.0158  0.2269
 3158SOL     OW21109   3.498   4.508  12.955  0.0415  0.1610 -0.4580
 3158SOL    HW121110   3.417   4.489  13.003 -0.2847 -1.0442 -1.5013
 3158SOL    HW221111   3.508   4.448  12.881 -0.7520 -0.6709  0.1088
 3159SOL     OW21112   3.222   4.613   8.868 -0.3717 -0.0672  0.0420
 3159SOL    HW121113   3.317   4.601   8.873 -0.5970 -0.9919  1.9145
 3159SOL    HW221114   3.201   4.538   8.813  1.9058 -1.4881  1.1138
 3160SOL     OW21115   4.423   1.489   5.507  0.1700  0.2147  0.2721
 3160SOL    HW121116   4.471   1.419   5.552  1.3749  1.4940  0.9767
 3160SOL    HW221117   4.343   1.480   5.559  0.9326  3.7658  2.0351
 3161SOL     OW21118   0.786   1.493   2.281 -0.2485 -0.0289 -0.3671
 3161SOL    HW121119   0.749   1.437   2.213 -2.8569 -0.5038  1.4456
 3161SOL    HW221120   0.831   1.423   2.328 -1.0750 -0.9157 -0.8859
 3162SOL     OW21121   0.066   1.613  17.520  0.2719 -0.0150  0.3869
 3162SOL    HW121122   0.068   1.675  17.592 -0.6540  2.6078 -1.8465
 3162SOL    HW221123   0.106   1.531  17.549  0.4733  0.9734  2.8541
 3163SOL     OW21124   3.347   3.626   9.831 -0.3886 -0.3727  0.2556
 3163SOL    HW121125   3.321   3.622   9.922  1.8631  0.5765  0.9502
 3163SOL    HW221126   3.423   3.571   9.813 -0.2267  1.0292 -3.5054
 3164SOL     OW21127   1.029   0.537   7.424  0.4942 -0.5156 -0.0568
 3164SOL    HW121128   1.113   0.544   7.469  0.3216  1.7544 -0.0973
 3164SOL    HW221129   0.997   0.622   7.394 -1.7318 -0.8559  1.3531
 3165SOL     OW21130   2.649   4.497  13.723 -0.2060 -0.1403  0.3058
 3165SOL    HW121131   2.647   4.506  13.628 -1.4350  1.4634  0.4817
 3165SOL    HW221132   2.724   4.550  13.748  0.4253  0.1701 -2.2107
 3166SOL     OW21133   1.821   2.776   7.395 -0.5170  0.1287 -0.4317
 3166SOL    HW121134   1.746   2.719   7.410 -1.0734  1.0107  0.1451
 3166SOL    HW221135   1.878   2.786   7.472 -0.3025 -2.6461 -0.2407
 3167SOL     OW21136   0.805   2.786   0.199 -0.6273 -0.0698 -0.1840
 3167SOL    HW121137   0.876   2.834   0.241 -2.1765  1.6734  0.4302
 3167SOL    HW221138   0.841   2.770   0.112  0.3608  0.2910  0.1636
 3168SOL     OW21139   2.825   1.445  11.032 -0.7818 -0.2774  0.4074
 3168SOL    HW121140   2.832   1.398  11.115 -0.3518 -1.4609 -0.3085
 3168SOL    HW221141   2.747   1.500  11.043 -0.7950  0.2880 -2.3535
 3169SOL     OW21142   3.771   0.120   1.498  0.7456 -0.2178  0.1760
 3169SOL    HW121143   3.712   0.047   1.478  2.5029 -1.6278  0.1932
 3169SOL    HW221144   3.853   0.079   1.472  0.1959 -0.6119 -0.9302
 3170SOL     OW21145   1.710   1.418   7.651  0.5931  0.0688  0.5516
 3170SOL    HW121146   1.716   1.498   7.702 -1.8814 -1.0900  2.6504
 3170SOL    HW221147   1.615   1.412   7.648  0.7736 -2.1780 -1.4917
 3171SOL     OW21148   2.307   3.675   1.061  0.4921 -0.0728 -0.8920
 3171SOL    HW121149   2.378   3.726   1.022  1.2584 -0.0000  0.6063
 3171SOL    HW221150   2.313   3.589   1.018 -2.1848 -1.4563  1.5127
 3172SOL     OW21151   1.463   0.401   1.653 -0.1218  0.3091  0.1116
 3172SOL    HW121152   1.545   0.355   1.673  0.6429  1.2970 -0.7716
 3172SOL    HW221153   1.487   0.493   1.653  2.1260 -0.2603 -2.5115
 3173SOL     OW21154   1.139   0.784   8.712  0.2237  0.4698 -0.2152
 3173SOL    HW121155   1.113   0.700   8.751 -0.1352  0.3494 -0.7228
 3173SOL    HW221156   1.078   0.842   8.759  0.6862  0.5690  0.2607
 3174SOL     OW21157   2.653   2.910   1.519  0.7091  0.2129 -0.4779
 3174SOL    HW121158   2.624   2.915   1.610  0.9559  0.0947 -0.3942
 3174SOL    HW221159   2.573   2.954   1.490  1.1978  1.2094 -0.3196
 3175SOL     OW21160   4.290   3.868   6.060  0.0869 -0.0640 -0.1458
 3175SOL    HW121161   4.286   3.824   5.975 -1.3969 -2.1468  0.9848
 3175SOL    HW221162   4.344   3.939   6.028 -3.7445  2.4677 -1.0324
 3176SOL     OW21163   1.097   0.976  10.628 -0.4696  0.1700 -0.6453
 3176SOL    HW121164   1.026   1.026  10.668 -1.2549  0.0143 -1.8243
 3176SOL    HW221165   1.073   0.890  10.663  0.0406  0.3758  0.2168
 3177SOL     OW21166   0.822   4.382   6.308  0.1016 -0.2662  0.4774
 3177SOL    HW121167   0.867   4.298   6.315  2.7964  1.0683 -0.7233
 3177SOL    HW221168   0.731   4.359   6.287  0.6256 -2.2965  0.4682
 3178SOL     OW21169   2.328   2.531   7.062 -0.1105  0.7598  0.1569
 3178SOL    HW121170   2.325   2.543   6.968  1.1385 -1.6306 -0.1919
 3178SOL    HW221171   2.383   2.453   7.076  0.8582  0.9701 -2.4809
 3179SOL     OW21172   2.314   1.116   4.638  0.4153  0.5103 -0.0973
 3179SOL    HW121173   2.282   1.098   4.549  3.2021 -0.3575 -0.9324
 3179SOL    HW221174   2.294   1.034   4.683 -0.3597  0.3103 -0.7947
 3180SOL     OW21175   2.876   0.808   4.584 -0.3124  0.3477  0.0824
 3180SOL    HW121176   2.936   0.772   4.519  1.0203  3.7519 -0.5611
 3180SOL    HW221177   2.932   0.797   4.661  0.3660  0.8022 -0.3457
 3181SOL     OW21178   4.139   1.119   2.628  0.0730 -0.5135  0.2271
 3181SOL    HW121179   4.116   1.057   2.559 -0.9201  0.3457 -0.2045
 3181SOL    HW221180   4.211   1.067   2.665  0.6479 -0.1869 -0.4338
 3182SOL     OW21181   2.696   4.093   4.519  0.2172 -0.1071  0.0382
 3182SOL    HW121182   2.715   4.041   4.440  2.1679  0.0318  0.4425
 3182SOL    HW221183   2.606   4.125   4.525 -0.2428 -0.8840 -2.5424
 3183SOL     OW21184   2.103   3.013   4.239  0.4613  0.0959  0.4292
 3183SOL    HW121185   2.128   2.938   4.185  0.1777  0.2881  0.0274
 3183SOL    HW221186   2.085   2.970   4.322  0.7840  0.1663  0.5341
 3184SOL     OW21187   1.412   1.723   4.950 -0.1624  0.0257  0.0869
 3184SOL    HW121188   1.449   1.705   5.036  2.9992 -0.6807 -1.4054
 3184SOL    HW221189   1.439   1.814   4.935  2.3036 -0.7184  0.0119
 3185SOL     OW21190   0.816   1.416  15.441 -0.3288 -0.2947 -0.0198
 3185SOL    HW121191   0.794   1.326  15.417 -0.3033 -0.3114  0.0196
 3185SOL    HW221192   0.877   1.398  15.513  2.2218  0.7042 -1.9420
 3186SOL     OW21193   1.636   2.798   3.965 -0.0363 -0.1144 -0.5642
 3186SOL    HW121194   1.596   2.783   3.879 -0.6342 -1.4047 -0.0602
 3186SOL    HW221195   1.654   2.892   3.968  0.2349 -0.1788 -0.1732
 3187SOL     OW21196   4.716   4.635   8.753  0.2021  0.0990 -0.6323
 3187SOL    HW121197   0.019   4.717   8.785 -0.4309 -0.3781  1.3037
 3187SOL    HW221198   0.026   4.567   8.803 -0.2480  1.0322  1.0255
 3188SOL     OW21199   0.831   0.815   6.261 -0.3431 -0.4492 -0.0232
 3188SOL    HW121200   0.779   0.856   6.330  0.5603  1.8404 -0.7162
 3188SOL    HW221201   0.873   0.893   6.225 -1.4661  0.1978  0.0542
 3189SOL     OW21202   3.952   0.933  13.327  0.1010 -0.7320  0.0988
 3189SOL    HW121203   4.012   0.897  13.261  0.4096  1.6887 -0.9782
 3189SOL    HW221204   3.992   1.020  13.335 -1.9301  0.2584 -0.5473
 3190SOL     OW21205   0.670   0.933   3.814 -0.2629  0.2355 -0.4895
 3190SOL    HW121206   0.654   0.974   3.729  0.4145 -1.9880 -1.6911
 3190SOL    HW221207   0.588   0.939   3.864  0.3135 -0.4382  0.5363
 3191SOL     OW21208   4.371   0.962   2.688  0.3700 -0.2022 -0.7725
 3191SOL    HW121209   4.357   0.889   2.628  1.7591 -0.5131 -0.7138
 3191SOL    HW221210   4.389   0.913   2.769 -3.6404 -2.2596 -1.1402
 3192SOL     OW21211   0.177   1.028   3.079 -0.1086 -0.0850 -0.5976
 3192SOL    HW121212   0.091   1.006   3.044  0.0127  0.0472 -0.9751
 3192SOL    HW221213   0.231   1.042   3.002 -1.2727 -1.1381 -1.6009
 3193SOL     OW21214   0.359   3.957  17.088 -0.7562 -0.0505 -0.2147
 3193SOL    HW121215   0.362   3.921  17.000 -0.8618  2.6706 -1.3224
 3193SOL    HW221216   0.271   3.940  17.121 -0.9422  2.0658  0.3943
 3194SOL     OW21217   0.965   1.760   3.492 -0.5266 -0.3165 -0.1620
 3194SOL    HW121218   1.031   1.736   3.427 -0.2925 -1.0121  0.3395
 3194SOL    HW221219   0.902   1.689   3.481  0.3738 -1.3435  1.4237
 3195SOL     OW21220   0.220   4.476   7.269 -0.1099 -0.2990  0.6151
 3195SOL    HW121221   0.188   4.549   7.216  1.4657 -1.1941 -1.5308
 3195SOL    HW221222   0.297   4.515   7.310 -0.3636  1.0992 -0.2345
 3196SOL     OW21223   0.689   3.457  14.549  0.3312 -0.2250  0.2283
 3196SOL    HW121224   0.655   3.540  14.582 -0.9783 -0.6501 -0.0790
 3196SOL    HW221225   0.782   3.467  14.570 -0.0628  1.9290  0.9080
 3197SOL     OW21226   0.095   2.947   7.354  0.3153 -0.1381 -0.1234
 3197SOL    HW121227   0.065   2.857   7.363 -1.4523  0.4032 -0.7739
 3197SOL    HW221228   0.013   2.995   7.358 -0.1176 -0.8448 -0.6971
 3198SOL     OW21229   0.657   1.039   6.161  0.2991 -0.1967  0.4094
 3198SOL    HW121230   0.634   1.034   6.068 -2.3562 -0.5260  1.0913
 3198SOL    HW221231   0.669   1.134   6.158  0.0338 -0.1385  1.3280
 3199SOL     OW21232   4.662   2.368  15.886 -0.1684 -0.2128  0.5572
 3199SOL    HW121233   4.657   2.295  15.947 -1.3221  0.7665  1.6322
 3199SOL    HW221234   4.626   2.448  15.924 -0.3031 -0.6363  1.3152
 3200SOL     OW21235   2.417   1.455   7.523 -0.2869 -0.2144 -0.0166
 3200SOL    HW121236   2.380   1.367   7.512 -1.0049  0.0875 -0.0315
 3200SOL    HW221237   2.487   1.436   7.586 -2.2604 -0.6954  2.0312
 3201SOL     OW21238   0.976   2.922  15.581 -0.1021  0.0710 -0.2000
 3201SOL    HW121239   0.981   2.902  15.488  0.7404 -0.6753  0.0148
 3201SOL    HW221240   0.881   2.926  15.595  0.0131 -1.7436  1.0702
 3202SOL     OW21241   3.595   3.413   2.296 -0.5015  0.5753  0.1440
 3202SOL    HW121242   3.636   3.329   2.314 -1.0171  0.1723 -0.5757
 3202SOL    HW221243   3.602   3.413   2.201  0.3353  0.9222  0.2065
 3203SOL     OW21244   3.081   0.702   7.467 -0.3731 -0.0555  0.5345
 3203SOL    HW121245   3.014   0.756   7.425 -0.5520  0.9097  2.0279
 3203SOL    HW221246   3.104   0.765   7.536 -0.4850 -0.1243  0.6358
 3204SOL     OW21247   4.544   1.699  14.830  0.3663  0.3775  0.4466
 3204SOL    HW121248   4.572   1.640  14.900  0.2016  1.1230  1.1387
 3204SOL    HW221249   4.492   1.763  14.879  2.0869  1.3448  1.0010
 3205SOL     OW21250   0.866   4.386   2.238 -0.2577  0.1243 -0.1732
 3205SOL    HW121251   0.957   4.371   2.211 -0.6872  1.1195 -2.1914
 3205SOL    HW221252   0.838   4.295   2.237 -2.1922  0.7149  1.0310
 3206SOL     OW21253   3.215   3.979   5.175  0.0472 -0.3054  1.0510
 3206SOL    HW121254   3.250   4.068   5.169 -0.1029 -0.1818  1.8920
 3206SOL    HW221255   3.276   3.936   5.234 -0.2432 -0.8668  0.9429
 3207SOL     OW21256   4.231   0.856  14.428  0.4344  0.7641  0.1819
 3207SOL    HW121257   4.281   0.935  14.449  1.7887 -0.2311  0.7400
 3207SOL    HW221258   4.203   0.870  14.338 -1.3521 -2.1562  0.2769
 3208SOL     OW21259   0.007   3.140   2.098  0.1645  0.4356 -0.0851
 3208SOL    HW121260   0.026   3.230   2.122  0.1638 -0.0616  1.7962
 3208SOL    HW221261   0.012   3.098   2.184  0.4076 -1.1504 -0.8719
 3209SOL     OW21262   1.732   4.144   6.360 -0.0089  0.2519 -0.9923
 3209SOL    HW121263   1.653   4.100   6.393 -0.7053  0.4595 -2.3892
 3209SOL    HW221264   1.711   4.170   6.270 -0.0034 -2.2836 -1.7392
 3210SOL     OW21265   1.218   1.837   8.670  0.1409 -0.1919 -1.1190
 3210SOL    HW121266   1.175   1.920   8.651  1.1585  0.1800 -1.8550
 3210SOL    HW221267   1.214   1.826   8.765  1.0314  0.1391 -1.0412
 3211SOL     OW21268   2.034   4.559  11.117 -0.3376 -0.4654  0.2512
 3211SOL    HW121269   1.943   4.568  11.145 -0.8262  2.6419 -2.3331
 3211SOL    HW221270   2.047   4.465  11.128  0.5699 -0.5593 -1.6503
 3212SOL     OW21271   1.488   0.862   1.148  0.4502  0.2575 -0.9849
 3212SOL    HW121272   1.470   0.935   1.206  5.4155  0.7833 -0.0483
 3212SOL    HW221273   1.560   0.829   1.203 -2.3699  0.1947  2.6250
 3213SOL     OW21274   1.860   4.524   3.451 -0.2073  0.4798  0.3302
 3213SOL    HW121275   1.837   4.432   3.466  2.0068 -0.5351 -2.6423
 3213SOL    HW221276   1.899   4.519   3.364  1.7155 -1.1471  1.2621
 3214SOL     OW21277   2.061   3.439   5.215 -0.0032  0.0096 -0.2011
 3214SOL    HW121278   2.033   3.530   5.227 -0.1012  0.1783 -1.7886
 3214SOL    HW221279   2.141   3.441   5.163 -0.3983 -2.3016 -0.8775
 3215SOL     OW21280   1.033   3.196  11.446  0.3734 -0.1922  0.2830
 3215SOL    HW121281   1.066   3.286  11.444  0.9607 -0.3838  1.0482
 3215SOL    HW221282   0.987   3.182  11.363  1.3009 -2.7715  0.2058
 3216SOL     OW21283   0.540   2.309   6.462 -0.0971  0.5295  0.1306
 3216SOL    HW121284   0.474   2.245   6.437 -0.2330  0.3397  0.9627
 3216SOL    HW221285   0.559   2.291   6.554 -1.4027 -1.0184  0.0964
 3217SOL     OW21286   2.188   3.954  16.866  0.3112 -0.0592  0.3499
 3217SOL    HW121287   2.217   4.014  16.797 -1.8707  0.2256 -0.3098
 3217SOL    HW221288   2.272   3.927  16.904  0.1051  0.5119  1.2210
 3218SOL     OW21289   1.362   2.340   6.431 -0.4932  0.8825 -0.3464
 3218SOL    HW121290   1.388   2.423   6.471 -2.1509  0.5700  1.3311
 3218SOL    HW221291   1.269   2.334   6.452  0.2886 -0.8845  2.6318
 3219SOL     OW21292   0.883   1.595   5.372 -0.3898  0.1394  0.3446
 3219SOL    HW121293   0.810   1.538   5.349  0.1615 -0.5088  0.2030
 3219SOL    HW221294   0.842   1.681   5.374 -0.8391 -0.1272  2.0347
 3220SOL     OW21295   2.505   3.212   7.456  1.1471  0.2066 -0.6158
 3220SOL    HW121296   2.574   3.276   7.469  0.7233  0.0311  2.3520
 3220SOL    HW221297   2.533   3.183   7.369  1.5552 -2.0071  0.2494
 3221SOL     OW21298   1.399   2.998   8.813 -0.1167 -0.0309  0.4070
 3221SOL    HW121299   1.411   2.963   8.725 -0.8317 -0.5904  0.5316
 3221SOL    HW221300   1.311   2.967   8.835  0.3535 -0.3319  1.8880
 3222SOL     OW21301   1.436   0.579   8.370  0.2531 -0.1977 -0.5084
 3222SOL    HW121302   1.355   0.605   8.326  0.0189 -0.2505 -0.1085
 3222SOL    HW221303   1.447   0.650   8.433 -0.2315  1.0975 -1.8734
 3223SOL     OW21304   4.070   0.505  11.545 -0.1732 -0.2295  0.2965
 3223SOL    HW121305   4.162   0.505  11.518 -0.1698 -2.0504  0.2959
 3223SOL    HW221306   4.035   0.530  11.460 -1.8996 -2.1180  0.4580
 3224SOL     OW21307   4.171   3.192   1.297 -0.0295  0.1837  0.7589
 3224SOL    HW121308   4.244   3.216   1.240 -0.7323 -0.7628 -0.5182
 3224SOL    HW221309   4.206   3.219   1.383 -1.0890  1.7958  0.6894
 3225SOL     OW21310   1.017   1.126  15.148 -0.4430 -0.5310  0.0707
 3225SOL    HW121311   1.002   1.175  15.229  0.9660 -3.4231  2.0608
 3225SOL    HW221312   1.047   1.039  15.173 -0.7115  0.4069  3.7463
 3226SOL     OW21313   0.996   4.582   6.250 -0.2205  0.4676 -0.2985
 3226SOL    HW121314   0.934   4.510   6.262 -0.4078  0.1037 -3.4040
 3226SOL    HW221315   0.959   4.656   6.298  1.4150 -0.1931  1.9710
 3227SOL     OW21316   4.444   1.794  13.835  0.0725 -0.1326  0.3848
 3227SOL    HW121317   4.505   1.744  13.890 -1.1338 -1.1132  0.8136
 3227SOL    HW221318   4.491   1.819  13.755  0.4543  0.6122  0.8416
 3228SOL     OW21319   0.031   3.849   9.330 -0.3333 -0.2118 -0.0491
 3228SOL    HW121320   4.720   3.914   9.384 -1.0932  0.3245 -1.3330
 3228SOL    HW221321   0.057   3.892   9.249  1.8145  0.8209  1.1671
 3229SOL     OW21322   1.586   3.198   9.980  0.0102 -0.0637 -0.0087
 3229SOL    HW121323   1.542   3.139   9.919  0.9146  0.7441 -1.4637
 3229SOL    HW221324   1.568   3.278   9.931  1.0631  0.2017  0.0456
 3230SOL     OW21325   3.597   0.735   6.422 -0.7900  0.2374 -0.6290
 3230SOL    HW121326   3.545   0.816   6.424 -1.6780 -0.3647  1.1905
 3230SOL    HW221327   3.584   0.705   6.512 -2.2941 -1.9554 -1.5785
 3231SOL     OW21328   2.980   2.858   2.569 -0.5812 -0.1457  0.1846
 3231SOL    HW121329   2.951   2.950   2.574 -1.0701 -0.2485 -0.7031
 3231SOL    HW221330   2.906   2.816   2.525 -0.2991 -0.5359  0.0836
 3232SOL     OW21331   0.851   2.214  11.358 -0.2321 -0.0378 -0.1888
 3232SOL    HW121332   0.839   2.138  11.302 -0.4797  1.1640 -1.7638
 3232SOL    HW221333   0.759   2.233  11.375 -0.2001 -0.5884  0.5989
 3233SOL     OW21334   2.938   1.195   8.168 -0.3902  0.4522  0.6811
 3233SOL    HW121335   3.015   1.250   8.178 -0.0512  0.1648 -0.3159
 3233SOL    HW221336   2.978   1.118   8.129 -0.3248  1.6447 -1.6341
 3234SOL     OW21337   3.549   2.372   6.715 -0.1069 -0.5822  0.0699
 3234SOL    HW121338   3.477   2.388   6.776 -1.2248 -0.7959 -1.1988
 3234SOL    HW221339   3.495   2.368   6.636 -0.5700  0.5351  0.3366
 3235SOL     OW21340   3.174   0.492   4.513 -0.4771 -0.4350 -0.2380
 3235SOL    HW121341   3.223   0.563   4.556 -0.4210 -0.0347 -0.9557
 3235SOL    HW221342   3.152   0.446   4.594  0.0299  0.3173  0.3399
 3236SOL     OW21343   0.961   2.571   4.305 -0.3752  0.2566  0.2075
 3236SOL    HW121344   1.018   2.606   4.237 -0.0333 -1.4937 -0.4150
 3236SOL    HW221345   1.018   2.502   4.338  0.5828  1.0948  0.2867
 3237SOL     OW21346   1.999   3.354   7.538 -0.2105 -0.1519 -0.0897
 3237SOL    HW121347   2.025   3.411   7.465  2.3583  0.4965  1.3405
 3237SOL    HW221348   1.904   3.352   7.527 -0.6458  3.1325  2.8890
 3238SOL     OW21349   1.597   1.910  13.300  0.0439 -0.8380 -0.2549
 3238SOL    HW121350   1.549   1.965  13.363  0.1978  0.4095 -1.2143
 3238SOL    HW221351   1.520   1.878  13.253 -1.2022  3.0415 -0.9078
 3239SOL     OW21352   0.566   1.926  16.113  0.2644 -0.4549 -0.1168
 3239SOL    HW121353   0.506   1.898  16.044  0.7195 -1.7719  0.0233
 3239SOL    HW221354   0.595   1.840  16.144  1.4527  0.4295  1.2607
 3240SOL     OW21355   1.585   2.858  17.043  0.2426 -0.2066  0.4372
 3240SOL    HW121356   1.602   2.765  17.030  0.0722 -0.0681 -0.7683
 3240SOL    HW221357   1.494   2.857  17.013  0.6374  2.6749 -0.8606
 3241SOL     OW21358   3.734   1.304   4.709 -0.5248  0.6549  0.6410
 3241SOL    HW121359   3.818   1.349   4.706  0.3256 -0.9737 -0.2824
 3241SOL    HW221360   3.676   1.362   4.661  0.3584  1.5284  0.6376
 3242SOL     OW21361   3.672   1.579   0.572 -0.7228 -0.1838 -0.4804
 3242SOL    HW121362   3.751   1.537   0.606 -0.2458 -1.0885 -2.7543
 3242SOL    HW221363   3.605   1.523   0.611  0.1797 -0.5024  0.5959
 3243SOL     OW21364   2.851   0.671   1.517 -0.1470  0.4027  0.4537
 3243SOL    HW121365   2.826   0.763   1.507 -0.4785  0.5025  2.3134
 3243SOL    HW221366   2.928   0.664   1.460 -0.6208  2.1632 -0.3965
 3244SOL     OW21367   1.652   0.560   6.399 -0.0684  0.2285  0.1700
 3244SOL    HW121368   1.585   0.602   6.453 -0.3383  0.6315 -0.4690
 3244SOL    HW221369   1.656   0.626   6.329 -0.5330 -0.9870 -0.9933
 3245SOL     OW21370   1.076   2.147   4.786  0.3567 -0.4341  0.3538
 3245SOL    HW121371   1.116   2.112   4.866  0.3002  0.3887  0.7411
 3245SOL    HW221372   1.084   2.073   4.725 -0.2067 -2.1096  2.2943
 3246SOL     OW21373   4.096   1.373   2.588  0.2150 -0.3565 -0.2499
 3246SOL    HW121374   4.112   1.284   2.622  0.8283  0.3392  1.2944
 3246SOL    HW221375   4.001   1.366   2.591  0.2599 -0.0976  2.1348
 3247SOL     OW21376   3.463   4.415   6.579 -0.0397 -0.1059 -0.4092
 3247SOL    HW121377   3.425   4.471   6.647 -2.3348 -0.1391 -1.6471
 3247SOL    HW221378   3.523   4.481   6.543 -1.8081  1.3954 -0.5930
 3248SOL     OW21379   4.628   3.845  15.952 -0.1867  0.1107  0.1239
 3248SOL    HW121380   4.652   3.779  16.017 -1.2314 -1.3055 -0.9299
 3248SOL    HW221381   4.534   3.853  15.968  0.1018  0.3946  1.6992
 3249SOL     OW21382   1.160   0.857   6.748  0.3232 -0.1944 -0.0567
 3249SOL    HW121383   1.255   0.849   6.762  0.7468  0.2290 -2.7541
 3249SOL    HW221384   1.162   0.883   6.656  2.8500 -1.1895 -0.2904
 3250SOL     OW21385   1.626   2.089   3.016 -0.4198  0.2151 -0.2680
 3250SOL    HW121386   1.646   2.000   3.044  1.4889  0.0421 -2.2376
 3250SOL    HW221387   1.644   2.136   3.098 -0.4079 -0.7337  0.2717
 3251SOL     OW21388   0.677   4.340   2.461  0.0235 -0.1380  0.1667
 3251SOL    HW121389   0.736   4.265   2.452  0.8240  0.4424  0.6375
 3251SOL    HW221390   0.728   4.395   2.519  1.3670  0.6004 -1.7407
 3252SOL     OW21391   2.003   1.911   2.517 -0.0942  0.0707  0.2766
 3252SOL    HW121392   2.037   1.824   2.536  0.5766 -0.0224 -1.3490
 3252SOL    HW221393   1.918   1.906   2.561  0.3640  0.0183  1.1503
 3253SOL     OW21394   0.657   1.421   5.665 -0.0145 -0.1694  0.8057
 3253SOL    HW121395   0.603   1.441   5.589 -0.2895  2.1430  1.6191
 3253SOL    HW221396   0.746   1.428   5.630 -0.1587 -1.8914  0.0806
 3254SOL     OW21397   3.865   3.176   8.174  0.0210  0.0005  0.2639
 3254SOL    HW121398   3.839   3.187   8.265 -0.3833  1.1148  0.0085
 3254SOL    HW221399   3.798   3.230   8.132  2.0405  0.9814 -1.6826
 3255SOL     OW21400   0.532   0.727   6.168 -0.3618 -0.4102 -0.0592
 3255SOL    HW121401   0.623   0.720   6.142 -0.9920  0.1292 -2.4053
 3255SOL    HW221402   0.511   0.820   6.159 -1.9711 -0.6484  1.0834
 3256SOL     OW21403   0.842   2.991  13.251 -0.1008  0.4319 -0.3941
 3256SOL    HW121404   0.753   2.963  13.272  0.8209 -0.7547  1.8230
 3256SOL    HW221405   0.851   3.083  13.274  0.1483 -0.0939  1.5483
 3257SOL     OW21406   1.861   2.233   7.578 -0.3905  0.2558  0.3723
 3257SOL    HW121407   1.923   2.164   7.598 -0.2609  0.6493  1.2890
 3257SOL    HW221408   1.893   2.273   7.497 -1.5280  0.1991 -0.1186
 3258SOL     OW21409   3.160   0.859   8.769  0.7308  0.0017  0.7211
 3258SOL    HW121410   3.255   0.864   8.767  0.7111 -0.4610 -1.7674
 3258SOL    HW221411   3.148   0.787   8.708 -0.2781  1.8348 -1.2832
 3259SOL     OW21412   2.355   3.000   3.551 -0.3503  0.7465 -0.0104
 3259SOL    HW121413   2.425   2.973   3.491 -1.7115  0.6975 -1.5653
 3259SOL    HW221414   2.288   2.932   3.545  0.6541 -0.1695 -0.8124
 3260SOL     OW21415   0.041   4.489   7.495  0.3246 -0.2743 -0.3440
 3260SOL    HW121416   0.070   4.522   7.410  1.0899  3.0782  1.2390
 3260SOL    HW221417   0.012   4.570   7.538  4.3397  0.8237  0.2873
 3261SOL     OW21418   1.677   1.174   6.907  0.2755  0.5226 -0.4022
 3261SOL    HW121419   1.731   1.248   6.881 -0.7880  1.1290 -0.8854
 3261SOL    HW221420   1.708   1.106   6.848  0.7780  1.1312 -0.8336
 3262SOL     OW21421   3.994   2.570  14.187  0.1419 -0.6126  0.4140
 3262SOL    HW121422   3.993   2.536  14.098 -1.1129 -0.4898  0.3844
 3262SOL    HW221423   3.910   2.533  14.216  0.8558 -0.5398  2.6053
 3263SOL     OW21424   0.713   3.519   1.197 -0.1048  0.5391  0.5224
 3263SOL    HW121425   0.683   3.610   1.200 -1.3136  0.2350 -2.1685
 3263SOL    HW221426   0.759   3.510   1.113 -1.1122 -1.6925  0.2247
 3264SOL     OW21427   3.901   2.664   0.676  0.2134 -0.2895 -0.2473
 3264SOL    HW121428   3.816   2.679   0.718 -0.1999 -0.9325 -0.8502
 3264SOL    HW221429   3.938   2.730   0.734  0.9229 -0.0148 -1.0173
 3265SOL     OW21430   4.119   2.955  12.071  0.8930 -0.6260  0.4047
 3265SOL    HW121431   4.172   2.955  12.151  0.8325 -0.3878  0.4460
 3265SOL    HW221432   4.171   2.984  11.997 -4.1435  0.4909 -2.7207
 3266SOL     OW21433   2.402   0.040   1.416 -0.4746 -0.2555 -0.0219
 3266SOL    HW121434   2.321   0.012   1.374 -0.3356 -2.8598  1.4458
 3266SOL    HW221435   2.371   0.057   1.505  0.3879  2.3985 -0.2086
 3267SOL     OW21436   2.121   2.865   7.308  0.5016 -0.1099  0.3665
 3267SOL    HW121437   2.116   2.770   7.319  0.9979 -0.3126 -1.2601
 3267SOL    HW221438   2.057   2.900   7.370  1.9703  1.4889  1.0023
 3268SOL     OW21439   1.017   4.058   3.915 -0.1228 -0.3447  0.4451
 3268SOL    HW121440   0.922   4.070   3.913 -0.0036  0.1523 -1.4251
 3268SOL    HW221441   1.056   4.139   3.948  0.5396 -0.3654 -0.2915
 3269SOL     OW21442   2.650   0.005   6.159 -0.1373  0.1905  0.1570
 3269SOL    HW121443   2.652   0.023   6.253 -2.4336 -3.6788  0.9653
 3269SOL    HW221444   2.559   4.710   6.152  0.6396 -2.2910  0.3119
 3270SOL     OW21445   1.319   0.639   6.315  0.3673 -0.2090  0.4845
 3270SOL    HW121446   1.384   0.569   6.309  1.6716  1.2300 -2.3062
 3270SOL    HW221447   1.317   0.658   6.409 -1.3296  1.9014  0.0490
 3271SOL     OW21448   4.249   1.147   3.559 -0.0625  0.1058  0.0966
 3271SOL    HW121449   4.259   1.089   3.484 -0.4718  0.6309 -0.3659
 3271SOL    HW221450   4.315   1.125   3.624  1.8255  1.9823 -1.1998
 3272SOL     OW21451   4.102   1.922   9.266  0.2779  0.2919  0.3715
 3272SOL    HW121452   4.096   1.833   9.302 -0.7114  0.9750  1.9062
 3272SOL    HW221453   4.155   1.963   9.334  0.9328  0.4895 -0.2587
 3273SOL     OW21454   3.741   0.734   8.769  0.1057 -0.3801  0.3149
 3273SOL    HW121455   3.723   0.808   8.826 -0.7843 -0.2564 -0.1156
 3273SOL    HW221456   3.796   0.695   8.837  1.3790 -0.0640 -0.5345
 3274SOL     OW21457   4.670   2.026   7.711 -0.3071 -0.0642  0.0310
 3274SOL    HW121458   4.729   2.038   7.636  0.6653  0.2694  0.8395
 3274SOL    HW221459   4.661   2.114   7.746  0.8884  1.2421 -2.9292
 3275SOL     OW21460   4.017   4.392   9.209 -0.1247  0.5099 -0.4725
 3275SOL    HW121461   4.078   4.376   9.281 -0.7052  0.4807  0.0159
 3275SOL    HW221462   4.063   4.466   9.170 -1.2163  0.0589 -2.5872
 3276SOL     OW21463   4.185   1.709   1.194  0.0689  0.4069  0.0667
 3276SOL    HW121464   4.179   1.727   1.101  1.0573 -0.4680 -0.1682
 3276SOL    HW221465   4.238   1.629   1.199 -0.6719  0.0599  2.3775
 3277SOL     OW21466   3.446   3.997   5.974 -0.2352 -0.3488  0.6987
 3277SOL    HW121467   3.351   3.987   5.968 -0.4051  2.0021 -0.4481
 3277SOL    HW221468   3.469   3.926   6.035 -0.5609 -0.1492  1.0575
 3278SOL     OW21469   2.134   2.224  11.220  0.0214 -0.3235  0.0091
 3278SOL    HW121470   2.140   2.242  11.126 -0.7085 -0.3503 -0.0402
 3278SOL    HW221471   2.089   2.140  11.214  0.2528 -0.3687 -1.1303
 3279SOL     OW21472   3.189   2.627  16.364 -0.2670 -0.2490 -0.1367
 3279SOL    HW121473   3.256   2.567  16.332  1.6108  1.1831  1.0856
 3279SOL    HW221474   3.220   2.715  16.342 -2.1089  0.0082 -1.6816
 3280SOL     OW21475   2.640   3.969  11.010 -0.3269 -0.2457  0.2361
 3280SOL    HW121476   2.679   3.903  10.952 -0.4209 -1.8135  1.9468
 3280SOL    HW221477   2.720   4.012  11.038  0.4759 -2.1089  0.8089
 3281SOL     OW21478   0.977   1.201   7.114 -0.4456  0.3000  0.1925
 3281SOL    HW121479   0.967   1.140   7.041  0.0176 -0.2082  0.5585
 3281SOL    HW221480   0.952   1.281   7.067  2.8133  0.6101 -1.0253
 3282SOL     OW21481   1.311   3.756  16.307  0.0084 -0.4369  0.3239
 3282SOL    HW121482   1.404   3.774  16.297 -0.4502  1.1377 -1.0792
 3282SOL    HW221483   1.300   3.662  16.292  0.7218 -0.7514  1.8430
 3283SOL     OW21484   3.930   3.667   6.176  0.9085  0.3659 -0.0251
 3283SOL    HW121485   3.886   3.599   6.228  1.5882 -1.1279 -1.4225
 3283SOL    HW221486   3.987   3.614   6.120 -0.2086 -0.4295 -0.4100
 3284SOL     OW21487   1.123   2.576  17.292  0.6703  0.9271 -0.2171
 3284SOL    HW121488   1.144   2.587  17.200  1.9006  1.1522  0.0960
 3284SOL    HW221489   1.209   2.550  17.323  0.1341 -2.2828 -1.3667
 3285SOL     OW21490   2.368   4.049  10.767 -0.2721 -0.2596 -0.4571
 3285SOL    HW121491   2.350   3.965  10.810 -1.3516  1.8478  3.2237
 3285SOL    HW221492   2.305   4.102  10.816  0.5502 -0.2560  0.6038
 3286SOL     OW21493   3.498   3.267   4.548 -0.2408 -0.1080  0.1463
 3286SOL    HW121494   3.590   3.286   4.567  0.5764 -2.3722 -1.5243
 3286SOL    HW221495   3.498   3.239   4.456  1.5747 -0.9881  0.4173
 3287SOL     OW21496   1.010   1.794   4.652  0.4409 -0.4044  0.3188
 3287SOL    HW121497   1.035   1.770   4.563 -0.1871 -0.0594  0.0507
 3287SOL    HW221498   0.962   1.877   4.646 -0.0489 -0.7958 -1.2047
 3288SOL     OW21499   0.364   1.711   7.659  0.2287 -0.0286 -0.0563
 3288SOL    HW121500   0.369   1.716   7.564 -1.1347  1.3154 -0.0591
 3288SOL    HW221501   0.454   1.730   7.683 -0.7839  1.8342  2.2410
 3289SOL     OW21502   4.373   1.868   5.790 -0.2403 -0.5698  0.1294
 3289SOL    HW121503   4.409   1.957   5.795 -0.5945 -0.3871 -0.6430
 3289SOL    HW221504   4.441   1.823   5.740  1.0754  0.7560  0.7066
 3290SOL     OW21505   4.557   4.510   5.620 -0.0388  0.4353  0.3416
 3290SOL    HW121506   4.566   4.491   5.526  0.7502 -2.3677  0.9757
 3290SOL    HW221507   4.643   4.547   5.641 -1.1243  3.3360 -0.3896
 3291SOL     OW21508   2.460   2.986   7.610 -0.4420  0.1338  0.2921
 3291SOL    HW121509   2.453   3.035   7.528  0.8878 -1.0144 -0.5027
 3291SOL    HW221510   2.469   3.058   7.672  2.0716 -0.3676  0.5115
 3292SOL     OW21511   1.952   0.775   2.411 -0.0718  0.2938 -0.0974
 3292SOL    HW121512   1.942   0.810   2.323 -0.5362 -1.1642 -0.6244
 3292SOL    HW221513   1.933   0.682   2.402 -0.8597  0.6429 -2.0500
 3293SOL     OW21514   4.606   3.402   7.793  0.5555  0.0539 -0.1215
 3293SOL    HW121515   4.678   3.377   7.734  0.9776  2.0200 -0.4635
 3293SOL    HW221516   4.604   3.497   7.782  0.6033  0.0521 -0.1477
 3294SOL     OW21517   2.228   4.054   3.818 -0.3184 -0.3180  0.1828
 3294SOL    HW121518   2.218   4.137   3.772 -0.3859 -0.0202  0.7337
 3294SOL    HW221519   2.143   4.051   3.862 -0.1314  0.4861  0.6059
 3295SOL     OW21520   2.681   3.708   5.371  0.4760  0.0270 -0.3203
 3295SOL    HW121521   2.637   3.658   5.440  1.3552  1.3429  1.1715
 3295SOL    HW221522   2.758   3.726   5.424 -0.6494  0.4976  1.1425
 3296SOL     OW21523   4.332   3.795   8.008  0.1863 -0.4600  0.8921
 3296SOL    HW121524   4.334   3.699   8.007  1.6436 -0.4021 -2.3368
 3296SOL    HW221525   4.362   3.804   7.917  1.2047 -1.8441  1.0927
 3297SOL     OW21526   4.432   2.714   8.596  0.4899 -0.2536 -0.0422
 3297SOL    HW121527   4.368   2.651   8.563  0.5949  1.0088 -2.6611
 3297SOL    HW221528   4.462   2.757   8.516 -0.1546  0.0579 -0.1214
 3298SOL     OW21529   2.179   2.486  13.480 -0.2197 -0.7120 -0.3783
 3298SOL    HW121530   2.096   2.442  13.496 -0.1061  0.9136  4.4911
 3298SOL    HW221531   2.187   2.485  13.384  1.2069 -2.0373 -0.2709
 3299SOL     OW21532   2.168   1.282  15.745  0.0778  0.1370 -0.5212
 3299SOL    HW121533   2.073   1.270  15.745  0.0915  0.1068  1.2069
 3299SOL    HW221534   2.181   1.350  15.679  2.1568  0.6006  0.3758
 3300SOL     OW21535   4.549   3.941   8.141 -0.0249 -0.0171 -0.0645
 3300SOL    HW121536   4.608   3.870   8.117  1.9060  2.0514 -1.4929
 3300SOL    HW221537   4.470   3.909   8.097 -0.1612  1.0815 -0.6237
 3301SOL     OW21538   4.077   0.785  10.541 -0.3838  0.3404  0.1156
 3301SOL    HW121539   4.001   0.737  10.508 -0.0654 -1.4577  1.9630
 3301SOL    HW221540   4.056   0.801  10.633 -3.5825 -1.2935 -0.3291
 3302SOL     OW21541   1.103   3.836   2.169  0.5248 -0.1682 -0.4154
 3302SOL    HW121542   1.074   3.763   2.115 -1.8622  0.5267 -0.0607
 3302SOL    HW221543   1.102   3.909   2.108  1.7225  0.3065  0.1296
 3303SOL     OW21544   0.450   3.967   9.099 -0.0421  0.2269 -0.2746
 3303SOL    HW121545   0.462   4.037   9.164  0.3221 -0.0207 -0.0711
 3303SOL    HW221546   0.492   4.008   9.023  1.2586  0.7124  0.7006
 3304SOL     OW21547   2.371   4.610   4.585  0.2179  0.7118  0.2891
 3304SOL    HW121548   2.364   4.569   4.671  0.7121  1.9370  0.9153
 3304SOL    HW221549   2.397   4.531   4.537 -1.2884  0.9293 -0.9094
 3305SOL     OW21550   4.339   3.368  15.170  0.2518 -0.5431  0.0863
 3305SOL    HW121551   4.421   3.402  15.205  0.9434 -1.1338 -0.9401
 3305SOL    HW221552   4.277   3.416  15.225  1.8378 -1.0490  2.3066
 3306SOL     OW21553   0.298   0.742   2.086  0.0775  0.4412  0.0888
 3306SOL    HW121554   0.215   0.790   2.098  0.5877  1.0732  1.0626
 3306SOL    HW221555   0.260   0.666   2.043  1.8935 -1.3276  1.6505
 3307SOL     OW21556   3.724   3.187  13.356  0.6683 -0.0243  0.3362
 3307SOL    HW121557   3.704   3.120  13.290 -1.1766 -0.6498  1.5275
 3307SOL    HW221558   3.761   3.138  13.430  0.0715  0.6306  1.0681
 3308SOL     OW21559   0.579   4.717   8.327 -0.3176 -0.1668 -0.4839
 3308SOL    HW121560   0.607   4.632   8.296 -1.1333 -0.3876 -0.6255
 3308SOL    HW221561   0.493   4.707   8.368 -0.7740 -0.4448 -1.5038
 3309SOL     OW21562   3.005   3.225   9.354  0.1036 -0.2379  0.1020
 3309SOL    HW121563   3.092   3.229   9.392 -0.9776  0.9190  2.4595
 3309SOL    HW221564   2.984   3.132   9.365  0.3844 -0.5968 -2.4781
 3310SOL     OW21565   2.923   2.497   4.164 -0.0893 -1.1575 -0.2658
 3310SOL    HW121566   2.901   2.574   4.111  0.2915  0.3716  1.8053
 3310SOL    HW221567   2.890   2.527   4.249 -2.5163 -3.0406 -0.5363
 3311SOL     OW21568   1.434   1.691  17.382 -0.3305  0.2386  0.4941
 3311SOL    HW121569   1.436   1.685  17.478  2.1279 -0.6462  0.3891
 3311SOL    HW221570   1.448   1.783  17.361  0.3665 -0.8628 -3.9105
 3312SOL     OW21571   4.236   0.749   6.975  0.1056  0.4485  0.1722
 3312SOL    HW121572   4.229   0.838   6.941  0.9666  0.1658 -0.7358
 3312SOL    HW221573   4.158   0.701   6.950  0.9922 -0.2275 -1.2942
 3313SOL     OW21574   4.196   3.204   4.862  0.6555 -0.2561  0.0353
 3313SOL    HW121575   4.153   3.262   4.800 -2.1360 -1.3769  0.9370
 3313SOL    HW221576   4.227   3.126   4.816 -2.9997 -1.6306 -0.0892
 3314SOL     OW21577   4.061   0.136  11.583  0.3449  0.5583 -0.4084
 3314SOL    HW121578   3.983   0.191  11.592  1.8436  2.9002 -1.8099
 3314SOL    HW221579   4.127   0.193  11.623 -1.8426  2.3930  0.5793
 3315SOL     OW21580   0.437   4.192   9.231  0.2251  0.1258  0.4198
 3315SOL    HW121581   0.485   4.225   9.307 -0.0420 -0.5776  0.8987
 3315SOL    HW221582   0.460   4.250   9.159  0.3716  1.0163  1.1852
 3316SOL     OW21583   1.722   4.056  15.620  0.2425  0.4752  0.4067
 3316SOL    HW121584   1.635   4.083  15.652  0.1260 -0.3581  0.8121
 3316SOL    HW221585   1.730   3.962  15.632 -0.3798  0.3930  0.1863
 3317SOL     OW21586   4.468   3.431   3.259  0.3599  0.1169  1.0105
 3317SOL    HW121587   4.450   3.525   3.268 -2.0201 -0.5249  2.8691
 3317SOL    HW221588   4.547   3.425   3.206 -0.9898  0.6344 -1.0564
 3318SOL     OW21589   4.159   3.940  11.115  0.3271  0.4163 -0.0429
 3318SOL    HW121590   4.201   3.935  11.201  2.0033  2.0516 -0.7500
 3318SOL    HW221591   4.123   4.029  11.121 -1.0278 -0.0312 -1.5774
 3319SOL     OW21592   4.496   1.127   6.337 -0.2146 -0.2338 -0.7466
 3319SOL    HW121593   4.544   1.135   6.254  0.8695 -1.4477 -0.2371
 3319SOL    HW221594   4.520   1.038   6.365  0.6391 -0.3917 -1.9409
 3320SOL     OW21595   0.960   2.362   3.473  0.7152  0.8737  0.4182
 3320SOL    HW121596   0.973   2.388   3.382 -2.2321 -1.0974 -0.5508
 3320SOL    HW221597   0.865   2.365   3.475  0.6719 -1.1931  0.7299
 3321SOL     OW21598   0.604   4.112   1.302  0.3737 -0.2352  0.0448
 3321SOL    HW121599   0.572   4.053   1.370  0.6882 -0.0287  0.3666
 3321SOL    HW221600   0.605   4.051   1.228 -0.1128 -0.3728  0.1515
 3322SOL     OW21601   0.278   2.824   0.179 -0.2523  0.6064  0.5190
 3322SOL    HW121602   0.364   2.837   0.218  0.6951  2.6002 -2.2954
 3322SOL    HW221603   0.251   2.738   0.213 -2.1596  1.7159  1.8675
 3323SOL     OW21604   3.280   2.685  13.584 -0.8120 -0.0483  0.2573
 3323SOL    HW121605   3.217   2.754  13.561 -0.0926  0.9948  1.4248
 3323SOL    HW221606   3.350   2.744  13.612  1.0988 -1.7830 -0.9341
 3324SOL     OW21607   1.617   2.545  17.646  0.1054 -0.6120 -0.4550
 3324SOL    HW121608   1.666   2.515  17.570  0.1982  0.1540 -0.6903
 3324SOL    HW221609   1.691   2.582  17.694  0.3470 -2.2911  0.4687
 3325SOL     OW21610   4.172   4.259  16.383  0.3925 -0.1396 -0.1882
 3325SOL    HW121611   4.172   4.178  16.435  0.7813 -0.9493 -1.4625
 3325SOL    HW221612   4.244   4.238  16.323  1.2396  2.6960 -0.1543
 3326SOL     OW21613   2.574   4.614   8.025  0.0081 -0.2191 -0.0578
 3326SOL    HW121614   2.548   4.703   8.048 -1.6624 -0.7712  0.2192
 3326SOL    HW221615   2.494   4.566   8.049 -0.5739  1.4156  1.2668
 3327SOL     OW21616   4.633   1.500   7.878  0.3625 -0.1699 -0.0489
 3327SOL    HW121617   4.648   1.556   7.954 -0.1343 -0.0943 -0.0053
 3327SOL    HW221618   4.646   1.555   7.801  0.1852 -0.8005 -0.5343
 3328SOL     OW21619   4.483   4.132   4.038 -0.1874  0.5102 -0.5342
 3328SOL    HW121620   4.494   4.051   3.986  0.1566 -0.5929  1.2685
 3328SOL    HW221621   4.570   4.166   4.058  0.0170  0.0843 -0.6775
 3329SOL     OW21622   1.486   2.121   6.509  0.8678  0.4172 -0.8612
 3329SOL    HW121623   1.411   2.101   6.565  1.5129  2.0642  0.6017
 3329SOL    HW221624   1.451   2.197   6.463 -2.2671 -1.1374 -1.0052
 3330SOL     OW21625   3.893   3.503   5.236  0.3598  0.4058  0.1081
 3330SOL    HW121626   3.911   3.589   5.273  0.4419 -0.7782  2.8475
 3330SOL    HW221627   3.849   3.449   5.302 -1.5445  1.7511 -0.0480
 3331SOL     OW21628   1.959   2.288   4.136  0.5638 -0.2164 -0.8362
 3331SOL    HW121629   1.878   2.279   4.188  1.3633 -1.8445  0.1313
 3331SOL    HW221630   2.020   2.295   4.210 -2.9410 -3.1932  2.3601
 3332SOL     OW21631   4.135   2.050  13.235  0.3222  0.0914  0.4020
 3332SOL    HW121632   4.137   1.955  13.218  1.2688 -0.2989  2.7576
 3332SOL    HW221633   4.070   2.053  13.305 -2.0659  0.8666 -1.8373
 3333SOL     OW21634   1.475   3.656   3.727  0.1872 -0.1846 -0.0214
 3333SOL    HW121635   1.462   3.581   3.786  0.0845 -0.0551  0.1221
 3333SOL    HW221636   1.562   3.639   3.690  0.5072  0.6789  0.3330
 3334SOL     OW21637   4.481   3.171  13.044 -0.3645 -0.2957  0.4185
 3334SOL    HW121638   4.552   3.229  13.015 -1.7226  0.0487 -2.2479
 3334SOL    HW221639   4.409   3.222  13.005 -2.0606 -1.8781  1.4548
 3335SOL     OW21640   2.402   0.048  12.606  0.0878 -0.6047  0.3881
 3335SOL    HW121641   2.450   0.026  12.526 -2.1357  0.9701 -1.3921
 3335SOL    HW221642   2.433   0.134  12.634 -1.5197 -0.3612  1.4239
 3336SOL     OW21643   4.686   4.380   1.361  0.0099 -0.1769  0.6536
 3336SOL    HW121644   4.654   4.346   1.277  0.8044 -0.1490  0.3390
 3336SOL    HW221645   4.695   4.294   1.400 -4.4603 -0.2284  1.6137
 3337SOL     OW21646   2.639   4.564  16.545  0.3627 -0.5722 -0.5553
 3337SOL    HW121647   2.602   4.586  16.630 -0.5206  0.8179 -1.3007
 3337SOL    HW221648   2.630   4.646  16.497  0.6731 -0.0379  0.2966
 3338SOL     OW21649   2.927   0.504   5.402  0.1301  0.5426  0.0425
 3338SOL    HW121650   2.926   0.477   5.310  0.6923 -1.3939  0.6014
 3338SOL    HW221651   2.864   0.576   5.398 -1.8773 -1.2261  0.0099
 3339SOL     OW21652   2.115   0.044   0.783  0.0136  0.6681 -0.5691
 3339SOL    HW121653   2.169   0.054   0.861 -0.1980 -4.3253  0.1590
 3339SOL    HW221654   2.126   0.129   0.739  0.6555  0.3648 -0.9891
 3340SOL     OW21655   0.739   3.983   5.518 -0.2619 -0.1166 -0.4715
 3340SOL    HW121656   0.834   3.980   5.509 -0.2951 -1.5060 -0.4725
 3340SOL    HW221657   0.731   3.910   5.580  1.9391 -1.0346 -1.2615
 3341SOL     OW21658   0.393   3.410  17.179 -0.4000 -0.2647 -0.2670
 3341SOL    HW121659   0.371   3.320  17.156  2.3079 -1.1597  0.6692
 3341SOL    HW221660   0.470   3.434  17.126 -0.6968 -0.4815 -0.7965
 3342SOL     OW21661   0.862   3.465   6.056  0.7655  0.6237 -0.2225
 3342SOL    HW121662   0.883   3.373   6.040  1.6427  1.0970 -1.7849
 3342SOL    HW221663   0.950   3.503   6.067  0.7083  0.9009 -0.7306
 3343SOL     OW21664   2.343   3.278  12.093 -0.4407  0.4496 -0.4126
 3343SOL    HW121665   2.293   3.270  12.174 -0.1245 -0.8386 -0.3575
 3343SOL    HW221666   2.274   3.318  12.039 -0.6073  2.1072  1.0164
 3344SOL     OW21667   1.055   3.132   2.055  0.2369  0.3752 -0.1982
 3344SOL    HW121668   1.008   3.194   1.999 -2.0235 -1.3733 -0.2818
 3344SOL    HW221669   1.145   3.162   2.049  0.3587 -0.4018 -2.3453
 3345SOL     OW21670   0.426   1.061   1.882  0.4624 -0.2777  0.0784
 3345SOL    HW121671   0.521   1.077   1.882  0.3593  0.3869  2.3843
 3345SOL    HW221672   0.402   1.079   1.792 -0.1341  1.6345  0.6243
 3346SOL     OW21673   0.842   0.218   6.255  0.0798  0.3131  0.1641
 3346SOL    HW121674   0.757   0.258   6.236 -0.2318 -1.7511 -2.7381
 3346SOL    HW221675   0.894   0.275   6.198 -2.9302  0.4059 -2.4463
 3347SOL     OW21676   2.497   3.249   2.957  0.4572 -0.5760  0.5280
 3347SOL    HW121677   2.547   3.171   2.980  1.6523 -0.1328 -0.5990
 3347SOL    HW221678   2.410   3.210   2.970  0.8353 -1.0888  1.5647
 3348SOL     OW21679   0.028   3.772   8.077 -0.0080 -0.1621  0.0821
 3348SOL    HW121680   0.086   3.847   8.062 -0.5131 -0.0288 -1.2067
 3348SOL    HW221681   0.011   3.733   7.992 -0.4069 -1.8099  0.9212
 3349SOL     OW21682   3.877   1.669  10.496  0.0088  0.8130  0.0974
 3349SOL    HW121683   3.880   1.730  10.570  2.4580 -1.7063  2.0572
 3349SOL    HW221684   3.946   1.706  10.441  0.4136  0.5320  0.4112
 3350SOL     OW21685   3.039   4.172   2.782  0.3012  0.3293 -0.6271
 3350SOL    HW121686   3.114   4.114   2.800  0.3112  0.6729  0.4432
 3350SOL    HW221687   2.985   4.099   2.751 -1.0338  1.3538 -0.6999
 3351SOL     OW21688   1.167   4.696   3.201 -0.1197  0.1347  0.2971
 3351SOL    HW121689   1.254   4.721   3.170 -0.3455  3.4543  2.3815
 3351SOL    HW221690   1.170   0.008   3.284 -2.5325 -0.1670  0.5652
 3352SOL     OW21691   4.545   1.978  10.783  0.1539  0.3444 -0.3979
 3352SOL    HW121692   4.500   1.988  10.699 -0.0105 -0.7267 -0.4350
 3352SOL    HW221693   4.576   1.888  10.768  1.3725  0.4012  1.8295
 3353SOL     OW21694   4.416   3.605   6.219 -0.5507  0.1003  0.3130
 3353SOL    HW121695   4.448   3.552   6.146  0.1706 -0.4106  1.0006
 3353SOL    HW221696   4.325   3.578   6.226 -1.1460  2.5974  2.0810
 3354SOL     OW21697   2.528   4.315   3.828  0.2632  0.0024 -0.1843
 3354SOL    HW121698   2.474   4.260   3.885 -0.3758  0.5629 -0.2464
 3354SOL    HW221699   2.463   4.375   3.790 -0.9200 -1.3966 -0.3681
 3355SOL     OW21700   0.254   0.624   3.164 -0.0831  0.1846  0.1061
 3355SOL    HW121701   0.284   0.557   3.225  0.1779  0.5908  0.4223
 3355SOL    HW221702   0.285   0.585   3.082  0.6339 -0.9093  0.9060
 3356SOL     OW21703   0.838   1.605   7.168 -0.0784 -0.0128 -0.1908
 3356SOL    HW121704   0.800   1.692   7.155  0.4307  0.2996  0.4181
 3356SOL    HW221705   0.929   1.632   7.171  0.4944 -1.4855 -3.7284
 3357SOL     OW21706   4.412   1.441   4.826  0.1492  0.4878  0.2393
 3357SOL    HW121707   4.348   1.507   4.799 -0.1840 -0.0774 -0.3566
 3357SOL    HW221708   4.487   1.498   4.840  0.9579 -0.3581 -0.6641
 3358SOL     OW21709   0.273   1.298  15.803 -0.5940  0.1257 -0.1706
 3358SOL    HW121710   0.240   1.281  15.891  1.4045  0.5277  0.6499
 3358SOL    HW221711   0.364   1.271  15.810 -0.7350 -0.0647  0.8896
 3359SOL     OW21712   3.723   3.557   6.595  0.0467 -0.0848 -0.6365
 3359SOL    HW121713   3.770   3.634   6.627  0.3483 -1.7201  2.7559
 3359SOL    HW221714   3.650   3.601   6.551  0.6942 -0.2465 -1.8871
 3360SOL     OW21715   0.192   2.885   8.683 -0.1891  0.3056  0.0772
 3360SOL    HW121716   0.228   2.937   8.756  0.3322 -0.7359  0.5697
 3360SOL    HW221717   0.267   2.828   8.664 -0.9539 -0.5854 -0.2519
 3361SOL     OW21718   2.725   1.879  13.184  0.0023  0.0907 -0.6898
 3361SOL    HW121719   2.658   1.884  13.253  0.7903  1.7360 -0.0630
 3361SOL    HW221720   2.666   1.884  13.108 -2.5068 -0.1506  1.2207
 3362SOL     OW21721   2.326   2.010   9.087 -0.1460  0.2581 -0.0070
 3362SOL    HW121722   2.299   1.931   9.133 -0.0440  0.6775  0.7761
 3362SOL    HW221723   2.407   2.023   9.138  0.6646  1.2312 -1.5327
 3363SOL     OW21724   0.470   0.743   8.198 -0.1557  0.2957 -0.6066
 3363SOL    HW121725   0.467   0.664   8.252 -0.5678  0.7530  0.0436
 3363SOL    HW221726   0.465   0.716   8.107  0.6042 -0.4608 -0.4192
 3364SOL     OW21727   1.109   0.431   6.571  0.5491 -0.1656 -0.2831
 3364SOL    HW121728   1.060   0.353   6.598  0.1394  0.8413  1.8947
 3364SOL    HW221729   1.123   0.477   6.654 -1.1569 -2.1340  1.1112
 3365SOL     OW21730   3.243   4.386  13.762  0.7749  0.0549  0.0781
 3365SOL    HW121731   3.333   4.393  13.731  1.1601 -1.0832  0.9560
 3365SOL    HW221732   3.216   4.310  13.711 -1.6892  2.5254 -2.3267
 3366SOL     OW21733   0.654   0.960   4.253  0.3085  0.1578  0.1538
 3366SOL    HW121734   0.575   1.008   4.227 -2.0304 -3.4214  0.6551
 3366SOL    HW221735   0.710   0.971   4.176  1.1906 -1.4732  0.5711
 3367SOL     OW21736   1.388   4.040   0.925  0.0760 -0.5189  0.5021
 3367SOL    HW121737   1.359   4.131   0.937 -0.3237 -0.7304  1.1394
 3367SOL    HW221738   1.480   4.036   0.952 -0.4562  3.5592  2.9726
 3368SOL     OW21739   2.543   2.740   7.565  0.3376 -0.3640  0.1303
 3368SOL    HW121740   2.501   2.825   7.561  0.0680 -0.5259 -0.4881
 3368SOL    HW221741   2.547   2.743   7.660  0.7407 -0.3812  0.1161
 3369SOL     OW21742   3.856   3.119   4.760 -0.0071 -0.6332 -0.6820
 3369SOL    HW121743   3.858   3.180   4.687 -1.5309 -0.3532 -0.4882
 3369SOL    HW221744   3.766   3.088   4.751  0.5653 -3.0869  2.0507
 3370SOL     OW21745   3.473   3.902   3.256  0.0083  0.3231  0.2931
 3370SOL    HW121746   3.421   3.823   3.273  0.2589 -0.3142 -1.9263
 3370SOL    HW221747   3.409   3.970   3.278  0.6161  1.2987 -0.9963
 3371SOL     OW21748   1.531   0.421   9.178  0.0427  0.4276  0.3313
 3371SOL    HW121749   1.470   0.359   9.138  2.0975 -1.5671  0.3205
 3371SOL    HW221750   1.569   0.361   9.242 -1.5315 -1.2339 -0.3082
 3372SOL     OW21751   3.920   1.333   9.331  0.0551 -0.0857 -0.0431
 3372SOL    HW121752   3.884   1.246   9.347  0.0121  0.4782  2.8135
 3372SOL    HW221753   4.008   1.313   9.299 -0.3864  0.8270 -1.8430
 3373SOL     OW21754   1.446   2.388   1.983  0.6963 -0.2386  0.1390
 3373SOL    HW121755   1.403   2.305   1.965  0.0501 -0.3875  2.2916
 3373SOL    HW221756   1.402   2.395   2.068  0.3610  1.5399 -0.1864
 3374SOL     OW21757   1.738   0.136  16.079  0.2409  0.5619 -0.0228
 3374SOL    HW121758   1.714   0.050  16.115 -1.1215  1.3709  0.9846
 3374SOL    HW221759   1.706   0.191  16.150  0.8238  2.0449 -0.9097
 3375SOL     OW21760   3.572   3.416   6.264  0.0454  0.4093 -0.1711
 3375SOL    HW121761   3.547   3.326   6.240 -1.2760  0.8125 -0.3161
 3375SOL    HW221762   3.515   3.469   6.209  2.1121 -0.1621 -2.8412
 3376SOL     OW21763   1.848   4.711   0.734 -0.0066 -0.6795  0.3907
 3376SOL    HW121764   1.937   4.723   0.765 -1.0361  0.1200  3.0114
 3376SOL    HW221765   1.861   0.022   0.650 -1.3855 -0.6656  0.1810
 3377SOL     OW21766   3.125   1.495  12.977 -0.1197  0.2484 -0.1211
 3377SOL    HW121767   3.137   1.455  13.064 -1.2582  0.8403  0.3152
 3377SOL    HW221768   3.196   1.467  12.920  0.3942 -0.7373  0.9956
 3378SOL     OW21769   3.989   3.853   5.981  0.2553  0.5163  0.0045
 3378SOL    HW121770   3.983   3.800   6.060 -1.5018 -1.5575 -1.5405
 3378SOL    HW221771   3.944   3.800   5.915 -0.9403  0.1028  1.1510
 3379SOL     OW21772   3.774   3.208  16.252  0.6205 -0.0096 -0.4141
 3379SOL    HW121773   3.761   3.252  16.168 -1.0446 -0.2366 -0.2715
 3379SOL    HW221774   3.818   3.283  16.293 -0.5801  0.2697  0.3476
 3380SOL     OW21775   4.287   1.317   5.024 -0.2366 -0.7000 -0.6543
 3380SOL    HW121776   4.343   1.330   5.101  1.1222 -1.3519 -1.5504
 3380SOL    HW221777   4.337   1.366   4.959  0.1753 -0.3969 -0.1092
 3381SOL     OW21778   1.305   1.859   3.083  0.2861 -0.0335 -0.1494
 3381SOL    HW121779   1.211   1.844   3.070 -0.3410  1.8957  2.1791
 3381SOL    HW221780   1.319   1.893   2.994 -0.6890  0.4020 -0.1422
 3382SOL     OW21781   0.045   0.778   3.841 -0.1616 -0.2750 -0.4372
 3382SOL    HW121782   0.026   0.758   3.933 -1.2457 -0.4059 -0.6872
 3382SOL    HW221783   0.031   0.872   3.838  1.2139 -0.1366 -2.3899
 3383SOL     OW21784   0.985   4.172   9.004  0.5270  0.6313 -0.0853
 3383SOL    HW121785   0.974   4.078   8.991 -0.7320  0.6450  0.9449
 3383SOL    HW221786   0.948   4.187   9.091  1.0178  0.6886  0.1136
 3384SOL     OW21787   2.547   3.511   0.635  0.1791 -0.0319  0.0140
 3384SOL    HW121788   2.598   3.455   0.577  0.2938 -0.8666  0.9410
 3384SOL    HW221789   2.481   3.539   0.571  0.9284  0.8608 -0.3730
 3385SOL     OW21790   0.627   3.765   1.261  0.2272  0.1269 -0.1194
 3385SOL    HW121791   0.618   3.789   1.353 -0.4750 -0.6900  0.0210
 3385SOL    HW221792   0.546   3.804   1.227 -0.5314 -0.2477  1.2671
 3386SOL     OW21793   2.012   4.243  11.143 -0.0455 -0.1725 -0.1864
 3386SOL    HW121794   2.030   4.175  11.208  1.6418  1.0350  0.6188
 3386SOL    HW221795   1.947   4.292  11.193  1.4998 -0.2902  1.9699
 3387SOL     OW21796   1.542   0.274  11.641  0.0588  0.1638  0.3003
 3387SOL    HW121797   1.524   0.368  11.650 -1.7147 -0.1813  0.4269
 3387SOL    HW221798   1.634   0.281  11.664  0.2711 -1.9665  0.0580
 3388SOL     OW21799   3.280   1.653   4.280  0.1914 -0.0993 -0.4029
 3388SOL    HW121800   3.283   1.593   4.205  0.8384 -0.7164  0.1155
 3388SOL    HW221801   3.236   1.725   4.234 -1.3014 -1.6292 -1.3617
 3389SOL     OW21802   1.673   2.566   3.663 -0.3680  0.1864 -0.0152
 3389SOL    HW121803   1.654   2.549   3.571  0.6182  0.5420 -0.2837
 3389SOL    HW221804   1.677   2.476   3.697  0.4251 -0.3290 -1.4856
 3390SOL     OW21805   3.997   1.873  10.630 -0.0374  0.3761 -0.2310
 3390SOL    HW121806   4.038   1.960  10.628  1.0948 -0.1267  2.2639
 3390SOL    HW221807   4.058   1.830  10.569 -1.3970  0.6325 -1.7836
 3391SOL     OW21808   3.947   2.177   7.096 -0.5610  0.6042 -0.0253
 3391SOL    HW121809   4.034   2.163   7.133  0.5029 -0.2748 -2.8462
 3391SOL    HW221810   3.962   2.262   7.054  0.3398 -1.1297 -3.2029
 3392SOL     OW21811   2.445   3.893  14.506  0.2449 -0.3807 -0.3575
 3392SOL    HW121812   2.475   3.914  14.594  2.4705  0.4910 -1.3377
 3392SOL    HW221813   2.478   3.975  14.468  2.9994 -0.7469  1.2684
 3393SOL     OW21814   4.317   3.818  17.601 -0.1425 -0.5165  0.0924
 3393SOL    HW121815   4.331   3.851  17.690  0.7165 -2.8597  0.8479
 3393SOL    HW221816   4.308   3.723  17.608  0.0825 -0.5620 -0.2189
 3394SOL     OW21817   0.588   2.901  13.334 -1.2209  0.4536  0.3845
 3394SOL    HW121818   0.594   2.806  13.348  2.2245  0.9146  1.8904
 3394SOL    HW221819   0.585   2.933  13.424  1.7920 -0.2103  0.7239
 3395SOL     OW21820   4.036   1.467   6.777 -0.2449 -0.1653  0.3231
 3395SOL    HW121821   4.032   1.442   6.685 -0.2247  1.1944 -0.0584
 3395SOL    HW221822   4.084   1.397   6.821 -0.0088 -0.1235  0.1337
 3396SOL     OW21823   1.065   1.523   3.019  0.5188  0.4506 -0.5919
 3396SOL    HW121824   1.023   1.447   2.978 -1.1492  0.2112  1.5628
 3396SOL    HW221825   1.156   1.508   2.995  0.1026  1.5214 -2.8226
 3397SOL     OW21826   4.043   1.489  14.682 -0.4449  0.5440  0.3141
 3397SOL    HW121827   4.047   1.493  14.778 -2.8231  0.9441  0.3865
 3397SOL    HW221828   4.106   1.555  14.653  0.6619 -0.3587  0.6556
 3398SOL     OW21829   2.247   2.839   1.615 -0.1777  0.3919  0.2575
 3398SOL    HW121830   2.162   2.854   1.655 -1.2709 -1.1191 -1.5378
 3398SOL    HW221831   2.231   2.759   1.565  0.9955  0.1944  0.1924
 3399SOL     OW21832   3.409   1.296  16.489 -0.2678 -0.0057  0.4288
 3399SOL    HW121833   3.437   1.205  16.478  1.3436  0.4887  0.4537
 3399SOL    HW221834   3.317   1.279  16.510 -0.1847  1.1248  1.7516
 3400SOL     OW21835   0.882   0.005   6.998  0.4792 -0.3456 -0.0035
 3400SOL    HW121836   0.807   4.722   6.942 -0.2470 -1.4238  1.3083
 3400SOL    HW221837   0.949   4.704   6.939  0.4135  0.9321 -0.8391
 3401SOL     OW21838   4.365   0.764   4.895 -0.0285  0.5087  0.0964
 3401SOL    HW121839   4.317   0.718   4.963 -0.4661  1.7182  0.6107
 3401SOL    HW221840   4.351   0.851   4.931  0.9698  0.7887 -0.1851
 3402SOL     OW21841   1.307   1.463  11.554  0.2372 -0.3616 -1.1784
 3402SOL    HW121842   1.332   1.498  11.469  0.0658  0.9863 -0.6666
 3402SOL    HW221843   1.337   1.373  11.538  0.2749 -0.2350 -1.8116
 3403SOL     OW21844   4.403   2.956   8.391  0.3033 -0.1041 -0.4305
 3403SOL    HW121845   4.317   2.945   8.431  1.2737  3.0387  2.4219
 3403SOL    HW221846   4.417   3.050   8.381 -1.1187  0.2528  0.9358
 3404SOL     OW21847   1.407   3.238   3.716 -0.0907  0.3507  0.1309
 3404SOL    HW121848   1.392   3.305   3.650  0.7727  0.3900 -0.0212
 3404SOL    HW221849   1.423   3.296   3.791 -0.0265  0.7884 -0.2179
 3405SOL     OW21850   4.191   4.209  11.493  0.5729  0.0311 -0.1427
 3405SOL    HW121851   4.198   4.257  11.576  4.0030 -0.2331 -0.2865
 3405SOL    HW221852   4.252   4.263  11.442  0.6482 -0.3524 -0.4522
 3406SOL     OW21853   0.758   3.490  15.026 -0.5879  0.4856 -0.0461
 3406SOL    HW121854   0.670   3.509  15.059  0.1448  1.6850  1.2135
 3406SOL    HW221855   0.744   3.430  14.952  2.4115  1.0790 -1.0886
 3407SOL     OW21856   0.774   2.247   2.660  0.6667 -0.0964 -0.1415
 3407SOL    HW121857   0.686   2.218   2.637  0.7554 -0.9428  0.5931
 3407SOL    HW221858   0.782   2.328   2.609 -1.6717 -0.3369 -0.8900
 3408SOL     OW21859   2.193   2.847  13.471 -0.2485 -0.2754  0.4909
 3408SOL    HW121860   2.186   2.914  13.540  1.3441 -0.6949  1.0546
 3408SOL    HW221861   2.252   2.787  13.516  0.2741  0.6729  1.0671
 3409SOL     OW21862   3.033   2.052   3.419 -0.5685 -0.5194 -0.0858
 3409SOL    HW121863   3.046   1.968   3.463 -1.5844 -0.6563 -0.0472
 3409SOL    HW221864   2.938   2.053   3.407 -0.5867 -2.3302 -0.1653
 3410SOL     OW21865   0.716   3.785   6.338  0.4855 -0.1547 -0.7145
 3410SOL    HW121866   0.688   3.696   6.361  1.0265 -0.1079  0.1187
 3410SOL    HW221867   0.715   3.829   6.423  0.4141 -2.0094  0.2491
 3411SOL     OW21868   1.597   1.006   2.738 -0.6492 -0.2219 -0.0404
 3411SOL    HW121869   1.685   1.037   2.716 -1.4688  2.4573  0.4445
 3411SOL    HW221870   1.550   1.033   2.659  1.0128  2.2248 -0.2108
 3412SOL     OW21871   0.483   0.309   8.601  0.3773 -0.0961 -0.4489
 3412SOL    HW121872   0.545   0.239   8.615  0.8832  0.0739 -1.8041
 3412SOL    HW221873   0.407   0.261   8.567 -0.4254  0.3707  0.6913
 3413SOL     OW21874   1.174   3.455  11.404  0.1985 -0.2035  0.3043
 3413SOL    HW121875   1.225   3.446  11.324 -2.1315 -0.1025 -1.2113
 3413SOL    HW221876   1.192   3.548  11.418 -1.5609  0.1836  0.1034
 3414SOL     OW21877   2.565   2.404   0.726 -0.4487 -0.0355 -0.0904
 3414SOL    HW121878   2.504   2.360   0.667 -1.2554 -1.4735  1.8238
 3414SOL    HW221879   2.644   2.358   0.699 -0.0544  1.0823 -0.8442
 3415SOL     OW21880   3.650   2.112   1.595  0.2332  0.0764  0.4668
 3415SOL    HW121881   3.591   2.103   1.669 -0.4111 -0.1847 -0.0850
 3415SOL    HW221882   3.683   2.022   1.591  0.2908  0.1053  0.2958
 3416SOL     OW21883   2.107   3.919  10.413  0.0052 -0.1398  0.2396
 3416SOL    HW121884   2.041   3.940  10.347 -0.4295  0.7021  0.9434
 3416SOL    HW221885   2.190   3.930  10.366 -0.3267  2.1502  0.1759
 3417SOL     OW21886   2.930   1.198   1.361 -0.2816  0.0519 -0.3087
 3417SOL    HW121887   2.971   1.224   1.444  0.0250  1.1785 -0.8119
 3417SOL    HW221888   3.000   1.162   1.305  0.5376 -1.7294  1.8644
 3418SOL     OW21889   1.714   1.063  11.088  0.3838 -0.6228  0.0778
 3418SOL    HW121890   1.672   1.036  11.006  0.2691 -0.2057  0.0031
 3418SOL    HW221891   1.757   0.983  11.120  0.4861 -0.2336  0.9004
 3419SOL     OW21892   2.490   3.425  10.319  0.1664  0.2876 -0.4056
 3419SOL    HW121893   2.493   3.519  10.337  1.2200  0.8696 -3.7339
 3419SOL    HW221894   2.415   3.400  10.373 -1.5492  1.4152 -2.2595
 3420SOL     OW21895   4.570   4.568   2.350 -0.1790  0.2108  0.0780
 3420SOL    HW121896   4.550   4.491   2.404 -0.3605 -0.0097 -0.3003
 3420SOL    HW221897   4.496   4.626   2.363 -0.2125 -0.2382  1.8219
 3421SOL     OW21898   0.674   3.401   4.813  0.3930 -0.4749  0.1424
 3421SOL    HW121899   0.745   3.463   4.794  0.7860 -0.2937  2.1344
 3421SOL    HW221900   0.684   3.397   4.908 -1.1024  0.7802  0.3539
 3422SOL     OW21901   0.731   1.155   7.458 -0.1633 -0.2553 -0.2178
 3422SOL    HW121902   0.661   1.175   7.396  0.8513 -1.2768 -1.6870
 3422SOL    HW221903   0.685   1.093   7.515  1.0137 -1.1527 -0.2440
 3423SOL     OW21904   1.410   1.604   3.873  0.0211 -0.1469  0.0743
 3423SOL    HW121905   1.469   1.674   3.845 -1.7337  0.0132 -3.1660
 3423SOL    HW221906   1.368   1.567   3.796 -2.7388 -0.8430  1.9291
 3424SOL     OW21907   0.134   3.368   5.803 -0.1866  0.0264  0.6357
 3424SOL    HW121908   0.129   3.432   5.731 -1.0911  0.0705  0.7355
 3424SOL    HW221909   0.071   3.304   5.771 -0.1072  0.4316 -0.3529
 3425SOL     OW21910   0.078   1.159   5.022 -0.0565  0.2494  0.0001
 3425SOL    HW121911   0.025   1.138   5.098 -0.7900  0.2353 -0.5212
 3425SOL    HW221912   0.151   1.201   5.068 -0.2088 -0.2537  0.6958
 3426SOL     OW21913   4.062   4.592   8.860  0.3576  0.0439  0.1314
 3426SOL    HW121914   4.093   4.547   8.780  0.9924  1.0383 -0.1790
 3426SOL    HW221915   3.969   4.589   8.840  0.6272 -1.6298 -0.8954
 3427SOL     OW21916   1.516   0.280   4.215  0.7498 -0.0721  0.5841
 3427SOL    HW121917   1.421   0.277   4.229  0.7625 -2.9926  0.1037
 3427SOL    HW221918   1.526   0.224   4.139 -0.5007  1.1046 -0.4475
 3428SOL     OW21919   4.464   1.941   7.211  0.6819  0.5804  0.0690
 3428SOL    HW121920   4.413   1.921   7.289  0.3936  0.8480 -0.0479
 3428SOL    HW221921   4.411   1.905   7.139 -0.2445 -0.9901  1.5384
 3429SOL     OW21922   4.362   1.154   1.456  0.2333  0.0859  0.2427
 3429SOL    HW121923   4.348   1.179   1.365 -0.4809  0.1831  0.3766
 3429SOL    HW221924   4.292   1.091   1.472  0.0635  0.2490  0.1348
 3430SOL     OW21925   2.089   2.473   9.601  0.3725 -0.1398  0.1879
 3430SOL    HW121926   2.180   2.476   9.631  0.6841  0.0686 -0.7689
 3430SOL    HW221927   2.065   2.401   9.659 -1.6685  0.9422  0.7043
 3431SOL     OW21928   3.252   4.147  17.122 -0.1295 -0.2622  0.1183
 3431SOL    HW121929   3.196   4.201  17.066  1.6400 -0.7825 -2.1664
 3431SOL    HW221930   3.281   4.082  17.057 -1.5326 -0.9016  0.1293
 3432SOL     OW21931   3.076   0.441   5.140  0.0856 -0.3814 -0.2391
 3432SOL    HW121932   3.112   0.522   5.105 -2.2652  1.0557  0.6083
 3432SOL    HW221933   3.018   0.424   5.066 -2.5359  2.2945  1.1585
 3433SOL     OW21934   0.017   3.470  15.948  0.5576  0.9718  0.1132
 3433SOL    HW121935   0.072   3.533  15.902 -0.2272  0.5420 -1.3891
 3433SOL    HW221936   4.720   3.516  16.026  1.9218 -1.2655  1.9553
 3434SOL     OW21937   4.532   0.300  10.121 -0.4996 -0.0742  0.2274
 3434SOL    HW121938   4.563   0.379  10.165  0.2542  0.6753 -1.6390
 3434SOL    HW221939   4.563   0.239  10.187  1.7440  1.4731  0.6111
 3435SOL     OW21940   4.734   1.159  17.230 -0.1028  0.1407  0.7418
 3435SOL    HW121941   0.046   1.131  17.309 -0.3503 -2.7010 -0.1210
 3435SOL    HW221942   4.732   1.255  17.234  1.2717  0.1167  2.0052
 3436SOL     OW21943   3.790   3.882   7.816  0.0620 -0.1822 -0.2548
 3436SOL    HW121944   3.778   3.788   7.806 -0.0434  0.0121 -2.0131
 3436SOL    HW221945   3.886   3.876   7.821  0.0428 -0.4959 -0.3012
 3437SOL     OW21946   3.215   2.712   1.989  0.1263 -0.0739 -0.4121
 3437SOL    HW121947   3.223   2.720   1.894  0.5852  2.4090 -0.1779
 3437SOL    HW221948   3.173   2.629   2.012  0.7962 -0.6078 -1.0904
 3438SOL     OW21949   3.406   4.367   3.720  0.1079 -0.1755  0.3034
 3438SOL    HW121950   3.485   4.367   3.774 -0.6781 -0.9345  1.4562
 3438SOL    HW221951   3.330   4.399   3.768  1.6962  0.4406  2.4042
 3439SOL     OW21952   4.012   1.204  13.296  0.6959  0.3117 -0.1597
 3439SOL    HW121953   4.105   1.203  13.276  1.4857 -0.0429  3.4889
 3439SOL    HW221954   3.999   1.297  13.314  1.3694  0.6522 -1.4380
 3440SOL     OW21955   1.687   2.038  14.439 -0.8915 -0.3986 -0.2458
 3440SOL    HW121956   1.690   2.131  14.417 -0.2963 -0.0698  1.2267
 3440SOL    HW221957   1.692   2.046  14.535 -1.0650 -1.2364 -0.1677
 3441SOL     OW21958   3.923   3.197   3.233 -0.2736  0.2869  0.0907
 3441SOL    HW121959   3.863   3.123   3.245 -0.8128  0.8871  1.1556
 3441SOL    HW221960   3.968   3.168   3.154 -0.8669 -1.3844  0.3746
 3442SOL     OW21961   4.579   2.327   6.920  0.3419  0.1723  0.3204
 3442SOL    HW121962   4.627   2.296   6.996  0.8900  0.8553  0.2511
 3442SOL    HW221963   4.512   2.259   6.916 -0.4178  0.9932 -0.9812
 3443SOL     OW21964   3.174   0.575   3.319  0.2443 -0.6061  0.2592
 3443SOL    HW121965   3.268   0.576   3.337  0.1194 -0.4056  0.8751
 3443SOL    HW221966   3.141   0.593   3.406 -0.5533  0.5901 -0.3030
 3444SOL     OW21967   1.889   2.063   8.828  0.0770  0.1294 -0.0178
 3444SOL    HW121968   1.892   2.157   8.810  0.8433  0.0595 -0.2486
 3444SOL    HW221969   1.974   2.048   8.869 -0.0469  0.6637  0.4310
 3445SOL     OW21970   2.324   2.393   4.327  0.0100  0.4247  0.0199
 3445SOL    HW121971   2.386   2.358   4.391 -0.9245  0.4198  0.9284
 3445SOL    HW221972   2.351   2.352   4.245  0.7611  1.3993 -0.2178
 3446SOL     OW21973   2.493   1.344   3.373 -0.5066 -0.3267  0.8076
 3446SOL    HW121974   2.581   1.363   3.340 -1.3411  2.4518  0.2053
 3446SOL    HW221975   2.449   1.403   3.312 -0.7324 -2.8440 -1.4543
 3447SOL     OW21976   2.875   1.983   4.407 -0.2700  0.2791  0.2151
 3447SOL    HW121977   2.920   2.050   4.355  0.1417 -0.3562 -0.2616
 3447SOL    HW221978   2.893   1.904   4.356 -1.3023 -0.4600  1.0142
 3448SOL     OW21979   1.507   1.769  14.198  0.3205  0.1600 -0.2701
 3448SOL    HW121980   1.420   1.733  14.182  0.1524 -0.7383  2.6980
 3448SOL    HW221981   1.554   1.744  14.118  1.4078  0.8658  0.1546
 3449SOL     OW21982   0.954   4.265   9.236 -0.1916  0.3039  0.0859
 3449SOL    HW121983   0.975   4.357   9.253 -0.0535  0.0008  1.5689
 3449SOL    HW221984   0.925   4.241   9.325  0.8258  2.7694  1.0704
 3450SOL     OW21985   1.635   4.291   8.406  0.1624 -0.3073 -0.2632
 3450SOL    HW121986   1.715   4.343   8.408 -0.5961  0.8538 -0.5164
 3450SOL    HW221987   1.602   4.297   8.496 -1.0514  0.4549 -0.7588
 3451SOL     OW21988   4.262   1.852  11.439  0.6301  0.0465 -0.4398
 3451SOL    HW121989   4.241   1.851  11.532 -1.4244  1.2954 -0.8960
 3451SOL    HW221990   4.347   1.807  11.437  0.4446 -0.3705  1.4570
 3452SOL     OW21991   2.707   4.322  11.371 -0.3255  0.3772 -0.4358
 3452SOL    HW121992   2.687   4.228  11.366  0.0747  0.4233 -2.9808
 3452SOL    HW221993   2.659   4.350  11.448 -3.3969 -0.3217 -2.1124
 3453SOL     OW21994   0.707   1.905   0.420  0.0694 -0.6195 -0.6943
 3453SOL    HW121995   0.664   1.974   0.472  0.4826  0.6362 -2.0062
 3453SOL    HW221996   0.652   1.831   0.444  0.5487 -0.7159  0.1284
 3454SOL     OW21997   3.349   0.346   8.286  0.6572 -0.3543 -0.7666
 3454SOL    HW121998   3.327   0.418   8.226 -1.4953  1.7765  2.5672
 3454SOL    HW221999   3.284   0.284   8.252  1.7890 -1.0453 -1.6729
 3455SOL     OW22000   3.068   4.670   6.536  0.0734  0.3634 -0.5170
 3455SOL    HW122001   3.143   4.697   6.588  2.2680 -0.5506 -3.2324
 3455SOL    HW222002   3.016   0.008   6.499 -1.1509 -0.2815 -0.0768
 3456SOL     OW22003   3.602   3.977  16.538 -0.2622 -0.3339  0.7253
 3456SOL    HW122004   3.570   4.007  16.624 -0.9651  0.7571  0.0883
 3456SOL    HW222005   3.678   4.032  16.518 -0.4156 -0.0312  0.9611
 3457SOL     OW22006   4.385   0.856   4.441 -0.0856  0.2524 -0.1324
 3457SOL    HW122007   4.396   0.948   4.417 -0.7245  0.4947  0.4901
 3457SOL    HW222008   4.290   0.839   4.439  0.0626 -0.4597 -1.0321
 3458SOL     OW22009   2.449   0.594  12.754  0.2050 -0.3137  0.5591
 3458SOL    HW122010   2.535   0.633  12.743 -1.3900  2.2066 -2.9405
 3458SOL    HW222011   2.395   0.672  12.765  0.7410  0.0990  0.2439
 3459SOL     OW22012   2.025   2.300   1.683 -0.3351  0.5416  0.6460
 3459SOL    HW122013   2.115   2.323   1.663 -0.1202 -0.4628  0.4812
 3459SOL    HW222014   1.976   2.318   1.602 -1.5696 -3.3843  0.5380
 3460SOL     OW22015   0.220   1.811   4.876  0.2033  0.3547 -0.2593
 3460SOL    HW122016   0.267   1.841   4.798 -1.0864 -0.0330 -1.1961
 3460SOL    HW222017   0.166   1.888   4.894  1.5503  1.2607 -0.0758
 3461SOL     OW22018   3.118   0.562   9.327 -0.5622  0.2754  0.2924
 3461SOL    HW122019   3.193   0.552   9.386  1.1646 -1.0389 -2.1211
 3461SOL    HW222020   3.112   0.482   9.275  1.5431  0.9270 -0.9433
 3462SOL     OW22021   1.532   0.553   6.916  0.5191 -0.6063  0.4097
 3462SOL    HW122022   1.490   0.633   6.947  1.5338  0.3518 -0.6837
 3462SOL    HW222023   1.468   0.482   6.924 -0.9078  0.5554 -0.5938
 3463SOL     OW22024   3.911   0.901  11.944  0.3293  0.3854 -0.2162
 3463SOL    HW122025   3.817   0.880  11.943  0.0365  1.6841 -1.3236
 3463SOL    HW222026   3.938   0.872  11.857  2.9845  1.1139  0.3744
 3464SOL     OW22027   2.178   2.529   8.071  0.5362 -0.0297 -0.1776
 3464SOL    HW122028   2.120   2.602   8.051 -0.1149 -0.2654  0.8956
 3464SOL    HW222029   2.227   2.525   7.988  1.4457  0.4940  0.3340
 3465SOL     OW22030   0.512   0.149   2.794 -0.7161  0.8326  0.8007
 3465SOL    HW122031   0.541   0.221   2.850  1.1366  0.3327  0.4729
 3465SOL    HW222032   0.566   0.076   2.825 -1.6339 -0.8853 -1.5847
 3466SOL     OW22033   4.122   4.402   6.327 -0.3562  0.0969 -0.0943
 3466SOL    HW122034   4.176   4.479   6.308 -0.3839  0.4369  1.1913
 3466SOL    HW222035   4.150   4.343   6.258  1.9274  3.0138 -1.6828
 3467SOL     OW22036   0.085   1.695   1.008  0.1123  0.0072 -0.2591
 3467SOL    HW122037   0.060   1.604   0.990  1.5116 -0.0448 -1.8146
 3467SOL    HW222038   0.180   1.699   1.006  0.0101  0.9683 -2.3402
 3468SOL     OW22039   2.142   1.748  12.110  0.1814 -0.3723 -0.3168
 3468SOL    HW122040   2.199   1.815  12.148 -0.0859 -0.1215 -0.3628
 3468SOL    HW222041   2.100   1.808  12.050  0.3033  1.0488  1.0100
 3469SOL     OW22042   2.247   1.865   8.319  0.1634  0.5903  0.0844
 3469SOL    HW122043   2.317   1.929   8.330  0.5173 -0.0252  1.4112
 3469SOL    HW222044   2.305   1.792   8.298 -0.8634 -0.7864  1.9701
 3470SOL     OW22045   0.995   4.315   5.028  0.8130 -0.3215 -0.4236
 3470SOL    HW122046   0.908   4.336   4.995  0.8710 -2.2577 -1.8576
 3470SOL    HW222047   1.050   4.358   4.963 -0.7986  0.8851 -0.9620
 3471SOL     OW22048   0.065   0.541   7.757  0.1582  0.6758 -0.5645
 3471SOL    HW122049   0.085   0.448   7.752  0.6372  0.7063  0.9207
 3471SOL    HW222050   0.068   0.555   7.851  1.0678  2.7420 -0.9131
 3472SOL     OW22051   0.890   4.398   6.939  0.0334 -1.1186 -0.0693
 3472SOL    HW122052   0.884   4.466   6.872 -0.1906 -0.4562  0.6169
 3472SOL    HW222053   0.927   4.452   7.010  1.9005 -2.3764 -0.0697
 3473SOL     OW22054   3.889   2.457   0.173  0.0025 -0.0775 -0.4097
 3473SOL    HW122055   3.874   2.526   0.238 -2.7509  1.7254 -2.9156
 3473SOL    HW222056   3.930   2.385   0.220 -0.2257 -0.3445 -0.6189
 3474SOL     OW22057   4.410   0.753   1.519  0.4473  0.0144  0.5127
 3474SOL    HW122058   4.377   0.665   1.501 -2.7578  1.2986  0.1498
 3474SOL    HW222059   4.490   0.753   1.467 -0.7094  1.0623 -1.2422
 3475SOL     OW22060   2.594   3.646   2.045 -0.1212 -0.5843  0.1055
 3475SOL    HW122061   2.626   3.659   1.955 -0.1048  1.9240  0.4804
 3475SOL    HW222062   2.503   3.618   2.034 -0.5137 -0.3327  2.6893
 3476SOL     OW22063   1.111   4.689   3.711  0.1347 -0.3828 -0.6271
 3476SOL    HW122064   1.148   4.641   3.636 -1.9084 -1.3253 -1.0372
 3476SOL    HW222065   1.022   4.654   3.723  0.5816 -0.9510  0.9048
 3477SOL     OW22066   1.322   1.249   9.625  0.2223  0.3295 -0.5645
 3477SOL    HW122067   1.262   1.221   9.693 -0.5118  1.7320 -0.6545
 3477SOL    HW222068   1.317   1.174   9.565  2.8067  0.2171 -0.6405
 3478SOL     OW22069   1.281   2.200  11.638 -0.0666 -0.0245 -0.5458
 3478SOL    HW122070   1.218   2.264  11.605 -0.0159  0.5144  0.4167
 3478SOL    HW222071   1.354   2.222  11.580  2.5179 -0.5323  2.5216
 3479SOL     OW22072   2.406   2.679   1.222 -0.0653 -0.9014 -0.0246
 3479SOL    HW122073   2.482   2.650   1.171  0.2163 -0.6100  0.2291
 3479SOL    HW222074   2.401   2.607   1.284  1.3848  1.4277  2.7745
 3480SOL     OW22075   0.554   2.807  14.872 -0.7530 -0.0323 -0.2796
 3480SOL    HW122076   0.539   2.732  14.930  2.6685 -0.2387  0.3567
 3480SOL    HW222077   0.556   2.863  14.950  0.1130 -1.5765  0.8057
 3481SOL     OW22078   2.170   2.971   6.886 -0.1766  0.0904  0.0226
 3481SOL    HW122079   2.242   2.955   6.946  0.5328 -1.7172 -1.2988
 3481SOL    HW222080   2.196   2.940   6.799  3.0805  0.9773  0.6720
 3482SOL     OW22081   3.067   1.904   6.722 -0.3902 -0.0195 -0.0446
 3482SOL    HW122082   3.134   1.859   6.774 -2.0824 -0.3124  1.8932
 3482SOL    HW222083   3.015   1.938   6.795 -0.8319 -1.2215  0.1964
 3483SOL     OW22084   4.370   2.046  15.270  0.3673 -0.2034 -0.4195
 3483SOL    HW122085   4.313   1.975  15.240 -2.4218  1.5053  0.8115
 3483SOL    HW222086   4.320   2.081  15.344  0.7971 -0.7352  0.1230
 3484SOL     OW22087   4.399   4.538   8.539  0.5347  0.3208 -0.1206
 3484SOL    HW122088   4.343   4.477   8.586 -0.6331 -1.0636 -3.3149
 3484SOL    HW222089   4.379   4.624   8.576 -3.0879  0.1888 -1.8483
 3485SOL     OW22090   1.868   2.700   8.380  0.2262  0.5059 -0.1441
 3485SOL    HW122091   1.783   2.739   8.402  0.9008  1.7087  0.3004
 3485SOL    HW222092   1.864   2.739   8.292 -0.5388 -0.6374 -0.6237
 3486SOL     OW22093   4.086   1.275   5.296  0.7872  0.6561 -0.0926
 3486SOL    HW122094   4.153   1.344   5.289  0.6617  0.8379  0.5207
 3486SOL    HW222095   4.010   1.316   5.255 -0.6644 -1.7850  0.1450
 3487SOL     OW22096   1.514   1.458   4.708 -0.3259 -0.3796 -0.2390
 3487SOL    HW122097   1.514   1.492   4.619  1.2861  1.9312  0.6254
 3487SOL    HW222098   1.422   1.467   4.731  0.1179 -1.0129  1.8111
 3488SOL     OW22099   3.491   3.864  16.061  0.7018  0.0519 -0.6242
 3488SOL    HW122100   3.436   3.928  16.104 -2.7901 -3.6470  0.3596
 3488SOL    HW222101   3.452   3.857  15.974 -0.8934 -2.6997  0.3291
 3489SOL     OW22102   3.105   4.566   8.211  0.0269 -0.2029 -0.1430
 3489SOL    HW122103   3.037   4.571   8.144 -0.5712  0.7020  0.5311
 3489SOL    HW222104   3.183   4.548   8.159 -0.2134  1.7931 -1.1581
 3490SOL     OW22105   2.963   2.401   8.434 -0.1829 -0.6498  0.3344
 3490SOL    HW122106   3.029   2.431   8.371  0.0964  1.1218  1.4737
 3490SOL    HW222107   2.880   2.440   8.405  0.1361 -0.9932 -1.0484
 3491SOL     OW22108   3.528   1.780   1.598 -0.1163 -0.0853 -0.4615
 3491SOL    HW122109   3.563   1.774   1.687 -2.0907 -0.1787  0.3184
 3491SOL    HW222110   3.583   1.712   1.559  2.4350  0.2765  2.4608
 3492SOL     OW22111   1.559   0.464   7.723  0.1997 -0.3285  0.3013
 3492SOL    HW122112   1.570   0.520   7.799 -1.8115 -0.3111  0.5926
 3492SOL    HW222113   1.533   0.390   7.778  1.8727  0.4074  2.0517
 3493SOL     OW22114   0.741   1.545   9.036 -0.2071  0.6332  0.8089
 3493SOL    HW122115   0.676   1.507   8.976 -0.7192 -0.0692  1.8091
 3493SOL    HW222116   0.796   1.467   9.038  0.9098  1.4139  0.4108
 3494SOL     OW22117   1.946   3.244   6.524 -0.2238 -0.2307 -0.1187
 3494SOL    HW122118   1.870   3.280   6.477 -1.1781 -0.9731  0.8646
 3494SOL    HW222119   1.910   3.199   6.600  0.6510 -1.8554 -0.6690
 3495SOL     OW22120   0.954   3.470   5.071  0.3629  0.3987  0.4477
 3495SOL    HW122121   0.884   3.405   5.063 -0.5569  1.5126 -0.6148
 3495SOL    HW222122   0.903   3.545   5.103  0.5486  1.2518 -1.2590
 3496SOL     OW22123   0.507   1.336  16.715  0.2118 -0.0648 -0.7184
 3496SOL    HW122124   0.448   1.409  16.731 -0.2720 -0.8297  1.0474
 3496SOL    HW222125   0.506   1.295  16.801 -0.4005 -0.8574 -1.1006
 3497SOL     OW22126   2.096   0.504   8.926 -0.1862 -0.4771  0.4935
 3497SOL    HW122127   2.081   0.589   8.967 -1.4291 -0.2274 -0.4774
 3497SOL    HW222128   2.104   0.445   9.001  2.0524 -1.0004 -0.1295
 3498SOL     OW22129   1.335   2.460   2.390  0.1531  0.0141 -0.3084
 3498SOL    HW122130   1.283   2.529   2.351 -1.5875  0.0112  2.0520
 3498SOL    HW222131   1.316   2.396   2.321 -1.9738 -0.2358  0.5177
 3499SOL     OW22132   3.524   2.369   7.181 -0.2473 -0.7927  0.0503
 3499SOL    HW122133   3.499   2.446   7.233  0.8209  0.2994 -1.0705
 3499SOL    HW222134   3.617   2.390   7.171 -1.0517  2.2484 -1.0588
 3500SOL     OW22135   3.682   0.608   8.490  0.2824 -0.5319  0.6349
 3500SOL    HW122136   3.736   0.657   8.552  1.5004  0.1366 -0.9414
 3500SOL    HW222137   3.733   0.529   8.471 -0.1082 -0.3995 -0.9496
 3501SOL     OW22138   0.088   1.757   7.754  0.2022 -0.3811 -0.0533
 3501SOL    HW122139   0.038   1.807   7.690  0.2091  0.6506  0.7441
 3501SOL    HW222140   0.169   1.745   7.704  1.9537  5.0505  1.4528
 3502SOL     OW22141   2.362   1.730   7.563 -0.2228 -0.2050 -0.1283
 3502SOL    HW122142   2.284   1.726   7.619 -0.4128 -0.9950 -0.4516
 3502SOL    HW222143   2.381   1.638   7.547  0.8810 -0.0835  0.4499
 3503SOL     OW22144   4.128   4.169   9.095  0.0169 -0.4660  0.1944
 3503SOL    HW122145   4.066   4.111   9.051 -0.1243 -0.2854  0.1578
 3503SOL    HW222146   4.078   4.236   9.141 -1.8893 -0.8104 -1.4098
 3504SOL     OW22147   3.859   4.034   4.155  0.3125  0.1731 -1.0842
 3504SOL    HW122148   3.832   4.077   4.236 -0.1999 -3.3847  0.6190
 3504SOL    HW222149   3.798   3.960   4.149 -0.9942  1.0260  1.5173
 3505SOL     OW22150   2.970   1.303   0.529  0.2066 -0.0870  0.0035
 3505SOL    HW122151   2.967   1.336   0.439 -2.2403 -0.3290 -0.0138
 3505SOL    HW222152   2.913   1.227   0.533  0.7096 -0.5192 -1.0831
 3506SOL     OW22153   4.138   1.942  14.299 -0.3006  0.2807  0.5615
 3506SOL    HW122154   4.133   2.004  14.373 -2.6980  0.6669  0.0811
 3506SOL    HW222155   4.233   1.928  14.297 -0.6761 -1.8473 -1.0874
 3507SOL     OW22156   2.363   1.938   3.423 -0.1667 -0.7228  0.2926
 3507SOL    HW122157   2.279   1.895   3.438  0.2976 -0.3332  4.1173
 3507SOL    HW222158   2.340   1.971   3.336 -1.6692 -1.0152  0.5761
 3508SOL     OW22159   0.684   4.525   9.477 -0.2631  0.2014  0.0631
 3508SOL    HW122160   0.719   4.573   9.403 -1.6083 -0.1712 -0.8175
 3508SOL    HW222161   0.711   4.577   9.553  1.1504 -1.0128  0.3872
 3509SOL     OW22162   1.913   4.505   9.153  0.0277 -0.7507  0.5020
 3509SOL    HW122163   1.833   4.556   9.164  0.3833  0.1345 -1.0019
 3509SOL    HW222164   1.969   4.558   9.097  1.5509 -1.6735  1.1575
 3510SOL     OW22165   4.159   1.275   6.953  0.3229  0.0990  0.3470
 3510SOL    HW122166   4.237   1.220   6.949 -0.4504 -0.8834 -1.5616
 3510SOL    HW222167   4.161   1.322   7.036 -1.4130  0.0996  0.4027
 3511SOL     OW22168   1.995   1.862   5.130 -0.8867  0.8207  0.0997
 3511SOL    HW122169   2.005   1.843   5.037 -2.7869  1.4418 -0.2406
 3511SOL    HW222170   2.056   1.935   5.139  2.0541 -1.8200  1.3869
 3512SOL     OW22171   3.044   2.430   6.278 -0.4185 -0.0443  0.8499
 3512SOL    HW122172   3.111   2.365   6.296 -0.2015 -0.3271 -0.9789
 3512SOL    HW222173   3.068   2.498   6.341  0.1623  1.7490 -1.3011
 3513SOL     OW22174   1.338   3.210   6.121 -0.5011 -0.0803 -0.3050
 3513SOL    HW122175   1.372   3.149   6.056 -1.5603 -1.4584  0.4400
 3513SOL    HW222176   1.333   3.281   6.058 -3.1905 -0.3712 -0.3912
 3514SOL     OW22177   4.093   0.124  12.575  0.2060 -0.6583  0.9376
 3514SOL    HW122178   4.033   0.049  12.578 -0.2753 -0.3494 -0.8416
 3514SOL    HW222179   4.067   0.159  12.490  0.3842  0.0888  1.1908
 3515SOL     OW22180   1.599   3.374   8.829  0.0485 -0.2909  0.2403
 3515SOL    HW122181   1.586   3.306   8.763  0.6250  0.9327 -1.1383
 3515SOL    HW222182   1.608   3.452   8.774 -0.7210 -1.4052 -1.4812
 3516SOL     OW22183   2.269   3.555   3.704 -0.2488  0.4188  0.3454
 3516SOL    HW122184   2.215   3.558   3.625  0.7532 -0.6516 -0.3799
 3516SOL    HW222185   2.217   3.508   3.769  1.3033 -1.4466  0.2388
 3517SOL     OW22186   0.078   2.235   6.497  0.2519  0.7091  0.0613
 3517SOL    HW122187   0.084   2.256   6.404  0.2397  0.8013  0.0806
 3517SOL    HW222188   4.718   2.243   6.503  0.0640 -1.1984 -0.4022
 3518SOL     OW22189   1.782   4.017   8.316  0.3057  0.3973  0.0667
 3518SOL    HW122190   1.727   4.087   8.281  1.8536  0.9713 -1.2380
 3518SOL    HW222191   1.720   3.960   8.361  1.6143 -0.3128  0.9693
 3519SOL     OW22192   1.700   0.725   6.125  0.3941 -0.4074 -0.1046
 3519SOL    HW122193   1.645   0.749   6.050  1.9473 -0.8587 -1.4114
 3519SOL    HW222194   1.726   0.811   6.157 -2.1270 -0.2779  1.5453
 3520SOL     OW22195   3.850   2.366   3.600  0.3530  0.1395  0.2881
 3520SOL    HW122196   3.842   2.456   3.568  0.9465  0.3742  0.8121
 3520SOL    HW222197   3.774   2.320   3.565 -1.4774  1.7796  2.0811
 3521SOL     OW22198   2.964   2.051   2.067  0.2626 -0.2092  0.4704
 3521SOL    HW122199   2.904   1.981   2.094  0.7084 -0.2266  1.4450
 3521SOL    HW222200   2.904   2.091   2.004  2.3845 -1.4490 -2.2908
 3522SOL     OW22201   0.735   0.487   4.444 -0.0517 -0.1804  0.0966
 3522SOL    HW122202   0.764   0.472   4.534 -2.2037  0.3822  0.8786
 3522SOL    HW222203   0.810   0.450   4.397  0.0011 -0.8369  0.6880
 3523SOL     OW22204   3.309   2.052  16.061 -0.6824  0.3480 -0.3690
 3523SOL    HW122205   3.261   2.126  16.097 -1.2007  0.8597 -2.1001
 3523SOL    HW222206   3.233   1.997  16.041 -0.6523  1.2070 -2.8768
 3524SOL     OW22207   2.782   3.953   8.289  0.5102  0.4609  0.4115
 3524SOL    HW122208   2.832   4.019   8.241 -2.5690 -0.4894 -4.1227
 3524SOL    HW222209   2.720   4.019   8.318  1.8926  1.8300  0.2792
 3525SOL     OW22210   3.520   2.094   8.489 -0.3551  0.3567 -0.2773
 3525SOL    HW122211   3.489   2.086   8.399 -0.3368  1.8283 -0.4178
 3525SOL    HW222212   3.598   2.145   8.469 -0.2000  0.3149  0.2164
 3526SOL     OW22213   2.402   0.517  10.698 -0.0782  0.3442 -0.3038
 3526SOL    HW122214   2.497   0.506  10.693  0.1112  1.1116  1.7240
 3526SOL    HW222215   2.380   0.466  10.620  2.4417 -4.1668  1.9349
 3527SOL     OW22216   3.561   3.111   2.381  0.0226  0.0432  0.0942
 3527SOL    HW122217   3.465   3.120   2.383  0.0266  0.1325 -0.1010
 3527SOL    HW222218   3.563   3.039   2.444 -0.2863  0.4841  0.6087
 3528SOL     OW22219   4.561   2.551   3.436 -0.1399  0.0827 -0.3001
 3528SOL    HW122220   4.644   2.554   3.390  0.1225  1.3904  0.2536
 3528SOL    HW222221   4.563   2.465   3.478  0.1815 -0.1171 -0.7314
 3529SOL     OW22222   0.588   3.917   0.905 -0.8457 -0.3589  0.6015
 3529SOL    HW122223   0.524   3.892   0.971  0.8727  0.1271  2.4218
 3529SOL    HW222224   0.668   3.896   0.953 -1.1074 -0.4917  0.9779
 3530SOL     OW22225   0.847   3.060   6.705  0.3590 -0.0388 -0.2253
 3530SOL    HW122226   0.927   3.061   6.757  0.6071  0.1205 -0.6047
 3530SOL    HW222227   0.864   2.979   6.655  2.0036 -0.9405  1.8095
 3531SOL     OW22228   4.413   3.475   7.080 -0.3444 -0.2430 -0.2436
 3531SOL    HW122229   4.420   3.453   6.987 -1.1473  1.7070 -0.7565
 3531SOL    HW222230   4.322   3.503   7.090 -0.0402  0.0816  1.6082
 3532SOL     OW22231   4.490   0.959   1.668 -0.5338 -0.1278  0.0155
 3532SOL    HW122232   4.484   0.865   1.652 -0.4401 -0.1430  0.0710
 3532SOL    HW222233   4.404   0.994   1.643 -0.8201 -1.4656 -0.8855
 3533SOL     OW22234   0.911   1.972  17.529  0.0227 -0.2774  0.0596
 3533SOL    HW122235   0.986   2.029  17.511  0.8942 -0.1279  4.2389
 3533SOL    HW222236   0.940   1.905  17.467 -0.7684 -0.9077  0.3871
 3534SOL     OW22237   1.276   1.522   5.352 -0.5220  0.0057  0.4740
 3534SOL    HW122238   1.239   1.454   5.409  0.6379  0.5618  1.8980
 3534SOL    HW222239   1.370   1.506   5.354 -0.7259 -1.3572 -0.6730
 3535SOL     OW22240   1.415   0.685   2.368 -0.7927  0.2958  0.2803
 3535SOL    HW122241   1.413   0.607   2.422 -1.2639  0.5390  0.6225
 3535SOL    HW222242   1.336   0.673   2.315 -0.3985 -2.4685  0.3151
 3536SOL     OW22243   1.183   1.762   8.925 -0.1757  0.2187 -0.3813
 3536SOL    HW122244   1.223   1.679   8.900 -0.2204  0.0867 -0.0068
 3536SOL    HW222245   1.236   1.791   8.999 -2.8426  1.4510  1.0406
 3537SOL     OW22246   2.884   3.115   4.733  0.2868  0.2357  0.4033
 3537SOL    HW122247   2.857   3.027   4.707 -0.4573 -0.2515  2.8188
 3537SOL    HW222248   2.911   3.167   4.657  0.9267 -1.1433 -0.3161
 3538SOL     OW22249   2.892   1.800  15.930  0.7471  0.1653  1.2780
 3538SOL    HW122250   2.947   1.840  15.862 -1.5231  0.3392 -0.4743
 3538SOL    HW222251   2.917   1.708  15.925 -2.4914 -0.6331 -0.0012
 3539SOL     OW22252   0.771   4.678   9.677 -0.2486 -0.8671  0.2277
 3539SOL    HW122253   0.799   0.025   9.636 -1.7506 -0.7209 -0.5218
 3539SOL    HW222254   0.819   4.673   9.759 -0.6603  0.5176  0.5655
 3540SOL     OW22255   1.357   3.781   6.892 -0.2950  0.4167 -0.2703
 3540SOL    HW122256   1.308   3.859   6.919 -2.1092 -1.0935  0.7366
 3540SOL    HW222257   1.397   3.756   6.975  1.2951 -0.2841 -1.2664
 3541SOL     OW22258   4.221   3.819   9.665  0.5563 -0.1537  0.9417
 3541SOL    HW122259   4.246   3.792   9.577  0.9478 -1.8330  1.5569
 3541SOL    HW222260   4.305   3.804   9.709  0.4298 -2.0778  0.5138
 3542SOL     OW22261   3.150   2.810   3.877  0.2117 -0.4685 -0.1351
 3542SOL    HW122262   3.200   2.798   3.796  2.5762 -1.8428  1.5711
 3542SOL    HW222263   3.130   2.904   3.873 -0.1436 -0.6070 -1.7742
 3543SOL     OW22264   2.798   3.009   7.737 -0.2929  0.0005  0.3985
 3543SOL    HW122265   2.787   3.060   7.817  0.4133 -0.1761  0.6030
 3543SOL    HW222266   2.710   2.988   7.706 -0.3168 -1.4713  1.5005
 3544SOL     OW22267   0.011   4.036   4.310 -0.7489  0.4006  0.0021
 3544SOL    HW122268   4.672   4.097   4.315 -1.6090 -0.7559  1.4903
 3544SOL    HW222269   0.082   4.097   4.288 -0.6872 -0.1925 -1.4414
 3545SOL     OW22270   3.869   3.462   9.167  0.3947  0.2783  0.3443
 3545SOL    HW122271   3.853   3.368   9.165 -0.8560  0.4653  2.2801
 3545SOL    HW222272   3.776   3.480   9.180  0.4619 -1.1884  2.7963
 3546SOL     OW22273   0.530   0.022  15.754  0.3066 -0.1385  0.2230
 3546SOL    HW122274   0.619   4.727  15.736 -0.7855 -3.2615 -0.1168
 3546SOL    HW222275   0.482   4.679  15.724 -0.1668  0.5392 -0.7820
 3547SOL     OW22276   2.122   0.330   1.676  0.3283  0.0243  0.7091
 3547SOL    HW122277   2.152   0.408   1.629 -0.2827  0.9835  1.9005
 3547SOL    HW222278   2.141   0.263   1.611 -0.1018  0.7790 -0.2024
 3548SOL     OW22279   2.231   3.155   3.916  0.3973 -0.5876  0.2097
 3548SOL    HW122280   2.196   3.236   3.879  1.5100 -0.2472 -0.0914
 3548SOL    HW222281   2.161   3.100   3.880 -1.5583  0.4183  2.5325
 3549SOL     OW22282   2.911   0.180   6.535  0.4032 -0.0895 -0.4660
 3549SOL    HW122283   2.963   0.232   6.474 -0.4412  1.2021 -0.0872
 3549SOL    HW222284   2.921   0.237   6.612 -1.6211  1.4459 -1.3535
 3550SOL     OW22285   4.458   4.338  16.207 -0.2148  0.1599 -0.3561
 3550SOL    HW122286   4.438   4.258  16.256 -0.6228  0.3353 -0.2335
 3550SOL    HW222287   4.458   4.302  16.118 -1.4180  1.6961 -0.9654
 3551SOL     OW22288   0.405   1.899  14.799  0.4395 -0.2351  0.1700
 3551SOL    HW122289   0.374   1.918  14.710 -0.7037 -0.5195  0.5012
 3551SOL    HW222290   0.456   1.980  14.799 -0.5049  0.3677  2.0953
 3552SOL     OW22291   0.922   2.683  17.717  0.3282 -0.0148 -0.2149
 3552SOL    HW122292   0.945   2.630   0.055  0.6305  0.8098  0.2807
 3552SOL    HW222293   1.005   2.731  17.709  0.7124 -0.7265 -0.4461
 3553SOL     OW22294   4.467   0.145   6.751  0.0761  0.0175 -0.1583
 3553SOL    HW122295   4.541   0.139   6.689  1.5860  0.7925  1.5646
 3553SOL    HW222296   4.456   0.057   6.786 -1.6160 -0.3213 -1.5418
 3554SOL     OW22297   4.001   0.575   6.674 -0.3870  0.2365 -0.1240
 3554SOL    HW122298   4.068   0.513   6.701 -0.0139  0.4316 -0.6063
 3554SOL    HW222299   4.041   0.662   6.673 -1.9138  0.9233 -1.2400
 3555SOL     OW22300   1.361   1.637   4.245 -0.7183  0.2364  0.0910
 3555SOL    HW122301   1.400   1.724   4.238  0.1817 -0.3382 -2.1416
 3555SOL    HW222302   1.297   1.630   4.174  0.3499  1.0897 -0.9632
 3556SOL     OW22303   2.693   3.571   8.997 -0.1593 -0.2920 -0.1998
 3556SOL    HW122304   2.745   3.526   9.064 -0.5408  3.6162  2.7229
 3556SOL    HW222305   2.610   3.561   9.043  0.1248 -1.3528  0.0832
 3557SOL     OW22306   3.248   3.064   2.874 -0.5455  0.7649 -0.1268
 3557SOL    HW122307   3.168   3.106   2.842 -1.1786 -1.7315 -1.8321
 3557SOL    HW222308   3.306   3.069   2.799 -0.3527 -2.1833 -0.1669
 3558SOL     OW22309   3.615   0.068   5.623  0.4267 -0.6187  0.0363
 3558SOL    HW122310   3.604   0.027   5.709  0.1521  0.7070  0.6203
 3558SOL    HW222311   3.546   0.024   5.573 -0.9964  0.4307  1.0870
 3559SOL     OW22312   2.203   2.226  15.734  0.2919  0.3840 -0.2934
 3559SOL    HW122313   2.194   2.259  15.824  0.1926  0.2162 -0.2421
 3559SOL    HW222314   2.266   2.155  15.747 -1.9308 -1.7149 -1.0108
 3560SOL     OW22315   3.153   0.158  12.557 -0.8383  0.4192 -0.3072
 3560SOL    HW122316   3.237   0.151  12.603  0.5196 -2.4110 -3.1945
 3560SOL    HW222317   3.180   0.103  12.483 -1.6244  0.3165 -0.5169
 3561SOL     OW22318   2.435   0.723  15.302  0.2502  0.3295  0.4663
 3561SOL    HW122319   2.361   0.674  15.265  0.3204 -0.0200  0.7796
 3561SOL    HW222320   2.496   0.653  15.325 -2.1520 -1.3589  1.8334
 3562SOL     OW22321   0.913   2.345   1.811 -0.2373  0.2985 -0.4195
 3562SOL    HW122322   0.914   2.249   1.820 -0.7805  0.4266  1.0491
 3562SOL    HW222323   1.002   2.362   1.779 -1.0109  2.4771 -1.4046
 3563SOL     OW22324   3.942   2.377   5.159  0.1805 -0.0508  0.0815
 3563SOL    HW122325   3.937   2.303   5.220  2.3668 -0.4133 -0.1920
 3563SOL    HW222326   4.012   2.425   5.203 -0.5079  2.2045 -1.3094
 3564SOL     OW22327   0.853   3.569   1.415 -0.1764  0.3559  0.0354
 3564SOL    HW122328   0.869   3.661   1.397 -0.5814 -0.0954 -2.6088
 3564SOL    HW222329   0.806   3.537   1.338  0.6652  0.9504 -0.7183
 3565SOL     OW22330   1.380   2.790  11.084  0.0964 -0.9273  0.3351
 3565SOL    HW122331   1.308   2.727  11.086 -2.6507  2.1915 -0.3041
 3565SOL    HW222332   1.397   2.798  11.178  0.0555 -0.1332  0.2767
 3566SOL     OW22333   1.602   1.185   1.965 -0.4292 -0.2023 -0.7340
 3566SOL    HW122334   1.598   1.235   1.884  0.9661  1.5920  0.3033
 3566SOL    HW222335   1.521   1.139   1.941 -0.2031 -1.3163  0.6587
 3567SOL     OW22336   3.240   0.715   4.671  0.1179  0.0256 -1.0083
 3567SOL    HW122337   3.217   0.804   4.699  0.0280 -0.0684 -0.7832
 3567SOL    HW222338   3.329   0.706   4.704  0.1607 -1.1270 -1.4181
 3568SOL     OW22339   0.059   1.969   2.576  0.6249  0.1525  0.3026
 3568SOL    HW122340   0.095   1.969   2.487 -1.8649  1.2236 -0.6879
 3568SOL    HW222341   0.131   1.921   2.618 -1.8198 -2.3879  1.5633
 3569SOL     OW22342   2.052   0.357   4.650  0.4668 -0.3364  0.0778
 3569SOL    HW122343   2.134   0.336   4.606 -1.1045 -2.1426 -2.0053
 3569SOL    HW222344   1.991   0.327   4.583  1.5351 -1.1602 -0.5207
 3570SOL     OW22345   4.658   2.005   1.233 -0.5092 -0.0813  0.2455
 3570SOL    HW122346   4.598   1.952   1.285 -1.6900  2.7904  1.8202
 3570SOL    HW222347   0.008   1.973   1.265 -2.0340 -3.0641  1.2358
 3571SOL     OW22348   2.607   0.221  17.527  0.5469  0.0638  0.4163
 3571SOL    HW122349   2.667   0.264  17.587  1.6736 -1.8275  0.6415
 3571SOL    HW222350   2.520   0.239  17.562  1.1691  1.4724  1.2249
 3572SOL     OW22351   0.396   2.883   5.334  0.0929 -0.1104 -0.0489
 3572SOL    HW122352   0.461   2.824   5.372 -1.3476 -2.3523 -1.1287
 3572SOL    HW222353   0.430   2.972   5.348 -0.2926  0.3303 -1.9548
 3573SOL     OW22354   1.221   4.444   7.640  0.0158  0.3714 -0.3556
 3573SOL    HW122355   1.262   4.443   7.727 -0.6359  0.7553 -0.0476
 3573SOL    HW222356   1.265   4.375   7.590  0.9845 -0.6330  1.8456
 3574SOL     OW22357   1.535   0.104   7.334 -0.0561  0.3371 -0.0585
 3574SOL    HW122358   1.519   0.193   7.364 -1.9748  0.0672 -0.3293
 3574SOL    HW222359   1.501   0.049   7.404 -0.4408  1.0269  0.2902
 3575SOL     OW22360   2.083   1.714  16.570 -0.1056  0.5761  0.8394
 3575SOL    HW122361   2.067   1.625  16.601 -1.0193  0.0174 -1.2546
 3575SOL    HW222362   1.996   1.755  16.562 -1.3819 -1.9695  1.7412
 3576SOL     OW22363   3.458   1.244   6.406 -0.0451 -0.0507 -0.3492
 3576SOL    HW122364   3.522   1.307   6.439 -0.9525 -0.2815  1.8523
 3576SOL    HW222365   3.499   1.159   6.421  1.2164  0.7011  0.3982
 3577SOL     OW22366   3.307   0.107  12.175  0.1000  0.0744  0.0867
 3577SOL    HW122367   3.338   0.159  12.100  0.2369 -0.9829 -0.5931
 3577SOL    HW222368   3.338   0.023  12.139 -1.6858 -0.4609 -0.1746
 3578SOL     OW22369   1.943   3.199   5.244 -0.5089 -0.2344 -0.0933
 3578SOL    HW122370   2.018   3.141   5.229  0.1088  0.8702 -1.2731
 3578SOL    HW222371   1.977   3.285   5.219 -0.4929  0.0902  1.0469
 3579SOL     OW22372   1.169   3.055   6.568 -0.2118  0.4837 -0.6090
 3579SOL    HW122373   1.125   3.043   6.484 -0.1636 -2.0555 -0.2547
 3579SOL    HW222374   1.223   2.977   6.578 -0.1014  0.4818 -1.2394
 3580SOL     OW22375   2.255   3.136   7.254  0.3162 -0.4789  0.7628
 3580SOL    HW122376   2.218   3.064   7.203 -2.7148  1.0310  0.8543
 3580SOL    HW222377   2.335   3.093   7.283  2.1234  1.4499 -1.4166
 3581SOL     OW22378   1.728   2.131   8.174  0.5083 -0.4658  0.3525
 3581SOL    HW122379   1.808   2.179   8.191  0.6176 -0.6557  0.3678
 3581SOL    HW222380   1.664   2.156   8.240 -1.4259 -0.3557 -1.5311
 3582SOL     OW22381   0.816   1.684   2.065 -0.9297  0.2861  0.7383
 3582SOL    HW122382   0.730   1.712   2.033 -1.0385 -0.2778  0.5424
 3582SOL    HW222383   0.801   1.590   2.074 -0.7622  0.3792  1.9943
 3583SOL     OW22384   2.181   1.156   8.460  0.4338  0.0412 -0.1335
 3583SOL    HW122385   2.270   1.122   8.471 -0.0576 -1.4405 -0.7909
 3583SOL    HW222386   2.177   1.229   8.522 -0.5499 -1.2969  1.3928
 3584SOL     OW22387   0.210   0.344   5.818 -0.0056  0.4421  0.1244
 3584SOL    HW122388   0.200   0.382   5.906  2.4215  2.5390 -0.4853
 3584SOL    HW222389   0.284   0.395   5.785  0.8389 -1.4682 -0.9440
 3585SOL     OW22390   3.078   4.143   7.585  0.4089  1.5230 -0.3738
 3585SOL    HW122391   3.038   4.229   7.578 -0.7743  0.8269 -2.0873
 3585SOL    HW222392   3.044   4.102   7.506 -2.7632 -1.8303  2.7194
 3586SOL     OW22393   2.416   4.685   8.879 -0.0411 -0.0073 -0.5033
 3586SOL    HW122394   2.486   4.660   8.818 -0.9769  1.9601 -2.3536
 3586SOL    HW222395   2.468   4.702   8.958 -1.3189  0.9085  0.1427
 3587SOL     OW22396   1.493   4.440   6.884  0.7480 -0.9157  0.3927
 3587SOL    HW122397   1.470   4.533   6.891 -0.3158 -1.1227 -0.4894
 3587SOL    HW222398   1.560   4.426   6.951 -0.7795  2.2529  2.6169
 3588SOL     OW22399   4.579   1.660  15.094 -0.2284  0.0308  0.0176
 3588SOL    HW122400   4.586   1.624  15.182 -1.3262  1.5510  0.7415
 3588SOL    HW222401   4.666   1.699  15.085 -0.7758  0.7508 -2.3230
 3589SOL     OW22402   0.834   2.032   6.437  0.0493  0.3367 -0.2763
 3589SOL    HW122403   0.786   2.065   6.362 -1.3432  0.5810  0.7201
 3589SOL    HW222404   0.924   2.050   6.410  1.2546 -1.8269  2.1691
 3590SOL     OW22405   3.524   3.071  13.571 -0.1847  0.0468 -0.2752
 3590SOL    HW122406   3.496   3.162  13.581  5.1411  1.4613  1.8111
 3590SOL    HW222407   3.618   3.085  13.585 -0.3136  0.1113  0.5075
 3591SOL     OW22408   2.542   4.510   5.528  0.7677 -0.0217 -0.2210
 3591SOL    HW122409   2.620   4.483   5.576 -0.2794  0.4185  1.6924
 3591SOL    HW222410   2.590   4.557   5.459  0.7032  1.0052  0.4527
 3592SOL     OW22411   4.090   0.124   5.248 -0.1344  1.0810 -0.0572
 3592SOL    HW122412   4.139   0.199   5.214  0.6244  0.5253 -0.1858
 3592SOL    HW222413   4.018   0.122   5.185  1.7098 -2.6959 -2.0432
 3593SOL     OW22414   3.363   2.864   4.155 -0.1111  0.2441  0.0613
 3593SOL    HW122415   3.280   2.869   4.108 -0.7539  0.2233  1.1817
 3593SOL    HW222416   3.339   2.841   4.245  0.0227 -1.2027 -0.2666
 3594SOL     OW22417   0.317   0.232   5.113 -0.0923  0.3851  0.4419
 3594SOL    HW122418   0.378   0.301   5.140  0.5636 -0.3620  0.9080
 3594SOL    HW222419   0.381   0.161   5.128  0.7667  1.1642  0.4904
 3595SOL     OW22420   2.778   1.646   4.601 -0.3948  0.4307  0.3656
 3595SOL    HW122421   2.786   1.695   4.683  1.1113  0.8039 -0.0045
 3595SOL    HW222422   2.855   1.589   4.601  2.2998  4.0328  1.2502
 3596SOL     OW22423   2.132   1.462   3.038 -0.4195  0.2457  0.2458
 3596SOL    HW122424   2.210   1.429   3.083 -0.6807  1.3818  1.5342
 3596SOL    HW222425   2.158   1.549   3.008  1.8245 -0.5326 -0.0184
 3597SOL     OW22426   2.609   3.687  13.818 -0.2262  0.7943  0.3649
 3597SOL    HW122427   2.588   3.637  13.739  1.0534  0.1110  0.4549
 3597SOL    HW222428   2.553   3.644  13.882 -0.8012 -0.8725 -1.2493
 3598SOL     OW22429   4.016   2.295   6.054 -0.1062 -0.1007 -0.0172
 3598SOL    HW122430   4.003   2.200   6.057  1.8539 -0.3836 -0.3548
 3598SOL    HW222431   3.946   2.327   5.997  1.2695 -2.6821 -3.1756
 3599SOL     OW22432   1.665   2.878  10.027  0.7945  0.7430  0.4326
 3599SOL    HW122433   1.597   2.865  10.094  0.0816 -0.9308 -0.6201
 3599SOL    HW222434   1.639   2.962   9.989 -0.0427  0.7182  0.9352
 3600SOL     OW22435   0.109   2.065   0.594 -0.2049  0.4018  0.2688
 3600SOL    HW122436   0.112   2.015   0.512  0.9926  2.1094 -0.7209
 3600SOL    HW222437   0.116   1.995   0.660  0.7023 -0.1414 -0.3978
 3601SOL     OW22438   0.919   1.283   5.959 -0.3781  0.0826  0.0105
 3601SOL    HW122439   0.864   1.359   5.980  1.9497  1.5149  1.0645
 3601SOL    HW222440   1.005   1.321   5.980 -0.2342 -0.9335  1.2855
 3602SOL     OW22441   2.459   3.922   2.984 -0.2724  0.4374  0.0734
 3602SOL    HW122442   2.479   4.001   2.933 -1.1034 -0.0322 -0.9713
 3602SOL    HW222443   2.486   3.950   3.072  1.8244 -2.5177  0.3658
 3603SOL     OW22444   4.252   2.110   5.325 -0.4194  0.3066  1.0564
 3603SOL    HW122445   4.254   2.016   5.342  0.2233 -0.1695 -1.6332
 3603SOL    HW222446   4.238   2.150   5.410  0.2182  1.6128  0.5461
 3604SOL     OW22447   2.847   1.157   4.330  0.0805  0.3383 -0.0915
 3604SOL    HW122448   2.871   1.246   4.302 -0.2711 -0.4033 -2.6956
 3604SOL    HW222449   2.867   1.120   4.245 -1.6639  0.0549 -0.3706
 3605SOL     OW22450   3.912   2.792   4.210 -0.8554  0.0027 -0.0077
 3605SOL    HW122451   3.996   2.810   4.168 -0.1562 -1.2982  0.8505
 3605SOL    HW222452   3.892   2.878   4.247 -1.5993 -0.1573 -0.0414
 3606SOL     OW22453   2.737   0.125   3.596 -0.2331  0.2165  0.1870
 3606SOL    HW122454   2.713   0.215   3.616  0.5406  0.3661  0.4481
 3606SOL    HW222455   2.760   0.132   3.503 -1.7261 -0.1518 -0.2053
 3607SOL     OW22456   3.163   1.091  14.651  0.0539  0.0102  0.5163
 3607SOL    HW122457   3.248   1.118  14.616  1.2799  0.3585  3.7606
 3607SOL    HW222458   3.182   0.998  14.666  1.0558  0.0840 -0.3077
 3608SOL     OW22459   4.603   0.256   5.928  0.1103 -0.5202  0.2796
 3608SOL    HW122460   4.668   0.255   5.999  0.7786 -0.9480 -0.3452
 3608SOL    HW222461   4.537   0.305   5.977  0.0237  1.2436 -1.6280
 3609SOL     OW22462   1.018   0.745   5.978  0.0462  0.1736 -0.1885
 3609SOL    HW122463   1.093   0.785   5.934  0.9411 -0.8479  0.4109
 3609SOL    HW222464   0.999   0.671   5.921  0.6330  0.6601 -1.0107
 3610SOL     OW22465   2.390   2.219   6.551  0.1053 -0.0946 -0.4086
 3610SOL    HW122466   2.328   2.287   6.525 -0.0123  0.9671  2.5670
 3610SOL    HW222467   2.337   2.143   6.529  1.3180 -1.0711  0.0086
 3611SOL     OW22468   0.772   0.032   4.560 -0.1193  0.0046 -0.1533
 3611SOL    HW122469   0.711   0.104   4.545 -0.0858 -0.4314 -2.4360
 3611SOL    HW222470   0.708   4.700   4.586 -0.5322  0.2008 -0.6590
 3612SOL     OW22471   1.517   1.977   4.884 -0.1686  0.2719 -0.0390
 3612SOL    HW122472   1.609   1.981   4.859 -0.3182 -1.8532 -0.8442
 3612SOL    HW222473   1.517   2.010   4.974 -0.3717  0.0118  0.0569
 3613SOL     OW22474   3.759   0.270   2.851 -0.5818  0.3937  0.0248
 3613SOL    HW122475   3.734   0.337   2.914  2.9416  2.0131 -0.2510
 3613SOL    HW222476   3.784   0.192   2.901  0.1518  0.5303 -0.1161
 3614SOL     OW22477   3.438   0.385   8.547  0.3893 -0.1445 -0.1725
 3614SOL    HW122478   3.408   0.366   8.458  0.3642 -2.0064  0.2515
 3614SOL    HW222479   3.357   0.370   8.596  0.7280  0.4525  0.5697
 3615SOL     OW22480   0.126   4.306   6.555 -0.4723  0.0271 -0.4513
 3615SOL    HW122481   0.047   4.294   6.608 -0.4072  0.6547 -0.2185
 3615SOL    HW222482   0.080   4.273   6.478 -0.1391 -0.2816 -0.5205
 3616SOL     OW22483   2.116   0.138   7.001  0.2611 -0.3058  0.1090
 3616SOL    HW122484   2.072   0.183   7.073 -2.5372 -2.0969 -0.4730
 3616SOL    HW222485   2.148   0.207   6.943  1.5048  0.0869  1.2724
 3617SOL     OW22486   4.210   3.137   3.713 -0.0687  0.4153 -0.1600
 3617SOL    HW122487   4.125   3.097   3.693  1.0766 -1.7753 -0.6852
 3617SOL    HW222488   4.204   3.149   3.808  1.1400  0.6031 -0.1085
 3618SOL     OW22489   3.288   1.684  13.900 -0.1257  0.2089  0.0808
 3618SOL    HW122490   3.209   1.722  13.939 -0.0113  1.7642 -1.2420
 3618SOL    HW222491   3.272   1.593  13.928  2.1371 -0.1448  0.1926
 3619SOL     OW22492   3.688   3.981   9.471 -0.6342  0.1321 -0.1976
 3619SOL    HW122493   3.702   3.911   9.534  1.2337  0.9037  0.2536
 3619SOL    HW222494   3.754   3.958   9.407  0.0259 -2.8637  1.6042
 3620SOL     OW22495   2.658   0.819   5.901  0.3785 -0.2342 -0.3090
 3620SOL    HW122496   2.574   0.858   5.927 -0.0230 -2.4704  1.7180
 3620SOL    HW222497   2.705   0.819   5.984 -1.0032  1.0416  0.4806
 3621SOL     OW22498   4.540   2.902   2.798  0.2482 -0.1137  0.1720
 3621SOL    HW122499   4.449   2.874   2.804  0.2736  0.2279  1.9579
 3621SOL    HW222500   4.577   2.819   2.768 -1.2666  0.4101 -3.1224
 3622SOL     OW22501   2.202   1.437   2.099  0.0779  0.3968  0.0070
 3622SOL    HW122502   2.174   1.467   2.012 -1.1081  0.3127  0.3574
 3622SOL    HW222503   2.163   1.503   2.156 -1.1828  1.0987 -1.6341
 3623SOL     OW22504   3.121   2.175  13.681 -0.1841  0.1514  0.4844
 3623SOL    HW122505   3.062   2.250  13.692  0.0531  0.3925  0.1064
 3623SOL    HW222506   3.145   2.182  13.589  2.0642  0.8142  1.1328
 3624SOL     OW22507   0.840   1.986  15.057  0.3587  0.2082  0.8412
 3624SOL    HW122508   0.931   2.012  15.041  0.1252  0.5876  0.1323
 3624SOL    HW222509   0.799   2.038  14.987  0.2278 -0.0914  0.6938
 3625SOL     OW22510   1.060   3.899   3.350 -0.6155  0.3078  0.2477
 3625SOL    HW122511   0.999   3.917   3.422  2.1466 -0.1029  2.6508
 3625SOL    HW222512   0.999   3.876   3.279  0.0651 -0.0783 -0.2099
 3626SOL     OW22513   3.247   3.614   7.443 -0.3793  1.1497  0.5165
 3626SOL    HW122514   3.207   3.537   7.404 -0.4427  1.7595 -0.6302
 3626SOL    HW222515   3.172   3.673   7.453 -1.6947 -0.5216  0.3603
 3627SOL     OW22516   1.892   3.681  16.084 -0.2414  0.1803 -0.1965
 3627SOL    HW122517   1.920   3.602  16.038  0.3389  1.1774 -1.5624
 3627SOL    HW222518   1.921   3.663  16.173 -0.7333  0.6363  0.0584
 3628SOL     OW22519   3.108   0.882   3.490  0.3284  0.2439  0.6313
 3628SOL    HW122520   3.032   0.926   3.529 -0.5105 -0.7167  0.0621
 3628SOL    HW222521   3.151   0.834   3.560  2.6963  1.7694  0.2533
 3629SOL     OW22522   4.379   2.146   6.942  0.3129  0.0543 -0.1882
 3629SOL    HW122523   4.314   2.200   6.987  1.0767 -0.6151  1.7363
 3629SOL    HW222524   4.373   2.060   6.984 -0.2450 -0.3909 -1.1803
 3630SOL     OW22525   3.697   3.402   9.656  0.1572  0.1520 -0.6606
 3630SOL    HW122526   3.733   3.317   9.682 -0.1625 -0.0184 -0.7785
 3630SOL    HW222527   3.640   3.414   9.732 -0.8964 -0.0773 -1.4302
 3631SOL     OW22528   0.676   3.570   6.794 -0.3842 -0.0679  0.0339
 3631SOL    HW122529   0.596   3.576   6.742 -1.3882 -2.1056  1.3379
 3631SOL    HW222530   0.734   3.513   6.743 -2.7722 -1.5474 -1.0194
 3632SOL     OW22531   2.492   2.719  11.526  0.3764 -0.1000  0.5651
 3632SOL    HW122532   2.562   2.695  11.587  1.8388  0.3980 -0.9154
 3632SOL    HW222533   2.414   2.668  11.545  0.3325 -0.0629  0.4874
 3633SOL     OW22534   0.178   2.544  10.809  0.0027 -0.4060 -0.4832
 3633SOL    HW122535   0.258   2.560  10.759 -0.0223  0.1604 -0.3517
 3633SOL    HW222536   0.218   2.532  10.895  0.8542  0.9960 -0.6700
 3634SOL     OW22537   2.434   2.115  14.090  0.3833  0.3789  0.0234
 3634SOL    HW122538   2.396   2.201  14.072 -0.4392 -0.4368 -2.1869
 3634SOL    HW222539   2.354   2.063  14.095 -0.2967  1.4396  0.0813
 3635SOL     OW22540   1.520   1.346   5.071  0.0668 -0.4425  0.8265
 3635SOL    HW122541   1.478   1.372   5.153  0.5016 -0.7679  1.1521
 3635SOL    HW222542   1.582   1.416   5.048 -1.0538  0.5777  0.9133
 3636SOL     OW22543   3.800   4.343   1.725  0.1643 -0.4423  0.2662
 3636SOL    HW122544   3.871   4.345   1.790 -0.4381 -3.6512  1.0145
 3636SOL    HW222545   3.862   4.345   1.652  1.0865  0.0816  1.0549
 3637SOL     OW22546   3.180   2.449   2.438  0.0724 -0.1712 -0.5562
 3637SOL    HW122547   3.194   2.518   2.372 -2.9981  0.2295 -0.7639
 3637SOL    HW222548   3.267   2.430   2.474 -0.4849 -1.9527 -0.1843
 3638SOL     OW22549   1.080   2.267   7.007  0.4512 -0.0773 -0.2047
 3638SOL    HW122550   1.097   2.297   7.096 -0.0209  0.6077 -0.3440
 3638SOL    HW222551   1.168   2.248   6.974  0.2787 -2.6551  0.7951
 3639SOL     OW22552   3.405   0.142  12.630  0.2002  0.8807  0.2342
 3639SOL    HW122553   3.386   0.083  12.703  1.6476  0.5350  0.3476
 3639SOL    HW222554   3.500   0.142  12.617  0.3197 -1.7370  0.9661
 3640SOL     OW22555   0.088   3.895   0.691  0.1046 -0.2515 -0.3432
 3640SOL    HW122556   0.025   3.952   0.736  0.6168  0.9740 -1.1963
 3640SOL    HW222557   0.031   3.820   0.670  1.0171 -0.4065 -2.2363
 3641SOL     OW22558   2.552   3.679  16.887  0.1215 -0.1135  0.1351
 3641SOL    HW122559   2.537   3.729  16.807 -2.5773 -0.1178  0.6401
 3641SOL    HW222560   2.645   3.667  16.868  0.6328  1.4587  1.6111
 3642SOL     OW22561   4.641   1.203   9.480  0.9335 -0.2120  0.4690
 3642SOL    HW122562   4.576   1.136   9.504 -0.7350  0.3246 -2.6703
 3642SOL    HW222563   4.661   1.183   9.389 -0.0154  0.8041  0.0423
 3643SOL     OW22564   2.527   4.117  17.403  0.1659 -0.3391  0.3867
 3643SOL    HW122565   2.552   4.025  17.415  2.1903 -0.2446 -3.0727
 3643SOL    HW222566   2.485   4.138  17.486  1.7010  0.9699  0.8268
 3644SOL     OW22567   3.786   0.780   4.526 -0.0893  0.4268  0.2473
 3644SOL    HW122568   3.786   0.704   4.583  1.5594  0.0668 -0.2474
 3644SOL    HW222569   3.871   0.817   4.550 -0.1882 -0.7120  2.3462
 3645SOL     OW22570   4.123   1.595   8.843 -0.4774  0.1037  0.0336
 3645SOL    HW122571   4.154   1.674   8.887  2.9803 -0.9302 -0.4948
 3645SOL    HW222572   4.094   1.547   8.920 -0.2467 -0.7209 -0.3902
 3646SOL     OW22573   3.532   0.619   0.687  0.3503  0.4292  0.4711
 3646SOL    HW122574   3.574   0.560   0.750  0.3636  1.1424  1.1322
 3646SOL    HW222575   3.612   0.647   0.643 -0.3162  1.8664  0.1789
 3647SOL     OW22576   4.607   4.502  10.591  0.1321 -0.7011 -0.2276
 3647SOL    HW122577   4.534   4.498  10.652 -0.7346 -2.2436 -1.3483
 3647SOL    HW222578   4.586   4.426  10.536 -1.4406  0.6871 -1.5469
 3648SOL     OW22579   3.673   1.012   4.121  0.6883 -0.5886 -0.7550
 3648SOL    HW122580   3.665   1.010   4.216  0.8109  0.3249 -0.7329
 3648SOL    HW222581   3.653   0.921   4.097 -1.5980 -0.2356 -0.1951
 3649SOL     OW22582   3.632   1.851   0.539 -0.6086 -0.3241 -0.0094
 3649SOL    HW122583   3.540   1.864   0.564  0.6229  1.0246  3.7198
 3649SOL    HW222584   3.645   1.759   0.561 -0.0482 -0.3320 -0.3751
 3650SOL     OW22585   0.211   0.274   0.480 -0.8756 -0.7585 -0.4601
 3650SOL    HW122586   0.137   0.218   0.502 -0.9146 -0.1791  0.9341
 3650SOL    HW222587   0.173   0.361   0.470  0.2903 -0.2724 -0.6731
 3651SOL     OW22588   3.663   1.177  12.130  0.0375  0.3472  0.3693
 3651SOL    HW122589   3.607   1.191  12.206  0.7449  0.9873  0.7777
 3651SOL    HW222590   3.687   1.268  12.111  3.5311 -0.7072 -0.3914
 3652SOL     OW22591   0.446   3.042   4.947  0.7175  0.4937 -0.3673
 3652SOL    HW122592   0.489   3.076   5.026 -0.1423  2.1387 -0.6274
 3652SOL    HW222593   0.441   3.124   4.898 -0.5172  1.4325  1.3477
 3653SOL     OW22594   3.380   2.466   3.051 -0.1689  0.2463 -0.2278
 3653SOL    HW122595   3.325   2.544   3.060  0.3187  0.5075  0.4537
 3653SOL    HW222596   3.461   2.500   3.012  0.8276 -2.8223 -0.8253
 3654SOL     OW22597   3.757   2.338   1.677  0.2115  0.1622  0.2094
 3654SOL    HW122598   3.848   2.311   1.689  0.3980  1.5730  1.9508
 3654SOL    HW222599   3.715   2.252   1.673 -0.3631  0.3731  1.8314
 3655SOL     OW22600   1.267   0.418   4.365 -0.0686  0.4700 -0.3786
 3655SOL    HW122601   1.308   0.485   4.421 -1.0288 -0.8858  1.9404
 3655SOL    HW222602   1.232   0.467   4.291  0.6509  1.3485 -0.1426
 3656SOL     OW22603   2.006   4.061   7.325  0.4762  1.2583  0.2538
 3656SOL    HW122604   1.925   4.112   7.333  0.0270  0.9408 -2.3698
 3656SOL    HW222605   2.034   4.057   7.416  1.4534  0.7104 -0.0724
 3657SOL     OW22606   3.216   1.419   4.794 -0.0156 -0.4811 -0.0078
 3657SOL    HW122607   3.188   1.445   4.882  2.3370  2.9347 -0.2604
 3657SOL    HW222608   3.304   1.457   4.802 -0.3281  0.5155 -1.3120
 3658SOL     OW22609   4.016   1.014   9.011  0.2118  0.0280 -0.4840
 3658SOL    HW122610   3.944   1.009   9.073 -0.0644  0.9470 -0.7294
 3658SOL    HW222611   4.078   0.956   9.055 -1.2445 -0.4199  0.9928
 3659SOL     OW22612   4.411   0.493   5.907  0.3579  0.4217 -0.0500
 3659SOL    HW122613   4.346   0.439   5.952 -0.5326 -0.5268 -2.4254
 3659SOL    HW222614   4.378   0.481   5.818  0.6516 -3.8727  0.4299
 3660SOL     OW22615   1.407   3.708   8.491 -0.3780 -0.2693  0.3864
 3660SOL    HW122616   1.492   3.678   8.523 -0.3377 -0.4189  0.1352
 3660SOL    HW222617   1.409   3.791   8.539  0.8279  0.3023 -0.6674
 3661SOL     OW22618   0.318   2.560   6.957  0.0939  0.3074  0.1898
 3661SOL    HW122619   0.393   2.556   6.898 -1.4484 -0.4632 -1.6833
 3661SOL    HW222620   0.357   2.602   7.034 -1.1416  1.6320  0.0916
 3662SOL     OW22621   0.453   2.869  11.005 -0.5424 -0.5312 -0.0700
 3662SOL    HW122622   0.444   2.937  11.072 -0.8568  1.7985 -2.4862
 3662SOL    HW222623   0.414   2.911  10.928 -1.4134  1.6310  1.5636
 3663SOL     OW22624   1.082   0.281  10.458 -0.0023  0.2608 -0.2150
 3663SOL    HW122625   1.032   0.301  10.537 -0.2283 -1.5500  0.1008
 3663SOL    HW222626   1.165   0.247  10.491 -0.3852  1.1741  1.7000
 3664SOL     OW22627   1.548   1.715   5.192 -0.3187  0.1679  0.5813
 3664SOL    HW122628   1.601   1.673   5.260 -2.4262 -2.9338  0.2546
 3664SOL    HW222629   1.518   1.793   5.238 -1.1654  0.3938 -0.3469
 3665SOL     OW22630   4.515   0.250   9.376  0.1575 -0.1735  0.1889
 3665SOL    HW122631   4.439   0.206   9.414  0.7845 -0.6344  0.9108
 3665SOL    HW222632   4.565   0.266   9.457  1.6463  0.0659 -0.7821
 3666SOL     OW22633   0.966   2.824  16.603  0.3298 -0.3749  0.1400
 3666SOL    HW122634   1.003   2.773  16.531 -1.0541 -0.9785 -0.1558
 3666SOL    HW222635   0.875   2.837  16.575  0.4827 -0.0459 -0.2137
 3667SOL     OW22636   1.221   1.544  13.192 -0.1300 -0.8827 -0.0340
 3667SOL    HW122637   1.230   1.485  13.267 -0.9056 -0.1462  0.6379
 3667SOL    HW222638   1.153   1.598  13.233 -1.1938 -2.8724  0.8241
 3668SOL     OW22639   2.730   0.695   3.282  0.6115 -0.1749  0.1049
 3668SOL    HW122640   2.698   0.714   3.194  0.5354 -1.5511 -0.1625
 3668SOL    HW222641   2.765   0.609   3.260  1.3003  0.1173  0.0697
 3669SOL     OW22642   4.153   3.948   2.331 -0.0019 -0.3444 -0.0560
 3669SOL    HW122643   4.192   4.009   2.393 -0.5155 -0.1697  0.0933
 3669SOL    HW222644   4.078   3.915   2.381  0.3819 -1.9880 -0.5503
 3670SOL     OW22645   1.457   0.499   3.247  0.3270  0.5998 -0.5941
 3670SOL    HW122646   1.379   0.487   3.193  0.6616 -0.0182 -0.9533
 3670SOL    HW222647   1.508   0.557   3.191  2.0809  1.2334  1.6681
 3671SOL     OW22648   1.188   3.399   6.275  0.2168 -0.3874  0.3440
 3671SOL    HW122649   1.264   3.360   6.233  0.5777  0.8203 -0.1265
 3671SOL    HW222650   1.170   3.473   6.216  0.5363 -1.6369 -1.3253
 3672SOL     OW22651   0.518   0.342  15.387  0.4593  0.0973 -0.2071
 3672SOL    HW122652   0.561   0.312  15.467  1.6421 -0.3990 -1.0182
 3672SOL    HW222653   0.470   0.417  15.424 -1.1240 -1.0011 -0.0408
 3673SOL     OW22654   4.608   3.788   6.246  0.1503 -0.1544 -0.0970
 3673SOL    HW122655   4.612   3.883   6.242  0.1530 -0.1829 -0.7200
 3673SOL    HW222656   4.525   3.765   6.204 -0.3597 -0.3858  1.0296
 3674SOL     OW22657   1.579   1.567  11.682 -0.1196 -0.8346  0.4550
 3674SOL    HW122658   1.519   1.502  11.645  0.1048 -1.1224  0.5878
 3674SOL    HW222659   1.664   1.537  11.649  0.6143  0.1521  1.4550
 3675SOL     OW22660   0.665   1.834   3.968 -0.2407  0.3744  0.6780
 3675SOL    HW122661   0.705   1.921   3.972  1.2703 -0.2581 -0.3773
 3675SOL    HW222662   0.744   1.781   3.983  0.5054 -0.0567 -4.9840
 3676SOL     OW22663   4.353   3.010   3.980 -0.0896  0.3213  0.5244
 3676SOL    HW122664   4.292   2.947   4.019 -1.2873  1.2550  0.1863
 3676SOL    HW222665   4.412   2.951   3.934 -0.0131  1.1571 -0.4460
 3677SOL     OW22666   0.914   1.785   2.589  0.2682  0.0338  0.3781
 3677SOL    HW122667   0.909   1.690   2.599  0.2293 -0.1518 -1.4677
 3677SOL    HW222668   1.004   1.805   2.566 -0.3213  0.4012 -1.5967
 3678SOL     OW22669   2.793   2.203   0.760  0.1845  0.8319 -0.1392
 3678SOL    HW122670   2.872   2.150   0.744 -0.2016  0.3466 -0.4216
 3678SOL    HW222671   2.725   2.169   0.702  0.9237 -0.3159 -0.3289
 3679SOL     OW22672   0.476   4.318   9.742 -0.1563 -0.0158  0.8331
 3679SOL    HW122673   0.474   4.413   9.730  2.1054  0.0365  0.9034
 3679SOL    HW222674   0.458   4.298   9.650 -1.3923 -1.2636  1.3339
 3680SOL     OW22675   0.002   3.153   5.611  0.4183 -0.0991 -0.3078
 3680SOL    HW122676   4.685   3.181   5.535 -2.5989 -0.3962  1.6509
 3680SOL    HW222677   4.672   3.102   5.660 -0.3626  0.4687 -0.7430
 3681SOL     OW22678   0.575   1.632  14.202  0.4393 -0.1770  0.1336
 3681SOL    HW122679   0.539   1.555  14.159 -0.3277  1.1078 -1.5366
 3681SOL    HW222680   0.503   1.695  14.196  0.8019  0.5041  3.0524
 3682SOL     OW22681   0.216   0.574   8.265 -0.8250 -0.0109 -0.8244
 3682SOL    HW122682   0.166   0.650   8.235  2.9201  3.2930  1.2898
 3682SOL    HW222683   0.257   0.603   8.348  1.2532 -1.0846 -1.4698
 3683SOL     OW22684   3.767   0.447   9.428 -0.1788  0.0113  0.4244
 3683SOL    HW122685   3.717   0.470   9.350  0.3403  0.8441  0.3435
 3683SOL    HW222686   3.759   0.351   9.432 -0.3681 -0.0979 -2.7558
 3684SOL     OW22687   2.135   0.690   7.907 -0.3370 -0.1113  0.2823
 3684SOL    HW122688   2.150   0.764   7.966  0.4123 -1.2655  1.5235
 3684SOL    HW222689   2.222   0.654   7.894  0.3831  1.7541 -0.1677
 3685SOL     OW22690   1.201   2.568  11.110  0.2442  0.0718  0.4648
 3685SOL    HW122691   1.108   2.547  11.120  0.3032 -0.4661 -0.0823
 3685SOL    HW222692   1.235   2.481  11.130  0.4706  0.2872  1.0180
 3686SOL     OW22693   3.383   0.305   6.848 -0.4673  0.8605 -0.5625
 3686SOL    HW122694   3.389   0.293   6.754 -1.2673  0.9256 -0.6270
 3686SOL    HW222695   3.462   0.353   6.871 -0.1967  0.1146  0.0601
 3687SOL     OW22696   4.535   0.390  14.697  0.5971  0.2529 -0.1388
 3687SOL    HW122697   4.494   0.365  14.779  1.1563 -0.5405 -0.1045
 3687SOL    HW222698   4.463   0.422  14.642  0.5850 -0.2608 -0.4221
 3688SOL     OW22699   1.677   2.600  17.012  0.3014  0.0345 -0.3878
 3688SOL    HW122700   1.704   2.574  16.924 -1.3765  2.7227 -1.6978
 3688SOL    HW222701   1.591   2.558  17.020  1.1076 -1.6568 -0.6390
 3689SOL     OW22702   2.714   3.808   8.021 -0.1123 -0.2291  0.2095
 3689SOL    HW122703   2.734   3.719   7.993 -0.4079 -0.4510  0.6811
 3689SOL    HW222704   2.788   3.840   8.072  0.5445  0.2111 -1.0492
 3690SOL     OW22705   4.688   1.405  10.153 -0.3920  0.4920  0.0962
 3690SOL    HW122706   0.026   1.396  10.214  0.7313  0.6248 -1.2227
 3690SOL    HW222707   4.648   1.319  10.138 -1.9386  1.6934 -2.5570
 3691SOL     OW22708   0.664   3.409   2.850 -0.4831  0.4117 -0.2520
 3691SOL    HW122709   0.581   3.437   2.811 -0.0978  0.9243 -0.6883
 3691SOL    HW222710   0.658   3.317   2.824  3.1927 -0.2367  1.2463
 3692SOL     OW22711   2.436   0.914  11.435 -0.0637  0.2085 -0.0508
 3692SOL    HW122712   2.413   0.836  11.385 -0.2874 -0.0267  0.4164
 3692SOL    HW222713   2.460   0.976  11.365 -0.8625 -0.0475 -0.5427
 3693SOL     OW22714   3.863   3.591   4.627  0.1581  0.4036 -0.2778
 3693SOL    HW122715   3.800   3.572   4.696 -0.4338  0.6534 -0.7414
 3693SOL    HW222716   3.853   3.685   4.609  0.3018  0.2217 -1.3564
 3694SOL     OW22717   1.986   2.921   4.450 -0.2260  0.4911  0.1030
 3694SOL    HW122718   1.948   2.851   4.504 -1.5111  2.1942  1.4150
 3694SOL    HW222719   1.907   2.965   4.420 -0.2796  0.6773  0.5088
 3695SOL     OW22720   1.853   4.047   3.213 -0.1851  0.0388  0.0313
 3695SOL    HW122721   1.908   3.981   3.171  1.6289  1.4832  0.1807
 3695SOL    HW222722   1.879   4.053   3.305  0.7103  1.1815 -0.3078
 3696SOL     OW22723   0.185   0.134   2.511  0.0288 -0.0616 -0.5121
 3696SOL    HW122724   0.278   0.145   2.529 -0.2441  2.9768 -1.0114
 3696SOL    HW222725   0.185   0.053   2.460 -2.0476  0.1204 -0.8219
 3697SOL     OW22726   0.013   2.863  11.441  0.3539 -0.0568 -0.3443
 3697SOL    HW122727   0.004   2.885  11.348  0.1318 -0.3527 -0.3930
 3697SOL    HW222728   4.730   2.769  11.448  0.2707  0.1059  1.8003
 3698SOL     OW22729   1.788   4.658  11.234 -0.2056  0.3755  0.0020
 3698SOL    HW122730   1.715   4.706  11.272 -0.6772  0.6005 -1.1738
 3698SOL    HW222731   1.843   4.735  11.218  2.0033 -1.3618 -0.6863
 3699SOL     OW22732   2.805   1.694   7.937  0.2257  0.5613 -0.2869
 3699SOL    HW122733   2.846   1.702   8.024  1.4454 -1.2346 -0.7070
 3699SOL    HW222734   2.714   1.694   7.968  0.5515  0.0207  0.6734
 3700SOL     OW22735   1.826   3.394   5.858  0.0482 -0.4054  0.3942
 3700SOL    HW122736   1.813   3.488   5.850  3.1573 -0.3156 -3.3243
 3700SOL    HW222737   1.862   3.386   5.947  0.6512 -2.2929 -0.0151
 3701SOL     OW22738   1.457   1.017   4.528 -0.3389  0.5610  0.3415
 3701SOL    HW122739   1.417   1.102   4.511 -2.5579 -0.9060 -1.7569
 3701SOL    HW222740   1.481   0.984   4.442 -3.8555 -1.4535  0.1362
 3702SOL     OW22741   3.616   2.767   0.464  0.1330 -0.2268 -0.4692
 3702SOL    HW122742   3.635   2.719   0.545  2.2387  1.0069 -0.2341
 3702SOL    HW222743   3.696   2.745   0.417  0.1873  1.1622 -1.0373
 3703SOL     OW22744   3.946   0.087   4.767  0.5825  0.0481  0.5562
 3703SOL    HW122745   4.009   0.138   4.816  0.2908  0.0177  0.9611
 3703SOL    HW222746   3.976   4.734   4.794 -2.8338 -1.4179 -0.3961
 3704SOL     OW22747   1.408   3.547   6.421 -0.3637 -0.2785  0.2169
 3704SOL    HW122748   1.393   3.611   6.491  1.1521  2.2676 -1.8344
 3704SOL    HW222749   1.319   3.520   6.399  0.0483 -2.4149  1.1361
 3705SOL     OW22750   2.182   0.324   2.399 -0.0600  0.4401  0.2703
 3705SOL    HW122751   2.114   0.388   2.422 -2.3846 -1.2072 -2.0153
 3705SOL    HW222752   2.228   0.383   2.339  1.3135  0.6944  1.5802
 3706SOL     OW22753   0.693   1.792   5.370  0.4733  0.1290 -0.1946
 3706SOL    HW122754   0.619   1.790   5.430  1.1488  1.9508  0.7033
 3706SOL    HW222755   0.682   1.876   5.325 -3.1096 -0.9202 -1.2128
 3707SOL     OW22756   1.772   0.586   6.768 -0.4234  0.0610  0.1823
 3707SOL    HW122757   1.698   0.561   6.823 -0.1136  0.2798  0.6933
 3707SOL    HW222758   1.786   0.674   6.801 -1.8715  1.1586 -2.1691
 3708SOL     OW22759   1.739   2.013   5.104 -0.2108  0.3628 -0.3372
 3708SOL    HW122760   1.752   2.057   5.020 -2.9265  1.4816 -0.1842
 3708SOL    HW222761   1.823   1.970   5.116  0.1771  0.9787 -0.8585
 3709SOL     OW22762   2.143   2.651   8.705  0.1843  0.0827 -0.2121
 3709SOL    HW122763   2.199   2.577   8.727 -1.7250 -1.4215 -0.4485
 3709SOL    HW222764   2.117   2.681   8.792  2.3909 -0.1451  0.5200
 3710SOL     OW22765   2.517   2.893   2.378 -0.2842 -0.3858  0.6686
 3710SOL    HW122766   2.588   2.835   2.407 -0.0432 -0.6919 -0.5432
 3710SOL    HW222767   2.479   2.922   2.461 -1.1701  0.5720 -0.0844
 3711SOL     OW22768   1.351   4.407  16.409 -0.3391  0.4425 -0.4092
 3711SOL    HW122769   1.363   4.328  16.462 -1.9841  0.8009  0.4990
 3711SOL    HW222770   1.279   4.452  16.453  0.3607  1.0103  0.1363
 3712SOL     OW22771   0.856   1.522   3.403  0.2906 -0.3468  0.3365
 3712SOL    HW122772   0.788   1.578   3.365 -0.1237 -0.4529  0.9307
 3712SOL    HW222773   0.800   1.447   3.424 -0.4268  0.6494  1.8901
 3713SOL     OW22774   1.664   1.151  13.112 -0.2232 -0.3988 -0.0072
 3713SOL    HW122775   1.573   1.122  13.107 -0.1546 -0.2738 -1.9843
 3713SOL    HW222776   1.693   1.061  13.131 -0.5264 -0.6765 -0.8229
 3714SOL     OW22777   1.892   0.404  16.682 -0.8161 -0.0243 -0.0263
 3714SOL    HW122778   1.929   0.490  16.662  0.2062 -0.9978 -2.3057
 3714SOL    HW222779   1.966   0.344  16.690  0.2350  1.1491 -1.0646
 3715SOL     OW22780   1.165   0.411  12.906  0.0804 -0.2888 -0.0815
 3715SOL    HW122781   1.139   0.502  12.892 -1.7750 -0.9266 -0.7856
 3715SOL    HW222782   1.254   0.417  12.941  0.8997 -1.4995 -1.9482
 3716SOL     OW22783   3.900   0.091   6.861 -0.0024 -0.2496 -0.2388
 3716SOL    HW122784   3.880   0.145   6.937  0.7231  1.7581 -1.4793
 3716SOL    HW222785   3.992   0.107   6.837 -0.0981 -0.4033 -0.7064
 3717SOL     OW22786   1.850   3.374   4.346 -0.6159 -0.5683 -0.0564
 3717SOL    HW122787   1.850   3.377   4.441  0.7489 -2.4791 -0.0012
 3717SOL    HW222788   1.923   3.316   4.329 -0.8880 -1.3308  1.3981
 3718SOL     OW22789   1.431   4.106   1.897 -0.5923 -0.4759  0.0773
 3718SOL    HW122790   1.431   4.085   1.991  0.7898  0.6353  0.3273
 3718SOL    HW222791   1.428   4.021   1.855 -0.0406 -0.1064 -0.6960
 3719SOL     OW22792   3.139   1.919   1.251  0.3099  0.2482 -0.4678
 3719SOL    HW122793   3.080   1.993   1.264  0.9258  0.0965  3.1500
 3719SOL    HW222794   3.187   1.923   1.333  0.6937 -3.0624 -0.5185
 3720SOL     OW22795   4.245   2.011   9.543 -1.1601 -0.0754  0.2499
 3720SOL    HW122796   4.283   2.049   9.622  0.0722  0.8442 -0.7891
 3720SOL    HW222797   4.154   2.038   9.556 -0.7697  3.3689 -4.1698
 3721SOL     OW22798   3.025   2.048   7.041 -0.5991  0.1476  0.3506
 3721SOL    HW122799   3.065   1.962   7.035  0.1644  0.4152  1.5144
 3721SOL    HW222800   2.936   2.031   7.011  0.4983 -1.1870 -2.1280
 3722SOL     OW22801   1.632   1.998   3.979 -0.1246  0.0084 -0.1415
 3722SOL    HW122802   1.622   2.090   3.956  0.2006 -0.0664 -0.5828
 3722SOL    HW222803   1.723   1.997   4.008 -0.0566 -1.2872 -0.4124
 3723SOL     OW22804   3.442   3.848   2.102  0.3680 -0.2493  0.2179
 3723SOL    HW122805   3.376   3.915   2.085  0.2658  0.0381  1.7394
 3723SOL    HW222806   3.391   3.768   2.116 -1.8400  1.4845  1.9306
 3724SOL     OW22807   2.908   1.976  16.131  0.6655  0.2724  0.0410
 3724SOL    HW122808   2.902   1.910  16.062 -0.1562 -0.2746  0.6183
 3724SOL    HW222809   2.841   1.946  16.193  1.4218 -0.0953  0.6925
 3725SOL     OW22810   1.146   1.296   5.586  0.1716 -0.3661  0.1778
 3725SOL    HW122811   1.172   1.208   5.561  0.5314  0.1123 -1.1381
 3725SOL    HW222812   1.227   1.338   5.616 -0.4106  0.5044  0.5428
 3726SOL     OW22813   0.042   1.544   9.255 -0.3323 -0.1533 -0.2900
 3726SOL    HW122814   4.724   1.621   9.236 -0.8154 -0.4313 -0.0846
 3726SOL    HW222815   0.099   1.566   9.329  1.0116 -2.3219 -0.6588
 3727SOL     OW22816   1.908   4.018   9.445 -0.6163 -0.3271  0.0981
 3727SOL    HW122817   1.852   4.089   9.411 -1.5013 -1.9180 -1.7692
 3727SOL    HW222818   1.842   3.956   9.474  0.7864 -1.0814  1.6140
 3728SOL     OW22819   1.547   0.228  14.016 -0.0593  0.3054 -0.3253
 3728SOL    HW122820   1.538   0.306  14.071  2.0898  0.8692 -0.7627
 3728SOL    HW222821   1.552   0.158  14.081 -0.5056  0.8408  0.2768
 3729SOL     OW22822   0.770   2.617   7.929 -0.1426 -0.0516  0.0516
 3729SOL    HW122823   0.753   2.552   7.860 -1.9045 -0.5156  0.9076
 3729SOL    HW222824   0.857   2.639   7.896  0.7415 -3.2233  0.2189
 3730SOL     OW22825   2.561   1.096   7.767  0.5953  0.0341  0.5282
 3730SOL    HW122826   2.487   1.056   7.813 -0.4031  0.6059 -0.5768
 3730SOL    HW222827   2.621   1.130   7.833 -0.7536  4.7517 -0.7317
 3731SOL     OW22828   2.425   3.618   6.215 -0.0030 -0.0081  0.0775
 3731SOL    HW122829   2.395   3.644   6.302 -0.4639  2.5963 -0.8701
 3731SOL    HW222830   2.385   3.693   6.172  1.3649  1.5524  1.5298
 3732SOL     OW22831   3.342   4.617   7.762 -0.5890  0.2532  0.1182
 3732SOL    HW122832   3.329   4.572   7.679 -1.1535 -1.1530  0.9646
 3732SOL    HW222833   3.438   4.618   7.770 -0.7839 -0.5866  2.7412
 3733SOL     OW22834   2.317   4.502   8.057 -0.4634  0.0982  0.2016
 3733SOL    HW122835   2.250   4.485   8.123 -0.2183  0.8890  0.6640
 3733SOL    HW222836   2.327   4.412   8.026  0.9829  0.7780 -1.3339
 3734SOL     OW22837   1.811   1.788   3.664 -0.1964 -0.2159  0.4361
 3734SOL    HW122838   1.844   1.873   3.692  0.4369  0.2739 -1.7293
 3734SOL    HW222839   1.728   1.778   3.709 -0.1045 -3.0251  0.0003
 3735SOL     OW22840   3.163   4.016   8.131 -0.0046 -0.0645 -0.5815
 3735SOL    HW122841   3.143   4.106   8.157 -1.3291 -0.2187 -1.0701
 3735SOL    HW222842   3.157   4.049   8.041  0.6879  1.3012 -0.1233
 3736SOL     OW22843   3.179   3.075   3.819 -0.3223  0.1019 -0.0954
 3736SOL    HW122844   3.121   3.065   3.744 -1.3172 -2.0410  0.9349
 3736SOL    HW222845   3.258   3.102   3.772 -0.1662 -0.0703  0.0684
 3737SOL     OW22846   2.868   2.033   2.460 -0.3074 -0.3714  0.6853
 3737SOL    HW122847   2.912   2.118   2.463 -0.8721 -0.0587  0.1299
 3737SOL    HW222848   2.934   1.967   2.440 -0.6563 -0.2484 -0.8334
 3738SOL     OW22849   1.766   3.218   7.833 -0.3194 -0.1057 -0.4769
 3738SOL    HW122850   1.837   3.250   7.889 -1.1136  0.3803  0.2560
 3738SOL    HW222851   1.707   3.293   7.836 -1.0711 -0.6233 -2.1029
 3739SOL     OW22852   0.279   3.750   5.583 -0.4805  0.2504  0.3620
 3739SOL    HW122853   0.296   3.703   5.502  1.7037  0.1949  0.8728
 3739SOL    HW222854   0.323   3.698   5.650 -1.8499  0.7699  1.6683
 3740SOL     OW22855   1.324   3.983   9.882  0.0051 -0.0226  0.1700
 3740SOL    HW122856   1.292   3.903   9.840  0.1562  0.2948 -0.5585
 3740SOL    HW222857   1.405   3.959   9.925  0.2932  1.3425  0.3880
 3741SOL     OW22858   0.288   0.907   5.379  0.3732 -0.4805  0.2187
 3741SOL    HW122859   0.280   0.862   5.463  0.0139  1.6542  1.3271
 3741SOL    HW222860   0.375   0.947   5.385 -1.4438  3.6033 -0.4053
 3742SOL     OW22861   4.122   1.741   6.841  0.1183  0.0225  0.2213
 3742SOL    HW122862   4.085   1.660   6.806  1.0742  0.7262 -2.3770
 3742SOL    HW222863   4.166   1.762   6.759 -1.7173  2.2582 -0.2073
 3743SOL     OW22864   3.866   1.509   6.400  0.7702  0.0869 -0.1389
 3743SOL    HW122865   3.923   1.508   6.476  0.2074 -2.5274  0.2412
 3743SOL    HW222866   3.777   1.489   6.430  1.4103 -1.6671  0.5851
 3744SOL     OW22867   2.752   2.414   3.258 -0.1801  0.6216 -0.4126
 3744SOL    HW122868   2.834   2.456   3.234  0.8746 -2.3222 -1.8796
 3744SOL    HW222869   2.692   2.487   3.276 -1.4881 -0.3516 -0.8632
 3745SOL     OW22870   2.041   4.110   2.892  0.3621  0.0902  0.7048
 3745SOL    HW122871   2.097   4.141   2.821 -0.3429  0.6884  0.4088
 3745SOL    HW222872   1.960   4.161   2.880 -0.3259 -1.0648  0.4638
 3746SOL     OW22873   2.537   2.015   0.690 -0.2253 -0.2359 -0.0775
 3746SOL    HW122874   2.547   1.931   0.735  0.8769 -0.5531 -0.9079
 3746SOL    HW222875   2.591   1.998   0.613  1.5126 -0.7336  1.2409
 3747SOL     OW22876   4.358   2.606   5.569 -0.4628 -0.3073 -0.1322
 3747SOL    HW122877   4.372   2.556   5.489  0.2721 -0.1065 -0.1279
 3747SOL    HW222878   4.436   2.661   5.571 -0.1202 -0.8982  2.7730
 3748SOL     OW22879   2.154   1.765   2.189  0.7584 -0.4650  0.1580
 3748SOL    HW122880   2.115   1.848   2.214 -0.6208 -0.6350 -1.4446
 3748SOL    HW222881   2.248   1.781   2.202  0.5108 -0.0125  1.4288
 3749SOL     OW22882   3.750   4.126   8.914  0.0348  0.2350  0.0453
 3749SOL    HW122883   3.766   4.216   8.886 -3.5119  1.3885  1.7525
 3749SOL    HW222884   3.705   4.084   8.840 -1.4358  1.7076  0.1377
 3750SOL     OW22885   2.858   3.328   8.916  0.4157 -0.6328  0.1258
 3750SOL    HW122886   2.765   3.350   8.922  0.6155  0.4778 -0.8393
 3750SOL    HW222887   2.885   3.388   8.846  0.0636 -1.3283 -0.6158
 3751SOL     OW22888   3.472   0.764  15.090  0.4773 -0.2250  0.1776
 3751SOL    HW122889   3.513   0.680  15.110 -2.6203 -1.4931  1.1379
 3751SOL    HW222890   3.379   0.743  15.099  0.3125  1.1885  1.8418
 3752SOL     OW22891   0.417   1.143   6.834  0.5765 -0.3249  0.0762
 3752SOL    HW122892   0.467   1.139   6.915 -2.1833  0.5213  1.8454
 3752SOL    HW222893   0.402   1.237   6.844  0.2001 -0.0003 -3.5199
 3753SOL     OW22894   2.173   2.573   5.231  0.1516 -0.0765  0.1569
 3753SOL    HW122895   2.242   2.574   5.298  1.7955  0.3261 -1.5531
 3753SOL    HW222896   2.094   2.587   5.283  0.2773 -0.4556  0.4502
 3754SOL     OW22897   3.539   0.799   5.975 -0.2588  0.1810  0.1348
 3754SOL    HW122898   3.466   0.758   6.022 -0.2645  0.1426  0.0929
 3754SOL    HW222899   3.572   0.860   6.041 -0.8559  1.0006 -0.3223
 3755SOL     OW22900   1.820   1.763  11.950 -0.3715 -0.6477  0.1238
 3755SOL    HW122901   1.788   1.769  12.040 -2.4723  0.2567 -0.6684
 3755SOL    HW222902   1.879   1.688  11.948 -0.1446 -0.4739  0.2481
 3756SOL     OW22903   4.171   3.095   7.272  0.2808 -0.7643 -0.0316
 3756SOL    HW122904   4.252   3.142   7.292  0.1591  0.1070 -1.5807
 3756SOL    HW222905   4.163   3.118   7.179  2.2129 -1.7002 -0.4175
 3757SOL     OW22906   0.780   3.990  13.955  0.2485 -0.4610  0.1679
 3757SOL    HW122907   0.852   3.945  13.999  0.3236 -1.3569 -0.8900
 3757SOL    HW222908   0.758   3.919  13.896  0.1717  0.7439 -1.2520
 3758SOL     OW22909   4.551   2.033  12.803 -0.0642  0.2548  0.6095
 3758SOL    HW122910   4.572   1.987  12.722 -1.7723  0.5020  0.0498
 3758SOL    HW222911   4.566   1.964  12.868  2.6085  1.3895  1.2035
 3759SOL     OW22912   4.345   1.950  14.675 -0.2671  0.3275  0.2647
 3759SOL    HW122913   4.410   2.007  14.717  0.4146  0.7790 -1.3910
 3759SOL    HW222914   4.280   2.014  14.645  0.3142  1.2110  0.8830
 3760SOL     OW22915   1.061   3.182   3.152 -0.0284  0.0280 -0.2588
 3760SOL    HW122916   0.999   3.246   3.117 -0.5281  0.0599  0.6863
 3760SOL    HW222917   1.005   3.119   3.198  1.5457 -0.6875  0.6615
 3761SOL     OW22918   0.328   2.776   7.868  0.2989  0.4208  0.2193
 3761SOL    HW122919   0.240   2.813   7.869 -0.5438 -1.6353  2.1159
 3761SOL    HW222920   0.375   2.850   7.905  1.3616 -1.2905  2.3154
 3762SOL     OW22921   2.297   1.995   3.167  0.2243  0.0584 -0.1495
 3762SOL    HW122922   2.204   2.017   3.158  0.1398 -0.6448 -1.0230
 3762SOL    HW222923   2.342   2.042   3.096  2.8161 -0.2160  1.3035
 3763SOL     OW22924   1.377   1.809  12.341  0.2464  0.0350  0.2646
 3763SOL    HW122925   1.422   1.890  12.314  0.8767  0.5196  2.7695
 3763SOL    HW222926   1.395   1.744  12.273  0.2457  0.7556 -0.4333
 3764SOL     OW22927   1.261   0.787   4.215  0.1750 -0.0948 -0.4119
 3764SOL    HW122928   1.332   0.843   4.245 -0.8630  0.3940  1.1218
 3764SOL    HW222929   1.193   0.807   4.279  0.5261 -0.2785  0.0187
 3765SOL     OW22930   3.830   4.170   9.297  0.1786 -0.1299 -0.4004
 3765SOL    HW122931   3.757   4.172   9.359  2.6693 -0.5345  2.5424
 3765SOL    HW222932   3.823   4.262   9.271  1.5157 -0.2419 -1.1701
 3766SOL     OW22933   0.100   2.682   6.688 -0.0376 -0.4503  0.4588
 3766SOL    HW122934   0.151   2.713   6.763  0.4471 -0.4733  0.1401
 3766SOL    HW222935   0.075   2.595   6.717 -1.4249 -0.4144 -0.6439
 3767SOL     OW22936   0.393   0.421  15.855 -0.4465  0.0787 -0.2758
 3767SOL    HW122937   0.311   0.471  15.848 -0.9613 -0.6011  0.8927
 3767SOL    HW222938   0.358   0.343  15.899 -1.3823  0.2256 -0.7459
 3768SOL     OW22939   1.099   1.474  12.315  0.3978 -0.1014  0.0460
 3768SOL    HW122940   1.061   1.408  12.372  3.0336 -0.1250  1.7434
 3768SOL    HW222941   1.192   1.473  12.336  0.4936  1.4300 -0.2615
 3769SOL     OW22942   3.209   0.286  14.578 -0.3761 -0.0686 -0.4825
 3769SOL    HW122943   3.204   0.213  14.516  0.7753 -1.3257  0.9270
 3769SOL    HW222944   3.228   0.245  14.662 -0.5414 -1.4656 -1.1125
 3770SOL     OW22945   3.155   2.450  13.926  0.6560  0.2376  0.2727
 3770SOL    HW122946   3.205   2.531  13.922  1.1541 -0.1185 -0.7657
 3770SOL    HW222947   3.175   2.420  13.837 -0.0196  1.4547 -0.2954
 3771SOL     OW22948   4.613   0.980  16.475 -0.5466  0.0119  0.2183
 3771SOL    HW122949   4.684   1.019  16.525 -1.6893 -1.5122  2.9911
 3771SOL    HW222950   4.578   0.916  16.537  0.2849 -1.7760 -1.1373
 3772SOL     OW22951   1.138   1.201   1.968  0.1070 -0.5875  0.0435
 3772SOL    HW122952   1.155   1.290   2.000  2.0777 -0.7125 -0.6648
 3772SOL    HW222953   1.058   1.176   2.014  0.2322  1.1601  1.2316
 3773SOL     OW22954   2.888   3.565   8.750 -0.4078  0.0005  0.2079
 3773SOL    HW122955   2.948   3.593   8.681 -1.6068  1.7263 -0.1479
 3773SOL    HW222956   2.874   3.650   8.792  0.3237 -0.4258  1.3310
 3774SOL     OW22957   1.983   1.859   4.256 -0.4498  0.4352 -0.4322
 3774SOL    HW122958   1.945   1.905   4.331 -0.2027 -0.8420  0.4727
 3774SOL    HW222959   2.046   1.800   4.297  1.6919  2.7673 -0.3702
 3775SOL     OW22960   3.729   2.709   2.828  0.1942  0.3733  0.3072
 3775SOL    HW122961   3.711   2.649   2.901  2.2281 -1.3579 -0.5913
 3775SOL    HW222962   3.748   2.788   2.879 -2.2916  0.9058  0.3784
 3776SOL     OW22963   2.152   4.597   4.204  0.4155  0.0643 -0.6556
 3776SOL    HW122964   2.165   4.614   4.110  0.7393  1.0336 -0.4376
 3776SOL    HW222965   2.191   4.677   4.239  2.6922 -1.7332  0.8709
 3777SOL     OW22966   2.191   2.513  13.907 -0.1985  0.1804  0.4358
 3777SOL    HW122967   2.105   2.521  13.866  0.2530  1.2182 -0.3049
 3777SOL    HW222968   2.244   2.512  13.828 -0.2421  2.3902  0.3787
 3778SOL     OW22969   0.063   2.250   7.089  0.1418  0.2583  0.3783
 3778SOL    HW122970   0.079   2.177   7.028  1.4986  0.0325  1.0111
 3778SOL    HW222971   4.723   2.215   7.139 -0.0016  0.1215  0.0721
 3779SOL     OW22972   2.730   3.469   3.453  0.3525 -0.2518 -0.1545
 3779SOL    HW122973   2.664   3.474   3.383  0.0868 -0.7579  0.0628
 3779SOL    HW222974   2.692   3.534   3.512 -0.1658 -0.6721 -0.0198
 3780SOL     OW22975   1.050   1.037   2.804  0.0556 -0.0123  0.4870
 3780SOL    HW122976   1.010   0.952   2.785 -1.5862  0.3783  2.0725
 3780SOL    HW222977   1.135   1.000   2.826  0.0133 -0.8099 -0.7232
 3781SOL     OW22978   4.508   3.777  11.032  0.0211  0.3311  0.3974
 3781SOL    HW122979   4.437   3.740  11.084 -2.3173  2.5685 -1.2197
 3781SOL    HW222980   4.580   3.722  11.062 -0.2474 -0.6333 -0.7418
 3782SOL     OW22981   2.442   0.388  12.933 -0.1493  0.3778 -0.2252
 3782SOL    HW122982   2.425   0.472  12.890  2.1850  0.3578 -1.2156
 3782SOL    HW222983   2.524   0.417  12.973  0.0455  0.9914 -1.0483
 3783SOL     OW22984   0.998   1.028   8.785  0.0737 -0.0521  0.3783
 3783SOL    HW122985   0.989   1.120   8.757  2.9054  0.2693  0.5330
 3783SOL    HW222986   0.905   1.014   8.803  0.3137 -0.0616  1.5759
 3784SOL     OW22987   2.947   2.030  16.810 -0.0412  0.0188  0.0034
 3784SOL    HW122988   2.895   2.028  16.891 -2.4508 -1.0317 -1.5712
 3784SOL    HW222989   2.884   1.977  16.761  2.3375  0.1197 -3.1954
 3785SOL     OW22990   1.033   1.028   5.835  0.2769  0.0771 -0.5914
 3785SOL    HW122991   0.988   1.111   5.852  2.0489  0.9392 -0.1563
 3785SOL    HW222992   1.009   0.975   5.912  2.2829 -0.2059 -0.1740
 3786SOL     OW22993   4.406   3.735   9.992  0.8080 -0.8673 -0.4714
 3786SOL    HW122994   4.441   3.743   9.903  3.2992  0.7462  0.6463
 3786SOL    HW222995   4.369   3.647   9.995 -0.5352 -0.2593  0.4721
 3787SOL     OW22996   3.082   3.263   5.416 -0.0989 -0.2361  0.0365
 3787SOL    HW122997   3.074   3.196   5.349 -2.8629 -0.5138  0.6360
 3787SOL    HW222998   2.992   3.294   5.411 -0.4511 -0.8338  2.6987
 3788SOL     OW22999   4.136   0.161   8.727 -0.1410 -0.5260 -0.2168
 3788SOL    HW123000   4.198   0.091   8.745  0.9274  0.4788 -0.0637
 3788SOL    HW223001   4.157   0.184   8.636 -0.4095  2.8403  0.5730
 3789SOL     OW23002   3.597   0.360   5.446 -0.0105  0.4012  0.0014
 3789SOL    HW123003   3.552   0.410   5.514  3.0074  2.4807  0.4489
 3789SOL    HW223004   3.685   0.397   5.443 -0.6101  1.7275 -1.3840
 3790SOL     OW23005   3.330   4.660  12.775  0.5638 -0.0266  0.1395
 3790SOL    HW123006   3.252   4.645  12.829 -1.1910 -0.5751 -2.5263
 3790SOL    HW223007   3.388   4.601  12.824  0.0945 -0.3988  0.2596
 3791SOL     OW23008   0.376   1.565  16.310  0.3067  0.4169 -0.1662
 3791SOL    HW123009   0.302   1.512  16.278  1.1816  0.7587 -2.7397
 3791SOL    HW223010   0.421   1.488  16.345  1.9417  1.8097  0.7469
 3792SOL     OW23011   3.236   3.408  10.498  0.3541 -0.2732  0.5246
 3792SOL    HW123012   3.149   3.393  10.533  0.5942 -1.3197  0.6856
 3792SOL    HW223013   3.284   3.431  10.577  0.8670 -0.2947  0.2225
 3793SOL     OW23014   4.268   0.627   3.504 -0.5660  0.0959  0.3561
 3793SOL    HW123015   4.357   0.646   3.532 -0.8769  2.2403 -0.1527
 3793SOL    HW223016   4.229   0.706   3.541  0.0773  1.7859 -2.5390
 3794SOL     OW23017   4.461   4.325   5.065 -0.1320  0.0474 -0.1216
 3794SOL    HW123018   4.534   4.366   5.018 -0.9560  1.2313 -0.3637
 3794SOL    HW223019   4.389   4.382   5.037 -0.3696  0.2332  0.8781
 3795SOL     OW23020   4.096   2.688   5.642 -0.3617  0.1938  0.0515
 3795SOL    HW123021   4.183   2.660   5.616 -1.0211 -2.2721  0.4395
 3795SOL    HW223022   4.106   2.778   5.612 -1.6907  0.8609  1.5914
 3796SOL     OW23023   4.260   3.783   1.189  0.3668 -0.0464 -0.1590
 3796SOL    HW123024   4.346   3.752   1.217  0.9639  2.4135  0.6604
 3796SOL    HW223025   4.247   3.713   1.125  1.8457  1.1913 -1.7966
 3797SOL     OW23026   4.127   0.231   7.549  0.2049  0.3082 -0.3621
 3797SOL    HW123027   4.179   0.250   7.627 -1.4163 -0.2846  0.8592
 3797SOL    HW223028   4.190   0.205   7.481  0.7044 -0.8498  0.5510
 3798SOL     OW23029   0.356   3.569   8.468 -0.1497 -0.5296  0.5663
 3798SOL    HW123030   0.334   3.661   8.476  1.5684 -0.0468 -0.3759
 3798SOL    HW223031   0.388   3.565   8.378  0.7179  1.8502  0.7740
 3799SOL     OW23032   3.340   2.163  14.211 -0.5720  0.1166  0.2794
 3799SOL    HW123033   3.275   2.171  14.141  0.4410  0.9419 -0.5670
 3799SOL    HW223034   3.321   2.077  14.251 -1.5763  1.5272  2.8333
 3800SOL     OW23035   3.428   3.404   9.070 -0.4164 -0.2009  0.1031
 3800SOL    HW123036   3.450   3.486   9.025 -1.2271  1.5088  2.8388
 3800SOL    HW223037   3.349   3.432   9.117 -0.4460  1.0135 -0.6651
 3801SOL     OW23038   2.416   1.151   8.168 -0.3364 -0.3637 -0.3465
 3801SOL    HW123039   2.322   1.169   8.156 -0.1908  0.7429  0.1890
 3801SOL    HW223040   2.453   1.218   8.110 -1.4706  1.6784  1.2818
 3802SOL     OW23041   4.054   1.942   8.028 -0.5518 -0.2673 -0.2297
 3802SOL    HW123042   4.106   1.864   8.048 -2.5657 -2.4763 -3.7113
 3802SOL    HW223043   4.021   1.963   8.115  0.5554  2.0477 -0.3661
 3803SOL     OW23044   0.064   0.900   2.041 -0.4643 -0.3731 -0.6260
 3803SOL    HW123045   0.024   0.819   2.008  1.0538  0.3180 -4.2100
 3803SOL    HW223046   0.073   0.959   1.965 -1.1271 -1.4065 -1.5134
 3804SOL     OW23047   1.140   3.862   5.229  0.2884 -0.0051 -0.5514
 3804SOL    HW123048   1.057   3.879   5.184  0.3068  1.5392  0.0043
 3804SOL    HW223049   1.193   3.893   5.155 -0.5893  2.2373 -0.2182
 3805SOL     OW23050   0.219   1.227  11.504 -0.1171 -0.1386 -0.2172
 3805SOL    HW123051   0.301   1.273  11.485 -0.1705 -0.6138 -1.6083
 3805SOL    HW223052   0.162   1.303  11.513 -1.0822 -0.8994  0.1696
 3806SOL     OW23053   4.362   2.206   9.027  0.1255 -0.4074 -0.4752
 3806SOL    HW123054   4.433   2.270   9.033 -0.3138  0.0140  0.2015
 3806SOL    HW223055   4.395   2.142   9.091 -1.9992 -1.0518  0.0010
 3807SOL     OW23056   4.000   0.093   5.721  0.6409 -0.0209 -0.1672
 3807SOL    HW123057   3.939   0.167   5.719  0.7571  0.1239  1.3418
 3807SOL    HW223058   4.061   0.113   5.650 -0.6314  3.3245 -0.3332
 3808SOL     OW23059   0.693   0.657   7.472 -0.7142  0.2338 -0.3567
 3808SOL    HW123060   0.645   0.591   7.421 -1.6229 -0.4026  1.3156
 3808SOL    HW223061   0.739   0.599   7.533 -0.2616  0.1157 -0.8143
 3809SOL     OW23062   0.176   4.251   4.312  0.0379 -0.7234 -0.0753
 3809SOL    HW123063   0.240   4.214   4.373 -0.1886  0.5232  0.9119
 3809SOL    HW223064   0.233   4.307   4.260  1.0360  0.2922  2.1013
 3810SOL     OW23065   0.194   2.538   6.410  0.1012 -0.2702 -0.0158
 3810SOL    HW123066   0.265   2.546   6.474  0.5477 -0.0647 -0.5297
 3810SOL    HW223067   0.225   2.606   6.349  1.3115 -2.7447 -2.2023
 3811SOL     OW23068   0.031   4.336   8.344  0.2947  0.5942  0.2475
 3811SOL    HW123069   4.693   4.275   8.329 -0.1878  0.6793  2.2929
 3811SOL    HW223070   4.715   4.415   8.361 -0.4410  0.2432 -0.3309
 3812SOL     OW23071   3.676   3.846   4.877 -0.2718  0.0855  0.3852
 3812SOL    HW123072   3.615   3.916   4.853 -2.1992 -0.9454  2.2801
 3812SOL    HW223073   3.752   3.905   4.880 -1.6622  1.9040  0.4251
 3813SOL     OW23074   1.676   0.050   8.021 -0.4377  0.2237 -0.5439
 3813SOL    HW123075   1.702   4.722   7.953 -1.1231  1.1929 -1.6875
 3813SOL    HW223076   1.721   0.015   8.099 -1.4964 -0.3270 -0.1867
 3814SOL     OW23077   4.004   2.234   1.696 -0.5624 -0.6005 -0.9650
 3814SOL    HW123078   4.063   2.168   1.659  1.2647 -0.1771  1.2018
 3814SOL    HW223079   3.996   2.204   1.787 -1.0228 -2.0453 -1.4868
 3815SOL     OW23080   1.199   4.049   4.711 -0.2463  0.9228  0.4085
 3815SOL    HW123081   1.111   4.065   4.745  0.0827  2.7757  0.4076
 3815SOL    HW223082   1.186   4.004   4.628 -0.8658  1.0881  0.4166
 3816SOL     OW23083   3.957   1.016  12.369 -0.0745 -0.0811  0.2987
 3816SOL    HW123084   3.898   0.941  12.375  0.3105 -0.3794  0.3655
 3816SOL    HW223085   3.948   1.048  12.280  0.9772  0.1454  0.2752
 3817SOL     OW23086   3.404   4.025   6.889  0.3192  0.3519 -0.4599
 3817SOL    HW123087   3.450   3.982   6.961 -0.5398  1.9707  1.0474
 3817SOL    HW223088   3.437   4.114   6.898 -1.8251  1.3601 -2.3634
 3818SOL     OW23089   4.560   1.616   4.227  0.0489 -0.7250  0.0175
 3818SOL    HW123090   4.587   1.708   4.229 -1.5793 -0.2833  0.8638
 3818SOL    HW223091   4.548   1.591   4.318 -1.3048  1.4594  0.4210
 3819SOL     OW23092   0.021   0.491   5.250  0.0560  0.6456 -0.0905
 3819SOL    HW123093   0.035   0.558   5.316 -2.9498  0.7077  0.5025
 3819SOL    HW223094   0.077   0.516   5.177 -0.4229 -0.6956 -0.9178
 3820SOL     OW23095   4.039   0.944   2.429  0.3262  0.6515  0.5657
 3820SOL    HW123096   4.018   0.863   2.474 -1.8867  1.6350  1.2951
 3820SOL    HW223097   3.951   0.981   2.420 -0.1181  0.0229  2.3583
 3821SOL     OW23098   3.560   1.522   6.220  0.3440 -0.4703  0.0910
 3821SOL    HW123099   3.560   1.500   6.313 -0.1871 -2.3263 -0.3589
 3821SOL    HW223100   3.610   1.452   6.178  0.7541  0.1650 -0.5065
 3822SOL     OW23101   4.703   1.127   6.141  0.4197 -0.0897  0.4403
 3822SOL    HW123102   0.003   1.049   6.096  0.6723  0.3442 -0.1167
 3822SOL    HW223103   4.699   1.188   6.068 -1.4695 -1.1738 -0.3826
 3823SOL     OW23104   2.924   1.286   2.153 -0.5904 -0.1002  0.4819
 3823SOL    HW123105   2.866   1.353   2.189  1.0402  1.5168  0.1158
 3823SOL    HW223106   2.911   1.209   2.208 -1.6571 -0.1095  0.2168
 3824SOL     OW23107   1.714   4.624   5.469 -0.1299  0.3895 -0.0482
 3824SOL    HW123108   1.780   4.664   5.413  2.2566 -1.6164  1.3091
 3824SOL    HW223109   1.721   4.671   5.552  1.1155 -1.3275  0.8133
 3825SOL     OW23110   1.458   2.918   5.713  0.1185 -0.2424  0.1355
 3825SOL    HW123111   1.409   2.838   5.694 -2.0116  1.1048 -0.0302
 3825SOL    HW223112   1.454   2.959   5.627 -0.8459  0.4745  0.5164
 3826SOL     OW23113   1.667   1.594  10.315 -0.6540  0.4875  0.6712
 3826SOL    HW123114   1.690   1.679  10.354  0.9974  0.5255 -0.3809
 3826SOL    HW223115   1.588   1.614  10.266  1.0180  1.3071 -1.7274
 3827SOL     OW23116   1.169   2.515   7.984  0.3028  0.1314  1.1740
 3827SOL    HW123117   1.134   2.601   8.010 -1.3301 -0.0970 -0.2899
 3827SOL    HW223118   1.240   2.502   8.047  0.9849 -1.8706 -0.0073
 3828SOL     OW23119   3.441   0.748  15.610  0.7418  0.1136  0.5310
 3828SOL    HW123120   3.459   0.669  15.559  1.1266 -0.3649  1.4048
 3828SOL    HW223121   3.345   0.752  15.609  0.7557  0.7618  1.2916
 3829SOL     OW23122   1.871   0.323   5.547 -0.0184 -0.2505  0.4502
 3829SOL    HW123123   1.927   0.340   5.471  0.6678 -0.8436  0.8232
 3829SOL    HW223124   1.786   0.316   5.503  0.1819 -0.0995  0.0387
 3830SOL     OW23125   1.303   1.541   3.631 -0.0755  0.6430  0.8965
 3830SOL    HW123126   1.216   1.501   3.627  0.4135 -0.1847 -1.5474
 3830SOL    HW223127   1.339   1.537   3.543 -0.6639  4.3299  0.4967
 3831SOL     OW23128   0.540   2.969   3.115  0.0145 -0.5137  0.4760
 3831SOL    HW123129   0.499   2.926   3.040 -1.1470  2.2878 -0.4999
 3831SOL    HW223130   0.633   2.953   3.102 -0.1014 -0.4380 -0.4280
 3832SOL     OW23131   3.600   0.508   6.646 -0.0031 -0.0841  0.4015
 3832SOL    HW123132   3.659   0.448   6.599 -0.2407 -0.1439  0.1796
 3832SOL    HW223133   3.606   0.465   6.731 -2.6595 -1.7313 -0.2523
 3833SOL     OW23134   1.394   3.926   8.967 -0.1117 -0.4356 -0.8767
 3833SOL    HW123135   1.484   3.926   8.934  0.0396 -1.2140 -0.4724
 3833SOL    HW223136   1.386   3.836   9.000 -1.6992 -0.0043 -0.0629
 3834SOL     OW23137   2.308   2.311   4.048  0.3232  0.1361  0.3905
 3834SOL    HW123138   2.294   2.401   4.020  0.3090  0.2138  0.6454
 3834SOL    HW223139   2.375   2.288   3.984 -0.1621 -1.7654  0.5489
 3835SOL     OW23140   3.977   0.694   8.397 -0.1306  0.3097 -0.0456
 3835SOL    HW123141   3.939   0.630   8.458  0.5103 -0.8365 -0.8346
 3835SOL    HW223142   3.990   0.777   8.442  0.3682 -0.3873  1.0788
 3836SOL     OW23143   0.244   4.331   2.622 -0.5341 -0.4401 -0.2401
 3836SOL    HW123144   0.212   4.310   2.710 -1.2305 -0.2382 -0.4466
 3836SOL    HW223145   0.169   4.380   2.587 -0.2164  0.7382  0.7208
 3837SOL     OW23146   0.942   0.780  11.502  0.0282 -0.1576  0.1162
 3837SOL    HW123147   0.892   0.702  11.480  0.4862 -0.7444  1.1643
 3837SOL    HW223148   0.872   0.825  11.548 -0.6848 -2.1049  0.9444
 3838SOL     OW23149   1.884   3.330  11.767  0.4025  0.0190  0.3079
 3838SOL    HW123150   1.891   3.256  11.705  2.3303  0.5888 -0.1675
 3838SOL    HW223151   1.894   3.406  11.710 -1.6629  0.3389  0.3972
 3839SOL     OW23152   2.014   2.526   7.003 -0.3967  0.4231 -0.4372
 3839SOL    HW123153   2.109   2.523   6.990 -0.6773  0.2949 -2.4507
 3839SOL    HW223154   2.001   2.606   6.953 -0.5257  0.7162  0.0593
 3840SOL     OW23155   0.148   3.635   1.415  0.2477  0.0642 -0.1496
 3840SOL    HW123156   0.191   3.642   1.330 -0.5459 -0.9699 -0.6373
 3840SOL    HW223157   0.201   3.691   1.471 -1.0776 -0.1682  1.3276
 3841SOL     OW23158   3.827   3.614   7.836  0.4593  0.3785  0.0610
 3841SOL    HW123159   3.844   3.607   7.930  0.3928 -1.0524 -0.0237
 3841SOL    HW223160   3.914   3.602   7.799  1.0641  1.2885  1.2177
 3842SOL     OW23161   0.338   3.244   2.341 -0.2903  0.0017  0.8116
 3842SOL    HW123162   0.344   3.163   2.292 -0.5451  0.5402 -0.1079
 3842SOL    HW223163   0.395   3.303   2.291 -0.5717 -0.9454 -0.6132
 3843SOL     OW23164   4.288   1.968  16.676 -0.2704  0.8647 -0.2823
 3843SOL    HW123165   4.200   1.930  16.682  0.8209 -1.2882  1.8012
 3843SOL    HW223166   4.304   1.995  16.767 -1.2785 -1.1349  0.4889
 3844SOL     OW23167   3.639   3.804   9.792 -0.5232  0.1796  0.1627
 3844SOL    HW123168   3.673   3.726   9.835 -0.7145 -1.5948 -2.9041
 3844SOL    HW223169   3.616   3.773   9.705 -5.0289 -1.3438  1.9358
 3845SOL     OW23170   2.503   0.019   7.337  0.6298  0.1034 -1.0693
 3845SOL    HW123171   2.528   4.697   7.411 -0.0648  0.4054 -0.6085
 3845SOL    HW223172   2.450   0.088   7.376  1.1567  0.6840 -1.3781
 3846SOL     OW23173   1.354   2.295   2.592 -0.1628 -0.2267 -0.0633
 3846SOL    HW123174   1.364   2.336   2.506 -1.1716  1.4043  0.5896
 3846SOL    HW223175   1.365   2.201   2.575  0.1763 -0.4819  1.5493
 3847SOL     OW23176   2.649   1.993  14.226  0.5227  0.3850  0.6541
 3847SOL    HW123177   2.638   1.919  14.167  1.3488  1.2769 -0.6239
 3847SOL    HW223178   2.564   2.035  14.208  0.5656 -0.8340 -2.3902
 3848SOL     OW23179   4.538   2.895   7.618  0.0761  0.1907  0.7174
 3848SOL    HW123180   4.464   2.933   7.665  0.0578 -0.7923  1.4886
 3848SOL    HW223181   4.553   2.816   7.670 -2.1385  0.0589  1.1455
 3849SOL     OW23182   4.731   3.271  10.717 -0.6744  0.1679 -0.2347
 3849SOL    HW123183   0.083   3.251  10.682 -0.4418  1.0584 -0.1854
 3849SOL    HW223184   4.719   3.365  10.703  2.1675  0.5680  0.0991
 3850SOL     OW23185   3.678   2.796   2.147 -0.1161  0.1506 -0.3896
 3850SOL    HW123186   3.736   2.751   2.086  1.5646  1.4930  0.2470
 3850SOL    HW223187   3.603   2.736   2.150  0.5397 -0.5837  0.9556
 3851SOL     OW23188   0.002   3.115   0.806  0.3755 -0.0424 -0.5185
 3851SOL    HW123189   4.713   3.071   0.887  1.0444  1.3205  0.4075
 3851SOL    HW223190   0.024   3.033   0.760 -0.4728 -0.1891 -0.6654
 3852SOL     OW23191   4.358   3.989   4.745  0.6312 -0.1548  0.3602
 3852SOL    HW123192   4.324   4.021   4.829  3.6773 -0.4593  1.6878
 3852SOL    HW223193   4.277   3.957   4.704  0.8387 -1.0857  0.6966
 3853SOL     OW23194   2.292   3.073   8.191  0.7458 -0.6068  0.3022
 3853SOL    HW123195   2.283   3.132   8.265  0.3114 -0.1177 -0.1414
 3853SOL    HW223196   2.201   3.076   8.163  0.4599  0.3461  1.3492
 3854SOL     OW23197   1.840   1.326   2.399  0.3119  0.1297 -0.3227
 3854SOL    HW123198   1.823   1.296   2.309 -2.8742 -0.3779  0.4403
 3854SOL    HW223199   1.892   1.405   2.387 -0.1608  0.4578 -0.2167
 3855SOL     OW23200   1.000   3.167   2.859 -0.3142 -0.2693  0.4369
 3855SOL    HW123201   1.031   3.252   2.829  1.2613 -1.4744 -1.3400
 3855SOL    HW223202   0.938   3.188   2.928 -1.6843  0.0619 -0.9084
 3856SOL     OW23203   4.390   3.406   5.999 -0.2137  0.0357  0.0832
 3856SOL    HW123204   4.344   3.459   5.934 -1.2753 -1.1977 -0.1698
 3856SOL    HW223205   4.476   3.439   5.976 -0.2244  1.1030  1.5868
 3857SOL     OW23206   0.848   2.930   6.415  0.3430 -0.4951 -0.0753
 3857SOL    HW123207   0.875   2.990   6.346 -1.8384  0.5639 -0.0120
 3857SOL    HW223208   0.907   2.856   6.403 -0.2547 -1.0073  0.1607
 3858SOL     OW23209   1.308   0.989   6.478 -0.1176 -0.0307  0.6633
 3858SOL    HW123210   1.224   0.948   6.458 -0.8928  2.0024 -0.2690
 3858SOL    HW223211   1.286   1.073   6.438 -1.4238 -0.8448 -0.2817
 3859SOL     OW23212   3.011   3.320  15.149 -0.4976  0.1503 -0.1964
 3859SOL    HW123213   2.996   3.235  15.189 -0.3778  0.2830  0.1294
 3859SOL    HW223214   2.981   3.312  15.059 -0.9641 -2.1668  0.1839
 3860SOL     OW23215   2.704   0.249   7.464 -1.2909 -0.7537 -0.6925
 3860SOL    HW123216   2.733   0.184   7.528 -0.4040 -0.5984 -0.9350
 3860SOL    HW223217   2.776   0.239   7.402  2.2331  1.8292  3.0222
 3861SOL     OW23218   0.696   3.194   8.165 -0.7452  0.5873  0.0444
 3861SOL    HW123219   0.713   3.107   8.199  0.5949  0.7053 -0.3384
 3861SOL    HW223220   0.654   3.195   8.079  0.2543  0.6791 -0.4356
 3862SOL     OW23221   2.236   1.812   9.237 -0.0316  0.3186  0.2213
 3862SOL    HW123222   2.223   1.753   9.162 -1.2754 -2.6823  2.7636
 3862SOL    HW223223   2.289   1.757   9.295 -1.4268 -1.1939  0.0817
 3863SOL     OW23224   0.626   2.003   8.260  0.2455 -0.4626  0.5677
 3863SOL    HW123225   0.708   2.012   8.308  0.0905 -0.9619  0.9329
 3863SOL    HW223226   0.600   1.917   8.296  1.3465 -0.9101  0.2698
 3864SOL     OW23227   2.285   2.379   8.297  0.3275  0.3130  0.0510
 3864SOL    HW123228   2.255   2.438   8.228  1.1454 -0.5832 -1.0663
 3864SOL    HW223229   2.223   2.390   8.369 -2.2831 -2.1072 -1.8378
 3865SOL     OW23230   0.893   2.228   8.628  0.1129 -0.0738 -0.4254
 3865SOL    HW123231   0.854   2.315   8.623  2.2996  0.8988 -0.4501
 3865SOL    HW223232   0.904   2.211   8.722 -2.6283  2.6934  0.3672
 3866SOL     OW23233   0.492   4.196   7.813  0.2518 -0.0701  0.0324
 3866SOL    HW123234   0.403   4.227   7.795  0.5458  1.1505  0.6344
 3866SOL    HW223235   0.542   4.266   7.770  0.2382 -0.9099 -1.3541
 3867SOL     OW23236   4.056   1.513  15.000 -0.3807  0.3058 -0.0605
 3867SOL    HW123237   4.011   1.479  15.077  0.2403  1.2397  0.7267
 3867SOL    HW223238   3.977   1.543  14.956  0.5267  1.0272 -1.1880
 3868SOL     OW23239   3.367   1.535   7.134  0.2327  0.1731 -0.1253
 3868SOL    HW123240   3.304   1.586   7.185 -1.3901 -2.0387  0.1016
 3868SOL    HW223241   3.447   1.584   7.153 -0.8377  2.0218 -0.3862
 3869SOL     OW23242   0.645   4.016  11.715 -0.5684 -0.2969 -0.0878
 3869SOL    HW123243   0.684   4.056  11.793  3.0491  0.1800 -2.1492
 3869SOL    HW223244   0.658   4.083  11.648  2.1855 -0.0053  0.7589
 3870SOL     OW23245   2.333   3.522   4.219 -0.3010  0.0189 -0.5190
 3870SOL    HW123246   2.344   3.524   4.313 -2.6014  2.4401 -0.2785
 3870SOL    HW223247   2.417   3.479   4.203  0.4525  1.6968 -1.0388
 3871SOL     OW23248   3.012   3.254   9.711  0.2491  0.5755 -0.4534
 3871SOL    HW123249   3.040   3.176   9.664  0.4149  1.2048 -1.4178
 3871SOL    HW223250   3.094   3.300   9.730 -0.3169 -0.1885  3.8576
 3872SOL     OW23251   1.466   2.133   7.149 -0.3310 -0.8809 -0.1155
 3872SOL    HW123252   1.497   2.147   7.060 -0.4477 -0.5357 -0.1010
 3872SOL    HW223253   1.544   2.106   7.198 -1.6048 -2.4229  1.0469
 3873SOL     OW23254   1.486   4.532   5.622 -0.1852 -0.1301  0.2213
 3873SOL    HW123255   1.530   4.546   5.706 -0.9813 -0.6163  0.7234
 3873SOL    HW223256   1.561   4.536   5.563  1.0112  1.0201  1.8339
 3874SOL     OW23257   1.084   3.274   5.207  0.2311  0.2727 -0.0886
 3874SOL    HW123258   1.003   3.227   5.224  0.5102  0.0713  0.7004
 3874SOL    HW223259   1.055   3.355   5.164 -0.5238  0.2083  0.3131
 3875SOL     OW23260   4.184   0.398   6.721  0.1170 -0.1371  0.2800
 3875SOL    HW123261   4.212   0.369   6.808 -0.4124  3.1814  1.5657
 3875SOL    HW223262   4.264   0.424   6.676 -0.2343 -2.1383 -1.5077
 3876SOL     OW23263   4.136   2.556   6.410  0.1845 -0.5681  0.2461
 3876SOL    HW123264   4.188   2.636   6.407 -0.4481 -0.2881 -3.3796
 3876SOL    HW223265   4.190   2.506   6.350 -0.9983 -1.8579  0.2552
 3877SOL     OW23266   4.207   1.281  16.495  0.4136  1.0385  0.3262
 3877SOL    HW123267   4.158   1.241  16.568  0.3716  0.7441  0.1383
 3877SOL    HW223268   4.240   1.357  16.543 -0.7977  2.4201 -1.0090
 3878SOL     OW23269   3.512   0.599   2.492 -0.2275 -0.2422 -0.0973
 3878SOL    HW123270   3.494   0.679   2.541 -0.2009 -1.5712  2.0932
 3878SOL    HW223271   3.520   0.539   2.567  0.2809  1.0340  0.8559
 3879SOL     OW23272   4.412   3.886   0.977 -0.2634 -0.1597 -0.3516
 3879SOL    HW123273   4.426   3.791   0.976 -1.3537 -0.3489  2.3582
 3879SOL    HW223274   4.328   3.899   1.020  0.5454  0.0256  1.1882
 3880SOL     OW23275   0.824   1.541   4.668  0.2543  0.1311  0.4344
 3880SOL    HW123276   0.821   1.599   4.744 -1.5464  1.7933 -0.9245
 3880SOL    HW223277   0.749   1.485   4.688  0.6705 -1.0156 -1.1597
 3881SOL     OW23278   3.067   3.842   2.241 -0.4316  0.0563  0.3697
 3881SOL    HW123279   3.121   3.899   2.295 -2.4631  2.1640  0.1932
 3881SOL    HW223280   2.986   3.832   2.292  0.0161  0.7211  1.2002
 3882SOL     OW23281   4.614   2.370   8.425  0.1823 -0.0811 -0.0435
 3882SOL    HW123282   4.641   2.461   8.436  0.1095 -0.2134  1.2823
 3882SOL    HW223283   4.529   2.390   8.386 -0.1662 -0.3762  0.5520
 3883SOL     OW23284   1.172   4.101   8.498  0.3325 -0.1323  0.3726
 3883SOL    HW123285   1.120   4.163   8.548  1.4190  0.6270  0.5495
 3883SOL    HW223286   1.108   4.031   8.481  1.3937 -0.9255 -0.3633
 3884SOL     OW23287   2.360   2.573   5.421  0.3711 -0.3331 -0.8687
 3884SOL    HW123288   2.288   2.555   5.482  1.3246 -0.5157  0.1823
 3884SOL    HW223289   2.436   2.536   5.465 -0.6200 -0.8952  0.3778
 3885SOL     OW23290   0.813   4.104   2.242 -0.0919  0.4989  0.0433
 3885SOL    HW123291   0.732   4.079   2.287  0.9480 -1.3776  0.8872
 3885SOL    HW223292   0.799   4.062   2.157  0.9047  2.2343 -0.9713
 3886SOL     OW23293   1.807   0.290   7.746 -0.2389  0.2444 -0.3446
 3886SOL    HW123294   1.862   0.312   7.671  1.4080  1.4325  1.1999
 3886SOL    HW223295   1.747   0.364   7.752 -1.5809 -0.7819 -1.0278
 3887SOL     OW23296   1.435   3.828   1.849 -0.8815  0.3044  0.1407
 3887SOL    HW123297   1.346   3.799   1.869 -0.3891 -0.2642  1.4749
 3887SOL    HW223298   1.441   3.787   1.762 -0.8168  1.2296 -0.2921
 3888SOL     OW23299   2.530   2.457   1.991 -0.2264  0.4542  0.2778
 3888SOL    HW123300   2.569   2.543   2.005  0.4293  0.1551  0.3066
 3888SOL    HW223301   2.537   2.459   1.895  0.0269  2.8005  0.3519
 3889SOL     OW23302   1.656   3.539   3.513  0.2073 -0.5031 -0.2956
 3889SOL    HW123303   1.620   3.463   3.467  1.1812 -1.8060  1.0522
 3889SOL    HW223304   1.609   3.611   3.473  0.9565  0.4549  0.5396
 3890SOL     OW23305   0.755   2.419  15.074 -0.0268  0.7437  0.4784
 3890SOL    HW123306   0.723   2.412  15.164  0.4858  0.7501  0.6560
 3890SOL    HW223307   0.843   2.385  15.088  0.1795  1.3222  0.5722
 3891SOL     OW23308   0.837   0.195   1.398 -0.6800 -0.1848 -0.0237
 3891SOL    HW123309   0.865   0.215   1.308  2.8558 -2.1338  0.6365
 3891SOL    HW223310   0.828   0.279   1.443 -0.6996 -0.6196  0.7828
 3892SOL     OW23311   1.478   4.504  16.956  0.5654 -0.6160  0.0818
 3892SOL    HW123312   1.521   4.485  17.040  0.4343 -0.3995  0.1973
 3892SOL    HW223313   1.450   4.594  16.970  1.4576  0.1148 -2.8234
 3893SOL     OW23314   3.376   2.115   7.772 -0.2267  0.2332 -0.7924
 3893SOL    HW123315   3.428   2.035   7.775 -1.5183 -0.5755  0.0826
 3893SOL    HW223316   3.420   2.164   7.841 -1.1770  2.5947 -1.8585
 3894SOL     OW23317   2.523   1.553  14.799 -0.2180 -0.5099 -0.5161
 3894SOL    HW123318   2.579   1.622  14.835  2.4094 -2.1884 -1.3669
 3894SOL    HW223319   2.524   1.483  14.864  0.6643 -1.8905 -1.9973
 3895SOL     OW23320   1.552   4.635   6.630 -0.1112  0.0259 -0.2386
 3895SOL    HW123321   1.508   4.552   6.648 -0.7059  0.6161  1.1297
 3895SOL    HW223322   1.518   4.690   6.701  1.8691 -0.4840  1.0893
 3896SOL     OW23323   2.801   3.664   3.827  0.1268 -0.3297  0.0229
 3896SOL    HW123324   2.710   3.668   3.855 -0.1664 -1.2702 -0.8064
 3896SOL    HW223325   2.795   3.736   3.765  1.8478  0.4867  0.8036
 3897SOL     OW23326   4.128   1.893   4.743  0.3010  0.1139  0.0691
 3897SOL    HW123327   4.035   1.883   4.719  0.3374 -0.9529  0.3615
 3897SOL    HW223328   4.168   1.910   4.658  1.6465 -3.3769 -0.0245
 3898SOL     OW23329   0.588   4.026   7.243 -0.1887  0.2302  0.2998
 3898SOL    HW123330   0.591   4.113   7.203 -1.3954  1.2861  2.5282
 3898SOL    HW223331   0.634   4.048   7.324 -0.3951  1.1330  0.1652
 3899SOL     OW23332   4.625   4.333  17.452 -0.2917  0.2736 -0.0531
 3899SOL    HW123333   4.692   4.340  17.519  1.5947 -2.4926 -1.6691
 3899SOL    HW223334   4.663   4.262  17.399 -1.4527 -1.3806  1.3468
 3900SOL     OW23335   4.287   3.931  13.375  0.4993 -0.0373  0.0784
 3900SOL    HW123336   4.341   3.969  13.443  1.5405 -1.7302  0.2018
 3900SOL    HW223337   4.344   3.914  13.300 -0.8996 -2.9580 -0.3475
 3901SOL     OW23338   0.441   4.447   2.435  0.2397 -0.3442  0.3483
 3901SOL    HW123339   0.397   4.409   2.512 -0.4300 -2.6150 -1.1353
 3901SOL    HW223340   0.529   4.410   2.441 -0.6448 -2.2383  1.8650
 3902SOL     OW23341   0.888   1.947   1.626  0.1304 -0.0974 -0.5880
 3902SOL    HW123342   0.971   1.987   1.599  0.0630 -0.9559 -2.0571
 3902SOL    HW223343   0.876   1.986   1.713  0.1613  0.0665 -0.6564
 3903SOL     OW23344   0.250   1.654  14.836  0.4135 -0.0142 -0.5074
 3903SOL    HW123345   0.297   1.738  14.840 -1.7895  1.2132 -0.4448
 3903SOL    HW223346   0.329   1.605  14.858 -0.0514 -0.6439 -0.2436
 3904SOL     OW23347   0.881   2.339  17.679 -0.1575 -0.4977  0.6957
 3904SOL    HW123348   0.897   2.363  17.587 -1.6253  2.0341  1.0892
 3904SOL    HW223349   0.878   2.244  17.672 -2.0366 -0.2868 -1.4685
 3905SOL     OW23350   3.405   2.139   7.084 -0.1421  0.1416  0.1481
 3905SOL    HW123351   3.458   2.212   7.114  3.4937 -1.4243 -2.5386
 3905SOL    HW223352   3.320   2.182   7.070 -0.1513  0.1454  0.2189
 3906SOL     OW23353   2.478   0.514   2.714  0.2809 -0.1705  0.6095
 3906SOL    HW123354   2.431   0.581   2.765  2.2157  1.9864 -0.4202
 3906SOL    HW223355   2.564   0.509   2.755  0.7596 -1.1621 -0.5249
 3907SOL     OW23356   3.776   1.775   9.728 -0.0882  0.7398 -0.0946
 3907SOL    HW123357   3.793   1.846   9.789  0.8458 -0.3602  0.9224
 3907SOL    HW223358   3.774   1.698   9.786  2.2137 -1.1997 -2.5526
 3908SOL     OW23359   2.566   3.494   3.715 -0.5536  0.1505 -0.1933
 3908SOL    HW123360   2.479   3.482   3.752 -0.2218 -0.8171  0.2625
 3908SOL    HW223361   2.541   3.545   3.638 -0.8424 -0.2496 -0.3594
 3909SOL     OW23362   0.027   3.046  17.697  0.3579  0.3196  0.4848
 3909SOL    HW123363   4.724   3.129  17.666  0.3063  1.1712  2.8826
 3909SOL    HW223364   0.060   3.087   0.039 -1.9062  0.4576  1.3449
 3910SOL     OW23365   2.361   2.779  13.671  0.2145  0.1587 -0.0279
 3910SOL    HW123366   2.446   2.766  13.713  0.4801  0.5621 -0.4340
 3910SOL    HW223367   2.346   2.871  13.696  1.4363  0.0763  1.0028
 3911SOL     OW23368   3.309   4.326   8.199  0.0045 -0.0829  0.2198
 3911SOL    HW123369   3.394   4.281   8.195  0.3882  0.5564  1.2718
 3911SOL    HW223370   3.335   4.408   8.158  2.4079 -0.5781  0.7393
 3912SOL     OW23371   0.451   3.770   4.788 -0.0458  0.4782 -0.6334
 3912SOL    HW123372   0.395   3.703   4.749 -1.2070  2.1251 -1.7649
 3912SOL    HW223373   0.420   3.842   4.733 -0.2133  0.3556 -0.7001
 3913SOL     OW23374   0.857   1.243   2.720  0.0778  0.2954 -0.0679
 3913SOL    HW123375   0.801   1.267   2.794 -0.9114  0.7494 -0.9709
 3913SOL    HW223376   0.895   1.163   2.756 -0.8588  0.2712  0.8896
 3914SOL     OW23377   0.812   0.527   6.363  0.1456  0.2484 -0.4376
 3914SOL    HW123378   0.902   0.516   6.333  0.4735 -0.4456  0.7991
 3914SOL    HW223379   0.797   0.601   6.304  1.9863 -1.1866 -2.6830
 3915SOL     OW23380   1.505   1.555   3.142 -0.4868 -0.2295 -0.1976
 3915SOL    HW123381   1.439   1.623   3.158 -0.9142 -0.0736 -2.6362
 3915SOL    HW223382   1.486   1.530   3.052 -1.7474  1.2063 -0.3329
 3916SOL     OW23383   0.753   4.383   4.920  0.4973 -0.0464  0.5026
 3916SOL    HW123384   0.758   4.296   4.959 -1.2269 -0.7663 -0.8947
 3916SOL    HW223385   0.677   4.382   4.862  0.6958  0.0269  0.2430
 3917SOL     OW23386   0.257   1.175   5.249  0.2463  0.3923 -0.2491
 3917SOL    HW123387   0.292   1.247   5.302  1.4873 -0.1334 -0.3646
 3917SOL    HW223388   0.268   1.098   5.305 -0.6302  0.1404 -0.4190
 3918SOL     OW23389   1.678   0.969   4.026  0.4426 -0.0707 -0.6554
 3918SOL    HW123390   1.769   0.942   4.039  1.1461  1.3904 -2.5022
 3918SOL    HW223391   1.689   1.064   4.021 -0.4199  0.0444 -0.3966
 3919SOL     OW23392   1.088   2.795  10.375  0.4908  0.4381 -0.3343
 3919SOL    HW123393   1.015   2.754  10.422 -0.9584  0.6781 -2.3976
 3919SOL    HW223394   1.040   2.852  10.315 -1.3016 -0.1939  0.5027
 3920SOL     OW23395   4.440   2.454   4.173 -0.0012 -0.2133  0.5883
 3920SOL    HW123396   4.504   2.412   4.116  0.1013 -0.2747  0.7473
 3920SOL    HW223397   4.404   2.375   4.212  1.1751 -2.3456 -2.7362
 3921SOL     OW23398   2.383   3.234   8.412 -0.0033  0.4173 -0.4574
 3921SOL    HW123399   2.460   3.239   8.355  0.7450  1.5804  0.6483
 3921SOL    HW223400   2.414   3.193   8.492  1.6880 -2.9319 -2.8508
 3922SOL     OW23401   3.275   0.501  17.565 -0.2767  0.0334  0.6652
 3922SOL    HW123402   3.253   0.568  17.631 -1.6279 -0.1227  0.3650
 3922SOL    HW223403   3.225   0.425  17.594  0.3596 -0.2399  1.0667
 3923SOL     OW23404   0.081   1.076   4.551 -0.7177 -0.2648 -0.0827
 3923SOL    HW123405   0.128   1.019   4.490 -0.3659  1.0595 -1.0379
 3923SOL    HW223406   0.063   1.018   4.625  2.9316 -2.0753 -0.6289
 3924SOL     OW23407   1.329   3.587   7.665  0.0705 -0.4651 -0.2086
 3924SOL    HW123408   1.412   3.632   7.649  0.0108  0.6475  2.7096
 3924SOL    HW223409   1.285   3.581   7.580 -0.1318 -1.3796 -0.0354
 3925SOL     OW23410   2.014   3.720   5.486 -0.5278 -0.3402  0.1032
 3925SOL    HW123411   2.010   3.815   5.500  1.8304 -0.4872  1.8954
 3925SOL    HW223412   2.070   3.724   5.409  0.0981  0.5958  0.5995
 3926SOL     OW23413   3.533   4.449  11.080  0.7808 -0.2872  0.0721
 3926SOL    HW123414   3.473   4.491  11.018  0.5191 -0.0708  0.4758
 3926SOL    HW223415   3.467   4.416  11.141 -0.1634 -1.5808 -1.6345
 3927SOL     OW23416   1.076   2.952   2.718  0.0601  0.0526 -0.2417
 3927SOL    HW123417   1.026   3.015   2.769  0.4420  0.2864 -0.1499
 3927SOL    HW223418   1.008   2.912   2.665 -0.8433 -1.7191  2.2449
 3928SOL     OW23419   0.234   0.384   3.421 -0.0845  0.1871 -0.0406
 3928SOL    HW123420   0.153   0.359   3.466  0.0947 -0.5408 -0.1244
 3928SOL    HW223421   0.291   0.327   3.471  0.0630  0.7023  0.3761
 3929SOL     OW23422   2.118   0.421   6.568  0.2706  0.3048 -0.5734
 3929SOL    HW123423   2.123   0.334   6.530 -0.8238  0.0847 -0.1982
 3929SOL    HW223424   2.035   0.452   6.532 -0.6545 -4.5886 -2.6012
 3930SOL     OW23425   2.199   1.477  13.285 -0.1014 -0.0661  0.2689
 3930SOL    HW123426   2.199   1.438  13.372  1.1607  0.3446  0.4485
 3930SOL    HW223427   2.137   1.424  13.234  0.3742 -0.1024 -0.2632
 3931SOL     OW23428   2.999   2.938   0.028  0.4809  1.1338 -0.2697
 3931SOL    HW123429   2.941   3.014   0.040 -1.9201 -0.1614 -3.6097
 3931SOL    HW223430   3.051   2.922   0.106  1.4890  2.8039 -0.6009
 3932SOL     OW23431   2.055   4.447  15.621  0.8287 -0.0750 -0.0779
 3932SOL    HW123432   2.138   4.441  15.668  2.2310 -0.8991 -2.6510
 3932SOL    HW223433   2.068   4.515  15.554  1.9535  0.5532  0.7740
 3933SOL     OW23434   3.963   0.860   8.006  0.5696  0.2111  0.5858
 3933SOL    HW123435   4.058   0.849   7.998  0.4481 -0.3313 -0.0759
 3933SOL    HW223436   3.955   0.943   8.054 -0.9933  0.4584 -0.1023
 3934SOL     OW23437   0.417   0.956   2.177 -0.1690 -0.0197  0.3377
 3934SOL    HW123438   0.412   1.009   2.097  0.7654 -1.0892 -0.4305
 3934SOL    HW223439   0.378   0.875   2.143 -2.8694  0.3874  2.4482
 3935SOL     OW23440   3.282   3.523  16.214  0.2155  0.1818 -0.2114
 3935SOL    HW123441   3.253   3.541  16.125  0.3477  1.5522  0.0326
 3935SOL    HW223442   3.365   3.570  16.217 -0.7475  1.8630  0.2047
 3936SOL     OW23443   2.251   2.844   6.656  0.8068  0.1319  0.3339
 3936SOL    HW123444   2.248   2.805   6.568 -1.7870  1.1355 -0.0277
 3936SOL    HW223445   2.264   2.932   6.620  1.7302  0.3319  1.1669
 3937SOL     OW23446   2.283   2.746  16.644 -0.3468 -0.5174 -0.4441
 3937SOL    HW123447   2.317   2.835  16.653 -1.2618 -0.0392 -1.6999
 3937SOL    HW223448   2.347   2.703  16.588  0.5807  0.0986  0.1426
 3938SOL     OW23449   1.763   4.277   7.452 -0.3565 -0.2556 -0.5605
 3938SOL    HW123450   1.737   4.209   7.515  3.7728 -0.9482  0.3738
 3938SOL    HW223451   1.682   4.275   7.400 -1.4608 -2.3338  1.2242
 3939SOL     OW23452   0.878   0.213   8.938  0.0657  0.0647 -0.4578
 3939SOL    HW123453   0.930   0.201   9.017  0.1953 -2.2081 -0.9043
 3939SOL    HW223454   0.946   0.218   8.871  2.8651  0.5980  2.4501
 3940SOL     OW23455   2.134   2.701   4.984  0.3836 -0.3347 -0.5561
 3940SOL    HW123456   2.158   2.659   5.067 -1.0677  1.7827  0.9346
 3940SOL    HW223457   2.216   2.750   4.977  0.2140 -0.3819 -2.8309
 3941SOL     OW23458   3.571   3.313   7.370 -0.2255 -0.2568 -0.2897
 3941SOL    HW123459   3.479   3.288   7.357  0.0010 -0.7386 -0.9251
 3941SOL    HW223460   3.557   3.392   7.422 -0.4114 -2.1614  2.5622
 3942SOL     OW23461   3.093   3.408   6.577  0.3588  0.4097 -0.1290
 3942SOL    HW123462   3.182   3.443   6.583  0.5898 -0.4007  1.1556
 3942SOL    HW223463   3.113   3.328   6.624  0.7777  1.1590  0.9807
 3943SOL     OW23464   0.512   0.466   8.298  0.0667  0.0051 -0.1307
 3943SOL    HW123465   0.483   0.437   8.212 -1.5014  1.3982 -0.0750
 3943SOL    HW223466   0.539   0.387   8.345  0.1784  0.5475  0.7337
 3944SOL     OW23467   4.689   4.350   4.826  0.0922 -0.1782  0.4271
 3944SOL    HW123468   4.599   4.378   4.808  0.3653 -0.4246 -1.2954
 3944SOL    HW223469   0.001   4.427   4.794 -0.1383 -0.4254 -0.5257
 3945SOL     OW23470   1.598   2.746   5.886 -0.0428  0.2599 -0.2640
 3945SOL    HW123471   1.568   2.819   5.832 -1.2182  1.1244  1.5880
 3945SOL    HW223472   1.655   2.705   5.820  0.4387 -2.8014  2.0259
 3946SOL     OW23473   0.065   3.631   8.299 -0.8474 -0.1339 -0.0967
 3946SOL    HW123474   0.052   3.703   8.238  1.7347  2.5474  2.4632
 3946SOL    HW223475   0.145   3.593   8.262 -0.2320  0.6145  0.4671
 3947SOL     OW23476   0.672   0.911   9.349  0.3362  0.1128 -0.2280
 3947SOL    HW123477   0.615   0.838   9.374 -0.2043  0.4597 -0.4328
 3947SOL    HW223478   0.650   0.968   9.423 -0.4460 -1.7031  0.9493
 3948SOL     OW23479   4.243   4.010   5.673 -0.0083 -0.2188  0.1625
 3948SOL    HW123480   4.201   4.065   5.739  1.1261 -0.1969  0.8597
 3948SOL    HW223481   4.288   4.077   5.623 -0.7295  0.4012  0.3380
 3949SOL     OW23482   1.837   4.347  16.612  0.6486  0.3104 -1.0671
 3949SOL    HW123483   1.848   4.427  16.664  1.6506  0.6270 -1.7572
 3949SOL    HW223484   1.912   4.295  16.641  0.5408  0.0836 -1.2003
 3950SOL     OW23485   2.503   1.234   3.612  0.7860 -0.2618  0.4730
 3950SOL    HW123486   2.417   1.259   3.646  0.2552  0.5067 -1.4683
 3950SOL    HW223487   2.489   1.258   3.521  1.8506 -1.0391  0.1112
 3951SOL     OW23488   3.023   1.131  13.998 -0.0752 -0.1592  0.3122
 3951SOL    HW123489   3.037   1.054  13.943  0.4104  0.5534 -0.5570
 3951SOL    HW223490   2.937   1.160  13.968  0.8932  3.1727  0.7057
 3952SOL     OW23491   2.803   0.183   8.249 -1.0030  0.2163 -0.3810
 3952SOL    HW123492   2.838   0.103   8.288  0.5966  1.1132 -0.0054
 3952SOL    HW223493   2.736   0.188   8.317 -1.1960 -1.9525 -0.4038
 3953SOL     OW23494   0.807   0.681   2.645 -0.1862  0.3370  0.0774
 3953SOL    HW123495   0.806   0.734   2.725 -0.4826 -1.4582  1.2653
 3953SOL    HW223496   0.820   0.745   2.575 -1.6531  0.3570 -0.1791
 3954SOL     OW23497   2.583   2.938   6.559 -0.2035  0.7655 -0.1162
 3954SOL    HW123498   2.602   2.995   6.633 -1.6662 -0.2100  1.0093
 3954SOL    HW223499   2.569   3.004   6.492 -0.9767  2.1135  1.3678
 3955SOL     OW23500   2.249   3.110  17.309 -0.0451  0.2259  0.3873
 3955SOL    HW123501   2.269   3.203  17.311  1.2589 -0.0422  0.0469
 3955SOL    HW223502   2.170   3.113  17.256  3.3512  2.0698 -4.5784
 3956SOL     OW23503   1.819   0.216   7.438 -0.0674 -0.6276  0.3772
 3956SOL    HW123504   1.818   0.311   7.423 -0.9540 -0.5431  0.9414
 3956SOL    HW223505   1.735   0.210   7.485 -0.9678  2.2918 -0.8298
 3957SOL     OW23506   2.710   3.509  16.318  0.2557 -0.8454  0.8042
 3957SOL    HW123507   2.622   3.520  16.356 -0.1203 -2.5500  0.4346
 3957SOL    HW223508   2.735   3.418  16.336  1.3058 -0.8663 -0.7943
 3958SOL     OW23509   3.065   3.511   9.956 -0.0901  0.6717  0.0513
 3958SOL    HW123510   3.011   3.583   9.924 -0.8304  0.3337  0.5294
 3958SOL    HW223511   3.130   3.558  10.007  1.0627 -0.4414 -0.3896
 3959SOL     OW23512   3.074   3.156   7.291  0.1751  0.2860 -0.9192
 3959SOL    HW123513   3.018   3.132   7.365  2.0355 -2.3744 -0.3957
 3959SOL    HW223514   3.000   3.149   7.231 -0.0392 -1.0973 -0.4927
 3960SOL     OW23515   3.635   0.183   7.188 -0.7006 -0.2575  0.0932
 3960SOL    HW123516   3.687   0.264   7.186 -0.5878 -0.3715 -1.3664
 3960SOL    HW223517   3.547   0.214   7.169 -1.4160 -2.3857 -0.1262
 3961SOL     OW23518   0.089   1.813  17.711 -0.1677 -0.3892  0.1895
 3961SOL    HW123519   0.126   1.881  17.656  1.3733 -1.8103 -0.5376
 3961SOL    HW223520   0.014   1.859   0.010  0.4076 -0.0538  0.9490
 3962SOL     OW23521   0.030   4.529   9.933 -0.1151  0.4968  0.2216
 3962SOL    HW123522   4.703   4.555   9.865  0.6102  3.2643  0.6153
 3962SOL    HW223523   4.729   4.574  10.010  1.2691  1.6305  0.2065
 3963SOL     OW23524   0.532   3.900   3.815 -0.0613  0.4473 -0.1299
 3963SOL    HW123525   0.533   3.814   3.856  0.8981  0.0221 -1.0464
 3963SOL    HW223526   0.447   3.931   3.847 -0.4015 -1.9686  1.3147
 3964SOL     OW23527   3.961   3.216   5.228  0.3046 -0.1784 -0.2776
 3964SOL    HW123528   3.902   3.206   5.153  0.5161 -1.1929 -0.3160
 3964SOL    HW223529   3.940   3.306   5.253  1.0040  0.0314 -0.4440
 3965SOL     OW23530   3.797   2.011  13.919  0.3740 -0.2519  0.6478
 3965SOL    HW123531   3.821   1.938  13.862  3.5673  0.7418  0.7086
 3965SOL    HW223532   3.852   1.977  13.989  1.0151  1.1441  0.8405
 3966SOL     OW23533   2.199   2.271   2.856 -0.1765  0.2138  0.4435
 3966SOL    HW123534   2.280   2.233   2.889  0.1674  0.3456 -0.2388
 3966SOL    HW223535   2.156   2.186   2.843 -1.6340  0.8474  1.1475
 3967SOL     OW23536   3.946   3.100   8.859  0.2602  0.1803  0.1092
 3967SOL    HW123537   4.001   3.176   8.842 -0.6320  0.6778 -0.5585
 3967SOL    HW223538   3.939   3.105   8.954 -0.8404  0.3200  0.0221
 3968SOL     OW23539   1.745   4.566   7.518  0.7758  0.1911 -0.5459
 3968SOL    HW123540   1.731   4.481   7.476  0.9696 -0.7710  1.3350
 3968SOL    HW223541   1.658   4.599   7.538  0.5866  0.6229 -2.1114
 3969SOL     OW23542   0.587   3.714   1.755  0.1378 -0.2851 -0.2327
 3969SOL    HW123543   0.532   3.639   1.734  0.4099 -0.8494  1.0489
 3969SOL    HW223544   0.523   3.784   1.768  0.2784 -0.1271 -0.4006
 3970SOL     OW23545   4.340   0.164   3.283 -0.1314 -0.2027  0.1521
 3970SOL    HW123546   4.389   0.083   3.292 -1.3552 -0.6956  2.3138
 3970SOL    HW223547   4.254   0.127   3.269  0.3894 -0.5404 -2.1868
 3971SOL     OW23548   4.501   3.132  17.606  0.1658  0.0327 -0.0824
 3971SOL    HW123549   4.424   3.180  17.576  0.2171  1.3580  1.9213
 3971SOL    HW223550   4.465   3.085  17.681 -1.0602  0.7876 -0.2021
 3972SOL     OW23551   2.182   4.302   5.271 -0.3791 -0.2513 -0.4280
 3972SOL    HW123552   2.163   4.390   5.302  0.5956 -0.2394  0.1351
 3972SOL    HW223553   2.232   4.248   5.333  0.1202 -1.6121 -2.0029
 3973SOL     OW23554   0.188   0.015   5.975 -0.1232  0.0867 -0.2836
 3973SOL    HW123555   0.168   0.021   5.882 -1.0336 -2.0250 -0.2408
 3973SOL    HW223556   0.184   0.107   6.000  0.4045 -0.2635  1.1240
 3974SOL     OW23557   1.415   3.832  15.061  0.0149 -0.3522 -0.2326
 3974SOL    HW123558   1.505   3.823  15.092 -0.7613 -3.1928  1.1836
 3974SOL    HW223559   1.392   3.923  15.082  0.3628 -0.3209  0.0087
 3975SOL     OW23560   3.733   0.467   3.773 -0.8911  0.1720  0.1920
 3975SOL    HW123561   3.792   0.507   3.838  1.6806 -0.5165 -1.7187
 3975SOL    HW223562   3.710   0.386   3.817 -1.9938  0.0670 -0.6029
 3976SOL     OW23563   2.762   1.743  16.860 -0.6908 -0.2467 -0.3927
 3976SOL    HW123564   2.856   1.741  16.841 -0.3735  1.3140  1.0227
 3976SOL    HW223565   2.734   1.809  16.798 -0.8535  0.3051  0.2717
 3977SOL     OW23566   2.054   2.526   3.967  0.2763 -0.1437  0.4650
 3977SOL    HW123567   2.125   2.489   3.914  2.2108  2.2108  1.3988
 3977SOL    HW223568   2.045   2.464   4.039  1.0782 -2.3484 -1.3591
 3978SOL     OW23569   0.856   0.274  16.527 -0.1250  0.9424  0.5120
 3978SOL    HW123570   0.876   0.320  16.609 -0.0734  1.2964  0.3042
 3978SOL    HW223571   0.887   0.338  16.463 -0.1869  1.5660  1.1058
 3979SOL     OW23572   1.220   2.832   3.256  0.9318 -0.7173  0.1945
 3979SOL    HW123573   1.246   2.744   3.230  2.0887  0.0007 -1.0355
 3979SOL    HW223574   1.181   2.857   3.172  3.0178 -0.0123 -0.5512
 3980SOL     OW23575   3.551   0.514   8.742 -0.4469  0.1276  0.4464
 3980SOL    HW123576   3.508   0.466   8.671 -1.7434  0.2508  1.1564
 3980SOL    HW223577   3.631   0.534   8.693 -0.4598 -0.5799  0.1246
 3981SOL     OW23578   0.200   0.512   6.720  0.2644  0.1723  0.3365
 3981SOL    HW123579   0.127   0.499   6.780 -0.0268 -0.5820 -0.1863
 3981SOL    HW223580   0.172   0.467   6.640 -2.2271 -0.2812  1.4584
 3982SOL     OW23581   0.127   1.928   6.457  0.2131  0.2622  0.2709
 3982SOL    HW123582   0.081   2.004   6.493 -1.6508 -1.2140  0.9829
 3982SOL    HW223583   0.151   1.948   6.367 -1.8164 -2.2505 -0.8133
 3983SOL     OW23584   0.789   2.809   8.577  0.8754  0.0656  0.0014
 3983SOL    HW123585   0.756   2.782   8.491  0.9462  1.6141 -0.5036
 3983SOL    HW223586   0.859   2.871   8.557 -1.2420  2.7386  0.9440
 3984SOL     OW23587   0.111   2.898   8.217 -0.5428  0.1270  0.0319
 3984SOL    HW123588   0.085   2.979   8.172  1.7522  0.0029 -1.5358
 3984SOL    HW223589   0.200   2.920   8.243 -0.9337 -0.7713  2.1331
 3985SOL     OW23590   1.534   4.080   9.160 -0.5647 -0.0123 -0.0429
 3985SOL    HW123591   1.486   4.040   9.087 -0.7336  0.0026  0.0592
 3985SOL    HW223592   1.464   4.084   9.225  0.4344 -2.1059  1.1749
 3986SOL     OW23593   2.121   2.997   5.245  0.1743  1.0175  0.4978
 3986SOL    HW123594   2.213   2.983   5.223  0.3849 -0.8453  2.4573
 3986SOL    HW223595   2.130   3.019   5.338 -1.0836 -5.2026  2.1325
 3987SOL     OW23596   1.980   1.543  11.917 -0.1453  0.0022 -0.2535
 3987SOL    HW123597   2.066   1.569  11.883  0.0422 -1.8384 -1.2076
 3987SOL    HW223598   1.991   1.457  11.958  1.3609 -0.1367 -0.9669
 3988SOL     OW23599   0.848   1.213  16.392  0.3786 -0.3546  0.1338
 3988SOL    HW123600   0.814   1.249  16.474  0.1788  0.7353 -0.4369
 3988SOL    HW223601   0.853   1.288  16.333 -2.2098 -0.3680 -0.0902
 3989SOL     OW23602   3.131   2.595  15.637  0.0619  0.6624  0.3627
 3989SOL    HW123603   3.198   2.605  15.570 -0.3734  0.1882 -0.1370
 3989SOL    HW223604   3.050   2.625  15.595  0.2329  0.4411 -0.1230
 3990SOL     OW23605   0.842   0.104   2.092  0.0470 -0.3665  0.5057
 3990SOL    HW123606   0.919   0.077   2.041 -0.4546  1.2856 -1.1092
 3990SOL    HW223607   0.880   0.082   2.177  1.0086  1.2458  0.4967
 3991SOL     OW23608   2.824   2.174  15.159 -0.1562 -0.0552  0.7551
 3991SOL    HW123609   2.849   2.132  15.076  1.2329  2.0846  0.0769
 3991SOL    HW223610   2.898   2.168  15.219  1.3675  0.4076 -1.0714
 3992SOL     OW23611   1.450   3.991   7.070  0.0271 -0.3030 -0.2222
 3992SOL    HW123612   1.462   3.905   7.110  0.4654 -0.4007 -0.5733
 3992SOL    HW223613   1.354   3.991   7.060 -0.0707  2.5411  0.6206
 3993SOL     OW23614   1.572   1.476   4.050  0.2340  0.3142 -0.0629
 3993SOL    HW123615   1.520   1.463   3.970  0.1247 -0.8148  0.1876
 3993SOL    HW223616   1.528   1.558   4.072  0.1477 -0.0392  1.0385
 3994SOL     OW23617   2.839   4.215   5.703  0.5349  0.3671 -0.3774
 3994SOL    HW123618   2.768   4.162   5.666 -0.3528  0.1807  1.5939
 3994SOL    HW223619   2.895   4.155   5.752  1.0741  0.8190 -0.4397
 3995SOL     OW23620   0.838   1.990   3.407  0.5685  0.2973 -0.9443
 3995SOL    HW123621   0.833   1.992   3.311 -0.7572 -1.0511 -0.9047
 3995SOL    HW223622   0.872   1.901   3.420 -0.0575  0.1193 -0.5307
 3996SOL     OW23623   0.655   2.260   2.287 -0.2114 -0.3165 -0.2730
 3996SOL    HW123624   0.664   2.328   2.354 -0.5792  2.6239 -3.1761
 3996SOL    HW223625   0.674   2.318   2.212 -1.4337  2.3235  1.4703
 3997SOL     OW23626   0.399   1.867   8.072  0.0797 -0.1751 -0.1022
 3997SOL    HW123627   0.324   1.914   8.038 -0.6279  0.9303  3.0056
 3997SOL    HW223628   0.455   1.940   8.099 -0.8224  0.3723  0.2721
 3998SOL     OW23629   0.847   2.359  13.747 -0.0798 -0.2042  0.0518
 3998SOL    HW123630   0.821   2.435  13.696  0.7843  0.5209  0.6881
 3998SOL    HW223631   0.849   2.293  13.677  2.0756  1.4108 -1.3857
 3999SOL     OW23632   2.829   0.246   6.205  0.3608  0.9566 -0.0267
 3999SOL    HW123633   2.822   0.157   6.239 -3.2826  2.6406  3.6422
 3999SOL    HW223634   2.739   0.261   6.174 -0.2756  0.7912  1.7265
 4000SOL     OW23635   1.360   3.855  12.902  0.3574  0.3684 -0.5428
 4000SOL    HW123636   1.416   3.861  12.980 -0.1197  2.4808 -0.3675
 4000SOL    HW223637   1.400   3.922  12.846  0.8139  1.3348  0.9356
 4001SOL     OW23638   2.871   1.988   0.458  0.2397 -0.3558  0.2191
 4001SOL    HW123639   2.903   1.993   0.367 -0.4370  0.9991  0.0589
 4001SOL    HW223640   2.875   1.895   0.479  1.2649 -0.4560 -0.3887
 4002SOL     OW23641   2.233   1.300   3.524 -0.1408  0.8034  0.0672
 4002SOL    HW123642   2.189   1.259   3.450 -0.3769  0.6828  0.2750
 4002SOL    HW223643   2.242   1.388   3.488 -2.8030  0.2366 -1.9901
 4003SOL     OW23644   0.437   0.632   4.281  0.3074  0.1773 -0.0463
 4003SOL    HW123645   0.432   0.726   4.295 -0.2239  0.1420 -0.0174
 4003SOL    HW223646   0.429   0.607   4.373 -0.3741  2.1587  0.4139
 4004SOL     OW23647   1.067   0.247   4.978  0.2275  0.5749  0.1021
 4004SOL    HW123648   1.050   0.341   4.986 -0.6771  0.4305 -0.0936
 4004SOL    HW223649   1.002   0.230   4.910 -0.3420  2.0332  0.2795
 4005SOL     OW23650   1.922   3.885   7.135  0.3439  0.0498 -0.2061
 4005SOL    HW123651   2.000   3.829   7.144 -0.4149 -0.6620  1.9540
 4005SOL    HW223652   1.952   3.954   7.195 -2.4859 -0.5428  1.8939
 4006SOL     OW23653   0.412   0.525   5.763 -0.1073  0.2080 -0.4056
 4006SOL    HW123654   0.442   0.522   5.853  2.3253 -0.2124 -1.2333
 4006SOL    HW223655   0.487   0.567   5.721  0.4638  1.2357  1.6405
 4007SOL     OW23656   2.250   4.660   2.472  0.1078 -0.2676 -0.0075
 4007SOL    HW123657   2.306   4.731   2.504 -2.5755  1.4836  0.8271
 4007SOL    HW223658   2.169   4.700   2.503 -0.3717 -0.1345 -1.4142
 4008SOL     OW23659   0.264   4.555   6.148 -0.1828  0.3322 -0.7091
 4008SOL    HW123660   0.197   4.525   6.087  0.7588  0.7829 -1.9603
 4008SOL    HW223661   0.259   4.646   6.119 -1.2858  0.0520 -1.4177
 4009SOL     OW23662   0.348   0.967   6.196 -0.5032 -0.0039 -0.2221
 4009SOL    HW123663   0.387   1.022   6.129  0.6642 -1.9236 -1.0943
 4009SOL    HW223664   0.300   1.026   6.255  1.8289  0.2678  1.4243
 4010SOL     OW23665   1.527   2.344  12.559 -0.3467 -0.6740 -0.1903
 4010SOL    HW123666   1.483   2.385  12.633  1.5965  0.3000  0.4162
 4010SOL    HW223667   1.490   2.401  12.491  1.2241  1.3062  0.6068
 4011SOL     OW23668   4.557   2.262   3.817  0.1286 -0.0190 -0.6760
 4011SOL    HW123669   4.479   2.226   3.858  1.4210  0.4013  2.2268
 4011SOL    HW223670   4.631   2.212   3.852  0.8710  1.2502 -0.4132
 4012SOL     OW23671   3.143   3.743   8.761 -0.4711  0.8309 -0.2793
 4012SOL    HW123672   3.136   3.660   8.808  1.4848  1.6105  1.3881
 4012SOL    HW223673   3.069   3.784   8.806 -0.5364  0.7648 -0.3262
 4013SOL     OW23674   2.996   1.176   5.989 -0.1032  0.9505  0.0348
 4013SOL    HW123675   2.918   1.231   5.985 -0.7118  0.1496  1.1593
 4013SOL    HW223676   3.063   1.243   6.007  0.9332 -0.5716  1.7608
 4014SOL     OW23677   3.051   1.250   1.638 -0.3680 -0.5576 -0.1659
 4014SOL    HW123678   2.977   1.235   1.697  0.6515  1.5318  1.6199
 4014SOL    HW223679   3.122   1.261   1.700  0.6760 -2.4169 -1.0290
 4015SOL     OW23680   4.063   1.263   4.613  0.2547  0.0445 -0.2482
 4015SOL    HW123681   4.157   1.242   4.610  0.4117  0.7703 -0.2711
 4015SOL    HW223682   4.054   1.332   4.547  2.6925 -1.4940 -2.2301
 4016SOL     OW23683   4.647   0.504   3.189 -1.0354 -0.7009  0.7475
 4016SOL    HW123684   4.719   0.460   3.144 -1.0165  0.9669 -0.8339
 4016SOL    HW223685   4.670   0.472   3.276  0.3051  1.2226  1.0868
 4017SOL     OW23686   3.894   4.554   7.103 -0.1069 -0.4895  0.0843
 4017SOL    HW123687   3.810   4.517   7.133 -0.3184  1.3431  1.7489
 4017SOL    HW223688   3.916   4.595   7.187 -2.1634  0.1904  0.2901
 4018SOL     OW23689   1.177   2.805  17.698  0.3773 -0.5214 -0.4005
 4018SOL    HW123690   1.195   2.877   0.021 -0.7820 -0.2813 -0.3367
 4018SOL    HW223691   1.262   2.794  17.656 -1.0096 -2.5073 -2.7479
 4019SOL     OW23692   2.407   0.443   5.001 -0.0178 -0.3084 -0.0751
 4019SOL    HW123693   2.472   0.488   5.055  0.5199  0.3752 -1.2944
 4019SOL    HW223694   2.454   0.365   4.971  2.6748  0.7489  1.3820
 4020SOL     OW23695   4.353   4.644   4.337  0.3671  0.5875 -0.1726
 4020SOL    HW123696   4.261   4.629   4.319  0.7953 -1.3933 -0.6509
 4020SOL    HW223697   4.367   4.705   4.264 -0.5167 -0.7722 -1.4866
 4021SOL     OW23698   4.217   2.170  15.456 -0.3798 -0.2438 -0.8977
 4021SOL    HW123699   4.275   2.240  15.486  1.3615 -2.5172  1.0545
 4021SOL    HW223700   4.130   2.210  15.458  0.6364  1.9289 -1.0295
 4022SOL     OW23701   0.563   3.114   5.202  0.0129 -0.1775  0.2624
 4022SOL    HW123702   0.619   3.076   5.269  0.1810 -0.0342  0.2013
 4022SOL    HW223703   0.481   3.128   5.250 -0.7876  1.4269 -1.5418
 4023SOL     OW23704   0.726   3.699   7.530 -0.5160 -0.3657 -0.7749
 4023SOL    HW123705   0.635   3.700   7.500 -0.9223 -3.9927  0.3347
 4023SOL    HW223706   0.729   3.784   7.574 -0.4161 -0.6607 -0.2083
 4024SOL     OW23707   1.306   1.045   8.840  0.3386  0.7520 -0.2915
 4024SOL    HW123708   1.327   0.976   8.903  2.0947  1.7061  0.1939
 4024SOL    HW223709   1.220   1.016   8.809  0.5081 -2.4263  2.2750
 4025SOL     OW23710   0.098   3.562  10.439 -0.3392  0.3298  0.2211
 4025SOL    HW123711   0.148   3.599  10.367  0.2051  0.5097  0.6980
 4025SOL    HW223712   0.053   3.489  10.396  2.7788  0.5739 -3.3996
 4026SOL     OW23713   2.968   0.293  14.982 -0.0400  0.6633 -0.3287
 4026SOL    HW123714   3.032   0.267  15.048 -1.9648 -0.5736  1.0845
 4026SOL    HW223715   2.883   0.295  15.027  0.9785  0.9242  1.5539
 4027SOL     OW23716   2.889   0.971   4.037 -0.0374  0.0959 -0.3992
 4027SOL    HW123717   2.799   0.974   4.006  0.3316  4.1547 -1.0834
 4027SOL    HW223718   2.936   0.959   3.954  0.8608  1.6128 -0.1133
 4028SOL     OW23719   4.394   4.466   9.183  0.0374  0.3982 -0.2665
 4028SOL    HW123720   4.385   4.381   9.139 -0.4498  0.4500 -0.2612
 4028SOL    HW223721   4.429   4.444   9.269  0.9416 -0.2824 -0.7930
 4029SOL     OW23722   1.588   1.972   9.015 -0.0570  0.1645 -0.4035
 4029SOL    HW123723   1.598   1.978   8.919  0.5703  0.8764 -0.2934
 4029SOL    HW223724   1.643   1.898   9.038  1.9212  1.7567 -0.0146
 4030SOL     OW23725   2.124   4.178  10.895 -0.0995  0.1637  0.1034
 4030SOL    HW123726   2.141   4.258  10.844 -3.0947  0.4823 -0.4195
 4030SOL    HW223727   2.059   4.205  10.961 -1.7897 -0.7676 -1.1859
 4031SOL     OW23728   1.671   1.576   1.613 -0.5983  0.2581 -0.1049
 4031SOL    HW123729   1.598   1.559   1.553  0.5840 -0.9201 -1.1909
 4031SOL    HW223730   1.626   1.627   1.681  1.3567  0.7155  0.8460
 4032SOL     OW23731   4.577   0.507  17.249  0.0243 -0.5832 -0.0742
 4032SOL    HW123732   4.576   0.427  17.197  3.6454  0.3606 -1.5949
 4032SOL    HW223733   4.520   0.548  17.184  2.3240  0.9559 -1.1140
 4033SOL     OW23734   3.332   3.233   9.736 -0.7377 -0.8067 -0.0686
 4033SOL    HW123735   3.368   3.145   9.733 -2.0179 -1.3268 -0.1060
 4033SOL    HW223736   3.351   3.254   9.827 -1.2056 -2.1017  0.3193
 4034SOL     OW23737   3.033   4.030   7.145 -0.1165  0.1205 -0.3976
 4034SOL    HW123738   3.118   4.074   7.153 -0.8839  1.5558 -0.0642
 4034SOL    HW223739   3.032   4.013   7.239 -3.4040  1.9088 -0.1240
 4035SOL     OW23740   0.096   1.760  16.776 -0.1920  0.0392  0.1901
 4035SOL    HW123741   0.012   1.715  16.779 -0.5174  0.5226 -1.3857
 4035SOL    HW223742   0.131   1.722  16.696 -1.5838 -0.2761 -0.2726
 4036SOL     OW23743   2.046   0.079   6.371  0.2282 -0.6096  0.0726
 4036SOL    HW123744   2.024   0.164   6.333 -2.1291 -0.0631  2.6162
 4036SOL    HW223745   2.095   0.100   6.450 -0.3191  0.7307  0.0614
 4037SOL     OW23746   1.104   2.944   7.128 -0.0779  0.0583  0.1093
 4037SOL    HW123747   1.047   2.869   7.143 -1.3089  0.8714 -0.4419
 4037SOL    HW223748   1.073   2.995   7.203  1.8723 -0.9723  1.6091
 4038SOL     OW23749   1.828   2.483   1.295 -0.3611 -0.1935  0.0175
 4038SOL    HW123750   1.751   2.531   1.265 -0.4457  0.6003  1.5199
 4038SOL    HW223751   1.883   2.530   1.358 -0.3724  2.2556 -1.8012
 4039SOL     OW23752   3.844   4.357   2.915 -0.4479 -0.1547 -0.5032
 4039SOL    HW123753   3.868   4.441   2.952  0.2365 -0.7735  0.4471
 4039SOL    HW223754   3.871   4.305   2.991 -4.5705 -0.0300  1.0461
 4040SOL     OW23755   3.268   2.945   6.320 -0.0703  0.1182  0.5616
 4040SOL    HW123756   3.324   3.020   6.340  0.2962 -0.3986  1.4420
 4040SOL    HW223757   3.332   2.873   6.329 -0.1239  0.2096  1.6580
 4041SOL     OW23758   1.811   2.977   2.898 -0.1816  0.0295 -0.2677
 4041SOL    HW123759   1.743   2.956   2.834  1.4072  1.7839 -2.5368
 4041SOL    HW223760   1.804   3.071   2.911 -1.3066 -0.4037  2.0931
 4042SOL     OW23761   4.702   1.227   7.836  0.2156 -0.7937 -0.2252
 4042SOL    HW123762   0.001   1.214   7.925  0.6438  0.1986 -0.2314
 4042SOL    HW223763   4.665   1.315   7.850 -0.1742 -0.7003 -1.9178
 4043SOL     OW23764   1.101   3.436   2.790  0.0520 -0.0914 -0.1683
 4043SOL    HW123765   1.082   3.405   2.701  1.0794  3.2790 -1.5352
 4043SOL    HW223766   1.085   3.530   2.782  0.8777 -0.0106 -0.8604
 4044SOL     OW23767   1.875   4.392   5.829  0.4039 -0.2995  0.3083
 4044SOL    HW123768   1.887   4.422   5.920  1.9817 -0.0101  0.0084
 4044SOL    HW223769   1.938   4.439   5.775 -0.8038 -0.2430 -1.0290
 4045SOL     OW23770   1.113   1.459   4.694 -0.0429 -0.7919  0.1941
 4045SOL    HW123771   1.023   1.476   4.725  0.0620 -0.9376  0.5859
 4045SOL    HW223772   1.105   1.485   4.603  0.6636 -1.0628  0.0603
 4046SOL     OW23773   3.497   0.248  15.782 -0.2322  0.0090 -0.9497
 4046SOL    HW123774   3.562   0.213  15.720 -1.7985 -1.1626 -1.9358
 4046SOL    HW223775   3.458   0.163  15.803 -1.8590  1.1873  0.8164
 4047SOL     OW23776   0.963   2.332   7.979 -0.1941  0.1312  0.9805
 4047SOL    HW123777   1.050   2.363   8.003 -0.3149 -0.0010  1.5823
 4047SOL    HW223778   0.910   2.373   8.046 -0.6484 -1.3040  1.5078
 4048SOL     OW23779   3.046   0.534   0.361  0.3407 -0.1216 -0.2677
 4048SOL    HW123780   3.129   0.541   0.407 -0.2522 -0.6213  0.8886
 4048SOL    HW223781   3.036   0.439   0.352 -1.0738 -0.0094  0.1176
 4049SOL     OW23782   4.524   0.603   7.938 -0.2296 -0.3295  0.3620
 4049SOL    HW123783   4.473   0.522   7.939  0.4492 -0.7432  0.7883
 4049SOL    HW223784   4.603   0.569   7.979 -0.1007 -0.7858 -0.2589
 4050SOL     OW23785   4.614   2.765   5.366  0.0070 -0.4193 -0.8099
 4050SOL    HW123786   4.707   2.776   5.346  0.2396 -1.9871 -0.6357
 4050SOL    HW223787   4.565   2.826   5.311 -3.0821  0.2823  2.7101
 4051SOL     OW23788   4.476   3.254   3.976 -0.3529  0.4330  0.4271
 4051SOL    HW123789   4.503   3.224   4.063 -1.5881  2.0464  1.3515
 4051SOL    HW223790   4.433   3.174   3.945  1.0614 -0.3238  0.4193
 4052SOL     OW23791   2.340   0.708  17.190  0.3996  0.5514  0.1823
 4052SOL    HW123792   2.382   0.627  17.218 -1.3212 -0.1592  0.7376
 4052SOL    HW223793   2.269   0.718  17.254 -0.5044  3.9050 -1.3516
 4053SOL     OW23794   0.540   4.509   8.595  0.1634  0.1598  0.4063
 4053SOL    HW123795   0.626   4.495   8.555  0.1808 -0.1036  0.5377
 4053SOL    HW223796   0.509   4.419   8.603  0.4947 -0.0584 -0.7582
 4054SOL     OW23797   3.621   1.465   9.768  0.0243 -0.1172 -0.1478
 4054SOL    HW123798   3.694   1.485   9.827  1.1289  0.6496 -1.7789
 4054SOL    HW223799   3.560   1.533   9.795  0.0294 -0.2121  0.1068
 4055SOL     OW23800   4.311   1.681  14.633 -0.7114  0.1835  0.3701
 4055SOL    HW123801   4.300   1.775  14.651  0.1426  0.1757  0.9340
 4055SOL    HW223802   4.392   1.667  14.682  0.3807  0.8470 -1.2399
 4056SOL     OW23803   4.284   4.084   3.821  0.1198 -0.3735 -0.2494
 4056SOL    HW123804   4.351   4.050   3.880 -1.0641 -0.7413  0.8914
 4056SOL    HW223805   4.203   4.074   3.872 -1.2014  0.2514 -2.1939
 4057SOL     OW23806   2.099   1.491   5.257  0.0762 -0.5209  0.2950
 4057SOL    HW123807   2.034   1.482   5.187 -1.0586  0.0014  1.2848
 4057SOL    HW223808   2.167   1.540   5.211 -2.0996  2.6023  0.3969
 4058SOL     OW23809   2.125   1.901   1.918 -0.0231 -0.2283  0.5078
 4058SOL    HW123810   2.034   1.921   1.937 -1.3571 -2.3007 -3.7002
 4058SOL    HW223811   2.128   1.806   1.927  1.1275 -0.0660  1.9475
 4059SOL     OW23812   4.658   0.428   8.688  0.3100  0.0832  0.1726
 4059SOL    HW123813   4.577   0.469   8.717  0.6757  1.2714 -0.4968
 4059SOL    HW223814   4.653   0.342   8.731 -0.0711  0.9662  1.9262
 4060SOL     OW23815   1.226   1.321  13.360 -0.0881  0.0347  0.7405
 4060SOL    HW123816   1.273   1.348  13.438  0.3634  1.7536 -0.1135
 4060SOL    HW223817   1.135   1.310  13.389 -1.1331  0.6352 -2.2917
 4061SOL     OW23818   2.996   1.170   5.661  0.1093 -0.8299  0.1306
 4061SOL    HW123819   3.011   1.184   5.754  0.6497 -1.8217  0.1885
 4061SOL    HW223820   2.918   1.115   5.668  0.1925 -0.7457  1.7750
 4062SOL     OW23821   3.987   1.901   6.572  0.2607 -0.0241  0.0811
 4062SOL    HW123822   3.989   1.997   6.571  0.9089 -0.0565 -1.4148
 4062SOL    HW223823   3.946   1.889   6.658 -0.9294  0.9639 -0.3474
 4063SOL     OW23824   2.422   4.148   4.008 -0.4692  0.2679 -0.0128
 4063SOL    HW123825   2.460   4.064   4.034 -0.3545  0.3067 -0.0554
 4063SOL    HW223826   2.347   4.123   3.955  0.0839  1.1112 -1.1804
 4064SOL     OW23827   2.231   4.273   3.061  0.8254 -0.4447 -0.1174
 4064SOL    HW123828   2.200   4.200   3.007 -1.8088 -0.8633  1.9381
 4064SOL    HW223829   2.153   4.329   3.059 -0.1994 -1.8461  1.0210
 4065SOL     OW23830   2.064   3.722   7.829  0.1559 -0.5260 -0.2864
 4065SOL    HW123831   2.058   3.701   7.922  1.4188  2.3427  0.4548
 4065SOL    HW223832   2.043   3.635   7.793 -0.6187 -0.0148 -1.0770
 4066SOL     OW23833   3.876   0.611   3.936  0.0824 -0.2956  0.0148
 4066SOL    HW123834   3.857   0.574   4.022 -0.1369 -3.0207 -1.2146
 4066SOL    HW223835   3.972   0.609   3.940  0.0340  0.3568  1.4023
 4067SOL     OW23836   3.267   2.797   9.531 -0.2907  0.3771 -0.2126
 4067SOL    HW123837   3.285   2.791   9.437 -0.3634 -0.2325 -0.1877
 4067SOL    HW223838   3.341   2.753   9.572 -2.8046 -1.5975  2.2484
 4068SOL     OW23839   1.221   1.942   1.886 -0.4554  0.1423 -0.2142
 4068SOL    HW123840   1.254   1.872   1.943  1.2009  0.9685 -0.1774
 4068SOL    HW223841   1.127   1.924   1.890 -0.7030  1.4381 -0.2877
 4069SOL     OW23842   4.088   1.547   1.528  0.4185 -0.0087  0.2979
 4069SOL    HW123843   4.178   1.573   1.545  0.7424 -1.5081  0.9064
 4069SOL    HW223844   4.081   1.516   1.618  0.2809 -1.1503 -0.0992
 4070SOL     OW23845   0.461   3.311  12.973  0.5157  0.3100  0.4115
 4070SOL    HW123846   0.477   3.240  13.036 -0.0576  0.3230  0.5708
 4070SOL    HW223847   0.491   3.387  13.022  1.8678  0.8099 -1.1866
 4071SOL     OW23848   3.198   3.323   3.485  0.0091 -0.1108 -0.0761
 4071SOL    HW123849   3.125   3.381   3.463  2.0913  3.0273  1.2535
 4071SOL    HW223850   3.266   3.349   3.423  0.8369 -1.5917  0.2314
 4072SOL     OW23851   2.853   0.844  15.736  0.0915 -0.0258 -0.7679
 4072SOL    HW123852   2.798   0.771  15.708  0.5224 -0.7206  0.1996
 4072SOL    HW223853   2.892   0.809  15.816 -0.8404  0.6031 -0.0407
 4073SOL     OW23854   4.553   4.718   3.125 -0.3070 -0.2450 -0.0712
 4073SOL    HW123855   4.540   4.689   3.216 -1.5873 -0.7870 -0.4209
 4073SOL    HW223856   4.498   0.061   3.119  1.1018  0.7466  0.0363
 4074SOL     OW23857   0.863   1.092   3.378 -0.0013  0.2673  0.3507
 4074SOL    HW123858   0.813   1.162   3.419 -2.0028 -1.1632  0.3970
 4074SOL    HW223859   0.840   1.021   3.438 -0.5102  0.6124  0.5606
 4075SOL     OW23860   3.668   1.824   4.725 -0.4694  0.3675  0.0983
 4075SOL    HW123861   3.746   1.844   4.673  0.6116  1.1608  2.0278
 4075SOL    HW223862   3.714   1.803   4.806  2.7212  0.0089 -1.7846
 4076SOL     OW23863   0.648   0.171   9.072 -0.5163  0.1978  0.4388
 4076SOL    HW123864   0.721   0.184   9.011 -0.7720  0.4128  0.1812
 4076SOL    HW223865   0.675   0.233   9.140  1.8260 -0.1317 -0.1610
 4077SOL     OW23866   4.328   4.550   5.753 -0.5573  0.2737  0.1581
 4077SOL    HW123867   4.298   4.555   5.843  2.3794 -0.3769  1.1422
 4077SOL    HW223868   4.423   4.559   5.756 -0.5032  0.1185 -0.7929
 4078SOL     OW23869   4.692   0.422   5.664  0.0445  0.3781  0.1207
 4078SOL    HW123870   0.028   0.361   5.680  1.1682  2.2177  2.3330
 4078SOL    HW223871   4.667   0.428   5.757  0.1320 -0.7378  0.2098
 4079SOL     OW23872   2.613   4.364   4.434  0.1192  0.2163 -0.0669
 4079SOL    HW123873   2.694   4.342   4.479  0.0082 -2.4337 -1.1832
 4079SOL    HW223874   2.550   4.325   4.494  2.6116  2.4379  3.9635
 4080SOL     OW23875   1.218   3.012  10.961 -0.6417 -0.4267  0.1728
 4080SOL    HW123876   1.227   3.075  11.033  1.9106  0.0527 -0.5902
 4080SOL    HW223877   1.247   2.927  10.995 -0.4182  0.6086  2.6053
 4081SOL     OW23878   4.091   0.043   3.286  0.1972  0.7896  0.1469
 4081SOL    HW123879   4.025   4.710   3.272  0.3329  0.5428  0.7207
 4081SOL    HW223880   4.107   0.043   3.380  0.3972  1.4709  0.1193
 4082SOL     OW23881   3.958   4.138  13.730 -0.4494 -0.2305 -0.0221
 4082SOL    HW123882   3.931   4.211  13.673  1.5703 -0.5560 -1.4058
 4082SOL    HW223883   3.877   4.091  13.748 -1.3388  1.6870  1.0300
 4083SOL     OW23884   0.107   3.980   5.679  0.1698 -0.2757 -0.4853
 4083SOL    HW123885   0.035   3.970   5.618 -0.5143  2.6635 -0.1293
 4083SOL    HW223886   0.162   3.909   5.647 -0.7416 -1.1155 -0.1892
 4084SOL     OW23887   0.100   2.810  15.890  0.1505 -0.4851  0.7187
 4084SOL    HW123888   0.062   2.767  15.813  0.4125  1.2432 -0.3616
 4084SOL    HW223889   0.133   2.734  15.938 -0.7256 -1.9478 -0.9863
 4085SOL     OW23890   2.385   0.613   8.181 -0.5859 -1.1224  0.0252
 4085SOL    HW123891   2.296   0.585   8.198 -0.0773 -2.6279  0.1361
 4085SOL    HW223892   2.387   0.592   8.088 -0.3649  0.6043 -0.3739
 4086SOL     OW23893   3.586   0.529  15.161  0.9647 -0.4140  0.2360
 4086SOL    HW123894   3.650   0.527  15.233 -0.2658  1.3071  1.4007
 4086SOL    HW223895   3.653   0.493  15.104 -0.6066 -0.7057 -1.4132
 4087SOL     OW23896   2.281   2.591   1.565  0.1159 -0.2961 -0.2971
 4087SOL    HW123897   2.298   2.518   1.505  0.5044  0.7756 -1.4813
 4087SOL    HW223898   2.339   2.570   1.639 -0.5251 -3.1707 -0.5890
 4088SOL     OW23899   3.375   0.079  10.872 -0.6327 -0.2541 -0.0563
 4088SOL    HW123900   3.349   4.726  10.841  0.6211 -0.5172 -0.3472
 4088SOL    HW223901   3.313   0.079  10.946 -1.3309  2.3576 -0.6669
 4089SOL     OW23902   1.477   1.905   5.390  0.3387  0.0306 -0.0960
 4089SOL    HW123903   1.517   1.982   5.431 -0.0739  0.2572 -0.1195
 4089SOL    HW223904   1.398   1.893   5.443 -0.5628  0.7099 -1.2961
 4090SOL     OW23905   1.589   2.543   2.442 -0.1693 -0.1394  0.7655
 4090SOL    HW123906   1.498   2.569   2.425 -0.0194  1.0528  1.7491
 4090SOL    HW223907   1.628   2.568   2.358  1.4335  0.6633  1.7376
 4091SOL     OW23908   1.457   2.360   0.969  0.5173 -0.6583  0.4364
 4091SOL    HW123909   1.525   2.297   0.947 -1.2559 -1.6449 -2.2307
 4091SOL    HW223910   1.401   2.349   0.892  0.5026 -2.7635  0.7540
 4092SOL     OW23911   0.447   0.365   8.070 -0.2457 -0.4586  0.4571
 4092SOL    HW123912   0.431   0.442   8.015 -0.3422  0.0777  1.2450
 4092SOL    HW223913   0.476   0.295   8.011  1.1431 -0.4431  1.1432
 4093SOL     OW23914   3.412   2.904   1.290  0.1501  0.5588 -0.8781
 4093SOL    HW123915   3.498   2.895   1.331  0.3956 -0.2522 -1.5741
 4093SOL    HW223916   3.385   2.816   1.265 -0.0138  0.8685 -1.8100
 4094SOL     OW23917   2.164   0.500  16.208  0.1820 -0.4170 -0.6638
 4094SOL    HW123918   2.180   0.532  16.120 -1.2462  2.2035  0.0514
 4094SOL    HW223919   2.176   0.408  16.185 -0.7682 -0.9104  0.7841
 4095SOL     OW23920   0.711   2.401  11.752  0.4216 -0.3149 -0.6048
 4095SOL    HW123921   0.708   2.314  11.792  0.6952 -0.4716 -0.9252
 4095SOL    HW223922   0.804   2.419  11.769  1.2220 -3.7757 -1.3142
 4096SOL     OW23923   2.978   4.398   1.143 -0.0123  0.0194  0.2055
 4096SOL    HW123924   2.900   4.410   1.197 -0.2186  1.1349 -0.3519
 4096SOL    HW223925   3.040   4.394   1.216  2.9337  2.1077 -2.1895
 4097SOL     OW23926   3.670   3.487   6.949 -0.4752  0.0812 -0.3614
 4097SOL    HW123927   3.580   3.457   6.931 -0.1117 -2.2918  1.7532
 4097SOL    HW223928   3.711   3.402   6.932  0.2004  0.2305  0.5411
 4098SOL     OW23929   1.564   3.944   4.502 -0.4655 -0.1239 -0.2325
 4098SOL    HW123930   1.506   3.996   4.446  0.4863  2.7922  1.4695
 4098SOL    HW223931   1.509   3.866   4.508 -0.3856 -0.0312  1.5386
 4099SOL     OW23932   0.765   4.595   3.627 -0.1988  0.4456 -0.3501
 4099SOL    HW123933   0.830   4.566   3.563  0.4640 -1.6413  1.2617
 4099SOL    HW223934   0.731   4.515   3.667 -0.2002  0.9126  0.6054
 4100SOL     OW23935   1.682   2.643   2.191 -0.2421 -0.0344 -0.3286
 4100SOL    HW123936   1.730   2.722   2.167 -2.7794  1.3935 -0.6897
 4100SOL    HW223937   1.708   2.597   2.111  1.8695 -0.1586  0.4262
 4101SOL     OW23938   0.601   1.228  16.112  0.6185 -0.1242  0.0669
 4101SOL    HW123939   0.663   1.299  16.122  1.5059 -0.5336 -2.5031
 4101SOL    HW223940   0.590   1.196  16.202 -0.5865  1.7329  0.5704
 4102SOL     OW23941   0.353   2.829   1.626  1.2283  0.1103 -0.0306
 4102SOL    HW123942   0.280   2.836   1.565 -0.1912  0.7678  1.7435
 4102SOL    HW223943   0.306   2.788   1.698 -0.4907 -1.8362 -2.2814
 4103SOL     OW23944   2.916   4.385   7.054  0.1538  0.1046 -0.3473
 4103SOL    HW123945   2.851   4.316   7.044 -1.1152  1.4956 -1.7610
 4103SOL    HW223946   2.993   4.355   7.006 -1.6463 -0.1208 -3.0366
 4104SOL     OW23947   1.647   3.912   8.842  0.1984  0.0754  0.1946
 4104SOL    HW123948   1.715   3.852   8.873  2.5864  3.0415  0.5785
 4104SOL    HW223949   1.698   3.972   8.789 -2.1016  1.7635 -0.0787
 4105SOL     OW23950   0.257   2.462   2.502  0.3162 -0.5055  0.5442
 4105SOL    HW123951   0.239   2.473   2.409 -1.0737 -1.1750  0.7400
 4105SOL    HW223952   0.285   2.548   2.533  2.1708 -1.2410  0.9354
 4106SOL     OW23953   0.961   0.153   0.709  0.2202  0.0303 -0.1772
 4106SOL    HW123954   0.910   0.209   0.650 -0.8256  2.2075  2.8093
 4106SOL    HW223955   1.052   0.163   0.683  0.5544 -0.3678  0.8276
 4107SOL     OW23956   2.745   0.927   1.985 -0.1911 -0.4060  0.9291
 4107SOL    HW123957   2.749   0.833   1.997 -2.3307 -0.2287  3.0099
 4107SOL    HW223958   2.730   0.944   2.078  0.8622  1.5057  0.7555
 4108SOL     OW23959   2.547   2.697   8.416 -0.0734  0.1878  0.2780
 4108SOL    HW123960   2.535   2.767   8.480  2.2832  0.2163  0.7169
 4108SOL    HW223961   2.535   2.742   8.332 -2.2852  2.7218  1.9589
 4109SOL     OW23962   2.876   1.035   0.030  0.1169 -0.3303 -0.0512
 4109SOL    HW123963   2.867   1.127   0.005  2.3787  0.1049  0.7793
 4109SOL    HW223964   2.895   1.042   0.123 -0.5910  2.0431 -0.0650
 4110SOL     OW23965   3.090   2.085   8.668 -0.6127  0.2274 -0.2683
 4110SOL    HW123966   3.051   2.096   8.581 -2.0582  0.8789  0.4534
 4110SOL    HW223967   3.019   2.113   8.725 -1.6638 -0.7909 -1.0780
 4111SOL     OW23968   4.024   0.432   2.443  0.3264  0.1420  0.7469
 4111SOL    HW123969   4.033   0.438   2.348 -1.2536  1.7667  0.7134
 4111SOL    HW223970   3.937   0.470   2.451  0.6637  1.5289 -2.2692
 4112SOL     OW23971   3.644   2.619   8.465 -0.1098  0.0889 -0.2549
 4112SOL    HW123972   3.610   2.633   8.553 -1.4983 -0.2053 -0.7502
 4112SOL    HW223973   3.568   2.612   8.406 -1.2644  0.8308  1.1529
 4113SOL     OW23974   1.785   0.012   7.762 -0.1798  0.2029 -0.2360
 4113SOL    HW123975   1.790   0.108   7.766 -3.2525  0.3121  1.1946
 4113SOL    HW223976   1.861   4.710   7.807  0.7908  0.5569 -1.6223
 4114SOL     OW23977   1.487   2.071  12.648  0.4113  0.1604  0.2682
 4114SOL    HW123978   1.490   2.109  12.560 -1.9108 -0.2537  0.0062
 4114SOL    HW223979   1.431   2.136  12.691  0.5934  0.2038  0.4379
 4115SOL     OW23980   3.230   3.737   9.193 -0.1984 -0.2347  0.3630
 4115SOL    HW123981   3.140   3.744   9.160 -0.2632 -1.3946  0.2898
 4115SOL    HW223982   3.282   3.728   9.113 -2.4345  0.9258 -1.2444
 4116SOL     OW23983   3.424   3.823   3.664  0.1233  0.1582 -0.0184
 4116SOL    HW123984   3.393   3.734   3.648 -2.2411  0.7004  1.4211
 4116SOL    HW223985   3.467   3.828   3.749  0.9789 -0.4961 -0.4231
 4117SOL     OW23986   1.487   4.286   2.324  0.2704 -0.2790 -0.2094
 4117SOL    HW123987   1.485   4.200   2.365  1.5833 -0.6642 -0.9430
 4117SOL    HW223988   1.502   4.348   2.396  1.0316  0.2543 -0.8203
 4118SOL     OW23989   3.791   1.296  11.502  0.4841 -0.7382 -0.3907
 4118SOL    HW123990   3.848   1.255  11.436 -0.1429  0.2771 -1.5503
 4118SOL    HW223991   3.742   1.356  11.445 -0.0941 -1.3556 -0.5374
 4119SOL     OW23992   1.858   2.607   8.635 -0.3619 -0.0925 -0.2937
 4119SOL    HW123993   1.880   2.636   8.547 -0.4361  2.4824  0.5164
 4119SOL    HW223994   1.893   2.677   8.691 -1.4857  0.8050 -0.7108
 4120SOL     OW23995   2.834   4.696   3.347  0.5020  0.0182 -0.2767
 4120SOL    HW123996   2.915   4.687   3.397 -0.4680 -0.3312  1.2510
 4120SOL    HW223997   2.813   4.602   3.353  2.4197 -0.2917  1.5074
 4121SOL     OW23998   4.446   2.557   5.310  0.1843  0.1373  0.1512
 4121SOL    HW123999   4.504   2.633   5.308  0.8775 -0.4359 -1.3242
 4121SOL    HW224000   4.494   2.494   5.256 -1.0685 -0.8661  0.2029
 4122SOL     OW24001   4.076   1.730   2.149 -0.4124  0.3678 -0.1588
 4122SOL    HW124002   4.071   1.666   2.219  2.7385 -1.3296 -1.4623
 4122SOL    HW224003   4.142   1.693   2.091 -0.9444 -0.3400 -0.3102
 4123SOL     OW24004   0.800   2.306   6.666  0.4371 -0.1363  0.8157
 4123SOL    HW124005   0.834   2.217   6.675 -1.8858 -1.0946  0.0648
 4123SOL    HW224006   0.834   2.352   6.743  0.1770  1.6522 -0.1399
 4124SOL     OW24007   1.686   3.785   6.373 -0.0417 -0.2819 -0.2367
 4124SOL    HW124008   1.771   3.830   6.370  0.5215 -1.4284 -1.5333
 4124SOL    HW224009   1.646   3.819   6.452 -0.9875 -1.6560 -0.1194
 4125SOL     OW24010   3.848   1.639  12.211  0.1632  0.1739 -0.1430
 4125SOL    HW124011   3.929   1.690  12.219  0.7933 -0.6971 -0.9144
 4125SOL    HW224012   3.776   1.702  12.207  0.2987  0.4131  1.3369
 4126SOL     OW24013   0.605   2.671   2.692 -0.0255  0.1101 -0.2475
 4126SOL    HW124014   0.546   2.618   2.745  0.4275 -0.4096 -0.2692
 4126SOL    HW224015   0.543   2.744   2.681 -1.8098 -1.1821  1.3732
 4127SOL     OW24016   1.088   0.799   6.466  0.0008  0.3712 -0.1994
 4127SOL    HW124017   1.068   0.773   6.376  3.9440 -2.5938 -0.2636
 4127SOL    HW224018   1.053   0.727   6.518 -1.7650  2.4148  1.4092
 4128SOL     OW24019   1.841   4.696   6.627 -0.2122 -0.4298  0.0903
 4128SOL    HW124020   1.746   4.683   6.636 -0.5974  1.3170 -1.5175
 4128SOL    HW224021   1.868   0.024   6.694  1.8209 -1.6936  0.4713
 4129SOL     OW24022   4.207   4.439   5.531 -0.3034  0.2148  0.6198
 4129SOL    HW124023   4.270   4.487   5.586  0.7091 -0.2971 -0.0876
 4129SOL    HW224024   4.138   4.501   5.507 -0.9002 -0.2800  1.0661
 4130SOL     OW24025   0.292   2.286  16.574  0.5793 -0.4497 -0.1655
 4130SOL    HW124026   0.222   2.228  16.541 -0.1104  1.3033 -1.7742
 4130SOL    HW224027   0.328   2.331  16.498 -1.8183 -1.3786 -1.8849
 4131SOL     OW24028   1.332   0.082  14.661 -0.2707  0.0241  0.6240
 4131SOL    HW124029   1.289   0.162  14.690 -0.1167  0.6015 -0.7237
 4131SOL    HW224030   1.398   0.055  14.725  2.2579 -0.9066 -2.3797
 4132SOL     OW24031   0.288   4.573   8.504 -0.1664  0.3381 -0.0097
 4132SOL    HW124032   0.249   4.491   8.535 -0.1684  0.6270  0.7419
 4132SOL    HW224033   0.373   4.564   8.548 -0.4780  0.6510  0.6546
 4133SOL     OW24034   3.259   1.655  11.044  0.1737 -1.1076  0.0140
 4133SOL    HW124035   3.201   1.612  10.981  1.8927 -1.4043 -1.3301
 4133SOL    HW224036   3.233   1.611  11.125 -1.4197  1.5608  0.9703
 4134SOL     OW24037   3.664   2.389  15.929 -0.2927  0.3396 -0.4850
 4134SOL    HW124038   3.612   2.311  15.948 -0.4549 -0.0371 -2.4845
 4134SOL    HW224039   3.748   2.346  15.915 -0.7300 -0.7052  0.0991
 4135SOL     OW24040   4.072   4.241   4.844 -0.1941  0.6215  0.4198
 4135SOL    HW124041   4.130   4.184   4.895  1.3284  1.3392 -0.5178
 4135SOL    HW224042   3.988   4.250   4.890  0.2959 -0.6662  1.5670
 4136SOL     OW24043   2.983   4.341   5.170 -0.4140 -0.1426  0.1433
 4136SOL    HW124044   2.967   4.250   5.195 -2.3792  0.0362 -0.4580
 4136SOL    HW224045   2.947   4.396   5.240 -0.5025 -0.1862  0.1321
 4137SOL     OW24046   2.543   2.334  10.372 -0.1302  0.3828 -0.3702
 4137SOL    HW124047   2.593   2.407  10.409 -0.2156  0.4015 -0.2900
 4137SOL    HW224048   2.613   2.274  10.348  2.3483  3.0589  0.1060
 4138SOL     OW24049   3.979   1.076   5.444  0.3281 -0.6337  1.0014
 4138SOL    HW124050   4.025   1.135   5.384  0.2734 -0.8964  0.6996
 4138SOL    HW224051   3.904   1.046   5.393 -2.3856  3.1181  2.7450
 4139SOL     OW24052   4.387   2.629   9.022 -0.2393  0.0917  0.0151
 4139SOL    HW124053   4.401   2.612   9.115 -0.6329 -0.1592  0.0303
 4139SOL    HW224054   4.379   2.724   9.032  0.0560  0.2118 -0.9222
 4140SOL     OW24055   4.423   1.902  14.326  0.1028  0.1430 -0.5529
 4140SOL    HW124056   4.468   1.947  14.254  1.4908 -0.6890 -0.2121
 4140SOL    HW224057   4.457   1.941  14.406 -0.5890 -0.0848 -0.1490
 4141SOL     OW24058   2.418   0.200   5.894 -0.0569  0.5575 -0.3380
 4141SOL    HW124059   2.337   0.226   5.937  0.2424  0.5760  0.2156
 4141SOL    HW224060   2.476   0.267   5.932  0.8942 -1.1696  1.2365
 4142SOL     OW24061   2.563   1.680   5.502 -1.0974  0.7987 -0.1346
 4142SOL    HW124062   2.489   1.619   5.503 -0.2661 -0.2161 -0.4118
 4142SOL    HW224063   2.535   1.731   5.427 -1.4620 -0.6314 -0.9848
 4143SOL     OW24064   4.047   1.782   1.823  0.4265  0.1856  0.1346
 4143SOL    HW124065   4.134   1.774   1.861  1.4085 -0.7186 -2.2867
 4143SOL    HW224066   4.057   1.866   1.778  1.0777  0.0992  0.1232
 4144SOL     OW24067   3.903   3.621   4.185  0.4419 -0.2584 -0.1366
 4144SOL    HW124068   3.955   3.673   4.246 -0.6420 -0.6504  1.1356
 4144SOL    HW224069   3.957   3.634   4.107 -0.2537  1.1312 -0.3873
 4145SOL     OW24070   1.674   3.484   2.789  0.3820 -0.5609  0.0910
 4145SOL    HW124071   1.579   3.479   2.773  0.7412 -1.6315 -1.7141
 4145SOL    HW224072   1.665   3.565   2.839 -0.5078 -0.6825  0.1299
 4146SOL     OW24073   1.926   1.325   1.875 -0.0262  0.1404 -0.1806
 4146SOL    HW124074   1.840   1.367   1.865  1.1510  1.6029 -4.2180
 4146SOL    HW224075   1.979   1.382   1.818 -1.2995 -0.7686 -2.2795
 4147SOL     OW24076   0.261   2.339  16.058  0.6331 -0.8864  0.0324
 4147SOL    HW124077   0.227   2.289  16.132  1.1868  2.7124  2.7325
 4147SOL    HW224078   0.241   2.277  15.989 -0.6756 -0.7860  0.3274
 4148SOL     OW24079   0.184   0.592   9.011  0.0710 -0.2232 -0.3460
 4148SOL    HW124080   0.159   0.503   9.033  2.0144 -0.6235  0.2595
 4148SOL    HW224081   0.215   0.571   8.923  1.3299 -0.6829  0.2106
 4149SOL     OW24082   0.107   0.965  11.575 -0.2249 -0.2805 -0.1465
 4149SOL    HW124083   0.122   1.051  11.535  0.8794 -0.9139 -1.1008
 4149SOL    HW224084   0.087   0.996  11.664  0.6581  2.2967 -0.8664
 4150SOL     OW24085   3.951   1.129   2.819 -0.2277 -0.1567 -0.5211
 4150SOL    HW124086   3.996   1.060   2.867  0.5813  1.1026  0.5278
 4150SOL    HW224087   3.999   1.139   2.736 -1.5176  1.4086 -1.0887
 4151SOL     OW24088   3.482   2.154   2.174  0.1918  0.5773 -0.2880
 4151SOL    HW124089   3.470   2.186   2.264 -1.8138  0.0216 -0.3657
 4151SOL    HW224090   3.400   2.170   2.127 -0.7255  1.6985  1.7093
 4152SOL     OW24091   1.883   0.163   8.536  0.2746 -0.0477  0.7399
 4152SOL    HW124092   1.964   0.189   8.490  0.2866 -0.7984  0.3425
 4152SOL    HW224093   1.818   0.221   8.496  2.7765  0.8350 -2.0866
 4153SOL     OW24094   2.759   3.356   2.143  0.2349 -0.0529  0.1986
 4153SOL    HW124095   2.796   3.428   2.092  0.0754 -0.9708 -1.2131
 4153SOL    HW224096   2.821   3.356   2.215  0.0877  2.2405  0.3152
 4154SOL     OW24097   1.360   3.541   2.056  0.5654  0.1635  0.2498
 4154SOL    HW124098   1.343   3.482   2.129  2.1483  1.0275  1.3275
 4154SOL    HW224099   1.444   3.584   2.072 -0.2954  1.6650  0.8575
 4155SOL     OW24100   2.249   3.559   7.501 -0.4530 -0.1951 -0.0989
 4155SOL    HW124101   2.195   3.635   7.521  0.4157 -0.0259  1.6237
 4155SOL    HW224102   2.201   3.530   7.423  0.7215 -2.8297  0.1291
 4156SOL     OW24103   3.278   4.517  12.547  0.3491 -0.2587  0.5641
 4156SOL    HW124104   3.251   4.580  12.480 -1.4721  0.0202  1.5523
 4156SOL    HW224105   3.320   4.569  12.616  2.1798  0.1396 -0.8684
 4157SOL     OW24106   3.124   2.236   4.549 -0.4323 -0.2942 -0.9109
 4157SOL    HW124107   3.178   2.159   4.565 -0.7954 -0.6146 -1.2402
 4157SOL    HW224108   3.095   2.211   4.461  0.4780  0.7015 -1.4936
 4158SOL     OW24109   2.912   0.606   9.160  0.6006  0.3263  0.4196
 4158SOL    HW124110   2.927   0.668   9.089 -0.7209 -0.2744 -0.3980
 4158SOL    HW224111   3.002   0.603   9.192  0.5955 -0.6675  0.3512
 4159SOL     OW24112   2.888   4.598   3.038  0.3828  0.6612  0.3230
 4159SOL    HW124113   2.812   4.631   3.086 -0.5640 -0.6579 -0.2675
 4159SOL    HW224114   2.905   4.521   3.093 -0.6476 -0.9048 -1.5755
 4160SOL     OW24115   4.382   0.529  14.404 -0.2115 -0.1609 -0.0024
 4160SOL    HW124116   4.423   0.612  14.430  1.9250 -0.4521 -2.3641
 4160SOL    HW224117   4.295   0.552  14.436 -0.4693 -0.4781 -0.4695
 4161SOL     OW24118   2.415   0.524  14.421  0.1764 -0.2907 -0.5674
 4161SOL    HW124119   2.420   0.542  14.327 -0.7162  1.3453 -0.3006
 4161SOL    HW224120   2.322   0.506  14.430  0.0497  0.7115  0.1804
 4162SOL     OW24121   4.568   2.447   5.101 -0.2827 -0.3354  0.3208
 4162SOL    HW124122   4.520   2.389   5.042  1.3733 -1.0287 -0.3396
 4162SOL    HW224123   4.614   2.502   5.038  0.1497  0.5300  1.3843
 4163SOL     OW24124   4.020   0.269   2.801 -0.0913 -0.3296  0.2794
 4163SOL    HW124125   3.982   0.226   2.724 -0.3746  1.7259 -0.7556
 4163SOL    HW224126   3.943   0.294   2.853  0.1426 -1.0632  0.9684
 4164SOL     OW24127   3.930   1.105   2.106 -0.2136 -0.1632 -0.4492
 4164SOL    HW124128   4.021   1.081   2.121 -0.0544  0.6586 -0.1364
 4164SOL    HW224129   3.916   1.130   2.197  1.2886 -1.4946  0.1490
 4165SOL     OW24130   0.197   3.306   3.403 -0.1628 -0.0981  0.9049
 4165SOL    HW124131   0.158   3.365   3.339  0.0344  1.1666  1.9311
 4165SOL    HW224132   0.212   3.220   3.366  0.8048  0.5957 -0.3276
 4166SOL     OW24133   1.617   3.928   1.540  0.2325 -0.3854  0.7958
 4166SOL    HW124134   1.578   3.924   1.452 -2.1004 -1.0141  1.8606
 4166SOL    HW224135   1.708   3.947   1.517 -0.7316  1.6132 -1.3202
 4167SOL     OW24136   2.045   2.779   8.030  0.1421  0.6922 -0.4588
 4167SOL    HW124137   1.970   2.799   7.975 -0.1723  0.6621 -0.0422
 4167SOL    HW224138   2.083   2.864   8.055 -0.1990  0.7547 -0.1595
 4168SOL     OW24139   1.972   2.550   4.470  0.0448 -0.1275  0.2654
 4168SOL    HW124140   1.954   2.547   4.564 -1.4192  0.2673 -0.0042
 4168SOL    HW224141   1.886   2.533   4.432  1.1448 -1.7788 -1.4935
 4169SOL     OW24142   3.316   0.141   6.214 -0.6520  0.0272  0.3858
 4169SOL    HW124143   3.372   0.127   6.290  0.5949  1.4268 -0.2755
 4169SOL    HW224144   3.367   0.205   6.165 -0.3316  0.7639  1.6817
 4170SOL     OW24145   0.476   1.395   3.106  0.4723 -0.2283  0.2984
 4170SOL    HW124146   0.418   1.385   3.030 -1.0861  1.1225  1.3189
 4170SOL    HW224147   0.465   1.306   3.140  0.4336  0.9638  3.3515
 4171SOL     OW24148   2.607   4.270   6.817  0.3932  0.4442 -0.4017
 4171SOL    HW124149   2.522   4.237   6.845  1.1528 -1.6138 -0.4953
 4171SOL    HW224150   2.584   4.327   6.743 -2.6072 -1.0283 -0.5923
 4172SOL     OW24151   1.366   2.478   6.792  0.1716  0.0325  0.2721
 4172SOL    HW124152   1.342   2.543   6.857 -2.1594 -0.5337 -0.0347
 4172SOL    HW224153   1.442   2.513   6.746  0.2542  1.2070  1.3173
 4173SOL     OW24154   3.702   0.925   9.696 -0.2442  0.2736  0.3705
 4173SOL    HW124155   3.637   0.917   9.766  1.3694 -0.7684  1.7244
 4173SOL    HW224156   3.673   0.849   9.646 -1.5194  0.4148  0.8830
 4174SOL     OW24157   2.628   3.636   8.542  0.3158  0.2861 -0.1042
 4174SOL    HW124158   2.553   3.677   8.499  1.5034  2.1301 -0.4554
 4174SOL    HW224159   2.630   3.697   8.616  1.9337 -0.2708  0.3158
 4175SOL     OW24160   1.731   0.889   9.164  0.1820 -0.8267 -0.1369
 4175SOL    HW124161   1.653   0.837   9.143 -1.8819  1.1026  2.8143
 4175SOL    HW224162   1.750   0.920   9.076 -1.3461  1.2737  0.2832
 4176SOL     OW24163   1.891   0.567   9.341  0.0588 -0.0018 -0.2903
 4176SOL    HW124164   1.912   0.487   9.292 -0.3331 -0.1441 -0.2297
 4176SOL    HW224165   1.946   0.558   9.418  1.2590  1.7324 -0.9414
 4177SOL     OW24166   3.626   2.590  12.364  0.4811  0.1657  0.4422
 4177SOL    HW124167   3.656   2.666  12.413 -0.6879  1.2991 -0.6095
 4177SOL    HW224168   3.672   2.599  12.281  0.7231 -2.0868  0.3145
 4178SOL     OW24169   2.260   0.792   8.377  0.6303  0.3374 -0.0630
 4178SOL    HW124170   2.344   0.805   8.333  0.9684 -0.9505  0.2177
 4178SOL    HW224171   2.209   0.727   8.329  0.2881  0.2232  0.4518
 4179SOL     OW24172   3.579   0.907   0.880  0.1380 -0.5513 -0.4912
 4179SOL    HW124173   3.507   0.952   0.925 -0.0879 -1.4504  0.0437
 4179SOL    HW224174   3.534   0.823   0.883  0.3599 -0.7230 -2.2661
 4180SOL     OW24175   0.754   0.270   9.347  0.3736  0.9013  0.2302
 4180SOL    HW124176   0.763   0.178   9.324  0.3357  0.7980  0.6290
 4180SOL    HW224177   0.766   0.265   9.442 -0.7709 -0.2372  0.3121
 4181SOL     OW24178   1.999   2.728   6.830 -0.1289  0.4869 -0.3163
 4181SOL    HW124179   2.054   2.806   6.831  0.5087  0.0718 -3.0075
 4181SOL    HW224180   1.920   2.764   6.789 -0.0067 -1.5641 -2.3388
 4182SOL     OW24181   1.873   2.315   6.298  0.2013  0.1388 -0.1622
 4182SOL    HW124182   1.790   2.268   6.305 -0.0719  1.0615  2.8118
 4182SOL    HW224183   1.898   2.302   6.207  2.3881 -0.5142  0.5335
 4183SOL     OW24184   4.207   3.585   5.847  0.3409 -0.2682 -0.0624
 4183SOL    HW124185   4.271   3.652   5.824  0.6786 -0.2355  0.9861
 4183SOL    HW224186   4.177   3.574   5.757 -0.9008  1.6839  0.1195
 4184SOL     OW24187   0.659   2.290   9.040  0.5087 -0.1441  0.2093
 4184SOL    HW124188   0.607   2.266   9.116  2.8683 -0.8019  1.6253
 4184SOL    HW224189   0.635   2.207   8.999  0.2893  0.2127 -0.3774
 4185SOL     OW24190   2.009   2.576   4.779 -0.2218 -0.2549 -0.1298
 4185SOL    HW124191   1.982   2.485   4.790  1.9379 -1.0259 -1.0711
 4185SOL    HW224192   2.035   2.606   4.866 -0.1355 -1.3505  0.2127
 4186SOL     OW24193   0.888   3.932   8.662  0.5503 -0.2422  0.3767
 4186SOL    HW124194   0.800   3.959   8.636  0.1060 -0.9312  1.1793
 4186SOL    HW224195   0.891   3.931   8.757  0.4517 -0.0690  0.3812
 4187SOL     OW24196   4.331   3.912  10.603  0.2239  0.1334  0.2433
 4187SOL    HW124197   4.371   3.923  10.690  0.5146 -1.6827  0.3370
 4187SOL    HW224198   4.240   3.892  10.625  0.2591 -0.7599 -0.4235
 4188SOL     OW24199   1.639   0.873  11.307  0.0137  0.4871 -0.5708
 4188SOL    HW124200   1.551   0.905  11.329 -1.5441 -3.4564 -1.0425
 4188SOL    HW224201   1.621   0.836  11.221 -1.4158  2.1513 -1.0186
 4189SOL     OW24202   0.071   1.427   2.186 -0.5471 -0.1743  0.2606
 4189SOL    HW124203   0.050   1.418   2.279 -0.2424  2.1035  0.5560
 4189SOL    HW224204   0.064   1.333   2.168  1.9196 -0.1795 -0.6902
 4190SOL     OW24205   4.338   1.323  17.269  0.8245  0.3528 -0.6772
 4190SOL    HW124206   4.338   1.295  17.360  1.5469  0.1954 -0.7329
 4190SOL    HW224207   4.391   1.252  17.234  1.5843  0.6666 -0.1619
 4191SOL     OW24208   1.836   4.731   5.262 -0.3137  0.5870  0.7080
 4191SOL    HW124209   1.896   4.657   5.268 -0.9260  0.2291  2.4857
 4191SOL    HW224210   1.881   0.064   5.212  1.0576  0.2354  1.4635
 4192SOL     OW24211   3.463   1.170   0.060  0.1174  0.0366  0.5626
 4192SOL    HW124212   3.551   1.132   0.071 -0.4421 -0.9570  1.6994
 4192SOL    HW224213   3.450   1.151  17.705 -0.8413 -0.3776  0.7819
 4193SOL     OW24214   1.869   0.944   5.964  0.1304 -0.2758 -0.2093
 4193SOL    HW124215   1.787   0.909   5.929 -0.8072  2.7272 -1.0719
 4193SOL    HW224216   1.860   0.972   6.055  1.6476  1.3640 -0.5704
 4194SOL     OW24217   2.043   3.406  12.255 -0.0941  0.4955 -0.0232
 4194SOL    HW124218   1.990   3.479  12.286  0.6086  0.2660  1.7091
 4194SOL    HW224219   2.121   3.401  12.311  0.0425 -0.6055 -0.3089
 4195SOL     OW24220   1.325   2.948   3.835 -0.0328  0.1406 -0.0398
 4195SOL    HW124221   1.336   3.020   3.772 -2.3647 -0.2043 -0.8429
 4195SOL    HW224222   1.380   2.874   3.811 -1.4494 -0.2483 -2.0257
 4196SOL     OW24223   3.179   3.232   4.262  0.7252  0.4483  0.0797
 4196SOL    HW124224   3.150   3.157   4.209  2.0847  0.3943 -0.5820
 4196SOL    HW224225   3.154   3.307   4.209  0.1873  0.7349  0.7363
 4197SOL     OW24226   4.566   3.437   5.639  0.0848  0.0007 -0.1999
 4197SOL    HW124227   4.635   3.487   5.594  0.5105 -2.9620 -2.7999
 4197SOL    HW224228   4.570   3.477   5.726 -2.5254  0.6733 -0.3911
 4198SOL     OW24229   0.600   3.987   3.274  0.1788  0.1557  0.3550
 4198SOL    HW124230   0.579   3.962   3.364 -1.0015  3.9373  1.1230
 4198SOL    HW224231   0.582   3.903   3.232 -0.5183 -0.4773  1.9279
 4199SOL     OW24232   2.129   1.152  11.437  1.0864 -0.0769 -0.7241
 4199SOL    HW124233   2.059   1.176  11.377  0.9138  0.2187 -0.4027
 4199SOL    HW224234   2.110   1.058  11.433 -0.2965  0.1464  0.7595
 4200SOL     OW24235   0.050   3.578   5.567  0.0325 -0.1444 -0.1986
 4200SOL    HW124236   0.098   3.637   5.625  1.7293  1.9712 -3.7634
 4200SOL    HW224237   0.004   3.649   5.521  1.5945  0.5743 -0.6435
 4201SOL     OW24238   4.392   1.623   5.936  0.3249  0.0477 -0.0830
 4201SOL    HW124239   4.362   1.696   5.883  0.8481 -0.0774 -0.5377
 4201SOL    HW224240   4.317   1.614   5.995  2.2042 -0.3295  2.2455
 4202SOL     OW24241   2.913   4.574   7.986 -0.8577  0.0576 -0.2080
 4202SOL    HW124242   2.839   4.560   7.927  0.2055 -0.9477 -1.3086
 4202SOL    HW224243   2.982   4.541   7.929 -0.1538  0.8766  0.1637
 4203SOL     OW24244   0.341   2.272   2.663 -0.0799 -0.0060  0.2234
 4203SOL    HW124245   0.324   2.332   2.590  1.1132  1.9848  1.5933
 4203SOL    HW224246   0.252   2.257   2.697  0.1986 -0.7437  0.6333
 4204SOL     OW24247   3.909   1.244  13.031  0.2477 -0.4047  0.4230
 4204SOL    HW124248   3.966   1.195  13.090 -0.2175 -0.7936  0.5415
 4204SOL    HW224249   3.896   1.321  13.088  1.8019  0.1231  0.0753
 4205SOL     OW24250   3.958   0.998   3.995 -0.1331 -0.0462 -0.2778
 4205SOL    HW124251   3.984   1.071   4.050  0.1953 -0.2973 -0.0943
 4205SOL    HW224252   3.946   0.933   4.064  0.3586 -0.7409 -0.8333
 4206SOL     OW24253   0.123   1.979   4.552 -0.2032 -0.4332 -0.0810
 4206SOL    HW124254   0.167   1.903   4.513  2.0349  0.8995 -0.1311
 4206SOL    HW224255   0.195   2.042   4.556 -0.5261 -0.1751  1.6156
 4207SOL     OW24256   1.598   2.019  12.975  0.2401 -0.6190  0.0624
 4207SOL    HW124257   1.563   2.085  13.035 -0.8322  1.9670 -3.4007
 4207SOL    HW224258   1.683   1.999  13.016 -0.8239  1.6611  3.3753
 4208SOL     OW24259   2.026   3.003   5.939 -0.6473  0.1554  0.0995
 4208SOL    HW124260   2.052   3.019   6.029 -1.5213 -2.0714  0.7608
 4208SOL    HW224261   2.107   2.985   5.891 -1.2302 -1.7632 -0.1680
 4209SOL     OW24262   2.453   4.550  12.350 -0.4799 -0.4696  0.4859
 4209SOL    HW124263   2.387   4.484  12.367 -0.7793  0.0093  1.1915
 4209SOL    HW224264   2.525   4.515  12.403 -0.4970 -0.1225  0.7387
 4210SOL     OW24265   0.378   2.752   2.898  0.1007  0.0878  0.0702
 4210SOL    HW124266   0.382   2.658   2.879  0.0381  0.2910 -0.9774
 4210SOL    HW224267   0.363   2.742   2.992  0.6233  1.6472  0.3109
 4211SOL     OW24268   3.352   2.129   6.677  0.0703  0.3088  0.0252
 4211SOL    HW124269   3.323   2.082   6.755 -2.9777  0.3926 -1.0776
 4211SOL    HW224270   3.288   2.199   6.669  0.7405  1.1348  1.7365
 4212SOL     OW24271   4.378   2.384   1.813  0.3949  0.2147  0.0802
 4212SOL    HW124272   4.284   2.401   1.816  0.5311  0.8699  0.4952
 4212SOL    HW224273   4.389   2.397   1.719  0.2038 -1.9681 -0.2481
 4213SOL     OW24274   0.859   0.207   3.588 -0.1486 -0.1577 -0.2334
 4213SOL    HW124275   0.808   0.205   3.669 -1.3630 -0.8398 -1.0266
 4213SOL    HW224276   0.786   0.198   3.527 -0.1360  1.5682 -0.5141
 4214SOL     OW24277   0.315   2.878   6.540  0.3366  0.2115 -0.3747
 4214SOL    HW124278   0.361   2.833   6.469  2.1188  1.1126  0.2239
 4214SOL    HW224279   0.343   2.819   6.609  1.1672 -0.2511 -1.1070
 4215SOL     OW24280   3.147   0.788  16.811 -0.3731  0.2366  0.4240
 4215SOL    HW124281   3.120   0.875  16.782  0.9016  0.8014  0.9446
 4215SOL    HW224282   3.213   0.820  16.873  1.6218  1.0527 -2.1344
 4216SOL     OW24283   4.555   0.518   9.637  0.2451  0.5274 -0.4892
 4216SOL    HW124284   4.507   0.486   9.714  0.4995 -1.9291 -1.3604
 4216SOL    HW224285   4.485   0.570   9.597 -0.2226 -0.2489 -0.6791
 4217SOL     OW24286   2.506   2.921   3.342 -0.5395  0.1154 -0.2016
 4217SOL    HW124287   2.432   2.968   3.304  0.4863  0.8467 -1.2932
 4217SOL    HW224288   2.578   2.963   3.295 -1.0655  0.0189 -1.0988
 4218SOL     OW24289   1.364   3.546   5.024  0.4351  0.4171 -0.2105
 4218SOL    HW124290   1.385   3.620   5.081  0.5701 -1.0046  1.5850
 4218SOL    HW224291   1.396   3.471   5.075  0.1104  1.7181  1.9269
 4219SOL     OW24292   0.176   3.362   4.253 -0.2108  0.3290 -0.0638
 4219SOL    HW124293   0.091   3.360   4.209 -1.6053 -1.6288  2.6952
 4219SOL    HW224294   0.187   3.275   4.291 -0.8859  0.4563  0.4277
 4220SOL     OW24295   2.347   3.539   1.651  0.6375 -0.6876  0.3811
 4220SOL    HW124296   2.369   3.483   1.577 -1.5797 -0.6191 -0.3363
 4220SOL    HW224297   2.324   3.617   1.601 -0.2585 -0.9683  0.3618
 4221SOL     OW24298   4.430   4.483   2.898 -0.1679  0.2153 -0.5262
 4221SOL    HW124299   4.458   4.441   2.979 -0.4989 -1.5112 -1.2961
 4221SOL    HW224300   4.337   4.494   2.918 -0.2826 -2.1610  0.2120
 4222SOL     OW24301   2.309   3.885  17.481  0.0562 -0.4157  0.0887
 4222SOL    HW124302   2.269   3.969  17.502 -0.5087 -0.5775 -0.3580
 4222SOL    HW224303   2.313   3.891  17.386  0.4294  0.1510  0.1360
 4223SOL     OW24304   2.378   3.115  17.008 -0.0445  0.3256  0.1888
 4223SOL    HW124305   2.429   3.034  16.999 -0.4816 -0.0553  1.0893
 4223SOL    HW224306   2.394   3.172  16.934  1.8419 -0.9369 -0.3664
 4224SOL     OW24307   1.750   1.839  16.732 -0.5228  0.6593 -0.4752
 4224SOL    HW124308   1.755   1.774  16.802 -1.0975  1.0581 -0.0733
 4224SOL    HW224309   1.780   1.785  16.658  0.1850 -0.3902  0.5725
 4225SOL     OW24310   3.378   2.458   6.935 -0.1720  0.7851  0.0404
 4225SOL    HW124311   3.447   2.445   7.000  1.6951 -1.6699 -2.4488
 4225SOL    HW224312   3.307   2.406   6.972  1.7823 -1.5512  0.4814
 4226SOL     OW24313   3.239   2.533  12.459 -0.1103 -0.0583  0.0811
 4226SOL    HW124314   3.218   2.556  12.549 -1.4117 -1.7488  0.2042
 4226SOL    HW224315   3.178   2.460  12.451  0.5047 -0.7715  2.0252
 4227SOL     OW24316   1.618   1.989  15.477  0.4233 -0.0559  0.2656
 4227SOL    HW124317   1.669   2.045  15.419  0.6822 -1.3954 -0.8092
 4227SOL    HW224318   1.655   1.984  15.565  0.8368  0.4177  0.1148
 4228SOL     OW24319   2.970   0.373   7.826 -0.2726  0.9991  0.1905
 4228SOL    HW124320   3.027   0.449   7.837  1.5827 -0.4172  0.2801
 4228SOL    HW224321   2.951   0.361   7.919  3.0742 -2.0075  0.4745
 4229SOL     OW24322   1.890   1.025   6.610 -0.2359 -0.0442  0.1920
 4229SOL    HW124323   1.919   1.017   6.519 -1.1664  0.9644 -0.1993
 4229SOL    HW224324   1.943   1.098   6.642  2.6058 -2.0085 -0.0416
 4230SOL     OW24325   2.190   3.374   7.065 -0.8649  0.0736 -0.1023
 4230SOL    HW124326   2.249   3.386   6.990  0.8031 -0.8002  1.0798
 4230SOL    HW224327   2.220   3.288   7.093  2.7233  1.7803  1.3255
 4231SOL     OW24328   2.229   1.848   8.800 -0.0446 -0.5606  0.2016
 4231SOL    HW124329   2.246   1.938   8.826 -0.5788  0.0905 -1.6977
 4231SOL    HW224330   2.243   1.792   8.877  0.1847 -0.7360  0.0331
 4232SOL     OW24331   0.444   1.135   3.149  0.0373 -0.0542  1.0773
 4232SOL    HW124332   0.392   1.054   3.151  1.5663 -1.1049 -1.7676
 4232SOL    HW224333   0.504   1.113   3.079 -0.7419  1.1738  0.0166
 4233SOL     OW24334   4.001   3.817   8.470 -0.0495 -0.1927  0.0926
 4233SOL    HW124335   4.057   3.817   8.548  0.6126  0.0621 -0.3809
 4233SOL    HW224336   4.033   3.735   8.434  0.4929  0.3120 -0.5815
 4234SOL     OW24337   2.069   0.883  11.404 -0.0243 -0.5739 -0.5084
 4234SOL    HW124338   2.136   0.838  11.455 -0.6971  0.6787  1.4932
 4234SOL    HW224339   2.100   0.893  11.314  0.9769 -1.2650 -0.2434
 4235SOL     OW24340   2.693   4.701   5.371 -0.3736 -0.0869 -0.3575
 4235SOL    HW124341   2.654   0.048   5.339 -0.6189  0.4559  1.3144
 4235SOL    HW224342   2.721   4.715   5.462  1.4016 -0.5625 -0.8289
 4236SOL     OW24343   2.449   0.161  11.762  0.1366  0.1868  0.1832
 4236SOL    HW124344   2.482   0.146  11.851  0.4810  3.5959  0.6399
 4236SOL    HW224345   2.367   0.112  11.756  0.3437 -0.2777  1.0579
 4237SOL     OW24346   2.750   1.356   0.806 -0.0521 -0.4813 -0.2860
 4237SOL    HW124347   2.688   1.388   0.741 -0.5704 -0.7151  0.0999
 4237SOL    HW224348   2.762   1.263   0.787 -0.0075 -0.1521 -1.8971
 4238SOL     OW24349   3.735   3.655  13.105 -0.5315 -0.6875 -0.2485
 4238SOL    HW124350   3.687   3.606  13.038  1.1449 -3.6613  0.6955
 4238SOL    HW224351   3.777   3.585  13.155 -0.5782  0.3870  1.2938
 4239SOL     OW24352   3.402   2.885  15.753 -0.4019 -0.8137  0.1328
 4239SOL    HW124353   3.454   2.946  15.806 -0.2113 -1.2083  0.4037
 4239SOL    HW224354   3.465   2.813  15.750 -0.1120 -0.6473  1.9828
 4240SOL     OW24355   1.562   2.445  10.720  0.4927  0.1027 -0.0169
 4240SOL    HW124356   1.567   2.353  10.746  0.5947  0.2172  0.3715
 4240SOL    HW224357   1.643   2.477  10.760  1.5773 -2.7719  0.0066
 4241SOL     OW24358   3.598   3.057   8.711  0.5515  0.0084 -0.3759
 4241SOL    HW124359   3.563   3.111   8.640 -1.0631 -2.0513 -1.1793
 4241SOL    HW224360   3.585   3.112   8.788 -1.7362 -0.3831 -0.4614
 4242SOL     OW24361   4.398   0.660   8.306 -0.6003 -0.3787 -0.4017
 4242SOL    HW124362   4.421   0.744   8.347 -1.0412 -0.1792 -0.5607
 4242SOL    HW224363   4.484   0.624   8.287  0.9717  3.5977 -0.8491
 4243SOL     OW24364   0.419   2.863  11.835  0.2860 -0.5424  0.1319
 4243SOL    HW124365   0.451   2.911  11.759  0.8636 -1.2819 -0.0899
 4243SOL    HW224366   0.386   2.928  11.898 -2.8031 -2.2562  0.3127
 4244SOL     OW24367   2.273   4.063   8.799 -0.0062 -0.1516  0.2816
 4244SOL    HW124368   2.192   4.075   8.850  0.6868 -0.7903  1.5240
 4244SOL    HW224369   2.234   4.027   8.719  0.9514 -1.0154  0.2088
 4245SOL     OW24370   1.853   0.578   7.772  0.5435 -0.5056 -1.0326
 4245SOL    HW124371   1.926   0.638   7.787  0.7124 -0.6892 -1.1221
 4245SOL    HW224372   1.852   0.563   7.677  0.6107 -0.2621 -1.0728
 4246SOL     OW24373   0.626   1.601   3.283 -0.2448 -0.5397  0.1662
 4246SOL    HW124374   0.602   1.537   3.215  0.9555  0.4663 -1.1824
 4246SOL    HW224375   0.569   1.674   3.261  0.3820  0.1195  0.7645
 4247SOL     OW24376   4.151   2.583   4.666  0.3859  0.1886 -0.2737
 4247SOL    HW124377   4.167   2.553   4.755 -2.1160 -1.7416 -0.4973
 4247SOL    HW224378   4.056   2.580   4.674  0.6423  1.3989  3.4452
 4248SOL     OW24379   3.337   3.704   1.505  0.1175  0.5202  0.1034
 4248SOL    HW124380   3.404   3.656   1.456  0.9191 -0.4358  2.1435
 4248SOL    HW224381   3.305   3.756   1.430 -2.3508  0.1252  0.8966
 4249SOL     OW24382   1.861   2.590   0.007 -0.3677  0.0707  0.0302
 4249SOL    HW124383   1.945   2.636   0.013  0.5680 -1.5528 -0.5151
 4249SOL    HW224384   1.897   2.501   0.004 -0.6104 -0.0249 -0.0070
 4250SOL     OW24385   1.389   3.395   5.906  0.0254  0.5582  0.0383
 4250SOL    HW124386   1.387   3.490   5.916  0.2714  0.4420  1.2422
 4250SOL    HW224387   1.481   3.379   5.885 -0.1937 -0.0234 -0.4701
 4251SOL     OW24388   1.196   2.350   1.722 -0.2850 -0.7648 -0.0881
 4251SOL    HW124389   1.260   2.381   1.657  0.9964  1.8535  2.4020
 4251SOL    HW224390   1.257   2.288   1.761  0.2548 -0.3748 -0.2963
 4252SOL     OW24391   0.702   4.601   2.248  0.0618 -0.1035  0.5949
 4252SOL    HW124392   0.771   4.665   2.268 -0.4221  0.5238  0.2933
 4252SOL    HW224393   0.756   4.524   2.228  0.1931  0.5506 -1.6559
 4253SOL     OW24394   4.302   4.610   5.278 -0.1877  0.3669 -0.3475
 4253SOL    HW124395   4.284   4.686   5.333 -0.4597 -0.7371  1.0943
 4253SOL    HW224396   4.328   4.554   5.351  0.4648 -1.6937 -2.1495
 4254SOL     OW24397   4.417   1.915   8.184 -0.8769 -0.2550 -0.1096
 4254SOL    HW124398   4.416   1.934   8.090  2.3943 -0.8994 -0.2484
 4254SOL    HW224399   4.436   1.995   8.232  1.4383 -0.1580 -1.2082
 4255SOL     OW24400   2.396   0.688  11.839 -0.0483 -0.2161  0.1834
 4255SOL    HW124401   2.384   0.752  11.909  0.5172 -1.1608  1.1459
 4255SOL    HW224402   2.483   0.710  11.806 -1.0985  2.2761 -0.9311
 4256SOL     OW24403   1.222   4.428   6.457 -0.5750  0.1809 -0.1778
 4256SOL    HW124404   1.175   4.345   6.457 -1.4218  0.6639 -1.2743
 4256SOL    HW224405   1.242   4.440   6.550 -0.6277  0.3407 -0.1869
 4257SOL     OW24406   2.711   0.160  17.085  0.0949  0.0225  0.1881
 4257SOL    HW124407   2.695   0.104  17.009  0.9878  1.9832 -1.4468
 4257SOL    HW224408   2.636   0.219  17.069  0.0915 -0.1588 -0.4327
 4258SOL     OW24409   3.040   2.173   1.650  0.2282  0.1201 -0.2538
 4258SOL    HW124410   3.107   2.193   1.585 -0.1959 -1.4241 -1.1643
 4258SOL    HW224411   3.070   2.083   1.666  0.5293  0.1918 -0.4238
 4259SOL     OW24412   3.461   3.136   6.384 -0.1776  0.0372 -0.7181
 4259SOL    HW124413   3.506   3.065   6.431 -1.4862  0.1477  0.7106
 4259SOL    HW224414   3.481   3.206   6.446 -0.0050  0.3699 -1.1461
 4260SOL     OW24415   0.174   3.584   8.880  0.5389  0.0718  0.1312
 4260SOL    HW124416   0.139   3.545   8.960 -1.4870  0.9994 -0.3064
 4260SOL    HW224417   0.217   3.662   8.915  0.3379 -1.2478  3.2830
 4261SOL     OW24418   0.808   2.253   4.786  0.2537 -0.2389  0.1206
 4261SOL    HW124419   0.889   2.203   4.776  0.3315  0.0606 -0.7380
 4261SOL    HW224420   0.834   2.317   4.720  0.6859  0.3907  0.8859
 4262SOL     OW24421   3.293   3.749   9.453 -0.1197  0.2283 -0.1005
 4262SOL    HW124422   3.347   3.828   9.455 -0.2345  0.2961  0.3604
 4262SOL    HW224423   3.271   3.754   9.361  1.8567  0.6402 -0.5422
 4263SOL     OW24424   1.985   3.358  14.756  0.2491  0.0035  0.8208
 4263SOL    HW124425   1.981   3.454  14.760 -1.0062 -0.0287  0.4103
 4263SOL    HW224426   2.080   3.353  14.757  0.2270 -0.7170 -1.0936
 4264SOL     OW24427   4.734   2.602   4.958  0.2797  0.1915 -0.2052
 4264SOL    HW124428   0.041   2.577   4.875  1.7032 -0.6783  0.7743
 4264SOL    HW224429   0.053   2.679   4.976 -2.3632  1.0981  3.6923
 4265SOL     OW24430   4.606   1.011   8.218  0.3373  0.2293 -0.2542
 4265SOL    HW124431   4.548   1.052   8.283 -0.8195 -1.2246 -0.3594
 4265SOL    HW224432   4.649   1.087   8.180  2.4016 -0.7886  0.0592
 4266SOL     OW24433   3.907   2.673   4.516  0.0429  0.6401  0.2143
 4266SOL    HW124434   3.906   2.597   4.458 -0.3325  1.0466 -0.3210
 4266SOL    HW224435   3.991   2.709   4.486 -0.9721  3.3241  0.6166
 4267SOL     OW24436   2.838   0.119   7.702 -0.6660  0.1320  0.0626
 4267SOL    HW124437   2.853   0.138   7.794  0.3074 -0.2733 -0.0078
 4267SOL    HW224438   2.792   0.037   7.720 -0.0114 -0.2137  0.1748
 4268SOL     OW24439   2.461   1.488   2.048 -0.1871 -0.0369 -0.1633
 4268SOL    HW124440   2.467   1.582   2.065  2.2645 -0.1789 -0.2849
 4268SOL    HW224441   2.367   1.470   2.057 -0.3032  1.0477  0.7651
 4269SOL     OW24442   4.326   4.460  15.261  0.0309  0.1208 -0.1133
 4269SOL    HW124443   4.344   4.523  15.192  1.3967 -0.8742 -0.6649
 4269SOL    HW224444   4.405   4.485  15.309 -1.1477  1.6440  1.0051
 4270SOL     OW24445   1.195   2.901   4.070  0.1228  0.6176  0.1506
 4270SOL    HW124446   1.147   2.984   4.076 -0.9027 -0.0771  1.5232
 4270SOL    HW224447   1.224   2.902   3.979 -0.7855  0.3242 -0.1420
 4271SOL     OW24448   1.803   4.180  13.940 -0.7136 -0.2449  0.0763
 4271SOL    HW124449   1.773   4.170  13.850  0.5226 -1.5487 -0.1951
 4271SOL    HW224450   1.783   4.093  13.975  1.2649 -0.7357 -0.0135
 4272SOL     OW24451   3.385   0.226  16.805 -0.1643 -0.1137  0.0671
 4272SOL    HW124452   3.405   0.206  16.896  0.0106 -1.2935 -0.2255
 4272SOL    HW224453   3.406   0.145  16.759  0.9167  0.0063  0.3618
 4273SOL     OW24454   3.589   4.226   2.929  0.4136 -0.2154  0.3722
 4273SOL    HW124455   3.567   4.305   2.979  2.3667 -0.0193  0.9171
 4273SOL    HW224456   3.633   4.171   2.994  1.8423 -1.3992 -1.5905
 4274SOL     OW24457   1.105   4.315   9.697  0.4678 -0.1567 -0.3948
 4274SOL    HW124458   1.165   4.391   9.692  1.1486 -0.6032  1.0810
 4274SOL    HW224459   1.116   4.276   9.784 -1.2142  0.2671  0.0054
 4275SOL     OW24460   1.513   3.050   5.241  0.3418  0.4445 -0.3908
 4275SOL    HW124461   1.491   2.958   5.229 -0.3179  0.5512 -0.0452
 4275SOL    HW224462   1.460   3.089   5.171  0.0611  0.5083 -0.1420
 4276SOL     OW24463   2.818   1.486   8.404  0.1051 -0.2592  0.4870
 4276SOL    HW124464   2.793   1.397   8.379 -0.7355 -0.1917  1.0691
 4276SOL    HW224465   2.910   1.481   8.426 -0.0476  0.3691  1.2592
 4277SOL     OW24466   0.521   0.954   1.263 -0.4131 -0.2185 -0.0798
 4277SOL    HW124467   0.481   0.886   1.316 -2.7973  1.5807  0.4477
 4277SOL    HW224468   0.459   0.969   1.191 -2.2125 -0.0084  1.5074
 4278SOL     OW24469   2.931   0.569   8.414 -0.3269  0.2599  0.9364
 4278SOL    HW124470   2.954   0.477   8.411 -0.4525  0.2659 -0.2014
 4278SOL    HW224471   2.836   0.570   8.425 -0.3547 -0.4407  0.6908
 4279SOL     OW24472   4.671   0.753   8.870  0.0329  0.0797  0.3003
 4279SOL    HW124473   4.679   0.715   8.782 -0.9727 -0.1296  0.2980
 4279SOL    HW224474   0.006   0.819   8.870  1.0057 -0.9623  2.7136
 4280SOL     OW24475   4.302   0.562  11.376 -0.5961 -0.3137 -0.1767
 4280SOL    HW124476   4.269   0.482  11.337  1.9814 -0.6928 -1.6174
 4280SOL    HW224477   4.307   0.628  11.307  0.1736  0.3813  0.5357
 4281SOL     OW24478   2.384   0.939   5.512  0.4201 -0.6976  0.4434
 4281SOL    HW124479   2.443   1.007   5.545 -0.9384  0.3524  0.7036
 4281SOL    HW224480   2.442   0.864   5.498 -0.2362 -1.5003  2.0466
 4282SOL     OW24481   3.443   1.510   1.838 -0.9015 -0.4423  0.1395
 4282SOL    HW124482   3.450   1.498   1.933  2.3557 -1.0601 -0.1965
 4282SOL    HW224483   3.533   1.484   1.817 -1.4108 -0.8412 -1.5331
 4283SOL     OW24484   2.224   3.941   5.867  0.3877  0.1975 -0.0123
 4283SOL    HW124485   2.237   3.850   5.841 -0.8106 -0.5572  1.9863
 4283SOL    HW224486   2.310   3.975   5.843  0.5569  1.1042  1.8648
 4284SOL     OW24487   2.116   1.331   1.528  0.4839 -0.2689 -0.1052
 4284SOL    HW124488   2.209   1.330   1.502  1.1621  1.6544  2.1819
 4284SOL    HW224489   2.089   1.252   1.482 -0.0326 -0.5611  0.7132
 4285SOL     OW24490   0.227   0.666   4.733 -0.3165 -0.2948 -0.1993
 4285SOL    HW124491   0.286   0.732   4.698 -0.3966 -0.4304 -0.5898
 4285SOL    HW224492   0.262   0.633   4.816 -0.4524  0.2418  0.0720
 4286SOL     OW24493   3.500   1.056  13.794 -0.0589 -0.0822  0.4012
 4286SOL    HW124494   3.455   1.138  13.814 -0.0194 -0.0032  0.1727
 4286SOL    HW224495   3.433   1.003  13.751  0.8856  0.2312 -1.4793
 4287SOL     OW24496   1.783   2.332   5.064  0.1347 -0.7992 -0.1933
 4287SOL    HW124497   1.760   2.357   5.153 -0.9084 -2.2278 -0.0496
 4287SOL    HW224498   1.697   2.334   5.021  0.6796 -0.9008 -1.2747
 4288SOL     OW24499   2.154   3.912   3.484  0.0286  0.2400  0.5887
 4288SOL    HW124500   2.199   3.974   3.427  0.9973  0.5518  1.6949
 4288SOL    HW224501   2.074   3.965   3.485  1.2485  2.1470 -1.5279
 4289SOL     OW24502   0.964   1.176   3.728 -0.1342  0.3639 -0.0381
 4289SOL    HW124503   0.993   1.093   3.690  0.2118  0.4738 -0.0170
 4289SOL    HW224504   0.991   1.165   3.820 -0.9544 -0.1435  0.1492
 4290SOL     OW24505   0.072   4.495  11.295 -0.3546  0.6478  0.3229
 4290SOL    HW124506   4.724   4.543  11.301 -0.6951  0.2410 -1.1757
 4290SOL    HW224507   0.127   4.567  11.326 -0.0292  2.2006 -3.8029
 4291SOL     OW24508   0.860   4.438   1.973  0.7268  0.1646 -0.0367
 4291SOL    HW124509   0.920   4.364   1.961  1.2058  0.5012  0.2976
 4291SOL    HW224510   0.819   4.418   2.058 -0.2525 -0.2200 -0.6032
 4292SOL     OW24511   1.222   2.548   3.122  0.0263 -0.3348 -0.0090
 4292SOL    HW124512   1.309   2.512   3.140  0.5091  0.9290  0.2097
 4292SOL    HW224513   1.226   2.571   3.029  0.7466 -2.1587 -0.4174
 4293SOL     OW24514   3.728   2.534   2.468 -0.6790  0.2866  0.0203
 4293SOL    HW124515   3.739   2.628   2.454  0.9231  0.2609  0.9986
 4293SOL    HW224516   3.721   2.511   2.376  1.5009  1.1277 -0.3563
 4294SOL     OW24517   1.225   3.377   6.819  0.0637 -0.0330  0.2312
 4294SOL    HW124518   1.191   3.362   6.731  0.7171  0.5301 -0.1184
 4294SOL    HW224519   1.305   3.422   6.790 -0.4016  1.4661  1.3130
 4295SOL     OW24520   3.025   4.371   7.332  0.0086  0.5430 -0.3361
 4295SOL    HW124521   3.093   4.305   7.314 -1.0892 -1.0842  1.4777
 4295SOL    HW224522   2.955   4.347   7.272  2.5865 -1.0030 -2.7486
 4296SOL     OW24523   0.386   1.857   3.388  0.7566 -0.2390  0.4993
 4296SOL    HW124524   0.383   1.827   3.478  0.8658 -0.4665  0.4276
 4296SOL    HW224525   0.313   1.919   3.392  0.7782 -0.1142 -0.8753
 4297SOL     OW24526   2.244   3.420   8.868  0.0648 -0.0676 -0.3713
 4297SOL    HW124527   2.215   3.377   8.788 -0.1158 -0.4779 -0.0861
 4297SOL    HW224528   2.238   3.511   8.841  0.3672  0.6132  1.8452
 4298SOL     OW24529   1.733   2.127   2.557  0.0904 -0.4861 -0.2628
 4298SOL    HW124530   1.793   2.171   2.617 -0.6381  0.9796 -0.6227
 4298SOL    HW224531   1.737   2.186   2.482 -0.5990  0.5938  0.5560
 4299SOL     OW24532   1.887   2.061  17.633  0.9306 -0.0501 -0.4991
 4299SOL    HW124533   1.830   2.133  17.608 -1.2556 -0.2459  3.9054
 4299SOL    HW224534   1.879   1.999  17.561 -1.2788 -1.0856  0.6388
 4300SOL     OW24535   3.420   2.038   9.349 -0.4329  0.4465  0.1067
 4300SOL    HW124536   3.336   2.014   9.389 -1.6385 -0.6079 -3.1079
 4300SOL    HW224537   3.405   2.107   9.285 -0.0892 -1.5926 -2.1772
 4301SOL     OW24538   0.405   4.286   5.415  0.0048  0.5862 -0.5366
 4301SOL    HW124539   0.490   4.318   5.446 -0.6867  1.8824  0.0286
 4301SOL    HW224540   0.401   4.201   5.458 -5.1848  1.1391  0.1087
 4302SOL     OW24541   0.767   1.859   5.952  0.4863 -0.6737 -0.5019
 4302SOL    HW124542   0.802   1.934   5.903  1.8715 -1.3991 -0.6390
 4302SOL    HW224543   0.675   1.886   5.957  0.0434 -2.0062 -1.4425
 4303SOL     OW24544   2.211   4.179   4.660  0.3840  0.1648 -0.2251
 4303SOL    HW124545   2.199   4.084   4.665 -3.7667  0.6838 -0.3650
 4303SOL    HW224546   2.283   4.187   4.722  1.8775 -0.7949 -1.8116
 4304SOL     OW24547   1.618   2.180   7.904 -0.4534  0.3082 -0.2762
 4304SOL    HW124548   1.656   2.155   7.988  1.5198 -1.5480 -1.7041
 4304SOL    HW224549   1.586   2.270   7.911 -0.3398  0.3470 -0.2573
 4305SOL     OW24550   3.918   1.544   4.716  0.4931 -0.6973 -0.2738
 4305SOL    HW124551   3.986   1.498   4.765  1.2657  0.9986  0.2354
 4305SOL    HW224552   3.876   1.597   4.784  0.9069 -0.6558 -0.0538
 4306SOL     OW24553   3.949   0.776  11.696 -0.7591 -0.0327 -0.0034
 4306SOL    HW124554   4.026   0.796  11.643 -0.9245  0.1429 -0.1804
 4306SOL    HW224555   3.946   0.680  11.688  0.4159 -0.0035 -0.6597
 4307SOL     OW24556   3.002   2.840   7.206  0.1975  0.1440  0.1526
 4307SOL    HW124557   3.012   2.771   7.272  0.4370  0.4255  0.4136
 4307SOL    HW224558   3.017   2.797   7.122 -1.7251  1.5578 -0.9282
 4308SOL     OW24559   1.271   3.503  16.178 -0.3875 -0.0815 -0.1914
 4308SOL    HW124560   1.344   3.442  16.184 -1.7284 -1.7382 -0.8199
 4308SOL    HW224561   1.201   3.438  16.181  0.3033 -0.8471 -0.6977
 4309SOL     OW24562   2.734   2.908   1.897 -0.3320 -0.1520  0.2317
 4309SOL    HW124563   2.736   2.993   1.854  1.5119 -2.4391 -4.2744
 4309SOL    HW224564   2.787   2.862   1.831 -1.5864 -1.4091  0.0843
 4310SOL     OW24565   1.578   2.591   2.767  0.0686 -0.3141 -0.0944
 4310SOL    HW124566   1.585   2.575   2.672 -2.5164 -0.9374 -0.1771
 4310SOL    HW224567   1.544   2.680   2.773 -0.0159 -0.3120 -0.5587
 4311SOL     OW24568   0.752   1.054   3.002 -0.9104  0.0662 -0.2899
 4311SOL    HW124569   0.792   1.137   3.030  0.1818 -0.3607 -0.5697
 4311SOL    HW224570   0.790   1.003   3.074 -0.8309  1.6827  0.8102
 4312SOL     OW24571   2.578   0.854  10.986 -0.4353 -0.0571  0.5534
 4312SOL    HW124572   2.635   0.791  11.030  0.4489  0.6796  0.4458
 4312SOL    HW224573   2.512   0.791  10.954  1.5178 -0.8528 -1.9456
 4313SOL     OW24574   3.438   2.892  11.932  0.0356  0.7306 -0.4703
 4313SOL    HW124575   3.421   2.958  11.865 -1.1137  0.6062 -0.2945
 4313SOL    HW224576   3.442   2.951  12.008 -0.4713  1.9664 -1.3929
 4314SOL     OW24577   2.282   0.669   6.689  0.1020 -0.7329 -0.5482
 4314SOL    HW124578   2.190   0.659   6.665 -0.0105 -0.8347 -0.0807
 4314SOL    HW224579   2.318   0.602   6.631  1.9551  0.4913 -0.8167
 4315SOL     OW24580   1.359   3.824   2.302 -0.0035  0.1121  0.4959
 4315SOL    HW124581   1.338   3.745   2.353 -1.3613 -0.4602 -0.9346
 4315SOL    HW224582   1.278   3.826   2.251 -1.5048  2.0088  2.9492
 4316SOL     OW24583   4.228   1.474   2.335 -0.0306  0.1627 -0.3563
 4316SOL    HW124584   4.210   1.413   2.407  1.1499  0.9372  0.5894
 4316SOL    HW224585   4.231   1.405   2.268 -0.4420 -0.3163  0.1174
 4317SOL     OW24586   3.586   2.692   4.263 -0.2348 -1.0453  0.3327
 4317SOL    HW124587   3.508   2.694   4.207 -2.0906 -0.7063  2.8750
 4317SOL    HW224588   3.658   2.677   4.202 -0.1851 -0.5432  0.2712
 4318SOL     OW24589   1.207   1.300   3.203 -0.3966  0.1120 -0.5755
 4318SOL    HW124590   1.190   1.220   3.252 -1.3476  0.8473  0.3094
 4318SOL    HW224591   1.193   1.358   3.278 -2.0807  1.3206 -1.8235
 4319SOL     OW24592   3.236   2.676   3.198 -0.1862 -0.2586  0.0972
 4319SOL    HW124593   3.180   2.730   3.143 -2.7840 -2.3697  0.7245
 4319SOL    HW224594   3.165   2.641   3.251 -1.1613  1.5255 -0.0327
 4320SOL     OW24595   1.900   2.327   4.810 -0.4111  0.3208 -0.2702
 4320SOL    HW124596   1.869   2.332   4.900 -0.2195  1.6776 -0.2875
 4320SOL    HW224597   1.814   2.313   4.770 -0.6429 -1.0370  0.7069
 4321SOL     OW24598   2.923   0.384  10.069  0.3237 -0.0471  0.2491
 4321SOL    HW124599   2.939   0.305  10.017 -0.0077 -0.6787  1.1062
 4321SOL    HW224600   2.945   0.357  10.158  0.8888 -1.4575 -0.3126
 4322SOL     OW24601   1.002   1.088   6.856 -0.3438  0.1480 -0.2608
 4322SOL    HW124602   1.069   1.022   6.840 -2.1823 -1.2371 -2.3069
 4322SOL    HW224603   0.924   1.046   6.819 -0.0597 -0.6847  0.0950
 4323SOL     OW24604   1.652   0.464  16.014 -0.3599  0.0328 -0.1334
 4323SOL    HW124605   1.612   0.391  16.062  0.2411 -1.1507 -1.4297
 4323SOL    HW224606   1.613   0.460  15.927  1.6678  0.7814 -1.0664
 4324SOL     OW24607   4.125   3.758   4.282  0.0592 -0.0036  0.2022
 4324SOL    HW124608   4.130   3.853   4.287  0.3408 -0.2648  4.3215
 4324SOL    HW224609   4.203   3.725   4.237 -0.3621  0.1880 -0.6665
 4325SOL     OW24610   1.322   1.386   8.085  0.0187 -0.2699 -0.0972
 4325SOL    HW124611   1.369   1.468   8.098 -0.0489 -0.3398  0.6031
 4325SOL    HW224612   1.247   1.405   8.141  1.0133 -1.6957  1.7320
 4326SOL     OW24613   3.036   1.752  13.961 -0.1293  0.4699 -0.0927
 4326SOL    HW124614   3.001   1.840  13.947  1.2780  1.0945  0.3526
 4326SOL    HW224615   2.960   1.716  14.007  0.7662  3.2522  3.6068
 4327SOL     OW24616   1.373   1.929   8.280 -0.0041  0.4947 -0.3648
 4327SOL    HW124617   1.393   1.863   8.347 -2.4643  0.2231  0.1187
 4327SOL    HW224618   1.277   1.935   8.277 -0.0479  0.0228  0.0729
 4328SOL     OW24619   1.424   4.351   1.737 -0.1854  0.0987 -0.1388
 4328SOL    HW124620   1.379   4.306   1.667  0.1401  1.7598 -1.4195
 4328SOL    HW224621   1.453   4.283   1.798  2.4320  0.8049 -0.5918
 4329SOL     OW24622   3.200   1.726  15.508  0.0184  0.3220  0.0108
 4329SOL    HW124623   3.173   1.636  15.527  0.8208 -0.2109 -1.3235
 4329SOL    HW224624   3.225   1.706  15.418  1.7846  1.3889  0.2655
 4330SOL     OW24625   2.715   0.717  11.286  0.3793 -0.0249  0.5392
 4330SOL    HW124626   2.654   0.648  11.259  0.8233 -1.0108  2.0432
 4330SOL    HW224627   2.787   0.699  11.225  0.2599  0.5885  0.2228
 4331SOL     OW24628   1.082   1.789  12.178  0.2454  0.1667  0.1042
 4331SOL    HW124629   1.157   1.758  12.229 -0.9118  0.1216  1.7993
 4331SOL    HW224630   1.116   1.874  12.150 -1.4130  0.6837 -0.3318
 4332SOL     OW24631   2.533   1.665   9.043 -0.0024 -0.7695 -0.1916
 4332SOL    HW124632   2.597   1.601   9.073  1.6942  0.2938 -1.5387
 4332SOL    HW224633   2.474   1.598   9.009 -2.5625  1.4261 -0.0660
 4333SOL     OW24634   1.146   1.255   7.496 -0.3426 -0.1779  0.2087
 4333SOL    HW124635   1.165   1.173   7.450  1.3763 -0.2270  0.9896
 4333SOL    HW224636   1.125   1.222   7.584  1.7495 -0.1772  0.7102
 4334SOL     OW24637   2.160   4.681   6.011  0.2962  0.4843  0.3154
 4334SOL    HW124638   2.215   0.020   6.039  1.6423 -0.4129  0.0374
 4334SOL    HW224639   2.206   4.664   5.929 -1.4362  1.2676 -0.8321
 4335SOL     OW24640   1.439   1.962  13.927 -0.0966 -0.6615 -0.0987
 4335SOL    HW124641   1.432   1.967  14.023 -3.3074 -3.5415 -0.1823
 4335SOL    HW224642   1.461   1.872  13.903 -2.1121 -0.4250 -2.7634
 4336SOL     OW24643   4.034   1.390  12.263  1.2348 -0.2116  0.1184
 4336SOL    HW124644   3.964   1.448  12.291  0.4403 -0.3463 -1.5481
 4336SOL    HW224645   4.011   1.365  12.173 -1.3276 -0.3552  0.8236
 4337SOL     OW24646   2.666   1.745  11.646 -0.0654  0.9254 -0.6888
 4337SOL    HW124647   2.703   1.669  11.601  1.5949  0.0979  2.0518
 4337SOL    HW224648   2.695   1.820  11.594  0.1654  1.6433  0.4770
 4338SOL     OW24649   0.770   0.816   2.870  0.0853  0.0844 -0.1315
 4338SOL    HW124650   0.759   0.905   2.903 -0.7230 -0.4166  0.9370
 4338SOL    HW224651   0.676   0.798   2.864 -0.0208  0.8201 -0.6396
 4339SOL     OW24652   2.742   4.234   8.750 -0.0751  0.0273 -0.0336
 4339SOL    HW124653   2.735   4.307   8.812 -0.3559  0.6012 -0.7449
 4339SOL    HW224654   2.837   4.233   8.760 -0.3155 -0.7235  2.1567
 4340SOL     OW24655   3.418   2.341  15.703  0.3248 -0.0803 -0.0700
 4340SOL    HW124656   3.510   2.316  15.711  0.3003 -0.2829 -0.4661
 4340SOL    HW224657   3.403   2.323  15.611 -2.2488  1.9784 -0.0486
 4341SOL     OW24658   0.500   1.079   5.374  0.1519 -0.2947  0.1229
 4341SOL    HW124659   0.545   1.058   5.292  1.5413 -0.0664  0.8169
 4341SOL    HW224660   0.551   1.152   5.412 -0.9823 -0.4317  1.9169
 4342SOL     OW24661   3.689   1.190   2.891 -0.0536  0.4899 -0.3517
 4342SOL    HW124662   3.702   1.285   2.891  0.9610  0.3549 -0.4781
 4342SOL    HW224663   3.780   1.164   2.874 -0.1056  1.5587 -2.2700
 4343SOL     OW24664   3.494   3.518   7.790 -0.2812 -0.5530  0.8795
 4343SOL    HW124665   3.560   3.510   7.722 -2.3855 -2.4636 -0.8981
 4343SOL    HW224666   3.471   3.426   7.801  1.7235 -1.0280  0.9707
 4344SOL     OW24667   1.007   3.614   2.047 -0.2259 -0.2413  0.3089
 4344SOL    HW124668   0.975   3.558   1.977  0.7440 -0.7412  0.2710
 4344SOL    HW224669   1.097   3.619   2.015  0.1873 -0.0073  1.4951
 4345SOL     OW24670   3.915   4.234   5.757 -0.7687  0.2255 -0.1607
 4345SOL    HW124671   3.843   4.195   5.806  0.8561 -1.5296  0.8447
 4345SOL    HW224672   3.877   4.318   5.732  1.2148  0.8894 -0.9503
 4346SOL     OW24673   3.553   1.017   3.045 -0.3963  0.0362 -0.2226
 4346SOL    HW124674   3.603   1.084   2.998  0.2809  0.7240  1.4864
 4346SOL    HW224675   3.597   1.012   3.130  0.1547  0.3845 -0.4821
 4347SOL     OW24676   2.361   3.754   7.856 -0.3860  0.3955  0.1312
 4347SOL    HW124677   2.276   3.777   7.893 -1.0276 -1.5968 -0.1346
 4347SOL    HW224678   2.331   3.765   7.766 -1.9010 -3.9124  0.1412
 4348SOL     OW24679   4.053   0.963   0.863  0.0903  0.2777 -0.2287
 4348SOL    HW124680   4.041   0.966   0.957  2.1948 -1.3936  0.0939
 4348SOL    HW224681   4.144   0.990   0.876 -0.1868  1.0535  0.0962
 4349SOL     OW24682   1.960   4.723   7.965 -0.1382 -0.4371 -0.3132
 4349SOL    HW124683   1.980   4.709   8.058  2.2600  1.8505 -0.4943
 4349SOL    HW224684   2.040   0.037   7.947 -0.2503 -0.5165 -1.0121
 4350SOL     OW24685   2.407   2.992  16.704 -1.0277 -0.1991  0.0598
 4350SOL    HW124686   2.437   2.946  16.783  0.3855  0.9660  0.1954
 4350SOL    HW224687   2.451   3.076  16.716 -0.0869 -0.2770 -2.7411
 4351SOL     OW24688   2.057   2.929   3.220 -0.1355  0.4965  0.0770
 4351SOL    HW124689   2.000   2.881   3.280 -1.1987 -0.2409 -1.5207
 4351SOL    HW224690   2.130   2.961   3.273  0.3432  1.6131 -1.2502
 4352SOL     OW24691   3.043   1.151  14.394  0.4528 -0.1683 -0.3632
 4352SOL    HW124692   3.110   1.084  14.404 -1.2923 -1.4760  2.6355
 4352SOL    HW224693   3.058   1.210  14.468 -2.2661  0.7368 -0.5262
 4353SOL     OW24694   2.837   4.694   2.379  0.2715 -0.2518 -0.0193
 4353SOL    HW124695   2.901   4.674   2.310 -0.2823  0.1324 -0.6483
 4353SOL    HW224696   2.783   0.022   2.331  0.6356  0.1837  0.1429
 4354SOL     OW24697   2.382   0.623   6.395  0.0467 -0.0009 -0.5844
 4354SOL    HW124698   2.295   0.663   6.390  0.5323  0.9682 -1.2734
 4354SOL    HW224699   2.418   0.650   6.311  2.0005  0.5671  0.4547
 4355SOL     OW24700   2.652   2.423   6.211 -0.0501  0.4195 -0.0055
 4355SOL    HW124701   2.621   2.333   6.220  1.3495  0.0723  1.3606
 4355SOL    HW224702   2.736   2.424   6.166 -0.7390  0.8750 -1.3051
 4356SOL     OW24703   2.769   4.279  15.545 -0.2993  0.1066  0.2948
 4356SOL    HW124704   2.767   4.302  15.452  1.7661 -1.7509 -0.2099
 4356SOL    HW224705   2.815   4.195  15.543  2.1189  1.3785  1.8740
 4357SOL     OW24706   3.023   4.158  13.728 -0.4439 -0.0579  0.6129
 4357SOL    HW124707   3.028   4.097  13.801 -1.1883  0.0914  0.7818
 4357SOL    HW224708   3.063   4.105  13.659  2.1412  0.8216  1.4363
 4358SOL     OW24709   3.105   2.761   6.933  0.3042 -0.1230 -0.4207
 4358SOL    HW124710   3.031   2.765   6.874  1.3990  1.3977 -1.7038
 4358SOL    HW224711   3.170   2.707   6.888  0.8046 -1.1186  1.4641
 4359SOL     OW24712   4.078   1.896   2.633 -0.5172 -0.7402  0.0253
 4359SOL    HW124713   3.995   1.858   2.607 -0.7269  1.5465 -2.6433
 4359SOL    HW224714   4.078   1.959   2.561  0.2291 -0.3732  0.3412
 4360SOL     OW24715   2.052   1.504   5.774 -0.3918 -0.0534  0.0602
 4360SOL    HW124716   2.114   1.432   5.768  0.5375  1.0804 -3.6298
 4360SOL    HW224717   1.999   1.500   5.694  0.6316 -1.1960 -0.5527
 4361SOL     OW24718   1.958   4.498   1.591 -0.4529  0.3154  0.3063
 4361SOL    HW124719   1.906   4.517   1.670 -0.0093  1.2473  0.3790
 4361SOL    HW224720   1.920   4.412   1.574  2.2205 -0.4929 -1.5448
 4362SOL     OW24721   4.544   4.159   9.022 -0.7119 -0.1397  0.0786
 4362SOL    HW124722   4.506   4.089   9.075 -0.1414 -0.9214 -0.5464
 4362SOL    HW224723   4.477   4.169   8.955  0.9597 -1.3054 -1.7856
 4363SOL     OW24724   0.544   1.633   6.774  0.7938  0.1381  0.7326
 4363SOL    HW124725   0.466   1.671   6.734 -0.1893 -2.1664  0.4635
 4363SOL    HW224726   0.561   1.692   6.848  1.3437  0.0401  0.6841
 4364SOL     OW24727   4.461   1.568  11.040 -0.4612  0.1056  0.1517
 4364SOL    HW124728   4.479   1.634  10.972  0.9999 -0.1339  0.3096
 4364SOL    HW224729   4.402   1.613  11.100  2.0247 -0.0872  2.7222
 4365SOL     OW24730   1.565   1.298   8.047 -0.7218 -0.1394  0.8493
 4365SOL    HW124731   1.539   1.345   8.127 -1.0571 -1.0895  1.2879
 4365SOL    HW224732   1.481   1.293   8.002 -0.2797 -3.7921  0.4560
 4366SOL     OW24733   1.020   3.466  10.745 -1.0468 -0.3404  0.2809
 4366SOL    HW124734   1.107   3.469  10.705 -0.4923 -0.6566  1.4614
 4366SOL    HW224735   1.043   3.477  10.837  0.8889  0.6943 -0.3337
 4367SOL     OW24736   2.860   3.525   6.557  0.2251 -0.4971 -0.1260
 4367SOL    HW124737   2.940   3.472   6.558  1.2815  1.0977 -1.3155
 4367SOL    HW224738   2.790   3.464   6.535 -0.8048 -0.4465  3.0090
 4368SOL     OW24739   0.163   4.372   8.627 -0.1032  0.1571  0.0713
 4368SOL    HW124740   0.164   4.409   8.716 -0.2436  1.0782 -0.3104
 4368SOL    HW224741   0.072   4.344   8.631 -0.0913  0.2722  1.1315
 4369SOL     OW24742   0.859   4.641   4.910  0.7511 -0.6209  0.0170
 4369SOL    HW124743   0.942   4.602   4.881  1.2451  0.0549  0.5382
 4369SOL    HW224744   0.804   4.563   4.916  0.9977 -0.8745 -0.9743
 4370SOL     OW24745   0.750   3.677   8.815 -0.2830  0.4244 -0.2885
 4370SOL    HW124746   0.706   3.591   8.816 -0.5568  0.5407 -1.6289
 4370SOL    HW224747   0.668   3.726   8.803  1.5921  3.5255 -0.3948
 4371SOL     OW24748   4.194   3.945   5.174  0.0709 -0.0716 -0.1132
 4371SOL    HW124749   4.104   3.913   5.185  0.3994 -0.8708  0.2834
 4371SOL    HW224750   4.238   3.869   5.135  0.7365  0.8018 -1.0718
 4372SOL     OW24751   3.201   4.370   6.845 -0.5182 -1.0378 -0.0079
 4372SOL    HW124752   3.122   4.407   6.806 -1.1056 -0.8423  1.3688
 4372SOL    HW224753   3.205   4.287   6.798  1.2028 -1.1784  0.3972
 4373SOL     OW24754   1.065   1.566   8.655 -0.5090 -0.6743  0.1409
 4373SOL    HW124755   1.021   1.618   8.722  1.1697  0.5641  0.2802
 4373SOL    HW224756   1.149   1.611   8.653 -1.5665  1.2726  0.3996
 4374SOL     OW24757   0.792   2.583   1.551 -0.0438  0.6755  0.2601
 4374SOL    HW124758   0.817   2.607   1.462  0.2202  0.4762  0.2815
 4374SOL    HW224759   0.715   2.637   1.571 -0.1320  0.8363 -0.4958
 4375SOL     OW24760   2.462   3.864   5.518 -0.3940  0.3812  0.2238
 4375SOL    HW124761   2.458   3.901   5.606 -0.3260 -0.7173  0.6929
 4375SOL    HW224762   2.463   3.773   5.549  4.2085  0.2705 -0.2052
 4376SOL     OW24763   0.698   2.536   4.255 -0.3048  0.4412  0.4176
 4376SOL    HW124764   0.692   2.562   4.163 -0.1196  1.2535  0.6413
 4376SOL    HW224765   0.788   2.556   4.278  0.3432 -2.7092  0.5850
 4377SOL     OW24766   0.458   0.462   8.992 -0.1690  0.4093  0.1879
 4377SOL    HW124767   0.548   0.429   8.980 -0.4263 -0.2456  0.0521
 4377SOL    HW224768   0.423   0.408   9.062 -0.4032 -1.7250 -1.5624
 4378SOL     OW24769   0.512   4.111   0.721  0.1847  0.5804 -0.4329
 4378SOL    HW124770   0.526   4.034   0.775  1.1852  1.2515  0.2597
 4378SOL    HW224771   0.434   4.152   0.759 -0.3958 -1.8246  0.9498
 4379SOL     OW24772   3.220   0.083   2.353  0.2079  0.0078 -0.0367
 4379SOL    HW124773   3.253   0.041   2.433  2.9416  1.5769 -0.3168
 4379SOL    HW224774   3.255   0.014   2.296 -0.9021  0.0018 -0.7017
 4380SOL     OW24775   0.113   3.780   3.826 -0.1479 -0.3142 -0.0622
 4380SOL    HW124776   0.119   3.782   3.731  0.3095  0.2441 -0.0200
 4380SOL    HW224777   0.059   3.700   3.830  0.8840 -0.9892  0.3135
 4381SOL     OW24778   3.167   0.042   8.375 -0.3229 -0.2461  0.1063
 4381SOL    HW124779   3.197   4.725   8.450  0.1589  1.9816  1.4462
 4381SOL    HW224780   3.145   4.702   8.319 -0.0462 -0.2585  0.0138
 4382SOL     OW24781   3.063   1.452  11.513 -0.3937 -0.5434  0.0031
 4382SOL    HW124782   3.153   1.421  11.518 -0.2987 -0.0047  1.6565
 4382SOL    HW224783   3.060   1.518  11.582 -0.7961  1.2731 -1.7394
 4383SOL     OW24784   2.142   3.190   9.305  0.0636  0.3503 -0.3212
 4383SOL    HW124785   2.115   3.267   9.255 -0.2839  0.2065 -0.3620
 4383SOL    HW224786   2.154   3.132   9.229  1.1137  0.3498 -0.1566
 4384SOL     OW24787   2.375   4.186   8.310  0.4152  0.0722  0.5544
 4384SOL    HW124788   2.333   4.270   8.328  1.2392  1.0612 -2.2157
 4384SOL    HW224789   2.458   4.219   8.277  0.0394 -0.6268 -1.0904
 4385SOL     OW24790   0.910   1.455   4.259  0.1335 -0.2663 -0.2358
 4385SOL    HW124791   0.996   1.414   4.264 -0.0125 -0.5523 -0.0846
 4385SOL    HW224792   0.862   1.400   4.197 -1.6176 -0.9686  1.7693
 4386SOL     OW24793   4.519   2.751   7.385 -0.0104 -0.0260 -0.1267
 4386SOL    HW124794   4.543   2.816   7.451 -0.4129  0.4731 -0.4682
 4386SOL    HW224795   4.426   2.774   7.378  0.9049  2.8959 -2.5784
 4387SOL     OW24796   0.361   3.168   1.654 -0.6086 -0.2539  0.3761
 4387SOL    HW124797   0.298   3.099   1.635 -1.2672 -0.0175  1.7091
 4387SOL    HW224798   0.332   3.223   1.581 -1.2307  0.3281  1.0667
 4388SOL     OW24799   4.343   2.695   9.331  0.0948 -0.2940 -0.0553
 4388SOL    HW124800   4.401   2.763   9.367  0.0288 -1.0530  1.4698
 4388SOL    HW224801   4.402   2.622   9.348 -1.1202 -1.5082 -1.0557
 4389SOL     OW24802   2.965   4.504   6.749  0.3050  0.5005 -0.1907
 4389SOL    HW124803   2.971   4.553   6.667  0.5807 -2.1268 -1.7424
 4389SOL    HW224804   2.973   4.581   6.805  2.9473  0.9116 -1.1591
 4390SOL     OW24805   0.154   2.314  11.228  0.0799  0.3828 -0.1610
 4390SOL    HW124806   0.085   2.372  11.259 -1.6428 -2.0991  0.6999
 4390SOL    HW224807   0.156   2.238  11.286  1.2799 -0.2915 -1.0928
 4391SOL     OW24808   3.449   2.890   3.001 -0.2828  0.2831  0.0500
 4391SOL    HW124809   3.456   2.820   2.936 -0.6285  1.4537 -1.2339
 4391SOL    HW224810   3.369   2.925   2.962 -0.4328 -0.3416 -0.2083
 4392SOL     OW24811   4.570   3.264   5.414 -0.0746  0.2136  0.5009
 4392SOL    HW124812   4.500   3.209   5.451  1.7112 -2.1069  0.4726
 4392SOL    HW224813   4.521   3.343   5.393 -0.2977  0.0462  0.3831
 4393SOL     OW24814   1.356   2.322   5.824  0.3842 -0.1293 -0.1968
 4393SOL    HW124815   1.385   2.399   5.776  1.4327 -1.2531 -1.3884
 4393SOL    HW224816   1.428   2.260   5.811  3.2661  2.7755  1.8378
 4394SOL     OW24817   2.969   0.945   1.082  0.0532  0.5355  0.2613
 4394SOL    HW124818   3.014   1.029   1.090  2.4160 -0.8291  1.1185
 4394SOL    HW224819   2.962   0.936   0.987  0.5408  1.4294  0.1416
 4395SOL     OW24820   0.443   2.078   7.415 -0.2195  0.3380  0.2236
 4395SOL    HW124821   0.412   2.120   7.335 -0.0893 -0.6595 -0.3540
 4395SOL    HW224822   0.419   2.147   7.476 -1.7656  1.0422 -1.1955
 4396SOL     OW24823   3.680   3.722  11.517  0.2458  0.2805  0.0521
 4396SOL    HW124824   3.734   3.791  11.479 -0.1068  0.4375 -0.1665
 4396SOL    HW224825   3.719   3.638  11.492  0.6032 -0.2719  2.4525
 4397SOL     OW24826   2.474   2.387   4.768  0.3590  1.1556  0.0448
 4397SOL    HW124827   2.489   2.416   4.858  0.7528 -1.2359  0.7315
 4397SOL    HW224828   2.414   2.448   4.724  0.7724  2.4371  1.2590
 4398SOL     OW24829   0.424   3.885   1.120 -0.1222  0.1945 -0.8312
 4398SOL    HW124830   0.351   3.866   1.061 -1.9822 -0.7063  1.7640
 4398SOL    HW224831   0.373   3.901   1.199 -0.8467  1.3544 -1.5481
 4399SOL     OW24832   4.442   4.145   4.318  0.3593 -0.2843  0.3408
 4399SOL    HW124833   4.430   4.237   4.340  0.0999  0.3046 -2.3154
 4399SOL    HW224834   4.448   4.150   4.223  0.5538  4.1761  0.5854
 4400SOL     OW24835   3.465   2.717   6.924 -0.5750 -0.6045  0.5723
 4400SOL    HW124836   3.427   2.630   6.936  1.3535 -1.3028  1.5761
 4400SOL    HW224837   3.424   2.758   6.848 -0.5711  1.1832  1.5550
 4401SOL     OW24838   2.524   1.906   7.137  0.3329 -0.3358  0.5658
 4401SOL    HW124839   2.612   1.916   7.172  0.6481  0.3272 -0.3898
 4401SOL    HW224840   2.470   1.906   7.216 -0.0813 -0.7437  0.2814
 4402SOL     OW24841   1.192   0.612   3.263 -0.0426 -1.1503  0.1596
 4402SOL    HW124842   1.156   0.526   3.283 -0.9021 -1.2127 -1.6673
 4402SOL    HW224843   1.132   0.650   3.199  0.5947  0.3314  0.4370
 4403SOL     OW24844   2.943   1.235   6.957 -0.1050  0.1605 -0.4426
 4403SOL    HW124845   2.860   1.203   6.991 -0.7928  0.5747 -1.7763
 4403SOL    HW224846   2.919   1.289   6.882 -1.2088  3.4165  2.2896
 4404SOL     OW24847   2.711   3.216  17.576 -0.0321 -0.3895 -0.0091
 4404SOL    HW124848   2.646   3.179  17.517  0.1295  1.5882 -1.4400
 4404SOL    HW224849   2.654   3.288  17.605  2.3439  2.2490 -1.8894
 4405SOL     OW24850   3.583   1.562   4.128  0.4124 -0.3885  0.0173
 4405SOL    HW124851   3.515   1.495   4.128  1.5051 -1.4949 -0.2253
 4405SOL    HW224852   3.551   1.630   4.068  1.6465 -0.3631 -0.6155
 4406SOL     OW24853   0.865   2.102  10.446 -0.7203 -0.5454  0.1803
 4406SOL    HW124854   0.826   2.127  10.362  0.1915 -0.5439 -0.2422
 4406SOL    HW224855   0.956   2.128  10.430 -1.1231  0.5312 -0.3846
 4407SOL     OW24856   2.695   2.955  17.306 -0.0924  0.6729 -0.8325
 4407SOL    HW124857   2.655   2.869  17.316  1.0804 -0.0967 -2.8549
 4407SOL    HW224858   2.758   2.942  17.235  1.5043  1.3271  0.4480
 4408SOL     OW24859   0.510   1.359   4.064  0.2282  0.3897 -0.4736
 4408SOL    HW124860   0.434   1.302   4.073  1.5144 -1.7561 -3.3019
 4408SOL    HW224861   0.498   1.405   4.147  0.6939 -0.6841  0.1874
 4409SOL     OW24862   1.866   2.001  13.010 -0.3714 -0.1731 -0.2337
 4409SOL    HW124863   1.866   1.992  12.914  1.9158  0.3814 -0.2746
 4409SOL    HW224864   1.922   1.933  13.047 -0.5240 -0.9666 -1.4571
 4410SOL     OW24865   1.198   1.234   6.336  0.1826  0.6909 -0.7828
 4410SOL    HW124866   1.197   1.305   6.400 -2.2449 -0.5314  0.5512
 4410SOL    HW224867   1.115   1.196   6.364  1.4009 -1.0489  0.5454
 4411SOL     OW24868   3.405   1.072  14.861  0.3499 -0.1210  0.2694
 4411SOL    HW124869   3.325   1.023  14.882  1.6412 -1.5068  1.9065
 4411SOL    HW224870   3.417   1.065  14.767  0.6693 -2.7574  0.5243
 4412SOL     OW24871   4.067   1.836   7.326 -0.6076 -0.3949  0.0400
 4412SOL    HW124872   4.041   1.827   7.234 -1.2639  2.6081 -0.0690
 4412SOL    HW224873   3.981   1.855   7.363 -1.1926 -2.4285 -0.2686
 4413SOL     OW24874   0.189   2.424   9.195  0.3910  0.3226  0.0535
 4413SOL    HW124875   0.154   2.433   9.106 -0.5023 -0.2878  0.3394
 4413SOL    HW224876   0.191   2.328   9.192  0.0247  0.3058  0.3269
 4414SOL     OW24877   3.764   2.717   9.404  0.1638  0.1165 -0.4160
 4414SOL    HW124878   3.712   2.749   9.330  1.2305  2.6384 -0.1008
 4414SOL    HW224879   3.804   2.798   9.435  1.8334 -0.6801 -0.4716
 4415SOL     OW24880   1.691   0.635   8.570  0.2234 -0.2914  0.9035
 4415SOL    HW124881   1.779   0.599   8.583  0.1779 -0.7308  0.0284
 4415SOL    HW224882   1.709   0.705   8.507 -0.5564 -0.0641  0.9360
 4416SOL     OW24883   2.408   3.851  12.549 -0.1412  0.6165  0.6083
 4416SOL    HW124884   2.480   3.802  12.588 -1.6204 -0.2682  2.2224
 4416SOL    HW224885   2.456   3.916  12.499  0.3183  0.2280  0.5506
 4417SOL     OW24886   2.401   2.149   4.844  0.2029 -0.2792 -0.4148
 4417SOL    HW124887   2.451   2.217   4.799 -0.3794  0.4813  0.1065
 4417SOL    HW224888   2.317   2.187   4.870  0.3703  0.6853 -1.3110
 4418SOL     OW24889   4.108   0.493  11.913 -0.2945 -0.1682  0.1241
 4418SOL    HW124890   4.183   0.514  11.858 -1.7610  0.1351 -1.7553
 4418SOL    HW224891   4.130   0.411  11.957 -1.8338 -0.2793  0.6916
 4419SOL     OW24892   3.844   3.417   3.011 -0.2573  0.0494  0.0426
 4419SOL    HW124893   3.844   3.360   2.934 -1.5145  0.8795 -0.5821
 4419SOL    HW224894   3.856   3.354   3.082 -1.1817  1.4973  1.4750
 4420SOL     OW24895   3.073   1.393   7.784  0.3668  0.1160  0.5301
 4420SOL    HW124896   3.041   1.330   7.720  1.3982  2.4741 -2.2658
 4420SOL    HW224897   3.150   1.418   7.733 -0.0884 -1.8826 -1.1534
 4421SOL     OW24898   2.985   3.017   3.645 -0.8167 -0.5714  0.0456
 4421SOL    HW124899   2.946   2.952   3.587 -0.5347 -1.1340  0.4748
 4421SOL    HW224900   2.923   3.089   3.636 -0.6088 -0.1432  1.9515
 4422SOL     OW24901   3.135   1.078   4.169 -0.3989  0.1153  0.0743
 4422SOL    HW124902   3.103   1.002   4.121 -0.7634  0.0568  0.4087
 4422SOL    HW224903   3.125   1.149   4.105 -1.7088 -0.3862 -0.2765
 4423SOL     OW24904   3.463   0.824   0.330 -0.1562 -0.0190 -0.2874
 4423SOL    HW124905   3.496   0.848   0.417 -0.0425  0.6310 -0.5144
 4423SOL    HW224906   3.421   0.904   0.299 -0.5241  0.5257  1.5821
 4424SOL     OW24907   4.430   3.831   7.440 -0.6106 -0.3666  0.0269
 4424SOL    HW124908   4.444   3.744   7.402  3.4603  0.5186 -0.4600
 4424SOL    HW224909   4.404   3.885   7.365  1.2161  2.7021  1.6287
 4425SOL     OW24910   0.340   2.956   3.625 -0.2533 -0.0926  0.0586
 4425SOL    HW124911   0.280   2.892   3.586  0.3301  0.0159 -1.0154
 4425SOL    HW224912   0.287   3.030   3.655  0.1061 -0.1751  0.9046
 4426SOL     OW24913   1.814   0.056   4.551 -0.2220 -0.1772  0.1830
 4426SOL    HW124914   1.729   0.021   4.579  0.6006 -0.5268  2.2150
 4426SOL    HW224915   1.877   4.731   4.591 -0.1097 -0.4824 -0.4422
 4427SOL     OW24916   3.866   0.007  15.904  0.6385  0.0529 -0.1864
 4427SOL    HW124917   3.813   4.687  15.962 -0.0278 -0.0651 -0.8951
 4427SOL    HW224918   3.845   0.093  15.940  0.1700 -0.5733  1.0512
 4428SOL     OW24919   1.262   4.402   6.732 -0.4120  0.6118 -0.3344
 4428SOL    HW124920   1.209   4.471   6.773  3.5913  3.9627 -0.8543
 4428SOL    HW224921   1.338   4.404   6.789  0.4029  0.3760 -1.4075
 4429SOL     OW24922   2.727   2.698   1.356 -0.0257  0.4517 -0.3635
 4429SOL    HW124923   2.701   2.782   1.393  1.0101 -0.0095  1.3954
 4429SOL    HW224924   2.811   2.701   1.403  0.8871  0.0929 -1.9518
 4430SOL     OW24925   2.579   0.408   7.805 -0.4326 -0.2884  0.2672
 4430SOL    HW124926   2.629   0.427   7.726  1.4269 -1.6310  1.1126
 4430SOL    HW224927   2.565   0.316   7.783 -1.0306 -0.1101 -0.0777
 4431SOL     OW24928   3.819   1.379   2.603 -0.1273 -0.2567 -0.3041
 4431SOL    HW124929   3.785   1.398   2.690  1.4355  1.3614 -0.0350
 4431SOL    HW224930   3.741   1.376   2.547  0.5383 -0.6074 -1.2199
 4432SOL     OW24931   3.340   2.983   5.517 -0.1808 -0.4068 -0.6705
 4432SOL    HW124932   3.354   2.898   5.558  1.8899 -1.2927 -3.1783
 4432SOL    HW224933   3.244   2.986   5.520 -0.0828  1.5653 -0.0499
 4433SOL     OW24934   1.695   2.364   4.581 -0.0911 -0.1847  0.8115
 4433SOL    HW124935   1.637   2.300   4.621 -1.7137  1.0725  0.5195
 4433SOL    HW224936   1.629   2.431   4.562 -0.3191 -0.7733 -0.4561
 4434SOL     OW24937   2.397   1.552  17.296  0.2514 -0.2010  0.8980
 4434SOL    HW124938   2.416   1.613  17.226 -0.7086  0.0505  0.8637
 4434SOL    HW224939   2.322   1.594  17.337  0.4583 -0.8555  1.9504
 4435SOL     OW24940   0.663   0.018   6.075 -0.2896 -0.0491 -0.9958
 4435SOL    HW124941   0.656   0.113   6.074 -0.9923 -0.1041 -2.2193
 4435SOL    HW224942   0.586   4.728   6.023  0.3953  1.3781 -2.7067
 4436SOL     OW24943   1.398   0.371   1.915 -0.4383  0.3215  0.2504
 4436SOL    HW124944   1.398   0.398   1.823  0.3813 -0.2328  0.0871
 4436SOL    HW224945   1.397   0.275   1.907 -2.1534  0.3368  0.3356
 4437SOL     OW24946   4.417   2.876   8.807  0.5282  0.0970 -0.1674
 4437SOL    HW124947   4.325   2.862   8.831  0.0792  2.8189 -0.2471
 4437SOL    HW224948   4.419   2.818   8.731  0.3472 -2.3252  1.6668
 4438SOL     OW24949   3.043   1.523  15.637  0.0581  0.1507 -0.5648
 4438SOL    HW124950   3.004   1.451  15.586 -0.0192 -0.3424  0.1912
 4438SOL    HW224951   2.975   1.590  15.646  1.1917  1.0782  0.9847
 4439SOL     OW24952   2.054   1.219   3.311 -0.1360  0.1895  0.3675
 4439SOL    HW124953   1.980   1.199   3.369 -1.1239 -2.4126 -1.7525
 4439SOL    HW224954   2.025   1.301   3.270  2.6250  2.5349  3.1655
 4440SOL     OW24955   3.894   3.205   7.551  0.4958 -0.4352 -0.1917
 4440SOL    HW124956   3.965   3.244   7.500  1.4574  0.3448  1.7515
 4440SOL    HW224957   3.820   3.235   7.498  0.9145  1.4736  0.3094
 4441SOL     OW24958   0.063   3.510   9.555  0.1552  0.1701 -0.8435
 4441SOL    HW124959   0.050   3.509   9.650 -0.1445 -0.8256 -0.8933
 4441SOL    HW224960   0.119   3.588   9.553 -1.2710  1.1329 -2.7365
 4442SOL     OW24961   3.340   1.849   2.697 -0.4836  0.2431 -0.1954
 4442SOL    HW124962   3.375   1.888   2.617 -1.7606  1.3081 -0.2382
 4442SOL    HW224963   3.419   1.801   2.723  1.3830  2.3942 -1.9323
 4443SOL     OW24964   4.093   0.404  12.666  0.3815 -0.3564 -1.2498
 4443SOL    HW124965   4.021   0.443  12.618 -0.3855  0.4449  0.5265
 4443SOL    HW224966   4.067   0.313  12.679 -1.2464  0.7064  3.0944
 4444SOL     OW24967   3.605   0.428   6.897 -0.3114 -0.2156  0.3392
 4444SOL    HW124968   3.699   0.420   6.886 -0.2228 -1.0674  1.7984
 4444SOL    HW224969   3.602   0.436   6.992  1.7610 -0.5339  0.4177
 4445SOL     OW24970   1.163   4.084   9.533 -0.2411 -0.0733 -0.5374
 4445SOL    HW124971   1.101   4.041   9.592 -1.7434  0.5264 -1.6738
 4445SOL    HW224972   1.173   4.165   9.582 -1.1037  1.0385 -2.2266
 4446SOL     OW24973   1.438   0.766   7.637 -0.4931 -0.0643 -0.3205
 4446SOL    HW124974   1.494   0.819   7.694  1.3996 -2.0983 -0.2708
 4446SOL    HW224975   1.408   0.695   7.695 -0.1727  2.3981  2.8539
 4447SOL     OW24976   2.949   1.735  11.101 -0.5331  1.2453  0.0414
 4447SOL    HW124977   2.978   1.655  11.145 -0.7666  1.5055  0.6675
 4447SOL    HW224978   2.985   1.723  11.014 -2.1586 -0.5016 -0.3799
 4448SOL     OW24979   2.936   3.905   4.743  0.4682  0.2522 -0.0966
 4448SOL    HW124980   3.000   3.899   4.814  0.6406 -1.8949 -0.4418
 4448SOL    HW224981   2.916   3.999   4.737 -2.8234 -0.4092  0.7687
 4449SOL     OW24982   0.311   1.434   0.443 -0.5222  0.3639  0.0142
 4449SOL    HW124983   0.363   1.450   0.522  0.5630 -0.7144 -0.4806
 4449SOL    HW224984   0.310   1.519   0.400  1.4555  0.4266  0.0821
 4450SOL     OW24985   3.017   4.451   9.303  0.5291  0.0223  0.4269
 4450SOL    HW124986   3.004   4.454   9.208 -1.0601 -0.9251  0.6277
 4450SOL    HW224987   3.090   4.511   9.320 -1.3799  2.6752 -0.8273
 4451SOL     OW24988   1.831   0.119   9.364 -0.3178  0.3236  0.1154
 4451SOL    HW124989   1.924   0.099   9.366 -0.6702 -1.1883  1.2886
 4451SOL    HW224990   1.842   0.168   9.283 -0.4053 -0.6112 -0.4613
 4452SOL     OW24991   2.042   0.971  13.690 -0.4220  0.4629  0.6183
 4452SOL    HW124992   2.102   0.997  13.620 -0.1662  1.0548  1.0561
 4452SOL    HW224993   2.110   0.924  13.738  0.7784  1.4614 -0.1188
 4453SOL     OW24994   4.168   0.318   1.883  0.1492 -0.2638  0.1210
 4453SOL    HW124995   4.078   0.286   1.879 -0.6180  1.5169  2.6187
 4453SOL    HW224996   4.209   0.255   1.824  2.1761  0.6255  0.5932
 4454SOL     OW24997   1.573   4.610  17.219  1.0628  0.0580 -0.3830
 4454SOL    HW124998   1.548   4.636  17.307  1.8987 -0.3516 -0.0229
 4454SOL    HW224999   1.515   4.665  17.167  0.7115  1.3494  1.4012
 4455SOL     OW25000   1.288   1.175   5.005  0.2138 -0.2913 -0.1938
 4455SOL    HW125001   1.287   1.157   5.099 -0.3716  1.8977  0.2145
 4455SOL    HW225002   1.337   1.257   5.004  0.9480 -0.7388 -0.7464
 4456SOL     OW25003   1.436   0.233   2.962 -0.4174  0.0462  0.2810
 4456SOL    HW125004   1.476   0.170   2.903 -0.3737  1.0437 -0.7660
 4456SOL    HW225005   1.517   0.283   2.976  0.1284 -1.2817  1.8684
 4457SOL     OW25006   3.426   2.867  13.714 -0.4067  0.8914  0.0170
 4457SOL    HW125007   3.419   2.919  13.794  1.5566  1.0629  0.0721
 4457SOL    HW225008   3.464   2.933  13.656 -0.1923  0.8775  0.1435
 4458SOL     OW25009   2.350   3.335  17.225  0.2934 -0.0693  0.2663
 4458SOL    HW125010   2.371   3.251  17.186 -0.7307 -0.4162  0.4576
 4458SOL    HW225011   2.385   3.398  17.162 -0.7649 -0.1247 -0.3821
 4459SOL     OW25012   4.354   3.199   8.245  0.1118  0.2704 -0.0269
 4459SOL    HW125013   4.311   3.273   8.202  1.3680  2.5036  2.5537
 4459SOL    HW225014   4.446   3.188   8.221 -0.0633  0.0214 -0.5826
 4460SOL     OW25015   1.764   2.930  13.984 -0.0220  0.2261 -0.5153
 4460SOL    HW125016   1.802   2.899  14.066 -0.2327 -1.9679 -1.2514
 4460SOL    HW225017   1.672   2.908  13.994 -0.4713  1.8650 -0.9306
 4461SOL     OW25018   1.345   0.470   3.751  0.1298 -0.0645  0.8449
 4461SOL    HW125019   1.366   0.457   3.658 -0.6015  0.4559  0.6103
 4461SOL    HW225020   1.250   0.464   3.741  0.3722 -1.6087 -0.5972
 4462SOL     OW25021   0.921   1.916   0.587 -0.6537 -0.2452  0.3239
 4462SOL    HW125022   0.889   1.990   0.638 -0.9513  0.2758 -0.6298
 4462SOL    HW225023   0.856   1.927   0.518  0.8461  3.1414 -0.5500
 4463SOL     OW25024   0.848   0.439   7.590  0.4846 -0.2207  0.3487
 4463SOL    HW125025   0.910   0.478   7.528  1.0260  2.0473  2.3438
 4463SOL    HW225026   0.833   0.347   7.566 -0.7787  0.2732 -0.7765
 4464SOL     OW25027   1.690   3.951  12.372 -0.0454 -0.1333 -0.1763
 4464SOL    HW125028   1.636   3.941  12.294 -1.2273  0.5355  0.5509
 4464SOL    HW225029   1.626   3.999  12.425  0.2061 -0.9231  0.8548
 4465SOL     OW25030   3.864   0.405   6.843  0.1453 -0.9306 -0.2551
 4465SOL    HW125031   3.890   0.487   6.885 -0.9462  0.3313 -2.0535
 4465SOL    HW225032   3.899   0.429   6.757  0.4358  1.1468  0.4345
 4466SOL     OW25033   1.921   1.536   0.927  0.0554  0.0209  0.1608
 4466SOL    HW125034   1.851   1.476   0.902  0.8645 -0.7893 -0.1912
 4466SOL    HW225035   1.942   1.508   1.016 -0.1066  3.7223  1.3312
 4467SOL     OW25036   3.734   3.134   3.554  0.1302  0.0022  0.5426
 4467SOL    HW125037   3.705   3.079   3.626 -1.8943  1.1506  0.6380
 4467SOL    HW225038   3.691   3.088   3.482 -0.8561  1.0392  0.4542
 4468SOL     OW25039   1.941   0.213  15.546 -0.0502 -0.1086  0.4313
 4468SOL    HW125040   1.851   0.183  15.535  0.2696 -0.3573 -1.5055
 4468SOL    HW225041   1.928   0.251  15.633 -1.9757 -2.3181  1.1004
 4469SOL     OW25042   3.813   3.951   8.329  0.1622  0.4137  0.6699
 4469SOL    HW125043   3.868   3.892   8.381  0.1959 -0.0063  0.1556
 4469SOL    HW225044   3.869   3.966   8.253  0.6449 -3.6203  0.2055
 4470SOL     OW25045   4.014   3.230   2.010 -0.7433  0.0743 -0.2445
 4470SOL    HW125046   3.976   3.317   2.026 -0.2184  0.1817  0.4275
 4470SOL    HW225047   3.954   3.188   1.949 -1.5376  1.6327 -0.5484
 4471SOL     OW25048   1.780   3.552   3.935  0.0075  0.1982 -0.7891
 4471SOL    HW125049   1.774   3.514   3.847 -1.7134 -1.9389  0.2550
 4471SOL    HW225050   1.867   3.591   3.939 -0.4913  1.2450 -0.1155
 4472SOL     OW25051   4.429   1.634   9.263 -0.3086 -0.4187 -0.2266
 4472SOL    HW125052   4.464   1.597   9.182  0.5479  0.5128 -0.2853
 4472SOL    HW225053   4.413   1.548   9.301 -0.6116  0.8881  2.6553
 4473SOL     OW25054   1.788   2.647  10.040  0.2690 -0.4104  0.5764
 4473SOL    HW125055   1.746   2.730  10.020  1.3370  0.0686  0.3042
 4473SOL    HW225056   1.881   2.668  10.049  0.3080  0.1919 -1.3420
 4474SOL     OW25057   0.109   2.006   3.678 -0.2876 -0.1486  0.2214
 4474SOL    HW125058   0.031   1.964   3.716 -2.0182  0.7253 -2.3347
 4474SOL    HW225059   0.168   2.018   3.752  0.9915  2.9269 -1.3159
 4475SOL     OW25060   1.887   3.540  15.035 -0.3248  0.3833 -0.5330
 4475SOL    HW125061   1.798   3.508  15.049  0.2645 -0.8896  0.3610
 4475SOL    HW225062   1.885   3.576  14.946 -0.2252 -1.7731 -1.4123
 4476SOL     OW25063   3.775   0.282   5.771  0.0188  0.2146  0.3059
 4476SOL    HW125064   3.725   0.272   5.689  0.3117 -3.1980  0.5508
 4476SOL    HW225065   3.720   0.249   5.842  1.3896 -0.3495  1.1051
 4477SOL     OW25066   2.585   0.822   4.627  0.2440 -0.0258 -0.3619
 4477SOL    HW125067   2.562   0.832   4.719 -1.3177 -1.7683 -0.5691
 4477SOL    HW225068   2.678   0.843   4.621  0.4404 -0.6142  0.6662
 4478SOL     OW25069   1.484   4.375   3.887 -0.0280 -0.3878  0.0795
 4478SOL    HW125070   1.561   4.352   3.834 -0.9922  0.2757 -1.5895
 4478SOL    HW225071   1.463   4.458   3.846  2.2640  0.5005  0.6956
 4479SOL     OW25072   3.841   2.921   8.683  0.0122  0.3795  0.0292
 4479SOL    HW125073   3.893   2.986   8.730  0.6684  0.0831 -0.2831
 4479SOL    HW225074   3.752   2.950   8.704  0.6215  2.3839 -0.1050
 4480SOL     OW25075   4.474   2.111   8.809  0.3464 -0.1405 -0.0387
 4480SOL    HW125076   4.484   2.198   8.772 -0.4179  0.7960  1.9826
 4480SOL    HW225077   4.428   2.144   8.886 -0.9557  1.0066 -1.3123
 4481SOL     OW25078   3.233   2.057   3.216 -0.2814  0.0149 -0.3469
 4481SOL    HW125079   3.150   2.068   3.262 -1.6477 -2.1123 -2.3261
 4481SOL    HW225080   3.272   1.988   3.270 -1.8523 -0.0283  0.7383
 4482SOL     OW25081   4.515   4.615   3.380 -0.2816 -0.5528  0.1442
 4482SOL    HW125082   4.450   4.581   3.441 -1.9346  1.5098 -0.5123
 4482SOL    HW225083   4.597   4.603   3.429 -0.9213  0.4312  1.4311
 4483SOL     OW25084   0.744   4.404   7.969 -0.0221 -0.1096  0.1211
 4483SOL    HW125085   0.800   4.330   7.945  0.8195 -0.4773  3.2017
 4483SOL    HW225086   0.808   4.473   7.983 -0.6928  0.8925 -1.7298
 4484SOL     OW25087   2.779   1.630   3.755  0.2782 -0.3881 -0.1485
 4484SOL    HW125088   2.734   1.687   3.817  1.3564  0.9225 -0.5680
 4484SOL    HW225089   2.713   1.616   3.689 -0.2847  0.1416  0.3016
 4485SOL     OW25090   1.958   2.886  11.368  0.1883 -0.3645  0.5739
 4485SOL    HW125091   1.898   2.957  11.346  0.6215 -0.2417 -0.2137
 4485SOL    HW225092   1.943   2.829  11.293 -0.1728  0.6806 -0.1497
 4486SOL     OW25093   0.315   1.182   3.783 -0.2886  0.2077  0.4347
 4486SOL    HW125094   0.252   1.148   3.720  0.1807  0.0139  0.0694
 4486SOL    HW225095   0.274   1.257   3.826 -1.6879 -0.9006  1.0541
 4487SOL     OW25096   1.013   0.320  14.981  0.0019  0.2139  0.2083
 4487SOL    HW125097   0.958   0.398  14.966 -0.3988 -0.1962 -0.4403
 4487SOL    HW225098   0.999   0.267  14.903  2.5844 -0.0704 -0.0453
 4488SOL     OW25099   3.912   3.740   8.737  0.1320  0.4197 -0.5943
 4488SOL    HW125100   3.908   3.656   8.784 -0.3623  2.4682  3.0358
 4488SOL    HW225101   3.997   3.728   8.694 -0.4938 -1.2904 -1.3529
 4489SOL     OW25102   3.155   2.044   9.797 -0.0253 -0.0622 -0.1391
 4489SOL    HW125103   3.109   2.127   9.808 -0.9387 -0.2748 -2.3964
 4489SOL    HW225104   3.224   2.056   9.861  1.3831  0.5579 -1.7888
 4490SOL     OW25105   0.591   1.494   7.818 -0.0256  0.6128  0.2525
 4490SOL    HW125106   0.508   1.457   7.787 -0.3137 -0.3789  2.2119
 4490SOL    HW225107   0.600   1.450   7.902 -1.5048 -2.6197 -1.2473
 4491SOL     OW25108   2.276   3.798  11.412  0.5559  0.1009 -0.7202
 4491SOL    HW125109   2.356   3.838  11.378  1.1384 -1.1215 -0.7767
 4491SOL    HW225110   2.299   3.706  11.419  2.8793  0.7451  0.2192
 4492SOL     OW25111   2.621   2.333   3.665  0.3828 -0.2651  0.7152
 4492SOL    HW125112   2.540   2.380   3.641  1.9006  1.5614 -0.8095
 4492SOL    HW225113   2.667   2.403   3.711 -0.3188 -0.3240  1.5052
 4493SOL     OW25114   0.145   2.312  15.709  0.5242  0.5475  0.5406
 4493SOL    HW125115   0.197   2.392  15.701  1.1265  0.0008 -0.9459
 4493SOL    HW225116   0.076   2.342  15.768  1.3236  0.9366  1.2767
 4494SOL     OW25117   1.345   3.658  14.379  0.1424 -0.1725 -0.2324
 4494SOL    HW125118   1.365   3.659  14.286  2.4214  0.5299  0.2631
 4494SOL    HW225119   1.249   3.669  14.377 -0.1111 -2.1902  0.5625
 4495SOL     OW25120   4.538   2.696  14.686  0.0168 -0.1981 -0.5301
 4495SOL    HW125121   4.624   2.675  14.651  0.9228  0.4658  1.2726
 4495SOL    HW225122   4.481   2.689  14.610  2.3749 -3.1136 -2.0118
 4496SOL     OW25123   3.639   2.758  14.261  0.2786  0.1658  0.0437
 4496SOL    HW125124   3.701   2.691  14.291 -0.3554 -0.3323  0.2320
 4496SOL    HW225125   3.580   2.759  14.337 -0.1747  3.1398 -0.3293
 4497SOL     OW25126   3.355   3.538   2.358 -0.0385 -0.0738 -0.3526
 4497SOL    HW125127   3.416   3.468   2.334 -0.4961 -1.0622  1.4036
 4497SOL    HW225128   3.394   3.567   2.440 -1.7552  0.8214  0.1627
 4498SOL     OW25129   0.458   2.577   5.768  0.2043 -0.1399 -0.0962
 4498SOL    HW125130   0.477   2.549   5.857  1.1183 -0.5105 -0.4028
 4498SOL    HW225131   0.379   2.529   5.745  1.3013 -1.5731 -0.8965
 4499SOL     OW25132   2.657   2.693   2.045  0.0025  0.5470  0.0799
 4499SOL    HW125133   2.677   2.762   1.981 -1.9925 -0.3051 -1.4899
 4499SOL    HW225134   2.740   2.683   2.090 -0.6054 -1.0585  0.8686
 4500SOL     OW25135   4.526   2.204  15.561 -0.0030 -0.2581 -0.0932
 4500SOL    HW125136   4.545   2.293  15.529 -1.3814 -0.3392 -1.1071
 4500SOL    HW225137   4.449   2.217  15.616 -0.2488  3.5114 -1.2951
 4501SOL     OW25138   1.436   2.468  17.009 -0.1896  0.5022  0.3688
 4501SOL    HW125139   1.422   2.431  16.921 -1.6106 -0.6084  1.0632
 4501SOL    HW225140   1.351   2.512  17.016  0.7158  2.5241 -1.1797
 4502SOL     OW25141   0.881   2.880  14.984 -0.0224 -0.2863  0.3732
 4502SOL    HW125142   0.905   2.832  15.064 -0.3434 -1.0658 -0.0002
 4502SOL    HW225143   0.867   2.811  14.919 -0.2908 -0.5169  0.6710
 4503SOL     OW25144   1.428   4.017  16.818  0.1178  0.4823  0.0642
 4503SOL    HW125145   1.390   4.012  16.906 -0.2217 -0.9777 -0.1766
 4503SOL    HW225146   1.494   4.086  16.825  0.9174 -0.4986  2.0855
 4504SOL     OW25147   2.213   0.023   8.581  0.0665 -0.0769 -0.3345
 4504SOL    HW125148   2.289   4.707   8.608 -1.2054 -1.4462  0.6233
 4504SOL    HW225149   2.199   0.074   8.661  2.1475 -1.1128  0.6997
 4505SOL     OW25150   4.099   2.890   1.082 -0.0499  0.2304 -0.0542
 4505SOL    HW125151   4.155   2.885   1.159  0.0277 -2.6731 -0.3084
 4505SOL    HW225152   4.151   2.953   1.032 -1.5880  1.3657 -0.2304
 4506SOL     OW25153   1.672   4.054   3.027 -0.2130 -0.1839 -0.3105
 4506SOL    HW125154   1.727   4.115   2.978 -0.9323  0.6550 -0.0709
 4506SOL    HW225155   1.739   4.031   3.091 -0.3702 -2.9999 -1.1486
 4507SOL     OW25156   2.498   2.660   5.178 -0.1485 -0.5855  0.3727
 4507SOL    HW125157   2.474   2.578   5.134 -1.0432 -0.3642  0.4561
 4507SOL    HW225158   2.478   2.638   5.269 -1.2666  0.3803  0.3591
 4508SOL     OW25159   4.551   3.071   1.631  0.3192  0.1280  0.3096
 4508SOL    HW125160   4.532   3.135   1.700  2.1121  2.1955 -1.1351
 4508SOL    HW225161   4.495   3.097   1.558  0.3296 -0.7827 -0.0166
 4509SOL     OW25162   2.134   3.109   7.513  0.4138  0.0214  0.0360
 4509SOL    HW125163   2.177   3.125   7.429  1.3228 -0.1000  0.4875
 4509SOL    HW225164   2.078   3.187   7.518 -0.5104 -0.7287  1.1652
 4510SOL     OW25165   2.747   4.427   2.204  0.2677 -0.2589  0.3542
 4510SOL    HW125166   2.737   4.345   2.157  1.5017 -0.1728 -0.0525
 4510SOL    HW225167   2.786   4.404   2.288  0.1131  1.3693  0.8810
 4511SOL     OW25168   3.361   1.237   2.294 -0.2146 -0.4454  0.4190
 4511SOL    HW125169   3.378   1.211   2.384 -0.2178  0.7434  0.7683
 4511SOL    HW225170   3.268   1.247   2.273  0.4880  0.6745 -2.2276
 4512SOL     OW25171   3.740   2.094   4.980 -0.2865  0.2144  0.3100
 4512SOL    HW125172   3.785   2.136   4.906  2.3680 -1.4326  1.0162
 4512SOL    HW225173   3.711   2.167   5.034 -0.8041  0.5291 -0.3916
 4513SOL     OW25174   4.683   4.545   1.723  0.2223  0.1515 -0.7642
 4513SOL    HW125175   4.635   4.484   1.667  0.1733 -0.0462 -0.5046
 4513SOL    HW225176   4.617   4.608   1.752 -0.1041 -0.4382 -0.2494
 4514SOL     OW25177   2.763   2.347   2.437 -0.1222  0.1078  0.6589
 4514SOL    HW125178   2.693   2.367   2.499 -1.4881 -0.3793 -0.7327
 4514SOL    HW225179   2.728   2.292   2.366  0.3121  2.9348 -1.7625
 4515SOL     OW25180   0.881   2.418   6.902  0.6254 -0.1244 -0.4217
 4515SOL    HW125181   0.935   2.347   6.937  2.3103  2.2168  1.6898
 4515SOL    HW225182   0.946   2.482   6.873  1.6767  0.0907  2.4731
 4516SOL     OW25183   1.144   0.950  15.724 -0.1253 -0.2023 -0.4682
 4516SOL    HW125184   1.090   0.873  15.706 -0.6227  0.0915 -0.2322
 4516SOL    HW225185   1.188   0.962  15.640  1.3606  0.3884  0.3889
 4517SOL     OW25186   1.016   3.610   9.469 -0.0173  0.0913 -0.3802
 4517SOL    HW125187   0.955   3.594   9.542 -0.5565  0.3045 -0.7871
 4517SOL    HW225188   0.990   3.553   9.397 -0.4186  0.8199 -0.8072
 4518SOL     OW25189   2.493   2.838   1.738 -0.1878  0.9061 -0.2303
 4518SOL    HW125190   2.464   2.826   1.828  1.2090  1.1015  0.2488
 4518SOL    HW225191   2.410   2.837   1.692 -0.0569 -2.1097 -0.3999
 4519SOL     OW25192   2.884   1.395   4.200  0.4284 -0.3680 -0.1901
 4519SOL    HW125193   2.908   1.471   4.253  0.8087  1.0325 -2.3768
 4519SOL    HW225194   2.816   1.436   4.146 -0.0762 -2.2081 -0.9385
 4520SOL     OW25195   0.955   1.503   2.617 -0.0162  0.0225 -0.2415
 4520SOL    HW125196   1.042   1.462   2.616 -1.3117 -2.7112 -1.2706
 4520SOL    HW225197   0.907   1.436   2.665 -0.7130 -0.2885 -1.3814
 4521SOL     OW25198   3.843   1.785   2.559 -0.1953  0.0648  0.1734
 4521SOL    HW125199   3.756   1.758   2.527 -0.2841 -0.8496  1.1882
 4521SOL    HW225200   3.892   1.714   2.519  1.0976  0.9657  0.1749
 4522SOL     OW25201   2.562   0.727   5.449  0.2001 -0.0042 -0.3861
 4522SOL    HW125202   2.510   0.656   5.411 -0.4347 -0.8025  2.0222
 4522SOL    HW225203   2.584   0.699   5.537  0.8547  1.1341 -0.1789
 4523SOL     OW25204   0.628   1.461   0.925  0.0330 -0.8215  0.1872
 4523SOL    HW125205   0.676   1.434   1.003  0.5415  0.6867  0.3945
 4523SOL    HW225206   0.700   1.458   0.862  0.0315 -0.0360  0.1466
 4524SOL     OW25207   2.156   0.642   6.091 -0.3356 -0.0803  0.3415
 4524SOL    HW125208   2.186   0.727   6.058 -0.2919 -0.3595 -0.3328
 4524SOL    HW225209   2.073   0.631   6.046 -1.1444  2.9285  1.1007
 4525SOL     OW25210   3.878   4.569   3.352 -0.2161  0.3993 -0.5440
 4525SOL    HW125211   3.791   4.535   3.372  0.7942 -0.6208  2.0542
 4525SOL    HW225212   3.913   4.593   3.438  0.3620 -2.2324 -0.0533
 4526SOL     OW25213   3.608   2.088   3.890 -0.5309  0.0761 -0.1365
 4526SOL    HW125214   3.594   2.178   3.862  1.1313  0.9618  1.9120
 4526SOL    HW225215   3.644   2.049   3.810 -2.0140 -0.4015 -0.5724
 4527SOL     OW25216   3.812   2.645   6.926 -0.2726 -0.0561  0.2794
 4527SOL    HW125217   3.726   2.676   6.896  0.8851 -0.1762 -3.0755
 4527SOL    HW225218   3.798   2.551   6.939 -0.6792  0.1309  1.2083
 4528SOL     OW25219   3.947   0.251   7.104 -0.3113  0.9602 -0.2841
 4528SOL    HW125220   3.918   0.275   7.191  1.6868  0.0259  0.6546
 4528SOL    HW225221   4.028   0.302   7.101  0.8871 -1.2329 -5.5289
 4529SOL     OW25222   4.185   4.527   0.661 -0.1161 -0.0607  0.4276
 4529SOL    HW125223   4.154   4.446   0.620  0.1819  0.1485 -0.2165
 4529SOL    HW225224   4.102   4.558   0.698  0.4038  1.7733  0.0389
 4530SOL     OW25225   2.837   1.361  14.409  0.4987 -0.5080  0.1870
 4530SOL    HW125226   2.932   1.370  14.403  0.4254  1.0930  1.5054
 4530SOL    HW225227   2.823   1.292  14.344  0.2650  1.1453 -1.5397
 4531SOL     OW25228   3.260   1.063  10.696  0.8293 -0.1536 -0.2920
 4531SOL    HW125229   3.280   1.142  10.745 -1.4498 -0.8165  1.7182
 4531SOL    HW225230   3.175   1.049  10.738  1.5078 -4.1043 -0.2357
 4532SOL     OW25231   2.011   2.426   7.431  0.0480 -0.5566  0.1799
 4532SOL    HW125232   2.061   2.475   7.366  0.2711 -1.7269 -0.5248
 4532SOL    HW225233   2.063   2.444   7.510  0.7578  0.0813 -0.4303
 4533SOL     OW25234   4.039   0.136   6.378 -0.3962  0.1552 -0.3163
 4533SOL    HW125235   4.105   0.071   6.401 -0.8493 -0.5342 -0.9755
 4533SOL    HW225236   4.020   0.184   6.458 -1.3852 -1.3350  0.3392
 4534SOL     OW25237   3.763   1.449   2.892  0.0164 -0.6905  0.2894
 4534SOL    HW125238   3.829   1.515   2.872  0.7225 -1.6603 -0.5494
 4534SOL    HW225239   3.746   1.475   2.983  1.5430 -1.6716  0.8422
 4535SOL     OW25240   3.486   0.634  13.034  0.2331  0.0056 -0.1929
 4535SOL    HW125241   3.492   0.546  13.071 -0.0185 -0.6542 -1.7025
 4535SOL    HW225242   3.524   0.681  13.108 -0.8273  1.5802 -0.6376
 4536SOL     OW25243   1.433   1.877  14.829  0.1356 -0.1691 -0.5260
 4536SOL    HW125244   1.480   1.839  14.903 -3.5731  2.3693  3.1453
 4536SOL    HW225245   1.389   1.795  14.807  0.5515 -1.6861  4.3937
 4537SOL     OW25246   3.267   4.662   0.694 -0.3105 -1.0347 -0.7571
 4537SOL    HW125247   3.233   0.002   0.645 -2.1574 -1.2996  0.0944
 4537SOL    HW225248   3.191   4.652   0.752 -0.1038  2.2519  0.1335
 4538SOL     OW25249   2.250   4.322  10.336 -0.1401 -0.0533  0.2628
 4538SOL    HW125250   2.206   4.390  10.386  0.4484 -0.7854  1.7967
 4538SOL    HW225251   2.199   4.296  10.259  1.8483 -2.4504 -0.2589
 4539SOL     OW25252   3.139   0.644   6.368  0.7309 -0.1662 -0.3222
 4539SOL    HW125253   3.202   0.606   6.429 -0.4789  0.5317  1.3687
 4539SOL    HW225254   3.205   0.685   6.313 -0.2259  1.6697 -0.0978
 4540SOL     OW25255   4.037   3.123  11.101 -0.4628 -0.3203 -0.1939
 4540SOL    HW125256   4.062   3.114  11.193  0.7045  1.1358 -0.3633
 4540SOL    HW225257   4.120   3.114  11.053 -0.7545 -1.2483 -0.5164
 4541SOL     OW25258   0.113   3.773   2.551  0.3176 -0.2325  0.4861
 4541SOL    HW125259   0.045   3.750   2.487 -0.7183  1.3100  1.0096
 4541SOL    HW225260   0.154   3.849   2.509  1.8907 -0.5218  1.4860
 4542SOL     OW25261   3.139   3.614  10.353 -0.0173 -0.5742  0.0314
 4542SOL    HW125262   3.045   3.600  10.357  0.1707 -1.4827  0.9841
 4542SOL    HW225263   3.173   3.552  10.417  0.5140 -0.9268 -0.5928
 4543SOL     OW25264   2.918   4.343   8.510 -0.4451  0.4112  0.2452
 4543SOL    HW125265   2.827   4.321   8.491 -0.7094  1.5048  0.2407
 4543SOL    HW225266   2.943   4.256   8.540 -0.4915  0.4503  0.3968
 4544SOL     OW25267   4.185   4.161   2.860  0.1480 -0.0739  0.4554
 4544SOL    HW125268   4.121   4.203   2.803 -0.4766 -2.0352 -0.3123
 4544SOL    HW225269   4.139   4.155   2.943 -0.6000  2.4308  0.1965
 4545SOL     OW25270   0.787   3.525   9.616 -0.3257  0.2620  0.3426
 4545SOL    HW125271   0.772   3.436   9.585  0.4715  0.2365  0.0349
 4545SOL    HW225272   0.699   3.562   9.614 -0.7980 -0.8735  0.0685
 4546SOL     OW25273   3.907   2.802   1.310  0.9400 -0.2751  0.2423
 4546SOL    HW125274   3.887   2.836   1.397 -0.1930 -1.3390  0.4023
 4546SOL    HW225275   3.990   2.760   1.333  1.4809  0.8546  0.3382
 4547SOL     OW25276   3.843   4.211   0.655  0.4439  0.2949  1.3599
 4547SOL    HW125277   3.813   4.272   0.723 -1.1979 -0.2016  1.0718
 4547SOL    HW225278   3.922   4.263   0.637  0.9703 -0.8744  0.3625
 4548SOL     OW25279   1.620   0.618   9.484 -0.1911  0.2476  0.0760
 4548SOL    HW125280   1.645   0.526   9.474 -3.1731 -0.6865  1.4167
 4548SOL    HW225281   1.701   0.648   9.442 -0.8806  1.0113 -0.6938
 4549SOL     OW25282   3.350   2.899   4.432 -0.1369 -0.2557  0.0445
 4549SOL    HW125283   3.353   2.825   4.493 -0.1509 -0.7817 -0.5964
 4549SOL    HW225284   3.443   2.918   4.423 -0.3537  0.0694 -1.5595
 4550SOL     OW25285   3.188   0.688   4.193 -0.2436  0.5563 -0.2520
 4550SOL    HW125286   3.277   0.654   4.187 -0.3021  0.1294  1.4506
 4550SOL    HW225287   3.199   0.748   4.266  1.2388 -1.0634  0.8342
 4551SOL     OW25288   0.370   0.913   9.138  0.1044 -0.6573 -0.6079
 4551SOL    HW125289   0.403   0.979   9.198 -0.7766 -0.3288 -0.4833
 4551SOL    HW225290   0.345   0.847   9.203  0.0302 -0.9134 -0.8940
 4552SOL     OW25291   0.310   4.278   1.207  0.2531 -1.0520  0.1383
 4552SOL    HW125292   0.284   4.346   1.269  0.1259  0.8988 -2.0748
 4552SOL    HW225293   0.375   4.234   1.263  0.2043 -1.6994 -0.3219
 4553SOL     OW25294   0.396   0.537   2.937  0.2408 -0.0241  0.0436
 4553SOL    HW125295   0.420   0.445   2.949  0.7116  0.1605  0.4961
 4553SOL    HW225296   0.352   0.522   2.853  0.8089 -1.1217 -0.0568
 4554SOL     OW25297   1.160   0.157   1.482 -0.8506  0.2006 -0.6931
 4554SOL    HW125298   1.129   0.247   1.483  1.6419  1.0194  0.2669
 4554SOL    HW225299   1.073   0.117   1.473 -1.1354  0.4933  0.7976
 4555SOL     OW25300   3.641   0.003   3.260  0.2517 -0.1614 -0.1085
 4555SOL    HW125301   3.550   4.717   3.283  0.6940 -0.8082  1.0534
 4555SOL    HW225302   3.673   4.683   3.332  3.2339 -0.2382 -1.4918
 4556SOL     OW25303   3.786   2.636   3.479 -0.3312  0.0317  0.3504
 4556SOL    HW125304   3.810   2.720   3.518 -1.3602 -0.6004  2.3615
 4556SOL    HW225305   3.711   2.668   3.429 -0.6188  0.0761  0.8071
 4557SOL     OW25306   4.629   3.900   4.704 -0.2091 -0.1028 -0.6829
 4557SOL    HW125307   4.627   3.977   4.648 -0.6071 -0.4152 -1.0932
 4557SOL    HW225308   4.543   3.906   4.745  1.3299 -0.0653  2.6016
 4558SOL     OW25309   3.290   1.383   0.029  0.1647 -0.2368 -0.1562
 4558SOL    HW125310   3.324   1.295   0.043 -0.7396 -0.2741  1.7564
 4558SOL    HW225311   3.195   1.375   0.026  0.2318 -1.2599  0.7181
 4559SOL     OW25312   3.767   1.821   6.378  0.1523  0.4899 -0.0722
 4559SOL    HW125313   3.738   1.730   6.363 -0.9316  0.7624  0.3730
 4559SOL    HW225314   3.816   1.822   6.460 -1.6509  0.1005  1.0238
 4560SOL     OW25315   1.736   1.097   8.166  0.4830 -0.0955  0.1962
 4560SOL    HW125316   1.761   1.102   8.258 -0.0987 -1.3997  0.4214
 4560SOL    HW225317   1.681   1.175   8.154  1.1293  0.1995 -0.8220
 4561SOL     OW25318   4.445   3.746   6.752 -0.0438 -0.0497  0.2564
 4561SOL    HW125319   4.511   3.728   6.686  0.1003  0.0904  0.3619
 4561SOL    HW225320   4.370   3.723   6.698 -2.1667  2.6711  2.0593
 4562SOL     OW25321   0.070   1.111  12.596  0.0247  0.3337  0.3636
 4562SOL    HW125322   0.060   1.103  12.501  1.3464 -0.1069  0.2571
 4562SOL    HW225323   4.725   1.157  12.619 -0.4352  0.0354 -0.6196
 4563SOL     OW25324   0.904   2.699  15.192 -0.1903  0.8419  0.5395
 4563SOL    HW125325   0.890   2.623  15.135 -3.2953  0.7945  1.4114
 4563SOL    HW225326   0.920   2.657  15.276  0.0820  0.0633  0.0996
 4564SOL     OW25327   1.771   2.260   4.341 -0.3600 -0.3289 -0.1715
 4564SOL    HW125328   1.744   2.311   4.418 -0.0890  1.0028 -0.9472
 4564SOL    HW225329   1.788   2.174   4.380  2.4026 -0.2415 -1.1773
 4565SOL     OW25330   2.423   3.366  16.500  0.0203  0.3843  0.0981
 4565SOL    HW125331   2.501   3.354  16.554  0.9729 -1.2880 -1.6044
 4565SOL    HW225332   2.405   3.283  16.455  1.8466 -0.2241  0.4982
 4566SOL     OW25333   1.287   3.532  11.851  0.2275  0.0721 -0.0068
 4566SOL    HW125334   1.231   3.566  11.782  1.2258 -0.5321 -1.1056
 4566SOL    HW225335   1.247   3.579  11.924 -2.5302 -1.0389 -0.8056
 4567SOL     OW25336   4.474   1.230   7.238  0.1962 -0.1542 -0.5326
 4567SOL    HW125337   4.516   1.192   7.161 -0.1899 -1.3321 -0.1444
 4567SOL    HW225338   4.520   1.179   7.305  1.3453 -0.0474 -1.2423
 4568SOL     OW25339   1.928   1.673   3.433 -0.4108  0.5805 -0.1125
 4568SOL    HW125340   1.900   1.743   3.492 -0.8541  0.5408 -0.2785
 4568SOL    HW225341   1.846   1.632   3.404 -0.1945 -0.9269  1.3622
 4569SOL     OW25342   0.119   3.149   3.070 -0.0659 -0.1698  0.2728
 4569SOL    HW125343   0.153   3.090   3.138 -0.4591 -2.6697 -1.6647
 4569SOL    HW225344   0.056   3.086   3.035 -0.4316 -1.1119  2.5810
 4570SOL     OW25345   1.002   4.558   8.328 -0.6522 -0.2515 -0.7197
 4570SOL    HW125346   1.011   4.463   8.320 -0.1400 -0.0280 -2.6552
 4570SOL    HW225347   1.094   4.581   8.342 -0.4005 -3.3657  2.9118
 4571SOL     OW25348   2.599   1.473   6.780  0.6130 -0.1904 -0.4387
 4571SOL    HW125349   2.527   1.534   6.795 -1.5934 -2.7009 -0.6955
 4571SOL    HW225350   2.547   1.405   6.736 -0.4175  1.0623 -1.1714
 4572SOL     OW25351   0.323   3.345   2.997  0.1278 -0.8661  0.5210
 4572SOL    HW125352   0.290   3.255   3.006  2.6170 -1.8528 -0.3138
 4572SOL    HW225353   0.245   3.400   2.987  1.3402  0.5664 -0.9988
 4573SOL     OW25354   3.516   4.157   8.200  0.6000  0.0565  0.7803
 4573SOL    HW125355   3.602   4.148   8.161  1.1164  0.0946  1.9174
 4573SOL    HW225356   3.496   4.064   8.213 -1.3149  0.2773 -0.5537
 4574SOL     OW25357   0.720   2.218   3.693 -0.0407 -0.0059 -0.1945
 4574SOL    HW125358   0.698   2.301   3.650 -2.6868 -1.0787 -0.9543
 4574SOL    HW225359   0.644   2.162   3.680  0.1349 -0.0560 -0.9882
 4575SOL     OW25360   0.333   3.963   2.593 -0.0555 -0.3954 -0.0366
 4575SOL    HW125361   0.359   3.877   2.628  1.1931  0.2487  0.6170
 4575SOL    HW225362   0.361   4.022   2.663 -0.2449  1.0288 -1.1621
 4576SOL     OW25363   0.033   0.940   2.716  0.0835  0.0455 -0.0437
 4576SOL    HW125364   4.718   0.992   2.652 -0.2868 -0.2468  0.0060
 4576SOL    HW225365   0.004   0.989   2.793 -0.6626 -0.7067  0.1551
 4577SOL     OW25366   4.639   2.446   5.668 -0.0834  0.8330  0.1088
 4577SOL    HW125367   4.666   2.445   5.760 -0.4092 -1.7704  0.1951
 4577SOL    HW225368   4.593   2.528   5.651  0.7186  0.8596 -1.9674
 4578SOL     OW25369   4.562   2.089   5.800 -0.1257  0.2616 -0.2078
 4578SOL    HW125370   4.618   2.088   5.878 -0.3988  3.6648  0.0457
 4578SOL    HW225371   4.629   2.086   5.732  0.3558 -0.4919  0.2970
 4579SOL     OW25372   0.921   2.728   6.871  0.2567  0.2625  0.4241
 4579SOL    HW125373   0.968   2.727   6.954 -0.2331 -0.6441  0.6963
 4579SOL    HW225374   0.846   2.786   6.885 -0.4991 -0.5529 -0.1933
 4580SOL     OW25375   4.147   4.593   9.107  0.1356 -0.2158  0.1076
 4580SOL    HW125376   4.123   4.602   9.015  1.9228  0.8739 -0.2496
 4580SOL    HW225377   4.233   4.554   9.092  1.2934  1.5994  2.0291
 4581SOL     OW25378   2.513   4.002   7.051 -0.1228  0.3404 -0.7540
 4581SOL    HW125379   2.593   4.036   7.090 -1.0594 -0.3471  1.7825
 4581SOL    HW225380   2.459   4.012   7.130 -0.2004 -0.7281 -0.6682
 4582SOL     OW25381   2.577   0.370   6.059  0.2266  0.0659 -0.3892
 4582SOL    HW125382   2.545   0.365   6.149 -0.5380 -1.0267 -0.7205
 4582SOL    HW225383   2.501   0.409   6.016  0.0533  0.4619  0.2811
 4583SOL     OW25384   3.440   4.440   6.251 -0.0022 -0.0539 -0.0488
 4583SOL    HW125385   3.373   4.451   6.319 -0.0311 -0.5782  0.0132
 4583SOL    HW225386   3.502   4.504   6.287  1.0470 -1.5343  0.8226
 4584SOL     OW25387   0.188   3.210   0.991  0.4170 -0.0706  0.2862
 4584SOL    HW125388   0.121   3.166   0.940 -0.9118  0.2848  1.7334
 4584SOL    HW225389   0.171   3.179   1.080  1.3302 -2.1458 -0.2616
 4585SOL     OW25390   1.610   1.996   0.541 -1.0992  0.0112 -0.3040
 4585SOL    HW125391   1.647   1.907   0.542  1.1188  0.9524  1.2357
 4585SOL    HW225392   1.549   1.996   0.467 -0.0628  0.3585 -1.1642
 4586SOL     OW25393   2.386   4.085   4.883 -0.1685  0.0420 -0.1731
 4586SOL    HW125394   2.397   4.009   4.827 -2.9865  0.0633 -0.7573
 4586SOL    HW225395   2.379   4.047   4.971 -1.3950 -2.9847 -1.5889
 4587SOL     OW25396   1.464   1.615   8.125  0.0881  0.0572 -0.3388
 4587SOL    HW125397   1.529   1.665   8.175 -0.7039 -1.3271  2.1181
 4587SOL    HW225398   1.394   1.679   8.109  0.4359  0.1239 -1.5752
 4588SOL     OW25399   3.132   2.011  16.345 -0.3993 -0.4693  0.5440
 4588SOL    HW125400   3.152   2.092  16.392 -0.6776 -0.2443  0.2731
 4588SOL    HW225401   3.104   2.031  16.256 -2.4342  0.1462  1.3206
 4589SOL     OW25402   0.710   1.109   8.121 -0.4107  0.2791 -0.2737
 4589SOL    HW125403   0.623   1.090   8.157 -0.9631  0.7659 -1.3228
 4589SOL    HW225404   0.759   1.088   8.200  0.7637 -0.5507 -1.2383
 4590SOL     OW25405   2.925   2.331   5.564 -0.3109 -0.5062 -0.2172
 4590SOL    HW125406   3.004   2.382   5.583 -0.7764  0.2695 -0.3798
 4590SOL    HW225407   2.873   2.376   5.631 -1.3047  0.4909 -1.6740
 4591SOL     OW25408   2.879   0.826   7.323 -0.0155  0.5548  0.3336
 4591SOL    HW125409   2.906   0.903   7.273  0.3943  0.6267  0.6671
 4591SOL    HW225410   2.786   0.850   7.324  0.0298  0.7159  0.6623
 4592SOL     OW25411   0.796   0.917  12.071  0.0843  0.1872  0.1613
 4592SOL    HW125412   0.813   1.011  12.063  0.4642 -0.0397 -1.5588
 4592SOL    HW225413   0.721   0.907  12.012 -0.1075  0.8949  0.2869
 4593SOL     OW25414   1.385   0.010   8.981  0.4431  0.0351  0.0488
 4593SOL    HW125415   1.299   0.006   8.939 -0.0136  0.8586  0.9149
 4593SOL    HW225416   1.388   0.102   9.007  0.8620 -0.1706  0.7253
 4594SOL     OW25417   2.434   2.462  12.412 -0.6227  0.0186 -0.3225
 4594SOL    HW125418   2.507   2.518  12.386  0.5239  0.6796  4.3149
 4594SOL    HW225419   2.475   2.420  12.487 -1.8415 -0.5821  0.0155
 4595SOL     OW25420   0.611   2.676  15.278  0.2632  0.0688 -0.4645
 4595SOL    HW125421   0.561   2.745  15.320 -0.0774  0.0823 -0.8890
 4595SOL    HW225422   0.695   2.717  15.261 -1.2978  3.0998 -0.8575
 4596SOL     OW25423   1.822   0.492   3.922 -0.1437 -0.6708  0.2423
 4596SOL    HW125424   1.749   0.507   3.862 -1.5297 -2.4431  1.4630
 4596SOL    HW225425   1.780   0.508   4.007 -2.5334  0.0352 -1.0608
 4597SOL     OW25426   4.705   3.696   6.925  0.1420 -0.2810  0.0319
 4597SOL    HW125427   0.002   3.609   6.903 -0.9783 -0.6962  0.0800
 4597SOL    HW225428   4.625   3.715   6.877  0.2861 -2.2836 -0.9620
 4598SOL     OW25429   3.029   4.422   2.657  0.7244 -0.3878  0.0134
 4598SOL    HW125430   3.029   4.372   2.576  0.8179 -0.0349 -0.2066
 4598SOL    HW225431   3.012   4.350   2.717 -0.3565  0.0792  0.2618
 4599SOL     OW25432   4.093   2.912   6.844 -0.1594 -0.1255 -0.5820
 4599SOL    HW125433   4.119   2.939   6.756  1.1125  0.0052 -0.1677
 4599SOL    HW225434   4.102   2.818   6.827  0.9913 -0.6692  3.0592
 4600SOL     OW25435   2.123   3.098   2.548  0.3425  0.8360 -0.7985
 4600SOL    HW125436   2.106   3.035   2.618  0.1905 -1.3862 -2.8316
 4600SOL    HW225437   2.036   3.103   2.509  1.3459 -0.4667 -3.2520
 4601SOL     OW25438   2.314   2.916   5.633 -0.2867 -0.0887  0.0885
 4601SOL    HW125439   2.287   2.986   5.574  1.1566  1.6161  1.4583
 4601SOL    HW225440   2.409   2.910   5.623 -0.1688 -0.0199  1.1729
 4602SOL     OW25441   2.921   0.599  16.919 -0.3579  0.4681  0.3817
 4602SOL    HW125442   2.993   0.651  16.883 -1.0080  1.3969  0.4101
 4602SOL    HW225443   2.865   0.667  16.955 -0.2342  2.0848 -2.4486
 4603SOL     OW25444   3.912   1.311  11.767  0.5049 -0.4832 -0.0530
 4603SOL    HW125445   3.882   1.288  11.679 -1.1882  0.6477  0.2225
 4603SOL    HW225446   3.907   1.406  11.762 -2.6786 -0.7315 -1.8759
 4604SOL     OW25447   3.530   0.566   6.228  0.2132 -0.6067 -0.7037
 4604SOL    HW125448   3.569   0.610   6.303 -1.8685  0.2447 -0.1328
 4604SOL    HW225449   3.577   0.602   6.153  1.5611 -0.4566  0.2260
 4605SOL     OW25450   4.380   4.693   8.766  0.1791  0.2058 -0.4404
 4605SOL    HW125451   4.457   4.641   8.791 -1.1612 -1.9336 -0.7875
 4605SOL    HW225452   4.347   4.707   8.855 -1.3718  1.5484 -1.2398
 4606SOL     OW25453   1.696   1.857  10.393 -0.0705 -0.5695  0.0352
 4606SOL    HW125454   1.764   1.908  10.437 -0.7741  0.3921  0.0026
 4606SOL    HW225455   1.717   1.895  10.308  0.3706 -3.0365 -0.9316
 4607SOL     OW25456   1.583   3.888   1.219  0.0631  0.2087 -0.1178
 4607SOL    HW125457   1.618   3.802   1.196  2.2468  1.5127 -1.5582
 4607SOL    HW225458   1.627   3.954   1.166  1.1552  2.2669  3.2965
 4608SOL     OW25459   4.101   1.625   9.320 -0.6761 -0.3926 -0.1156
 4608SOL    HW125460   4.179   1.601   9.370  0.4242 -1.5407 -2.3946
 4608SOL    HW225461   4.037   1.595   9.385 -0.6835 -1.4335 -0.5926
 4609SOL     OW25462   2.924   4.483  15.652 -0.7603  0.2926 -0.6259
 4609SOL    HW125463   2.857   4.415  15.647 -0.5756  0.0819 -0.1930
 4609SOL    HW225464   2.989   4.451  15.590  0.0894 -0.9988  0.9425
 4610SOL     OW25465   4.416   3.022  12.514  0.0037 -0.0682 -0.0640
 4610SOL    HW125466   4.358   2.983  12.579 -2.1223 -0.6824 -2.3265
 4610SOL    HW225467   4.364   3.102  12.506  0.0823 -0.1538 -1.4661
 4611SOL     OW25468   4.106   0.358   5.937  0.4118  0.1656 -0.4452
 4611SOL    HW125469   4.105   0.263   5.926  0.3431  0.0914  0.1847
 4611SOL    HW225470   4.032   0.373   5.996  1.3455  0.2968  0.6972
 4612SOL     OW25471   1.379   3.554   9.701 -0.6395 -0.0857 -0.1963
 4612SOL    HW125472   1.450   3.511   9.653 -0.2795 -1.5440  1.6251
 4612SOL    HW225473   1.417   3.549   9.789 -0.9975  0.3673 -0.0176
 4613SOL     OW25474   2.485   4.273   7.345 -0.4470  0.3612  0.5607
 4613SOL    HW125475   2.521   4.304   7.428  0.0486  0.8901  0.1494
 4613SOL    HW225476   2.516   4.183   7.360  1.5928  0.5923 -2.2829
 4614SOL     OW25477   2.634   2.594   7.087  0.0805  0.5162 -0.3750
 4614SOL    HW125478   2.600   2.507   7.066 -1.6599  0.6027  2.0556
 4614SOL    HW225479   2.553   2.630   7.122 -0.9301  0.1135 -2.2980
 4615SOL     OW25480   0.666   0.354   2.896  0.4181 -0.1976  0.4672
 4615SOL    HW125481   0.647   0.409   2.819  0.8235  1.4867  1.5697
 4615SOL    HW225482   0.738   0.414   2.916 -1.0589  1.6084  0.2894
 4616SOL     OW25483   0.601   3.101  11.392  0.0802 -0.0908 -0.3073
 4616SOL    HW125484   0.672   3.041  11.368  0.4227  0.5996 -0.9772
 4616SOL    HW225485   0.528   3.048  11.360 -0.2390 -0.3838  0.8805
 4617SOL     OW25486   0.665   2.957   4.202  0.1600 -0.7095  0.0699
 4617SOL    HW125487   0.636   3.038   4.245 -1.1089 -1.6560  0.9840
 4617SOL    HW225488   0.618   2.957   4.119  1.0497  2.1289 -0.4407
 4618SOL     OW25489   1.853   4.038   2.632 -0.3347 -0.1174  0.1001
 4618SOL    HW125490   1.771   4.086   2.626 -0.2679  0.0465  0.4653
 4618SOL    HW225491   1.906   4.112   2.603 -0.3416  1.0529  3.0606
 4619SOL     OW25492   4.032   3.065   3.036  0.1650 -0.1155  0.0762
 4619SOL    HW125493   4.111   3.020   3.066 -0.1612 -1.0456 -0.4355
 4619SOL    HW225494   4.054   3.096   2.949  0.5182  3.2285  1.3546
 4620SOL     OW25495   4.309   3.597   4.187 -0.3973 -0.3903 -0.6575
 4620SOL    HW125496   4.344   3.626   4.271  2.2659  1.5113 -2.4112
 4620SOL    HW225497   4.317   3.504   4.206  0.1655  0.0193  1.1101
 4621SOL     OW25498   0.714   2.672   5.816  0.1750  0.4881 -0.2772
 4621SOL    HW125499   0.748   2.586   5.792  1.6550  0.6268  1.3382
 4621SOL    HW225500   0.623   2.673   5.787  0.6181  1.0881 -1.6804
 4622SOL     OW25501   3.806   1.403  12.062  0.5163 -0.2483  0.3610
 4622SOL    HW125502   3.818   1.448  11.978 -1.6044 -0.0088  0.1984
 4622SOL    HW225503   3.822   1.478  12.120  0.5814  0.5465 -0.6837
 4623SOL     OW25504   4.470   3.027  13.281 -0.3771  0.3355  0.0868
 4623SOL    HW125505   4.395   2.976  13.251  0.9561 -0.1351 -2.4244
 4623SOL    HW225506   4.467   3.108  13.230  0.9103  1.5933  1.9683
 4624SOL     OW25507   0.611   2.555  11.579 -0.0972 -0.4848  0.6805
 4624SOL    HW125508   0.649   2.495  11.643  0.1861 -1.4068 -0.3415
 4624SOL    HW225509   0.691   2.607  11.573 -1.3521  1.2105 -1.6856
 4625SOL     OW25510   3.817   4.112   4.431 -0.1855  0.5331 -0.3761
 4625SOL    HW125511   3.776   4.198   4.435  1.5314  1.3560 -0.6737
 4625SOL    HW225512   3.906   4.127   4.464  0.6943  0.6400 -2.8374
 4626SOL     OW25513   4.676   0.023   7.550 -0.5169 -0.0468 -0.0184
 4626SOL    HW125514   4.685   0.033   7.455 -0.6630  1.9617  0.1716
 4626SOL    HW225515   4.588   0.056   7.567 -0.8240 -1.1348  0.4703
 4627SOL     OW25516   3.720   3.567   0.697  0.3214 -0.1883 -0.2316
 4627SOL    HW125517   3.659   3.506   0.657 -1.4570  0.3123  1.7200
 4627SOL    HW225518   3.691   3.631   0.632 -0.3108 -0.9340 -0.6800
 4628SOL     OW25519   4.302   0.469   2.462  0.2141 -0.3551  0.1137
 4628SOL    HW125520   4.347   0.425   2.390 -0.9445 -1.1740 -0.1203
 4628SOL    HW225521   4.211   0.440   2.455  0.0124  0.0840  0.8901
 4629SOL     OW25522   1.070   0.749   3.026  0.6314  0.1614 -0.2235
 4629SOL    HW125523   1.141   0.806   2.997 -0.4847  0.9655 -1.3615
 4629SOL    HW225524   1.008   0.806   3.072 -0.1568 -3.3863  3.1685
 4630SOL     OW25525   1.162   0.718   2.157 -0.1571  0.3710  0.4585
 4630SOL    HW125526   1.146   0.636   2.109 -1.5474  0.2749  1.1162
 4630SOL    HW225527   1.077   0.760   2.149 -1.5475 -1.9818  2.8121
 4631SOL     OW25528   4.132   3.017  13.216  0.1310  0.2402  0.1769
 4631SOL    HW125529   4.058   3.069  13.185 -2.2036 -2.4453  1.3537
 4631SOL    HW225530   4.143   3.046  13.307  0.9305  2.3486 -0.5783
 4632SOL     OW25531   2.544   4.699   1.195  0.2369 -0.7850 -0.0795
 4632SOL    HW125532   2.493   0.012   1.261  1.2520 -0.8486  0.7419
 4632SOL    HW225533   2.601   4.651   1.255  1.6545  0.0606 -0.7697
 4633SOL     OW25534   1.692   3.013   7.490  0.1004  0.4238 -0.2826
 4633SOL    HW125535   1.621   3.044   7.433  2.7839  1.4816 -3.0038
 4633SOL    HW225536   1.737   2.954   7.429 -0.4889 -0.3086 -0.0151
 4634SOL     OW25537   1.959   2.305   8.202  0.6046 -0.1859 -0.2122
 4634SOL    HW125538   1.990   2.310   8.293  0.5813  2.0086 -0.3192
 4634SOL    HW225539   1.966   2.398   8.179  2.3835 -0.5423 -1.1396
 4635SOL     OW25540   0.315   3.805   8.929  0.8870 -0.4368  0.5228
 4635SOL    HW125541   0.371   3.856   8.987  2.0349 -1.5641  0.3982
 4635SOL    HW225542   0.378   3.795   8.857  1.3111  2.5231  0.4978
 4636SOL     OW25543   4.714   1.259   2.812 -0.3821 -0.6961 -0.5830
 4636SOL    HW125544   4.623   1.256   2.782 -0.2336  1.3068 -1.2459
 4636SOL    HW225545   4.727   1.348   2.781 -1.6286 -0.2197  0.2684
 4637SOL     OW25546   1.308   1.259   2.387 -0.6793  0.3501  0.0055
 4637SOL    HW125547   1.359   1.203   2.329  2.1140  0.4354  2.3875
 4637SOL    HW225548   1.364   1.336   2.392 -0.0442 -0.3320  3.3180
 4638SOL     OW25549   4.559   0.773   3.315  0.0572  0.0746  0.3710
 4638SOL    HW125550   4.627   0.777   3.383  1.7417 -0.5822 -1.2838
 4638SOL    HW225551   4.582   0.694   3.267  0.2088 -0.0203  0.6001
 4639SOL     OW25552   2.919   3.816   3.549 -0.4293 -0.0714  0.3113
 4639SOL    HW125553   2.848   3.842   3.608 -1.0351  0.0784 -0.4798
 4639SOL    HW225554   2.986   3.824   3.617 -0.0355  2.0835 -0.3209
 4640SOL     OW25555   0.708   0.516  13.999  0.1500  0.0815 -0.1925
 4640SOL    HW125556   0.640   0.487  14.060 -1.4045  0.3282 -1.7989
 4640SOL    HW225557   0.753   0.579  14.056 -0.1048 -1.6725  1.9598
 4641SOL     OW25558   1.485   3.174   2.233  0.0287 -0.3564 -0.0403
 4641SOL    HW125559   1.492   3.079   2.238 -0.1732 -0.1369  3.9853
 4641SOL    HW225560   1.567   3.211   2.266 -0.6675 -0.1523  1.4298
 4642SOL     OW25561   1.032   3.268  14.730 -0.2485 -0.3377  0.0602
 4642SOL    HW125562   1.075   3.352  14.748 -0.9338 -0.4686  2.2672
 4642SOL    HW225563   1.023   3.229  14.816  0.1971  0.5095  0.4857
 4643SOL     OW25564   2.537   2.406  12.119 -0.0683 -0.1698  0.3646
 4643SOL    HW125565   2.588   2.478  12.156  0.1810  0.9655 -2.2099
 4643SOL    HW225566   2.475   2.450  12.061  0.5124  2.1982  1.5556
 4644SOL     OW25567   3.963   2.335   8.190  0.4049  0.2205  0.1862
 4644SOL    HW125568   3.942   2.286   8.110 -2.6600  1.6263  0.1089
 4644SOL    HW225569   3.899   2.403   8.166  0.4822  0.5414  0.9082
 4645SOL     OW25570   2.453   2.941  10.550  0.5265  0.2628  0.1399
 4645SOL    HW125571   2.480   2.867  10.495  0.5400  0.0812  0.3923
 4645SOL    HW225572   2.439   2.901  10.635  1.8911  0.2719  0.3709
 4646SOL     OW25573   1.405   4.564   4.332  0.1556 -0.5738  0.2790
 4646SOL    HW125574   1.321   4.559   4.286  0.6459 -0.1532 -0.6662
 4646SOL    HW225575   1.423   4.470   4.340  0.3913 -0.2941  2.9195
 4647SOL     OW25576   2.846   2.661  16.923 -0.1321  0.1200 -0.8956
 4647SOL    HW125577   2.819   2.589  16.866  0.0263 -0.9543  0.4033
 4647SOL    HW225578   2.938   2.668  16.897  0.2884  2.0257  1.0254
 4648SOL     OW25579   1.093   4.049   2.334 -0.2785 -0.7274  0.1983
 4648SOL    HW125580   1.085   3.960   2.298 -4.0358 -1.0282  1.7189
 4648SOL    HW225581   1.003   4.082   2.329 -0.2081 -0.1299  3.0218
 4649SOL     OW25582   4.621   0.687  10.271  0.2175 -0.3323  0.0154
 4649SOL    HW125583   4.603   0.649  10.185 -0.4239 -0.3754  0.1705
 4649SOL    HW225584   4.605   0.612  10.328  2.7094 -1.3952 -0.6627
 4650SOL     OW25585   4.723   2.253  12.022  0.8032 -0.5836  0.1279
 4650SOL    HW125586   4.719   2.327  12.083  1.2067  0.5979 -1.2950
 4650SOL    HW225587   4.632   2.253  11.992  1.3761  0.6223 -1.5671
 4651SOL     OW25588   0.862   4.335   3.184  0.2325  0.2225  0.0357
 4651SOL    HW125589   0.914   4.266   3.226 -2.5067 -1.9322 -0.1284
 4651SOL    HW225590   0.892   4.412   3.232  0.7835  0.3360 -0.4824
 4652SOL     OW25591   1.136   1.766   0.512  0.2164  0.1038 -0.2656
 4652SOL    HW125592   1.055   1.813   0.534 -0.1931 -0.4336 -0.6071
 4652SOL    HW225593   1.158   1.727   0.596  0.8909  1.4412  0.1722
 4653SOL     OW25594   4.044   1.650  10.190  0.4845  0.1604 -0.0045
 4653SOL    HW125595   4.002   1.567  10.168  2.5082 -1.1516  1.1139
 4653SOL    HW225596   4.030   1.699  10.109 -1.0405  0.1512  0.2477
 4654SOL     OW25597   0.468   0.896   9.696 -0.0733 -0.4468 -0.3579
 4654SOL    HW125598   0.380   0.902   9.659  0.7272 -1.0395 -2.3778
 4654SOL    HW225599   0.467   0.801   9.712  2.1740 -0.1378  1.7036
 4655SOL     OW25600   0.341   3.942   6.042 -0.4028 -0.2069 -0.0778
 4655SOL    HW125601   0.436   3.950   6.054 -0.6074  2.0258  0.0613
 4655SOL    HW225602   0.321   4.029   6.009 -0.2355  0.3703  1.3450
 4656SOL     OW25603   3.744   0.569   4.697 -0.1366 -0.1733  0.0588
 4656SOL    HW125604   3.765   0.601   4.784 -0.2824  0.0534  0.0098
 4656SOL    HW225605   3.772   0.478   4.688  0.7228  0.0340  0.5983
 4657SOL     OW25606   4.376   2.530  11.990  0.0335 -0.3363  0.6285
 4657SOL    HW125607   4.409   2.620  11.988  1.7822 -1.0653 -1.9081
 4657SOL    HW225608   4.401   2.504  11.902  0.2815  0.7520  0.3825
 4658SOL     OW25609   4.383   2.976   8.066 -0.4399 -0.6281  0.4584
 4658SOL    HW125610   4.382   3.018   8.152 -1.3761  2.2755 -0.9622
 4658SOL    HW225611   4.306   3.012   8.022  0.5185  1.9315  0.8600
 4659SOL     OW25612   1.878   1.364   7.965 -0.1460  0.0131 -0.0146
 4659SOL    HW125613   1.828   1.300   8.015  0.8206 -0.2922  0.5571
 4659SOL    HW225614   1.860   1.448   8.007 -1.6459  0.2226 -1.0859
 4660SOL     OW25615   4.344   2.105  10.982  0.1183 -0.4846 -0.4830
 4660SOL    HW125616   4.414   2.042  10.965  0.5570  0.3086 -1.5983
 4660SOL    HW225617   4.314   2.063  11.063 -0.9961  1.5051  0.1420
 4661SOL     OW25618   2.632   3.997  12.394  0.2089 -0.3167  0.1404
 4661SOL    HW125619   2.662   3.912  12.362  0.7180 -0.2950  0.5518
 4661SOL    HW225620   2.706   4.052  12.369 -0.8391 -0.3297 -2.9816
 4662SOL     OW25621   3.510   4.223   2.658 -0.6793 -0.4343  0.1348
 4662SOL    HW125622   3.520   4.197   2.750 -0.0405 -1.5531 -0.2628
 4662SOL    HW225623   3.585   4.282   2.648 -0.6318 -0.3991  0.6625
 4663SOL     OW25624   4.541   1.991   0.981 -0.2504 -0.1031  0.2533
 4663SOL    HW125625   4.588   2.008   1.062  0.1931  1.0600 -0.2405
 4663SOL    HW225626   4.451   1.998   1.012  0.5445  0.5088  2.4058
 4664SOL     OW25627   0.101   1.350   8.408  0.5645  0.4703  0.7271
 4664SOL    HW125628   0.123   1.362   8.316 -0.2190  0.5569  0.5462
 4664SOL    HW225629   0.036   1.419   8.421 -1.0336 -0.6015 -1.5411
 4665SOL     OW25630   0.335   2.987  17.700 -0.7819 -0.5864 -0.7373
 4665SOL    HW125631   0.255   3.039  17.703 -1.1066 -1.2461  1.4907
 4665SOL    HW225632   0.322   2.948   0.048 -1.1536 -0.0330 -0.5424
 4666SOL     OW25633   2.867   1.644   7.046  0.3471 -0.1252 -0.3147
 4666SOL    HW125634   2.856   1.730   7.003 -1.2091 -0.5979 -0.8657
 4666SOL    HW225635   2.945   1.598   7.015  0.0477 -0.4257 -0.6136
 4667SOL     OW25636   0.247   2.513   2.209 -1.3462  0.0645 -0.1119
 4667SOL    HW125637   0.326   2.485   2.162 -0.3415  2.5131  0.1433
 4667SOL    HW225638   0.181   2.529   2.142  1.4804  1.2364 -2.5931
 4668SOL     OW25639   4.039   1.763   9.942  0.0040  0.0203  0.1172
 4668SOL    HW125640   4.056   1.695   9.878 -0.2397 -0.0058  0.0799
 4668SOL    HW225641   4.087   1.828   9.892 -1.6775  0.1922 -1.2620
 4669SOL     OW25642   2.476   4.022   6.171  0.2751 -0.0689 -0.5390
 4669SOL    HW125643   2.557   4.005   6.219 -0.3963 -2.0832 -0.1356
 4669SOL    HW225644   2.490   4.103   6.122 -0.2816  0.8653  0.8531
 4670SOL     OW25645   2.723   4.086   4.035  0.9917 -0.3123  1.0073
 4670SOL    HW125646   2.795   4.105   3.974 -0.0002 -0.4021 -0.1897
 4670SOL    HW225647   2.766   4.026   4.095 -0.3876 -1.5845  0.7283
 4671SOL     OW25648   0.990   2.455   3.199 -0.3735 -0.2756  0.1526
 4671SOL    HW125649   0.989   2.366   3.164 -0.9287 -0.8144  1.5386
 4671SOL    HW225650   1.082   2.475   3.182 -0.2493  1.0374  2.2823
 4672SOL     OW25651   0.794   2.035   8.468 -0.7262  0.0865 -0.4630
 4672SOL    HW125652   0.759   1.967   8.525  0.3684  0.0850  0.2001
 4672SOL    HW225653   0.817   2.104   8.531 -1.8084  0.7739 -0.8197
 4673SOL     OW25654   2.374   4.155   6.537  0.4647  0.3966 -0.0318
 4673SOL    HW125655   2.302   4.093   6.521 -0.7296  2.5468 -3.0609
 4673SOL    HW225656   2.338   4.192   6.618  1.8563  2.4671 -0.3615
 4674SOL     OW25657   4.204   0.941   1.523  0.3112 -0.5475 -0.0759
 4674SOL    HW125658   4.274   0.876   1.519  1.1159  0.3952 -1.2041
 4674SOL    HW225659   4.126   0.888   1.541  0.6815 -0.4496  1.8283
 4675SOL     OW25660   3.943   1.576   2.437  0.0174  0.1076 -0.0119
 4675SOL    HW125661   3.890   1.501   2.463 -1.2288  0.0417 -2.7588
 4675SOL    HW225662   4.025   1.528   2.426  0.5385  0.9280  0.3220
 4676SOL     OW25663   3.413   4.676  16.765 -0.0411  0.5979  0.2171
 4676SOL    HW125664   3.487   4.664  16.706 -1.3445 -0.1144 -1.2559
 4676SOL    HW225665   3.444   4.631  16.843 -0.4321  1.0389  0.6326
 4677SOL     OW25666   2.893   2.042   0.168  0.1739 -0.0694 -0.1169
 4677SOL    HW125667   2.826   1.979   0.140 -0.8633  1.4018 -0.8859
 4677SOL    HW225668   2.895   2.106   0.097 -0.0550  0.3449  0.2553
 4678SOL     OW25669   1.412   0.365  14.938  0.0395 -0.1384 -0.1124
 4678SOL    HW125670   1.492   0.381  14.890  0.4251  1.8318  1.2084
 4678SOL    HW225671   1.349   0.371  14.867 -1.3762 -0.0132  1.1359
 4679SOL     OW25672   3.454   0.126  17.056 -0.0424  0.6295  0.2203
 4679SOL    HW125673   3.406   0.166  17.129 -0.4296  2.4247 -1.0430
 4679SOL    HW225674   3.494   0.056  17.108  0.4856  1.4786  0.9474
 4680SOL     OW25675   2.806   1.536   8.660 -0.6304  0.8028  0.2547
 4680SOL    HW125676   2.886   1.589   8.661  0.5290 -0.9142 -2.6870
 4680SOL    HW225677   2.811   1.500   8.572 -0.7472  2.5604 -0.4838
 4681SOL     OW25678   2.853   4.431   3.288  0.2226 -0.6761  0.0007
 4681SOL    HW125679   2.789   4.362   3.271 -1.5250  0.9673 -0.0264
 4681SOL    HW225680   2.899   4.395   3.363  2.5938 -0.7565 -1.4935
 4682SOL     OW25681   3.035   1.503   5.005  0.6632  0.1270  0.5919
 4682SOL    HW125682   2.952   1.457   5.015  0.0876  0.9428 -0.3101
 4682SOL    HW225683   3.035   1.559   5.083  0.6601  0.1678  0.5631
 4683SOL     OW25684   2.737   2.790   9.584  0.0627  0.1775  0.2884
 4683SOL    HW125685   2.707   2.824   9.500  1.2324  0.4932  0.0058
 4683SOL    HW225686   2.825   2.757   9.565 -0.6335 -0.1658 -2.2664
 4684SOL     OW25687   4.083   0.914   5.671 -0.1699 -0.1585  0.1545
 4684SOL    HW125688   4.060   0.824   5.650 -2.2642  0.3987  0.1264
 4684SOL    HW225689   4.024   0.967   5.617  0.5508 -2.9911 -3.4721
 4685SOL     OW25690   3.892   0.711   6.425 -0.3904  0.0150  0.4532
 4685SOL    HW125691   3.801   0.703   6.453 -0.6671 -0.9051 -0.6995
 4685SOL    HW225692   3.920   0.655   6.497 -1.7549 -0.9605  0.2184
 4686SOL     OW25693   2.014   4.130   5.909 -0.5133 -0.1529  0.3163
 4686SOL    HW125694   1.990   4.109   5.819  0.9276 -2.1169  0.3662
 4686SOL    HW225695   2.101   4.090   5.912 -0.9257 -1.0766  0.2056
 4687SOL     OW25696   2.898   1.435  15.292  0.0694 -0.4418  0.4725
 4687SOL    HW125697   2.891   1.381  15.371 -2.8084  1.7101  1.7063
 4687SOL    HW225698   2.989   1.463  15.297  0.1244 -0.4722 -0.4136
 4688SOL     OW25699   2.456   2.032   7.654 -0.6628  0.1337  0.2509
 4688SOL    HW125700   2.418   2.088   7.587 -1.0060 -0.2975  0.0819
 4688SOL    HW225701   2.527   1.986   7.608  0.1460  1.1070  0.5399
 4689SOL     OW25702   3.450   2.176   0.426  0.5023 -0.4044 -0.3658
 4689SOL    HW125703   3.518   2.145   0.365  0.6706  2.1406 -1.4650
 4689SOL    HW225704   3.376   2.200   0.370  0.6893  1.6407  0.2699
 4690SOL     OW25705   0.907   1.284  15.685  0.1258  0.4395  0.2467
 4690SOL    HW125706   0.982   1.268  15.742  1.0962  1.8084 -0.6360
 4690SOL    HW225707   0.856   1.205  15.702 -0.1931  0.7890  0.9235
 4691SOL     OW25708   1.460   4.059   2.445  0.0184 -0.3734 -0.2023
 4691SOL    HW125709   1.504   4.053   2.530 -0.1908 -1.1492 -0.1514
 4691SOL    HW225710   1.426   3.971   2.431 -0.6041 -0.2417  0.4528
 4692SOL     OW25711   2.214   0.123   7.992  0.6785  0.7705 -0.1112
 4692SOL    HW125712   2.190   0.211   7.963  1.2772  0.8192 -0.4673
 4692SOL    HW225713   2.237   0.140   8.083 -0.0298  2.7824 -0.2988
 4693SOL     OW25714   4.692   3.678   2.743  0.3810  0.5155 -0.9847
 4693SOL    HW125715   4.684   3.746   2.810  0.5109  1.2072 -1.6697
 4693SOL    HW225716   0.013   3.720   2.678  1.7052  0.2415 -0.0231
 4694SOL     OW25717   2.741   0.424   4.287  0.0792  0.1108 -0.0362
 4694SOL    HW125718   2.713   0.363   4.355 -0.3066  2.6352  2.0996
 4694SOL    HW225719   2.832   0.441   4.312 -0.0523  1.4035 -0.3958
 4695SOL     OW25720   3.371   0.215   7.775  0.3038  0.1347 -0.4658
 4695SOL    HW125721   3.423   0.151   7.824 -1.4496 -2.1488 -1.5211
 4695SOL    HW225722   3.288   0.167   7.765  1.4299 -1.3617 -2.7943
 4696SOL     OW25723   2.140   2.557   6.254 -0.7384 -0.0129 -0.0917
 4696SOL    HW125724   2.152   2.627   6.318 -0.3944 -1.6328  1.6179
 4696SOL    HW225725   2.113   2.601   6.173 -4.0867  0.8588  1.4747
 4697SOL     OW25726   3.532   3.286   4.953  0.3371  0.4850 -0.0864
 4697SOL    HW125727   3.592   3.246   5.016  0.1703 -0.0988 -0.3023
 4697SOL    HW225728   3.449   3.250   4.984  0.5824 -0.3629 -0.4223
 4698SOL     OW25729   4.019   2.682  17.176  0.1329  0.1878 -0.7554
 4698SOL    HW125730   3.952   2.700  17.242  1.5700 -0.3352  0.8507
 4698SOL    HW225731   3.971   2.728  17.107  0.1803  0.9399 -0.2910
 4699SOL     OW25732   2.324   3.102   3.273 -0.0706 -0.0608  0.3904
 4699SOL    HW125733   2.301   3.164   3.342 -0.1739  0.6067 -0.2406
 4699SOL    HW225734   2.261   3.137   3.210  0.6827 -1.0437 -0.8991
 4700SOL     OW25735   2.447   0.208   6.520  0.0243  0.3055 -0.0897
 4700SOL    HW125736   2.496   0.135   6.483  1.0729  1.5884 -1.2618
 4700SOL    HW225737   2.496   0.215   6.603  2.1350 -0.3430 -1.2746
 4701SOL     OW25738   4.537   3.865   3.619  0.1640 -0.1058  0.5015
 4701SOL    HW125739   4.474   3.831   3.555  1.1620  0.1714 -0.6148
 4701SOL    HW225740   4.612   3.811   3.596 -1.4592 -1.7901 -0.7690
 4702SOL     OW25741   3.572   2.933   7.076 -0.0386  0.5933  0.2689
 4702SOL    HW125742   3.516   3.005   7.044 -1.2445 -0.0534  0.9436
 4702SOL    HW225743   3.537   2.852   7.040  2.5145 -1.3114  2.1559
 4703SOL     OW25744   3.838   2.290  14.043 -0.7640  0.2487  0.2877
 4703SOL    HW125745   3.804   2.375  14.014 -3.4149 -1.1916 -0.8336
 4703SOL    HW225746   3.828   2.247  13.958 -1.7077  1.6038 -0.2936
 4704SOL     OW25747   0.354   1.824  15.280 -0.0710 -0.2851 -0.5423
 4704SOL    HW125748   0.372   1.805  15.372 -0.2083  0.2173 -0.4109
 4704SOL    HW225749   0.387   1.742  15.244 -0.2211 -0.0136 -1.3005
 4705SOL     OW25750   2.431   4.213   1.985  0.1860  0.6229 -0.3424
 4705SOL    HW125751   2.455   4.270   1.912 -1.5951  3.1493  1.0176
 4705SOL    HW225752   2.365   4.156   1.947  0.6575  0.3459 -0.7305
 4706SOL     OW25753   4.225   4.026   3.557  0.1316 -0.0013 -0.2563
 4706SOL    HW125754   4.240   4.105   3.505 -0.9117  0.6990  0.5036
 4706SOL    HW225755   4.270   4.050   3.638 -0.6945 -0.7463  0.4159
 4707SOL     OW25756   0.677   3.132   2.570 -0.3963  0.1191 -0.1515
 4707SOL    HW125757   0.714   3.123   2.658 -2.9437  3.8615  1.3030
 4707SOL    HW225758   0.582   3.126   2.581 -0.1381 -0.1955  1.8764
 4708SOL     OW25759   3.993   3.542  17.363  0.4754  0.1492 -0.5010
 4708SOL    HW125760   3.983   3.607  17.293 -0.5242  1.2136  0.6440
 4708SOL    HW225761   3.989   3.455  17.323 -0.9674  1.0008 -2.2522
 4709SOL     OW25762   3.608   1.418   3.855  0.3034  0.1997 -0.2959
 4709SOL    HW125763   3.608   1.355   3.927  2.4957  0.0869 -0.3836
 4709SOL    HW225764   3.701   1.424   3.831  0.3582 -1.9486 -0.5827
 4710SOL     OW25765   0.219   0.979   4.862 -0.1373  0.0780 -0.0288
 4710SOL    HW125766   0.248   0.919   4.930  0.6758  0.1231 -0.3388
 4710SOL    HW225767   0.155   1.036   4.906 -0.4415  0.0262 -0.4052
 4711SOL     OW25768   2.277   0.046  13.917  0.1223 -0.6090 -0.3249
 4711SOL    HW125769   2.257   4.724  13.991 -0.5850  0.4902  0.3314
 4711SOL    HW225770   2.286   4.723  13.841  0.5029  0.6858 -1.2709
 4712SOL     OW25771   3.466   0.371   9.231 -0.0048  0.4756 -0.4014
 4712SOL    HW125772   3.400   0.357   9.164 -0.4061  0.1697  0.0597
 4712SOL    HW225773   3.543   0.379   9.174 -0.2582  1.7632 -0.5677
 4713SOL     OW25774   0.201   2.503  16.802  0.5026 -0.1240 -0.2091
 4713SOL    HW125775   0.269   2.460  16.750  0.8661  1.6325 -1.2088
 4713SOL    HW225776   0.218   2.479  16.893  0.2939 -1.4704 -0.5313
 4714SOL     OW25777   0.472   0.825   4.675 -0.3599 -0.2868  0.0739
 4714SOL    HW125778   0.561   0.848   4.700 -0.4593 -1.9176  1.9586
 4714SOL    HW225779   0.482   0.821   4.580  0.1137 -4.0925  0.2922
 4715SOL     OW25780   4.444   4.284   0.816 -0.1892 -0.6240  0.2442
 4715SOL    HW125781   4.517   4.320   0.867 -1.1999  1.1897  0.4337
 4715SOL    HW225782   4.373   4.287   0.881 -0.2720  2.4952  0.0537
 4716SOL     OW25783   2.856   1.134  13.662 -0.2713  0.0597 -0.4424
 4716SOL    HW125784   2.809   1.075  13.719 -0.1859 -0.5998 -1.0554
 4716SOL    HW225785   2.784   1.192  13.637  0.2083  1.1958  0.8261
 4717SOL     OW25786   2.549   2.019   5.411 -0.2339  0.5364 -0.3912
 4717SOL    HW125787   2.624   2.046   5.464 -1.1525 -1.3103  1.8566
 4717SOL    HW225788   2.587   1.938   5.377 -0.6270  0.3882 -0.4698
 4718SOL     OW25789   2.124   3.446   6.426 -0.6352  0.1987 -0.5536
 4718SOL    HW125790   2.059   3.509   6.393 -1.3182 -0.6446 -0.8269
 4718SOL    HW225791   2.064   3.382   6.466  0.5145 -0.3764  0.2381
 4719SOL     OW25792   3.468   1.863   4.272 -0.1775  0.2008  0.0923
 4719SOL    HW125793   3.499   1.858   4.182 -0.2336 -1.3191  0.1619
 4719SOL    HW225794   3.419   1.782   4.282  0.3626 -0.1309  0.0634
 4720SOL     OW25795   0.507   0.434   3.769 -0.0014 -0.1603  0.1401
 4720SOL    HW125796   0.422   0.467   3.799  1.3268  1.6399  1.9808
 4720SOL    HW225797   0.563   0.505   3.802  0.2814  0.2062 -1.1460
 4721SOL     OW25798   0.600   4.140   8.068 -0.4019  0.6603 -0.3231
 4721SOL    HW125799   0.559   4.176   7.990 -0.5537 -0.0044 -0.5555
 4721SOL    HW225800   0.686   4.147   8.027  0.1847  0.7130  0.8967
 4722SOL     OW25801   0.218   0.408   4.132  0.0536 -0.3856  0.1349
 4722SOL    HW125802   0.224   0.401   4.227  0.8303  2.5407  0.3042
 4722SOL    HW225803   0.311   0.411   4.109 -0.2753 -1.2956 -1.3509
 4723SOL     OW25804   3.609   2.600   5.485  0.3309  0.3940  0.2499
 4723SOL    HW125805   3.643   2.517   5.453  1.3372  0.5725  0.8514
 4723SOL    HW225806   3.639   2.661   5.418 -1.4625  0.8056 -0.1670
 4724SOL     OW25807   1.846   0.040   1.738 -0.3744 -0.1548 -0.1997
 4724SOL    HW125808   1.799   4.713   1.794 -0.0968  0.0162  0.2233
 4724SOL    HW225809   1.923   0.054   1.793 -0.5748  0.2083 -0.0045
 4725SOL     OW25810   0.384   4.434   3.744  0.1319 -0.1483  0.0685
 4725SOL    HW125811   0.386   4.370   3.673 -2.4323 -2.8268  2.4231
 4725SOL    HW225812   0.377   4.373   3.818 -2.0555 -0.9427 -0.8067
 4726SOL     OW25813   2.884   2.305  16.933 -0.4785 -0.5075 -0.1592
 4726SOL    HW125814   2.937   2.326  17.010 -0.8122  2.0294 -0.6132
 4726SOL    HW225815   2.851   2.222  16.965  4.0205 -1.8898  0.9009
 4727SOL     OW25816   3.983   2.986   7.726 -0.3078 -0.1197 -0.1144
 4727SOL    HW125817   4.072   2.973   7.759 -0.2134  2.7286  0.7603
 4727SOL    HW225818   3.997   3.056   7.662 -0.0414  0.2323  0.3293
 4728SOL     OW25819   1.183   3.973   7.007  0.4919 -0.3324  0.3390
 4728SOL    HW125820   1.162   4.032   6.936  1.6512  0.9500  1.0669
 4728SOL    HW225821   1.113   3.909   6.994  0.6638 -0.1660 -1.3301
 4729SOL     OW25822   2.193   3.933   6.832  0.0145  0.0327  0.0044
 4729SOL    HW125823   2.116   3.951   6.779  1.0889  0.8433 -1.2998
 4729SOL    HW225824   2.175   3.997   6.901 -0.1306 -0.4044  0.3648
 4730SOL     OW25825   3.352   1.662   9.567  0.4629  0.4497 -0.2999
 4730SOL    HW125826   3.397   1.677   9.650  0.4486  0.6211 -0.3232
 4730SOL    HW225827   3.261   1.680   9.589  0.9966  1.6461  0.9250
 4731SOL     OW25828   4.124   2.945   5.550 -0.3111  0.1333 -1.1327
 4731SOL    HW125829   4.118   2.956   5.455 -1.1920  0.7466 -1.0067
 4731SOL    HW225830   4.087   3.032   5.566 -0.6410  0.2128 -2.3442
 4732SOL     OW25831   3.989   2.221  17.595  0.3811  0.4946  0.7981
 4732SOL    HW125832   3.908   2.270  17.584 -1.3231 -3.0112 -2.4958
 4732SOL    HW225833   4.027   2.236  17.509 -0.3901 -3.3813 -0.2193
 4733SOL     OW25834   1.519   4.098  13.034 -0.0616 -0.3280 -0.1892
 4733SOL    HW125835   1.430   4.114  13.001 -0.2695  0.0173  0.5221
 4733SOL    HW225836   1.534   4.185  13.072 -0.2545  0.0387 -0.9373
 4734SOL     OW25837   0.655   4.027   8.582 -0.3893  0.5375 -0.1672
 4734SOL    HW125838   0.635   4.116   8.612  0.8804 -0.1184  2.6263
 4734SOL    HW225839   0.616   4.032   8.495 -0.4889  2.3300 -0.0308
 4735SOL     OW25840   1.263   1.790  10.952 -0.3031  0.4289 -1.0101
 4735SOL    HW125841   1.327   1.852  10.985 -3.2381  3.0828 -0.3611
 4735SOL    HW225842   1.305   1.705  10.967 -3.0651 -1.3975 -3.3796
 4736SOL     OW25843   4.337   3.591   1.569  0.4090  0.1606  0.4658
 4736SOL    HW125844   4.281   3.664   1.596 -0.8553 -1.4928  2.2942
 4736SOL    HW225845   4.399   3.644   1.518 -1.5210  0.3564 -1.6735
 4737SOL     OW25846   1.847   2.903   3.671 -0.0430 -0.2405  0.3936
 4737SOL    HW125847   1.888   2.817   3.681  0.1157 -0.2363 -0.2143
 4737SOL    HW225848   1.793   2.880   3.596 -0.2930 -0.5637  0.6720
 4738SOL     OW25849   3.922   2.231   7.928 -0.0881 -0.3554 -0.5133
 4738SOL    HW125850   3.999   2.194   7.886  0.5371  1.0593 -0.6182
 4738SOL    HW225851   3.868   2.241   7.849  1.6200 -1.6145 -1.8217
 4739SOL     OW25852   0.851   3.565   2.383 -0.3265 -0.3957 -0.0763
 4739SOL    HW125853   0.808   3.480   2.382 -0.0821 -0.5231  0.1220
 4739SOL    HW225854   0.830   3.596   2.294 -3.0589 -0.8363  0.4161
 4740SOL     OW25855   2.328   4.034   1.743 -0.3499 -0.0425  0.3917
 4740SOL    HW125856   2.259   4.091   1.711 -1.9387 -1.6125  1.0284
 4740SOL    HW225857   2.361   3.989   1.665 -0.2052 -0.8208  0.8980
 4741SOL     OW25858   3.183   0.524   2.862  0.2153 -0.0908  0.4815
 4741SOL    HW125859   3.212   0.569   2.941  2.3637  1.5266 -1.2252
 4741SOL    HW225860   3.252   0.458   2.850 -0.1183 -0.8524  2.7238
 4742SOL     OW25861   1.416   0.318   6.666 -0.0215 -0.3075  0.5411
 4742SOL    HW125862   1.495   0.267   6.649  1.4831  1.9592  0.9395
 4742SOL    HW225863   1.411   0.325   6.761  1.1787  0.2063  0.5614
 4743SOL     OW25864   2.481   1.747   5.256 -0.0417  0.5764  0.0943
 4743SOL    HW125865   2.418   1.805   5.214 -1.0818 -1.4479 -1.1374
 4743SOL    HW225866   2.504   1.693   5.180 -1.1747  0.2143  0.0185
 4744SOL     OW25867   3.817   3.420  13.224  0.7407 -0.1595 -0.3543
 4744SOL    HW125868   3.735   3.372  13.212  0.0264  0.0997  3.5000
 4744SOL    HW225869   3.873   3.371  13.285  0.1080  0.3795  0.6561
 4745SOL     OW25870   1.456   2.404   1.606 -0.5516  0.4700  0.5925
 4745SOL    HW125871   1.526   2.465   1.583 -0.5587  0.0277 -0.5930
 4745SOL    HW225872   1.485   2.321   1.568 -1.6912  0.0280  0.6936
 4746SOL     OW25873   0.717   3.340   2.369  0.1310 -0.1608  0.2864
 4746SOL    HW125874   0.728   3.270   2.433  0.2920  0.3681  0.8435
 4746SOL    HW225875   0.626   3.335   2.340  1.0241 -1.8582 -2.2361
 4747SOL     OW25876   4.019   2.484   3.971  0.2884 -0.1281  0.4583
 4747SOL    HW125877   4.023   2.519   3.882  1.4652  1.1349  1.0066
 4747SOL    HW225878   4.106   2.513   3.996 -0.2463 -0.2143  2.3875
 4748SOL     OW25879   2.600   4.052   7.405  0.4096 -0.3825  0.1890
 4748SOL    HW125880   2.532   3.987   7.423 -0.8041  0.6454 -0.7355
 4748SOL    HW225881   2.656   4.023   7.478  2.0964  1.1097 -0.5178
 4749SOL     OW25882   3.702   2.372  12.516 -0.0048  0.3834 -0.3115
 4749SOL    HW125883   3.630   2.350  12.574  0.0473 -0.0801 -0.4222
 4749SOL    HW225884   3.653   2.434  12.461  1.3164  2.5392  0.9351
 4750SOL     OW25885   2.485   2.196   3.886  0.4596  0.3714 -0.0687
 4750SOL    HW125886   2.550   2.231   3.825 -2.2651  0.2021 -3.0525
 4750SOL    HW225887   2.544   2.168   3.955  0.4420 -0.6374 -0.4709
 4751SOL     OW25888   1.516   3.509   6.813 -0.9611 -0.1392  0.4635
 4751SOL    HW125889   1.586   3.516   6.878  0.5162 -1.3220 -1.0270
 4751SOL    HW225890   1.499   3.601   6.792  1.3029  0.3818  0.9583
 4752SOL     OW25891   0.384   3.485  14.387 -1.0316  0.0139 -0.5149
 4752SOL    HW125892   0.296   3.457  14.359 -0.2565 -1.5418 -1.4506
 4752SOL    HW225893   0.430   3.472  14.304 -0.3984  1.6855 -0.4166
 4753SOL     OW25894   2.773   4.545   6.405 -0.0232  0.1326  1.1589
 4753SOL    HW125895   2.831   4.553   6.330 -0.7775 -1.0924  0.4268
 4753SOL    HW225896   2.825   4.475   6.445 -1.0472 -1.9626 -1.1971
 4754SOL     OW25897   0.515   0.855   3.185 -0.0070 -0.3891  0.2540
 4754SOL    HW125898   0.452   0.810   3.241 -1.7526 -0.8166 -2.0471
 4754SOL    HW225899   0.598   0.813   3.206  0.7096 -0.1321 -2.0538
 4755SOL     OW25900   2.207   2.088   4.181  0.7420 -0.3940 -0.5165
 4755SOL    HW125901   2.222   2.167   4.129  0.5678  0.0751  0.1417
 4755SOL    HW225902   2.170   2.129   4.259 -1.6393  0.7230 -2.2250
 4756SOL     OW25903   0.007   0.902   9.691 -0.1838 -0.0669  0.0121
 4756SOL    HW125904   0.033   0.964   9.759 -1.2410  0.2463  0.1410
 4756SOL    HW225905   4.659   0.933   9.653  0.2935  1.7110  0.4290
 4757SOL     OW25906   2.479   3.260  15.604  0.0655 -0.3228  0.2552
 4757SOL    HW125907   2.514   3.304  15.527  1.7028  1.7292  2.1588
 4757SOL    HW225908   2.428   3.331  15.643  0.0433 -0.4149  0.3945
 4758SOL     OW25909   4.301   1.192   1.193  0.0951  0.4055 -0.2118
 4758SOL    HW125910   4.260   1.267   1.151 -0.7977  0.4774  0.7903
 4758SOL    HW225911   4.361   1.174   1.120  0.2867  1.1801 -0.2389
 4759SOL     OW25912   1.208   1.172  13.137  0.0918  0.8746  0.2881
 4759SOL    HW125913   1.266   1.106  13.176 -0.7537  0.3903  0.7356
 4759SOL    HW225914   1.227   1.235  13.207 -3.4486  2.4912 -0.1888
 4760SOL     OW25915   0.847   1.406   6.945 -0.2986  0.2296 -0.3361
 4760SOL    HW125916   0.868   1.490   6.905 -0.6359  1.2461  1.6654
 4760SOL    HW225917   0.771   1.363   6.906 -0.5681  0.9166 -0.5681
 4761SOL     OW25918   1.223   0.558  15.036  0.1521  0.3321  0.1661
 4761SOL    HW125919   1.256   0.637  14.993  1.4480 -0.1741  0.2426
 4761SOL    HW225920   1.286   0.488  15.019  0.1965 -0.0279  1.7829
 4762SOL     OW25921   4.327   0.764  15.469  0.1705 -0.5184 -0.0867
 4762SOL    HW125922   4.398   0.767  15.405  1.9573  0.9863  1.9456
 4762SOL    HW225923   4.252   0.777  15.411 -0.0648  0.2628  0.3889
 4763SOL     OW25924   0.734   1.480   0.163 -0.6470 -0.6654  0.3945
 4763SOL    HW125925   0.713   1.567   0.131  0.7205  0.2555  2.0257
 4763SOL    HW225926   0.645   1.451   0.185 -0.6409 -1.3521 -0.4839
 4764SOL     OW25927   0.026   0.599   2.218  0.3973 -0.0217 -0.0757
 4764SOL    HW125928   0.014   0.511   2.252  1.0483  0.3729  1.2184
 4764SOL    HW225929   0.009   0.656   2.293  1.2292 -0.7656  0.6725
 4765SOL     OW25930   0.604   2.310  15.299  0.1276  0.0343 -0.2093
 4765SOL    HW125931   0.532   2.271  15.349 -0.3410  2.0025  0.6627
 4765SOL    HW225932   0.629   2.240  15.239 -0.8604  0.2790 -0.9162
 4766SOL     OW25933   1.490   3.638   3.310 -0.1925  0.3342  0.5296
 4766SOL    HW125934   1.404   3.602   3.287  0.4511 -1.7894  1.4628
 4766SOL    HW225935   1.466   3.730   3.311 -2.7880 -0.3393  0.6275
 4767SOL     OW25936   2.305   3.461  15.695  0.0476  0.1397  0.2761
 4767SOL    HW125937   2.228   3.500  15.655  0.1740 -0.7592 -0.8408
 4767SOL    HW225938   2.288   3.442  15.787 -1.8196  0.8572  0.0697
 4768SOL     OW25939   1.789   4.577   9.439 -0.1024 -0.0337 -0.7432
 4768SOL    HW125940   1.804   4.595   9.347  2.3116 -0.0987 -0.3504
 4768SOL    HW225941   1.824   4.652   9.487 -0.3813 -0.4551  0.1298
 4769SOL     OW25942   4.082   4.151   9.380 -0.0233  0.1967  0.5575
 4769SOL    HW125943   3.992   4.181   9.367 -0.5769 -1.3521  0.8679
 4769SOL    HW225944   4.108   4.109   9.298  1.7494  1.5226  0.4325
 4770SOL     OW25945   4.669   1.699   8.094 -0.1115 -0.9090  0.0682
 4770SOL    HW125946   4.587   1.747   8.090  0.3668 -0.1235 -0.3255
 4770SOL    HW225947   4.728   1.774   8.095 -1.3894  0.0533  1.9195
 4771SOL     OW25948   3.219   2.104   1.887  0.1443  0.0750 -0.3515
 4771SOL    HW125949   3.153   2.125   1.953  1.3433 -0.6609  1.0666
 4771SOL    HW225950   3.165   2.047   1.833 -1.8455  0.6912  0.9844
 4772SOL     OW25951   3.423   3.894   8.267 -0.4666  0.2156 -0.2199
 4772SOL    HW125952   3.331   3.882   8.245 -1.0249  0.4855  1.9457
 4772SOL    HW225953   3.421   3.911   8.361 -1.7365  0.5644 -0.3123
 4773SOL     OW25954   0.774   2.905  11.314  0.0170  0.5803 -0.1551
 4773SOL    HW125955   0.861   2.879  11.284 -0.9578 -0.0605 -2.4496
 4773SOL    HW225956   0.725   2.842  11.261  0.5006  0.1337 -0.0643
 4774SOL     OW25957   0.160   2.261   4.249  0.0108  0.3160 -0.8068
 4774SOL    HW125958   0.207   2.337   4.215 -0.3233  0.3012 -1.2988
 4774SOL    HW225959   0.230   2.212   4.292  1.0745  0.3510 -2.4671
 4775SOL     OW25960   2.609   0.018  17.305  0.0767  0.3166  0.0297
 4775SOL    HW125961   2.629   0.083  17.372 -0.2157 -0.7954  1.1917
 4775SOL    HW225962   2.642   0.060  17.226  0.7171 -3.2478 -1.6143
 4776SOL     OW25963   2.912   1.771   3.439 -0.0784  0.2877  0.0331
 4776SOL    HW125964   2.825   1.808   3.456 -0.7257 -1.2121  0.0080
 4776SOL    HW225965   2.910   1.680   3.469  0.6727  0.4699  0.6458
 4777SOL     OW25966   0.941   4.528   3.379 -0.4833  0.0045  0.8820
 4777SOL    HW125967   0.934   4.596   3.312  0.3121 -2.4476 -1.6781
 4777SOL    HW225968   1.032   4.533   3.410 -0.0304 -0.3124 -0.3963
 4778SOL     OW25969   3.500   4.213  16.652 -0.3839 -0.0785  0.2099
 4778SOL    HW125970   3.546   4.264  16.719 -1.0653  0.4218  0.3034
 4778SOL    HW225971   3.415   4.256  16.664  0.1707  0.7348  1.2580
 4779SOL     OW25972   0.948   1.387   6.648  0.4352  0.5043  0.6603
 4779SOL    HW125973   0.928   1.473   6.685  2.2880  0.3116  2.0598
 4779SOL    HW225974   1.023   1.356   6.698  0.0643 -0.6617  0.5058
 4780SOL     OW25975   3.669   1.622  14.392  0.3429  0.1779  0.6324
 4780SOL    HW125976   3.737   1.562  14.422  0.4470 -0.5447 -1.0647
 4780SOL    HW225977   3.625   1.635  14.476 -0.6646 -0.4892  0.2114
 4781SOL     OW25978   4.081   2.498   3.009 -0.0782 -0.3142 -0.3066
 4781SOL    HW125979   4.167   2.526   3.042 -0.3780 -0.0849  0.2824
 4781SOL    HW225980   4.023   2.543   3.070  0.9730  1.8213 -0.8782
 4782SOL     OW25981   3.474   0.523   4.774 -0.3161 -0.1165 -0.2993
 4782SOL    HW125982   3.514   0.441   4.804  0.0875 -0.0211 -0.5756
 4782SOL    HW225983   3.556   0.562   4.745 -0.1255 -1.6006 -1.7457
 4783SOL     OW25984   2.703   0.795   3.015  0.0413 -0.9332 -0.4095
 4783SOL    HW125985   2.787   0.763   2.983  0.8570 -0.8537  1.6432
 4783SOL    HW225986   2.730   0.885   3.033  1.1456 -1.3337 -0.0743
 4784SOL     OW25987   1.609   2.836  14.542  0.2522 -0.3455 -0.4577
 4784SOL    HW125988   1.513   2.843  14.542  0.3326  0.8131 -1.0870
 4784SOL    HW225989   1.625   2.815  14.634 -0.5039 -1.9604 -0.6952
 4785SOL     OW25990   2.357   0.064   9.665  0.6579 -0.5590  0.3026
 4785SOL    HW125991   2.322   0.012   9.738  1.1537  0.1968  1.0823
 4785SOL    HW225992   2.385   0.145   9.708  0.4810 -0.6750  0.6444
 4786SOL     OW25993   0.912   0.755   6.692 -0.5595 -0.5220  0.1604
 4786SOL    HW125994   0.998   0.787   6.717 -0.3485 -1.3597  0.5394
 4786SOL    HW225995   0.863   0.750   6.775  0.4064  2.4969  0.8927
 4787SOL     OW25996   0.616   3.567  17.080  0.2178 -0.3309 -0.7049
 4787SOL    HW125997   0.622   3.662  17.080  0.4176 -0.3402 -0.2461
 4787SOL    HW225998   0.707   3.553  17.056  0.9095  1.1804  1.0704
 4788SOL     OW25999   3.238   4.460   6.036  0.5355 -0.0329 -0.0966
 4788SOL    HW126000   3.277   4.487   6.119  1.8108  2.5971 -1.5399
 4788SOL    HW226001   3.205   4.377   6.068 -2.0579  0.6712 -0.9277
 4789SOL     OW26002   0.102   0.779   7.335 -0.4032 -0.1605 -0.9487
 4789SOL    HW126003   0.138   0.815   7.416  0.7309 -2.4777 -0.4374
 4789SOL    HW226004   0.153   0.699   7.325 -2.0061 -1.2070 -0.6379
 4790SOL     OW26005   4.153   4.461   7.082  0.0384  0.3203  0.0102
 4790SOL    HW126006   4.159   4.552   7.110  1.1422  0.4435 -0.6040
 4790SOL    HW226007   4.059   4.459   7.063  0.3601 -0.2108 -1.5752
 4791SOL     OW26008   0.461   2.689   7.622 -0.0246  0.5832  0.0275
 4791SOL    HW126009   0.420   2.762   7.576  2.5701  0.4426 -2.4929
 4791SOL    HW226010   0.422   2.705   7.708 -2.1343 -0.9890 -0.6319
 4792SOL     OW26011   3.438   4.517   2.701  0.1027  0.0889  0.4590
 4792SOL    HW126012   3.403   4.428   2.703  1.4392 -0.4449 -0.4313
 4792SOL    HW226013   3.533   4.508   2.698  0.2500  1.7515 -0.2257
 4793SOL     OW26014   4.651   0.413   1.704  0.7795 -0.1527  0.0123
 4793SOL    HW126015   4.600   0.490   1.679 -0.0462 -1.2034 -1.5576
 4793SOL    HW226016   0.005   0.446   1.688  0.0567  0.8146 -1.9716
 4794SOL     OW26017   4.135   3.030   5.273  0.6148 -0.0265 -0.7593
 4794SOL    HW126018   4.070   3.098   5.258  0.3619 -0.0957  0.0085
 4794SOL    HW226019   4.210   3.066   5.225  1.4029 -0.5741  0.0461
 4795SOL     OW26020   3.775   2.185   3.114 -0.0969  0.3356 -0.1896
 4795SOL    HW126021   3.838   2.256   3.104 -0.5060  0.8089  0.6315
 4795SOL    HW226022   3.712   2.214   3.179  0.0074 -2.0168  0.9613
 4796SOL     OW26023   3.064   1.442   5.542 -0.1057 -0.1027  0.1887
 4796SOL    HW126024   3.026   1.365   5.584 -1.8002 -0.1714 -1.4520
 4796SOL    HW226025   3.097   1.486   5.621  0.4607  0.4049 -0.3353
 4797SOL     OW26026   1.142   4.732   8.876  0.2190 -0.3984 -0.3553
 4797SOL    HW126027   1.082   4.712   8.948 -0.3834  0.2611 -0.6752
 4797SOL    HW226028   1.115   4.661   8.819 -0.2715  0.3675 -1.0800
 4798SOL     OW26029   4.416   0.553   8.724 -0.1084 -0.5956 -0.2269
 4798SOL    HW126030   4.352   0.535   8.656  0.9290 -1.1742 -1.0465
 4798SOL    HW226031   4.401   0.646   8.743 -0.3224 -0.5423 -0.6760
 4799SOL     OW26032   2.151   3.327   8.629 -0.4498  0.1851  0.2935
 4799SOL    HW126033   2.192   3.368   8.553 -1.4684  2.4107  0.9502
 4799SOL    HW226034   2.154   3.234   8.606  0.2205  0.6636 -1.6054
 4800SOL     OW26035   3.407   1.062  17.590  0.3721  0.1451  0.5136
 4800SOL    HW126036   3.324   1.025  17.619 -0.6385 -0.3476 -2.9749
 4800SOL    HW226037   3.432   0.988  17.535 -0.5694 -0.3973  0.8129
 4801SOL     OW26038   4.036   0.442   3.119  0.3008  0.2216  0.1392
 4801SOL    HW126039   4.083   0.519   3.152  0.0128  0.1788  0.6457
 4801SOL    HW226040   4.110   0.388   3.091  0.4673 -0.6667  2.2952
 4802SOL     OW26041   0.743   1.534  12.979  0.3566 -0.2220 -0.0514
 4802SOL    HW126042   0.793   1.601  13.026 -1.3316 -0.2640  1.7776
 4802SOL    HW226043   0.813   1.476  12.949 -0.9625 -1.3385 -0.9863
 4803SOL     OW26044   1.062   4.565  14.832 -0.8175 -0.3891  0.2799
 4803SOL    HW126045   1.148   4.524  14.822 -0.8874 -0.9556  2.0183
 4803SOL    HW226046   1.051   4.596  14.742  0.5731 -1.5042 -0.2614
 4804SOL     OW26047   0.701   1.165   0.724  0.0176 -0.3230  0.1101
 4804SOL    HW126048   0.648   1.125   0.655 -1.2601 -1.7858  1.9507
 4804SOL    HW226049   0.715   1.253   0.689  0.2824  0.0952  1.3010
 4805SOL     OW26050   0.003   2.080   3.951  0.1642  0.1655 -0.6544
 4805SOL    HW126051   4.709   1.993   3.921 -0.0151 -0.5742  1.6553
 4805SOL    HW226052   0.074   2.046   4.005  0.9466 -0.4351 -2.0602
 4806SOL     OW26053   3.417   1.168   3.489  0.0027 -0.2647 -0.3544
 4806SOL    HW126054   3.447   1.253   3.458 -1.2611  0.8629  1.5634
 4806SOL    HW226055   3.398   1.186   3.581  0.3990  0.1789 -0.3613
 4807SOL     OW26056   3.617   4.299  16.883 -0.1970 -0.6782  0.0551
 4807SOL    HW126057   3.624   4.267  16.972  2.5107  1.5217  0.6432
 4807SOL    HW226058   3.595   4.390  16.901  2.1273  0.3777 -2.3563
 4808SOL     OW26059   2.726   4.008   6.317 -0.6907 -0.4265  0.2827
 4808SOL    HW126060   2.672   4.003   6.396  1.4332  1.0860  1.8210
 4808SOL    HW226061   2.785   3.936   6.338 -0.0097 -0.4446 -1.6543
 4809SOL     OW26062   3.060   2.850  13.318 -0.2255  0.5748  0.3341
 4809SOL    HW126063   3.027   2.924  13.268 -2.8292 -0.5789  0.3549
 4809SOL    HW226064   3.147   2.880  13.345  1.4600 -2.0726 -2.0607
 4810SOL     OW26065   0.481   3.863   5.789 -0.2488 -0.0053  0.2050
 4810SOL    HW126066   0.567   3.824   5.805 -0.2995  0.3935  1.4453
 4810SOL    HW226067   0.442   3.832   5.871  0.6255  0.2631  0.7240
 4811SOL     OW26068   0.431   0.269   3.543  0.3253  0.9274  0.5015
 4811SOL    HW126069   0.514   0.244   3.503  1.2716  1.1805  2.3249
 4811SOL    HW226070   0.464   0.329   3.610 -0.9616  1.0808  0.9955
 4812SOL     OW26071   2.418   4.013   8.008  0.2283  0.4012 -0.1636
 4812SOL    HW126072   2.490   4.067   8.041 -1.3174  0.7301  2.7184
 4812SOL    HW226073   2.472   3.956   7.954 -0.7668  1.6925 -2.5280
 4813SOL     OW26074   0.811   0.965   5.004 -0.2362  0.0534  0.7676
 4813SOL    HW126075   0.906   0.955   5.005  0.0153  2.1708 -2.7959
 4813SOL    HW226076   0.788   0.930   5.090  0.6350  0.4057  1.1471
 4814SOL     OW26077   3.146   0.325   9.156  0.2035  0.0297  0.0196
 4814SOL    HW126078   3.087   0.249   9.159  0.7932 -0.4222  0.0096
 4814SOL    HW226079   3.223   0.281   9.120  0.8748  0.3518  1.1037
 4815SOL     OW26080   4.341   3.240   6.811  0.0523 -0.0339  0.3441
 4815SOL    HW126081   4.322   3.297   6.736 -0.2854  0.2245  0.6275
 4815SOL    HW226082   4.436   3.254   6.815  0.3328 -2.3264  1.5893
 4816SOL     OW26083   3.104   3.478   7.248 -0.1800  0.2757  0.0966
 4816SOL    HW126084   3.063   3.394   7.228  1.4347 -0.0167 -1.9285
 4816SOL    HW226085   3.038   3.532   7.204  0.3324 -0.2104 -1.2918
 4817SOL     OW26086   1.237   2.536  15.134 -0.0321  0.0429 -0.4784
 4817SOL    HW126087   1.272   2.587  15.061  0.6967  0.9626  0.5151
 4817SOL    HW226088   1.278   2.592  15.200  2.2803  0.0930 -1.9579
 4818SOL     OW26089   2.843   0.335   3.903 -0.4041 -0.4215 -0.0232
 4818SOL    HW126090   2.821   0.408   3.962  1.7352 -1.3907  1.9880
 4818SOL    HW226091   2.777   0.360   3.839 -1.3559 -0.6023  0.8820
 4819SOL     OW26092   4.324   2.090  16.923  0.3105  0.8705  0.1527
 4819SOL    HW126093   4.264   2.098  16.997  0.9910  1.3881  0.6545
 4819SOL    HW226094   4.384   2.165  16.925  0.4251  0.7819  0.0173
 4820SOL     OW26095   3.093   0.976   8.154 -0.1726  0.1690 -0.1891
 4820SOL    HW126096   3.137   0.975   8.239  1.3296 -0.8990 -0.9793
 4820SOL    HW226097   3.080   0.883   8.135  1.7561  0.4544 -2.9553
 4821SOL     OW26098   3.626   3.801  16.784  0.6178  0.1517  0.3767
 4821SOL    HW126099   3.585   3.838  16.862 -0.2358 -1.1768  0.5691
 4821SOL    HW226100   3.669   3.879  16.750 -1.1585  0.1791 -1.7559
 4822SOL     OW26101   1.236   0.289   7.461 -0.1517 -0.3107  0.0819
 4822SOL    HW126102   1.241   0.234   7.539  1.8173  1.8266  1.4689
 4822SOL    HW226103   1.256   0.378   7.490 -1.5352 -0.1555  0.5400
 4823SOL     OW26104   2.221   3.981  15.491  0.3732  0.5321  0.0392
 4823SOL    HW126105   2.132   3.945  15.487 -0.0563  1.4867  1.1107
 4823SOL    HW226106   2.227   4.020  15.578 -1.5423 -1.3562  1.0090
 4824SOL     OW26107   3.022   1.100   8.783 -0.1056  0.2637  0.1134
 4824SOL    HW126108   3.037   1.122   8.691 -2.1958 -1.3962 -0.6144
 4824SOL    HW226109   3.038   1.006   8.784 -2.2846 -0.1196 -1.2572
 4825SOL     OW26110   0.707   4.644   1.481 -0.3191 -0.4733  0.4420
 4825SOL    HW126111   0.738   4.658   1.391 -0.8428 -0.5335  0.2519
 4825SOL    HW226112   0.687   4.734   1.504  2.0120 -0.3135  1.8322
 4826SOL     OW26113   3.772   1.479   8.718 -0.1311  0.1486  0.3334
 4826SOL    HW126114   3.698   1.539   8.735 -1.1461 -0.4161 -2.0778
 4826SOL    HW226115   3.772   1.429   8.799 -0.9395  0.9895  0.8628
 4827SOL     OW26116   1.644   1.547   4.934 -0.1719  0.1762 -0.0507
 4827SOL    HW126117   1.619   1.508   4.850 -0.7640 -1.1183  0.7131
 4827SOL    HW226118   1.588   1.624   4.927  1.7935  1.6920  0.9450
 4828SOL     OW26119   3.198   4.708   9.312  0.4833  0.5802 -0.0091
 4828SOL    HW126120   3.250   0.016   9.244 -0.4314  2.4479  0.4510
 4828SOL    HW226121   3.110   0.007   9.293  0.1534 -0.3203 -0.0410
 4829SOL     OW26122   1.633   0.940   2.056 -0.0026 -0.1064 -0.4977
 4829SOL    HW126123   1.631   1.036   2.048  1.2911 -0.0482 -0.0622
 4829SOL    HW226124   1.539   0.923   2.050  0.0879 -1.0085  0.7385
 4830SOL     OW26125   1.206   1.771   1.581  0.4426 -0.0130  0.5799
 4830SOL    HW126126   1.197   1.852   1.632  0.0019 -0.1702  0.7432
 4830SOL    HW226127   1.146   1.793   1.510  0.4381 -0.5501  0.4183
 4831SOL     OW26128   0.338   1.151   0.395 -0.3412 -0.2969  0.0106
 4831SOL    HW126129   0.303   1.161   0.306  2.3946  1.5567 -0.8389
 4831SOL    HW226130   0.303   1.236   0.421 -0.3367 -0.3316  0.1297
 4832SOL     OW26131   2.592   1.177  11.856  0.5734 -0.3994 -0.3960
 4832SOL    HW126132   2.605   1.258  11.807  0.1282  0.0279  0.1962
 4832SOL    HW226133   2.546   1.113  11.801 -0.1474  1.3594 -1.8360
 4833SOL     OW26134   4.439   1.385   9.388 -0.1004 -0.3941  1.1997
 4833SOL    HW126135   4.415   1.314   9.328 -0.7073  0.9433 -0.1432
 4833SOL    HW226136   4.514   1.341   9.428  0.2238 -1.2437 -0.3216
 4834SOL     OW26137   2.986   3.020   8.181  0.0723  0.9633  0.7491
 4834SOL    HW126138   3.061   2.986   8.131 -1.2858  0.1185 -0.7167
 4834SOL    HW226139   2.921   2.950   8.177  2.0447 -0.8067 -0.1495
 4835SOL     OW26140   0.430   3.473   5.448  0.0562  0.0862 -0.4420
 4835SOL    HW126141   0.438   3.482   5.543 -0.7194 -1.1252 -0.2496
 4835SOL    HW226142   0.507   3.520   5.419  0.8892 -0.9153  0.1513
 4836SOL     OW26143   2.709   1.328   2.699  0.2057 -0.0675  0.1117
 4836SOL    HW126144   2.756   1.247   2.678  1.0380  0.3306  0.4696
 4836SOL    HW226145   2.721   1.382   2.621  0.3158 -0.7734 -0.3622
 4837SOL     OW26146   2.642   0.969   7.266  0.0763  0.3319  0.3376
 4837SOL    HW126147   2.596   0.917   7.200  1.2105 -0.6896  0.3657
 4837SOL    HW226148   2.575   0.984   7.333 -0.0300  0.7065  0.1485
 4838SOL     OW26149   3.627   4.618   1.429  0.0364  0.1202 -0.2267
 4838SOL    HW126150   3.643   4.581   1.516  1.0894  0.7511 -0.1522
 4838SOL    HW226151   3.546   4.576   1.400 -0.0294 -0.0065  0.1456
 4839SOL     OW26152   0.710   1.344   2.952  0.1592  0.2259 -0.4014
 4839SOL    HW126153   0.641   1.390   3.000 -0.4328  0.0342 -1.0635
 4839SOL    HW226154   0.786   1.354   3.008 -0.5168  0.5039  0.4683
 4840SOL     OW26155   3.543   2.979   7.400 -0.1786 -0.2802 -0.3281
 4840SOL    HW126156   3.588   3.043   7.344 -1.7461  1.9090  0.9113
 4840SOL    HW226157   3.560   2.901   7.347 -0.6171 -0.9520  0.5299
 4841SOL     OW26158   4.516   4.331   1.658 -0.1811  0.3647 -0.9354
 4841SOL    HW126159   4.420   4.333   1.659 -0.2190 -1.7578 -0.1628
 4841SOL    HW226160   4.533   4.252   1.607 -2.3332 -0.3235 -0.6020
 4842SOL     OW26161   2.304   4.632   7.835 -0.5356  0.2720 -0.1232
 4842SOL    HW126162   2.338   4.578   7.906  0.8107 -0.1343 -1.0771
 4842SOL    HW226163   2.273   4.710   7.881 -0.4441  0.9749 -1.2697
 4843SOL     OW26164   1.968   0.177   5.096 -0.6916 -0.2740 -0.2455
 4843SOL    HW126165   1.922   0.143   5.019 -1.0374 -1.2955  0.4090
 4843SOL    HW226166   2.053   0.181   5.052  0.0555  0.3755  1.2390
 4844SOL     OW26167   1.022   0.749  15.957  0.2739 -0.2294  0.0541
 4844SOL    HW126168   1.022   0.729  15.863 -1.4564 -1.6863  0.3704
 4844SOL    HW226169   0.960   0.821  15.962 -0.5552 -1.0207  1.1849
 4845SOL     OW26170   2.307   2.007   1.394 -0.3077  0.1944  0.5881
 4845SOL    HW126171   2.278   1.922   1.361 -0.0770  0.1783  0.4271
 4845SOL    HW226172   2.220   2.046   1.398 -1.3310 -2.4036  3.0393
 4846SOL     OW26173   4.721   0.657   9.375 -0.1213 -0.2282  0.2872
 4846SOL    HW126174   4.664   0.720   9.331  0.1450  0.8057  1.4271
 4846SOL    HW226175   4.677   0.636   9.458 -3.5856 -0.4814 -1.6271
 4847SOL     OW26176   1.187   1.328   6.072 -0.9818  0.3388  0.3504
 4847SOL    HW126177   1.178   1.327   6.167 -0.0843  2.0619  0.4479
 4847SOL    HW226178   1.199   1.423   6.071 -1.3317  0.3936  1.5700
 4848SOL     OW26179   1.059   2.084   4.277  0.6326  0.0400 -0.2073
 4848SOL    HW126180   0.989   2.139   4.313  1.6556  0.8553  0.5559
 4848SOL    HW226181   1.069   2.121   4.190 -0.2126 -1.4661 -0.9231
 4849SOL     OW26182   3.721   1.850   0.008 -0.0732  0.1778 -0.1691
 4849SOL    HW126183   3.762   1.936   0.002  0.0765 -0.0322 -2.1799
 4849SOL    HW226184   3.786   1.806  17.691 -0.6447 -1.2596  0.2994
 4850SOL     OW26185   1.445   0.610   0.740  0.6275 -0.1563  0.3420
 4850SOL    HW126186   1.356   0.626   0.707  1.0747 -0.3077 -0.9491
 4850SOL    HW226187   1.427   0.627   0.833 -1.1984 -0.4865  0.0584
 4851SOL     OW26188   1.150   3.655   3.117  0.2667 -0.4072  0.2738
 4851SOL    HW126189   1.079   3.610   3.162 -0.8466  0.8639 -0.1798
 4851SOL    HW226190   1.228   3.610   3.146  0.2194  0.2824  1.4787
 4852SOL     OW26191   4.340   0.389   4.087 -0.5363 -0.2665  0.3069
 4852SOL    HW126192   4.399   0.446   4.136 -0.9306  0.2237  0.2179
 4852SOL    HW226193   4.292   0.449   4.031  2.5936 -0.0566 -2.1167
 4853SOL     OW26194   1.152   1.126   3.397 -0.3736  0.0950  0.6062
 4853SOL    HW126195   1.175   1.037   3.371 -0.6906  0.7476 -1.9226
 4853SOL    HW226196   1.089   1.105   3.465  0.8577  1.8590  2.2821
 4854SOL     OW26197   3.870   1.611   5.909  0.5187 -0.4127 -0.0678
 4854SOL    HW126198   3.847   1.694   5.869  1.8834  0.6912  1.4362
 4854SOL    HW226199   3.962   1.620   5.935  0.7107 -2.3005 -0.0842
 4855SOL     OW26200   0.785   0.070   7.763 -0.4180 -0.0666  0.0185
 4855SOL    HW126201   0.707   0.125   7.760 -0.6033 -0.3339 -0.1051
 4855SOL    HW226202   0.793   0.070   7.858  1.0578  0.1845 -0.1114
 4856SOL     OW26203   2.195   4.165  13.277  0.0498  0.4422 -0.3492
 4856SOL    HW126204   2.146   4.245  13.296 -0.4602 -0.1618  0.8900
 4856SOL    HW226205   2.189   4.125  13.364  1.0416 -0.8413 -0.8773
 4857SOL     OW26206   2.019   2.968   3.902 -0.3416 -0.6495 -0.4931
 4857SOL    HW126207   2.036   2.890   3.955 -0.6989 -1.2243 -1.2284
 4857SOL    HW226208   1.934   2.944   3.866 -0.2758 -2.0575  0.3162
 4858SOL     OW26209   3.918   2.076   2.506  0.5632 -0.4285 -0.2170
 4858SOL    HW126210   3.877   1.989   2.512  0.3975 -0.4917 -2.6106
 4858SOL    HW226211   3.862   2.137   2.554  0.3505  1.3664 -2.7608
 4859SOL     OW26212   1.338   3.252   7.602  0.3002  0.5777 -0.5035
 4859SOL    HW126213   1.349   3.243   7.696  0.1525 -2.6461 -0.7778
 4859SOL    HW226214   1.364   3.343   7.589 -0.8060  0.8562 -0.7798
 4860SOL     OW26215   4.131   2.916  13.945  0.3126  1.0263 -0.0259
 4860SOL    HW126216   4.209   2.871  13.976  1.0908  2.1634 -0.3281
 4860SOL    HW226217   4.069   2.913  14.017  0.8217  0.1848  0.3692
 4861SOL     OW26218   4.279   2.235   2.784 -0.4999  0.1134  0.1660
 4861SOL    HW126219   4.249   2.177   2.713  0.7038  0.9610 -1.0243
 4861SOL    HW226220   4.205   2.294   2.768 -2.2547 -2.2163 -0.4683
 4862SOL     OW26221   4.154   3.976   7.339 -0.4114 -0.2136 -0.6513
 4862SOL    HW126222   4.143   4.059   7.293 -0.8637 -0.2243 -0.5626
 4862SOL    HW226223   4.233   3.939   7.299 -0.1041 -1.2374  0.9126
 4863SOL     OW26224   2.059   2.772   4.115 -0.1484 -0.2629  0.6759
 4863SOL    HW126225   1.973   2.777   4.158 -0.0169  1.1923  0.7703
 4863SOL    HW226226   2.049   2.706   4.046  1.6134  0.8575 -0.6289
 4864SOL     OW26227   1.878   2.889  10.208  0.1072 -0.3104  0.2484
 4864SOL    HW126228   1.803   2.851  10.162 -1.0596  2.1312  0.1053
 4864SOL    HW226229   1.895   2.975  10.168  2.8158 -0.5242  0.9422
 4865SOL     OW26230   0.489   4.708   3.706 -0.2129 -0.2466  0.0239
 4865SOL    HW126231   0.525   4.710   3.618  1.2549 -0.7659  0.6136
 4865SOL    HW226232   0.461   4.617   3.715 -2.4423  0.4899  0.5991
 4866SOL     OW26233   3.077   3.071   4.077  0.6551 -0.3294  0.1486
 4866SOL    HW126234   2.995   3.109   4.046  0.6417  1.0889  1.9142
 4866SOL    HW226235   3.126   3.069   3.995 -0.8447  0.1750 -0.7722
 4867SOL     OW26236   4.079   4.195  11.070  0.6090  0.1690 -0.4454
 4867SOL    HW126237   3.983   4.205  11.071  0.6444  0.5163 -1.6857
 4867SOL    HW226238   4.112   4.284  11.075 -1.0054  0.7785 -0.4931
 4868SOL     OW26239   1.219   1.712   8.075  0.1182 -0.6104 -0.2417
 4868SOL    HW126240   1.166   1.729   8.153  1.5399  0.7210  0.4280
 4868SOL    HW226241   1.171   1.758   8.006  0.8258  0.1139 -0.2492
 4869SOL     OW26242   2.125   2.592   7.259 -0.2194  0.5467 -0.5110
 4869SOL    HW126243   2.196   2.542   7.220  0.4830 -1.6871  3.5830
 4869SOL    HW226244   2.071   2.603   7.181 -0.1971 -1.6292 -0.8186
 4870SOL     OW26245   0.736   2.641  17.546  0.1732  0.3114 -0.1134
 4870SOL    HW126246   0.814   2.646  17.602  1.3905 -2.5568 -1.5659
 4870SOL    HW226247   0.762   2.566  17.493  1.9519  1.6776 -1.1768
 4871SOL     OW26248   4.282   0.998   5.028  0.1480  0.4671 -0.2747
 4871SOL    HW126249   4.281   1.017   5.122 -0.3188 -0.5039 -0.0768
 4871SOL    HW226250   4.359   1.046   5.000  0.9038  0.6635  2.1348
 4872SOL     OW26251   1.358   0.973   7.969 -0.4831  0.2713  0.2011
 4872SOL    HW126252   1.290   0.914   7.935 -0.7940  1.4302 -1.2179
 4872SOL    HW226253   1.442   0.939   7.938  0.4793  1.0213  2.0141
 4873SOL     OW26254   1.524   3.833   7.708  0.4466 -0.0203 -0.8447
 4873SOL    HW126255   1.503   3.924   7.730 -0.6619  0.1301 -2.5446
 4873SOL    HW226256   1.493   3.781   7.783  0.9539  0.1790 -0.4961
 4874SOL     OW26257   4.048   0.950   3.225 -0.0468  0.5547  0.3828
 4874SOL    HW126258   4.094   0.911   3.299 -0.4458  0.9663  0.8470
 4874SOL    HW226259   3.983   1.010   3.264 -1.4069  0.9163 -2.4417
 4875SOL     OW26260   1.767   4.642   3.178  0.3451 -0.6809  0.4002
 4875SOL    HW126261   1.758   4.691   3.260  0.1127 -0.4996  0.2653
 4875SOL    HW226262   1.846   4.680   3.141  0.3073 -0.3653  0.6412
 4876SOL     OW26263   0.668   1.831   6.557 -0.4055 -0.7685  0.5382
 4876SOL    HW126264   0.600   1.895   6.578  1.4937  1.4797 -0.1256
 4876SOL    HW226265   0.726   1.890   6.508  0.7357 -1.1798  1.3872
 4877SOL     OW26266   4.130   0.490  13.852  0.2661 -0.0050 -0.4843
 4877SOL    HW126267   4.170   0.404  13.865  0.4317 -0.0620 -1.3732
 4877SOL    HW226268   4.044   0.463  13.818  0.0099 -0.1677  0.2905
 4878SOL     OW26269   3.705   4.223  12.331 -0.3973 -0.5044 -0.0808
 4878SOL    HW126270   3.722   4.312  12.362 -0.5564 -0.9076  1.1608
 4878SOL    HW226271   3.727   4.174  12.411 -1.0604  1.4349  1.2853
 4879SOL     OW26272   0.865   2.731  16.959 -0.3689 -0.1705  0.2423
 4879SOL    HW126273   0.791   2.778  16.921 -0.1057 -1.2627 -1.6602
 4879SOL    HW226274   0.857   2.777  17.042 -0.8414 -0.0833  0.1514
 4880SOL     OW26275   1.138   3.618  13.252  0.0145 -0.2481  0.3001
 4880SOL    HW126276   1.055   3.606  13.299 -0.9601 -1.1176 -1.6458
 4880SOL    HW226277   1.104   3.651  13.169  1.6719 -1.3335 -0.8273
 4881SOL     OW26278   1.172   4.554   7.238  0.4261  0.0930  0.6464
 4881SOL    HW126279   1.225   4.612   7.293  1.0112 -1.8765  2.1396
 4881SOL    HW226280   1.087   4.597   7.249  0.5499  0.9943 -1.9617
 4882SOL     OW26281   3.448   2.491  10.640 -0.2189  0.4400  0.2424
 4882SOL    HW126282   3.492   2.539  10.570 -0.1324  1.2932  0.8883
 4882SOL    HW226283   3.500   2.411  10.651  1.9881  1.5516 -2.1431
 4883SOL     OW26284   3.779   0.579  11.532 -0.5742  0.3548 -0.2100
 4883SOL    HW126285   3.796   0.487  11.512 -0.1789  0.8282 -2.0403
 4883SOL    HW226286   3.777   0.570  11.628  1.5870 -0.1641 -0.2160
 4884SOL     OW26287   1.859   0.474   7.504 -0.3579  0.3512  0.4810
 4884SOL    HW126288   1.776   0.502   7.467 -0.2038 -0.4105 -0.4366
 4884SOL    HW226289   1.921   0.502   7.437  0.6568 -0.2300  1.1732
 4885SOL     OW26290   0.744   1.899   8.757 -0.1457 -0.0722  0.3720
 4885SOL    HW126291   0.778   1.911   8.846 -1.7018 -2.4536  1.2725
 4885SOL    HW226292   0.807   1.831   8.732  0.7009  0.3104  1.4294
 4886SOL     OW26293   3.302   4.362   4.354 -0.0171  0.2768  0.0944
 4886SOL    HW126294   3.282   4.452   4.379  1.3839  0.7389 -0.4315
 4886SOL    HW226295   3.218   4.317   4.358 -0.4342  1.0532  0.0092
 4887SOL     OW26296   2.475   1.485   2.691 -0.5659 -0.0638  0.4440
 4887SOL    HW126297   2.484   1.500   2.785  1.0855  1.2134  0.0857
 4887SOL    HW226298   2.552   1.435   2.663  0.3139  1.8263 -0.5197
 4888SOL     OW26299   3.147   0.613  10.660 -0.3399  0.0649 -0.4718
 4888SOL    HW126300   3.163   0.529  10.617 -3.1501 -0.1974 -1.0416
 4888SOL    HW226301   3.231   0.656  10.645 -0.7043  1.2887  1.0041
 4889SOL     OW26302   0.738   1.038   0.411 -0.2677  0.2676  0.0279
 4889SOL    HW126303   0.663   1.042   0.471 -0.0321  0.4845  0.3074
 4889SOL    HW226304   0.815   1.047   0.467  1.0281  2.3481 -2.0774
 4890SOL     OW26305   2.567   2.988   3.006 -0.0372 -0.3848  0.2958
 4890SOL    HW126306   2.519   2.906   2.994 -1.2040  0.4398 -0.5804
 4890SOL    HW226307   2.658   2.966   2.985 -0.4651  0.0225 -1.9783
 4891SOL     OW26308   0.442   4.441   2.872 -0.2755 -0.3090  0.3384
 4891SOL    HW126309   0.356   4.482   2.865 -1.1303 -1.9424  1.1803
 4891SOL    HW226310   0.418   4.364   2.924  0.3670 -0.2408  0.7468
 4892SOL     OW26311   4.690   2.714  12.377 -0.8498 -0.1125 -0.5420
 4892SOL    HW126312   4.645   2.756  12.451  1.8980  1.2736  0.3077
 4892SOL    HW226313   0.033   2.670  12.410  0.1498  1.8328 -0.2967
 4893SOL     OW26314   2.331   0.365   9.126 -0.5499 -0.2963  0.6005
 4893SOL    HW126315   2.283   0.310   9.188  0.5802 -1.9100  0.0433
 4893SOL    HW226316   2.353   0.445   9.173  0.3111  1.2887 -2.5367
 4894SOL     OW26317   2.273   4.132  13.557  0.3298  0.0458  0.0880
 4894SOL    HW126318   2.279   4.186  13.636  0.1383  0.1566  0.0298
 4894SOL    HW226319   2.280   4.044  13.592 -1.6897  0.4349  1.5113
 4895SOL     OW26320   1.438   1.352   7.603 -0.0104  0.3580 -0.0481
 4895SOL    HW126321   1.370   1.412   7.633  0.2698  1.8026 -2.3394
 4895SOL    HW226322   1.393   1.268   7.594  0.9123 -0.0475 -0.9324
 4896SOL     OW26323   0.758   3.376  15.826 -0.6534 -0.5126  0.3686
 4896SOL    HW126324   0.839   3.425  15.839 -1.6202  1.2575 -0.2078
 4896SOL    HW226325   0.782   3.297  15.874 -1.1174 -1.5260 -1.0828
 4897SOL     OW26326   2.661   0.066   6.439  0.0459  0.0605 -0.6032
 4897SOL    HW126327   2.676   4.706   6.438 -1.2630 -0.1584  2.0177
 4897SOL    HW226328   2.734   0.101   6.490 -0.4249  1.0505 -0.5991
 4898SOL     OW26329   3.405   3.284   7.805  0.4567 -0.1688 -0.5375
 4898SOL    HW126330   3.401   3.195   7.770 -1.3789  0.5255 -2.0990
 4898SOL    HW226331   3.323   3.317   7.767  2.0760  0.9625 -3.0574
 4899SOL     OW26332   1.448   3.073   5.950  1.0597  0.4114 -0.1626
 4899SOL    HW126333   1.514   3.134   5.917  1.1992  0.2963 -0.0962
 4899SOL    HW226334   1.452   3.008   5.880  0.7135 -0.7362  0.8759
 4900SOL     OW26335   4.110   0.856   3.814  0.0152  0.0643  0.4228
 4900SOL    HW126336   4.181   0.919   3.802 -0.6824  0.4368 -1.7192
 4900SOL    HW226337   4.050   0.901   3.874 -2.2343 -0.2223 -1.6070
 4901SOL     OW26338   1.506   2.945  14.056  0.2167 -0.7070 -0.3169
 4901SOL    HW126339   1.418   2.951  14.019  0.4215  0.4397 -0.5980
 4901SOL    HW226340   1.524   3.037  14.075  1.5259 -0.8399 -0.9263
 4902SOL     OW26341   0.210   0.012  13.925  0.3774 -0.0002 -0.0461
 4902SOL    HW126342   0.170   0.098  13.942  0.5774  0.0958 -0.0720
 4902SOL    HW226343   0.138   4.695  13.890  2.4974 -1.4897 -2.1151
 4903SOL     OW26344   0.220   0.311   2.165 -0.1936  0.4673  0.4017
 4903SOL    HW126345   0.157   0.342   2.230 -0.7807  1.6502 -0.7301
 4903SOL    HW226346   0.302   0.320   2.214 -0.1306  0.8578  0.2241
 4904SOL     OW26347   2.859   3.547  10.676 -0.0735 -0.0472  0.4591
 4904SOL    HW126348   2.939   3.496  10.690 -0.1229 -0.9971 -2.8681
 4904SOL    HW226349   2.855   3.550  10.581 -1.3196 -0.4747  0.4996
 4905SOL     OW26350   3.595   4.053  10.427  0.0370 -0.0952  0.5053
 4905SOL    HW126351   3.631   4.011  10.348  1.1216  2.8817 -0.6101
 4905SOL    HW226352   3.524   4.111  10.399  2.9743  2.4005 -1.8385
 4906SOL     OW26353   0.429   2.118   2.300  0.6186  0.2720 -0.3659
 4906SOL    HW126354   0.498   2.051   2.304 -0.0681 -0.5236 -1.8642
 4906SOL    HW226355   0.491   2.191   2.305  1.4454 -0.3780 -1.0693
 4907SOL     OW26356   4.254   2.496  14.275 -0.0920  0.8639 -0.2679
 4907SOL    HW126357   4.257   2.529  14.185  0.5596  0.9594 -0.2098
 4907SOL    HW226358   4.167   2.524  14.304  0.3583  1.5987  0.3570
 4908SOL     OW26359   3.448   4.228   2.099 -0.2450  0.2209  0.4381
 4908SOL    HW126360   3.438   4.257   2.189  1.0726  1.5107  0.1760
 4908SOL    HW226361   3.456   4.311   2.051 -2.7496 -0.1869 -0.6572
 4909SOL     OW26362   4.623   2.721   5.635  0.4321  0.4044  0.4383
 4909SOL    HW126363   4.583   2.799   5.673 -0.7652  0.3059 -0.6012
 4909SOL    HW226364   4.614   2.744   5.543 -1.5573 -0.0338  0.5203
 4910SOL     OW26365   1.859   0.361  15.770  0.6354  0.4931  0.1079
 4910SOL    HW126366   1.865   0.348  15.864  0.3909  2.2333  0.3534
 4910SOL    HW226367   1.796   0.433  15.768  1.0862  0.9353  2.0335
 4911SOL     OW26368   1.699   4.616   3.856  0.2830 -0.1773 -0.1941
 4911SOL    HW126369   1.718   4.624   3.949 -1.2112  2.3073 -0.1135
 4911SOL    HW226370   1.701   4.710   3.836 -0.8758 -0.1352 -0.0815
 4912SOL     OW26371   1.456   1.668  17.666  0.2023 -0.2640  0.1467
 4912SOL    HW126372   1.442   1.714   0.011  2.2841 -0.6970  0.7258
 4912SOL    HW226373   1.446   1.574  17.679  1.0384 -0.4203 -0.3770
 4913SOL     OW26374   3.988   2.817  16.712 -0.1261 -0.3778 -0.3096
 4913SOL    HW126375   4.024   2.802  16.624  0.5036 -1.3886  0.1196
 4913SOL    HW226376   4.013   2.735  16.754 -0.2499 -0.4838 -0.4398
 4914SOL     OW26377   2.160   0.919   8.101  0.0582 -0.0479 -0.0146
 4914SOL    HW126378   2.121   0.868   8.173  0.4558  1.0828  0.9959
 4914SOL    HW226379   2.123   1.006   8.111  1.2542  0.3072  1.3180
 4915SOL     OW26380   0.957   3.855  14.110  0.3148  0.1268  0.5736
 4915SOL    HW126381   0.986   3.770  14.077  3.2184  0.5274  2.0368
 4915SOL    HW226382   0.970   3.851  14.205 -2.0112 -0.6597  0.8458
 4916SOL     OW26383   2.484   1.915   5.877 -0.3261  0.6818 -0.3116
 4916SOL    HW126384   2.433   1.965   5.813 -2.0061 -0.0818  0.4366
 4916SOL    HW226385   2.410   1.898   5.935  0.3111  2.0670  0.9162
 4917SOL     OW26386   3.936   3.804   2.035 -0.2708  1.0411  0.0687
 4917SOL    HW126387   3.928   3.797   2.131  1.6452  0.1393  0.1716
 4917SOL    HW226388   3.846   3.826   2.014 -0.8234 -0.4445  0.8322
 4918SOL     OW26389   4.279   0.327   3.048 -0.4408 -0.3820 -0.0777
 4918SOL    HW126390   4.291   0.298   3.139  0.6305 -0.8756 -0.3664
 4918SOL    HW226391   4.262   0.247   2.998  0.2424 -0.2019 -0.6145
 4919SOL     OW26392   2.057   0.580   3.107  0.6022 -0.6974  0.2017
 4919SOL    HW126393   2.097   0.558   3.023 -2.0657 -0.7269 -1.0510
 4919SOL    HW226394   2.118   0.540   3.169  0.9738 -0.2212  0.1477
 4920SOL     OW26395   2.575   4.226   2.519  0.1359 -0.4224 -0.2853
 4920SOL    HW126396   2.522   4.303   2.542 -2.2520 -2.0733 -0.2804
 4920SOL    HW226397   2.666   4.249   2.536  0.3897 -1.0370 -0.8348
 4921SOL     OW26398   3.323   4.255   5.157 -0.5744  0.2572  0.5111
 4921SOL    HW126399   3.412   4.279   5.183 -0.0191  0.0092 -1.1828
 4921SOL    HW226400   3.280   4.247   5.242  0.5214  0.5458  1.0901
 4922SOL     OW26401   2.654   4.380   4.089 -0.4823 -0.0009 -0.2462
 4922SOL    HW126402   2.722   4.314   4.074 -1.8347 -1.2679 -0.8539
 4922SOL    HW226403   2.579   4.329   4.058  0.3670 -1.3069 -0.1475
 4923SOL     OW26404   3.897   2.205   8.643 -0.3605  0.1641  0.3120
 4923SOL    HW126405   3.993   2.201   8.647 -0.2071  1.6680 -2.0621
 4923SOL    HW226406   3.876   2.148   8.717  0.6977  0.0940  0.5651
 4924SOL     OW26407   0.185   4.305   5.094 -0.1720 -1.0119  0.6194
 4924SOL    HW126408   0.133   4.380   5.065  0.9113 -0.5445 -0.1279
 4924SOL    HW226409   0.178   4.320   5.188 -0.5493  0.0658  0.4238
 4925SOL     OW26410   0.977   2.120  11.718 -0.0032  0.3775 -0.0262
 4925SOL    HW126411   0.997   2.033  11.754  1.2940  0.1835 -1.2159
 4925SOL    HW226412   0.959   2.173  11.795 -2.6033  0.1381 -0.4502
 4926SOL     OW26413   0.591   0.036  10.878 -0.5047 -0.1226 -0.5886
 4926SOL    HW126414   0.613   4.678  10.882 -1.6568 -0.2692  2.5963
 4926SOL    HW226415   0.529   0.043  10.805 -1.4811  0.0807  0.2495
 4927SOL     OW26416   2.869   0.018  10.914 -0.2194  0.6769 -0.1145
 4927SOL    HW126417   2.859   4.658  10.906 -0.3782  0.5506  1.6861
 4927SOL    HW226418   2.789   0.028  10.965 -1.3828 -3.0223 -1.1918
 4928SOL     OW26419   2.262   2.584   3.331  0.3818 -0.0896 -0.0505
 4928SOL    HW126420   2.203   2.516   3.300  0.8245  0.0179 -1.1255
 4928SOL    HW226421   2.343   2.562   3.284  1.3984 -0.3156  1.8152
 4929SOL     OW26422   3.574   1.812   1.882 -0.4253 -0.3897  0.5061
 4929SOL    HW126423   3.664   1.783   1.899 -0.4082 -0.6099  0.0458
 4929SOL    HW226424   3.549   1.814   1.974  0.4775  0.1288  0.7429
 4930SOL     OW26425   1.949   2.129   7.835 -0.0435  0.1012 -0.0897
 4930SOL    HW126426   2.020   2.160   7.891 -0.5412 -0.2780  0.7451
 4930SOL    HW226427   1.881   2.196   7.836 -1.8266 -1.7052  0.3308
 4931SOL     OW26428   0.572   3.400   1.449 -0.1606 -0.1232  0.1675
 4931SOL    HW126429   0.626   3.463   1.402 -0.0710  0.6940  1.3523
 4931SOL    HW226430   0.517   3.365   1.380 -0.3840  1.9832 -0.7201
 4932SOL     OW26431   2.756   1.320  10.311 -0.0886  0.1553  0.4425
 4932SOL    HW126432   2.733   1.229  10.291  0.1891 -0.1360  1.4764
 4932SOL    HW226433   2.848   1.304  10.332  0.3082  1.1666 -0.5455
 4933SOL     OW26434   3.426   4.150   1.786 -0.1028  0.1015  0.1445
 4933SOL    HW126435   3.506   4.148   1.838  0.5467  0.1745 -0.8350
 4933SOL    HW226436   3.418   4.245   1.790  1.4105  0.2747 -0.6827
 4934SOL     OW26437   0.100   2.011  12.904  0.3047  0.3675 -0.1879
 4934SOL    HW126438   0.116   2.103  12.883 -1.2530  0.2412 -1.9662
 4934SOL    HW226439   0.007   2.015  12.927  0.5141  0.6747  0.6301
 4935SOL     OW26440   0.939   3.042   7.825  0.2628  0.0342  0.2042
 4935SOL    HW126441   0.858   2.994   7.808  0.3168  0.2132 -0.5750
 4935SOL    HW226442   0.907   3.110   7.885 -3.5312  0.5214 -2.3558
 4936SOL     OW26443   1.106   1.722   5.385  0.7145  0.4011 -0.0325
 4936SOL    HW126444   1.177   1.664   5.361 -2.2118 -1.6949 -3.5094
 4936SOL    HW226445   1.036   1.657   5.377 -2.0140  3.4653 -1.5598
 4937SOL     OW26446   0.619   1.553   6.517  0.5246 -0.2487 -0.4586
 4937SOL    HW126447   0.671   1.621   6.561  0.9415 -2.0731  1.8368
 4937SOL    HW226448   0.577   1.507   6.590 -0.4647 -0.0319 -0.8993
 4938SOL     OW26449   1.015   0.002  15.826  0.4897  0.2409 -0.4899
 4938SOL    HW126450   0.983   0.015  15.915 -1.4956  1.5074 -1.3961
 4938SOL    HW226451   1.081   4.670  15.846 -0.8231 -0.8640  0.2436
 4939SOL     OW26452   3.678   1.234  13.210 -0.2378 -0.1337 -0.4911
 4939SOL    HW126453   3.671   1.157  13.266  2.1293  1.0613  1.4371
 4939SOL    HW226454   3.748   1.206  13.151  1.3851  1.8241  0.5243
 4940SOL     OW26455   2.274   1.171   3.775 -0.5173  0.3906 -0.4594
 4940SOL    HW126456   2.288   1.083   3.739  0.6885 -0.3748  1.8861
 4940SOL    HW226457   2.211   1.194   3.707 -2.2836 -2.1742  0.3106
 4941SOL     OW26458   1.151   4.020   5.870  0.1568  0.5986 -0.5147
 4941SOL    HW126459   1.166   4.107   5.906 -0.4646  1.3035 -1.9665
 4941SOL    HW226460   1.237   3.977   5.870 -0.5055 -0.7260  0.0532
 4942SOL     OW26461   4.243   1.324   0.760  0.3785  0.0899  0.0568
 4942SOL    HW126462   4.204   1.319   0.672  1.1002 -0.6120 -0.2223
 4942SOL    HW226463   4.277   1.413   0.751 -2.1970  1.0818  0.0617
 4943SOL     OW26464   4.426   3.185   2.842 -0.2392 -0.1722 -0.4876
 4943SOL    HW126465   4.479   3.115   2.804  0.5485 -0.5513  1.2969
 4943SOL    HW226466   4.492   3.254   2.839 -1.0720  0.7511  2.1178
 4944SOL     OW26467   2.079   0.483  11.503 -0.0605  0.0964 -0.0596
 4944SOL    HW126468   2.116   0.396  11.490 -1.4100 -0.2718 -1.4899
 4944SOL    HW226469   2.001   0.479  11.447 -0.0311  1.2994 -0.1890
 4945SOL     OW26470   0.462   4.686   2.170  0.4055 -0.9713 -0.9254
 4945SOL    HW126471   0.507   0.021   2.122 -0.6107 -0.0120 -0.4950
 4945SOL    HW226472   0.537   4.650   2.216 -0.1407 -1.4319 -0.3989
 4946SOL     OW26473   1.162   1.912   2.602 -0.2481  0.1211  0.3880
 4946SOL    HW126474   1.240   1.950   2.561 -1.3358  1.1163 -0.7776
 4946SOL    HW226475   1.115   1.994   2.612 -0.1058 -0.0947  2.8159
 4947SOL     OW26476   2.128   4.247   7.771  0.1637  0.1683  0.0589
 4947SOL    HW126477   2.209   4.297   7.762  0.3640  0.3015  2.5485
 4947SOL    HW226478   2.122   4.247   7.866 -1.7220  1.6436 -0.0494
 4948SOL     OW26479   0.393   3.497   6.909  0.4710 -0.3071  0.2315
 4948SOL    HW126480   0.417   3.522   6.820  1.4103  0.4110  0.6868
 4948SOL    HW226481   0.397   3.585   6.945  1.9620 -0.7566  1.1601
 4949SOL     OW26482   0.859   2.383   4.572 -0.2285 -0.1007 -0.5241
 4949SOL    HW126483   0.942   2.340   4.554  0.8464  2.2230 -1.1479
 4949SOL    HW226484   0.822   2.418   4.491 -1.9924 -1.8542 -0.4612
 4950SOL     OW26485   3.166   3.064  15.352  0.1354  0.0673  0.4496
 4950SOL    HW126486   3.097   3.053  15.287 -1.6008  1.0778  2.1249
 4950SOL    HW226487   3.215   3.128  15.301  2.0899 -2.6423 -1.1034
 4951SOL     OW26488   3.766   0.921  17.529 -0.6797  0.0163 -0.5524
 4951SOL    HW126489   3.780   0.937  17.436  0.4855 -0.6467 -0.4872
 4951SOL    HW226490   3.670   0.923  17.533 -0.7676  0.5127 -3.1037
 4952SOL     OW26491   4.548   2.275  12.354 -0.0033  0.4867 -0.4360
 4952SOL    HW126492   4.584   2.337  12.291  1.6321  0.1309  0.1594
 4952SOL    HW226493   4.504   2.338  12.412 -2.5843 -1.8835  0.2105
 4953SOL     OW26494   0.337   1.972  16.283 -0.1503 -0.2554 -0.2790
 4953SOL    HW126495   0.312   2.056  16.246  0.5649  1.1626  2.4044
 4953SOL    HW226496   0.400   1.952  16.214 -0.1802 -0.8875 -0.1288
 4954SOL     OW26497   2.239   4.480  15.053  0.1419  0.1367  0.4175
 4954SOL    HW126498   2.148   4.507  15.070 -0.5576 -1.6771 -0.5309
 4954SOL    HW226499   2.233   4.407  15.115  0.0881 -2.2810 -2.4747
 4955SOL     OW26500   4.149   3.269   8.786  0.4720 -0.3972 -0.0879
 4955SOL    HW126501   4.208   3.215   8.732  1.2616 -0.9981  1.3767
 4955SOL    HW226502   4.213   3.290   8.854  0.3691  2.6212 -0.9494
 4956SOL     OW26503   1.772   2.027   4.813 -0.2211  0.6856  0.2883
 4956SOL    HW126504   1.822   1.946   4.817 -1.2693 -0.0699 -2.0030
 4956SOL    HW226505   1.822   2.073   4.746 -1.0406 -1.6623 -1.9657
 4957SOL     OW26506   0.420   3.389   4.119 -0.3960  0.2797  0.0164
 4957SOL    HW126507   0.399   3.361   4.030 -1.4893 -1.6005  0.8790
 4957SOL    HW226508   0.343   3.365   4.170  0.2566  0.3593  1.0420
 4958SOL     OW26509   0.953   0.075   3.070  0.4162  0.3902  0.7025
 4958SOL    HW126510   0.998   0.109   2.993  2.4456 -3.7545  0.0595
 4958SOL    HW226511   1.021   0.023   3.113  1.8482  1.1561 -0.6510
 4959SOL     OW26512   1.725   4.235   9.270  0.9102  0.5142 -0.3199
 4959SOL    HW126513   1.655   4.193   9.219 -0.6943  1.3096  1.2277
 4959SOL    HW226514   1.777   4.284   9.206  1.0286 -0.5939 -1.0708
 4960SOL     OW26515   4.492   2.269  15.166 -0.0672  0.1381  0.7153
 4960SOL    HW126516   4.446   2.326  15.227 -1.2292 -1.7327  1.5730
 4960SOL    HW226517   4.458   2.182  15.185 -2.8139  0.9378 -0.5962
 4961SOL     OW26518   0.475   0.680  17.142  0.3847  0.1883  0.2178
 4961SOL    HW126519   0.448   0.772  17.146 -1.1509 -0.3740  2.8329
 4961SOL    HW226520   0.517   0.666  17.227 -1.3655  0.0552  1.0696
 4962SOL     OW26521   2.678   0.767   6.558  0.9117 -0.1511 -0.1078
 4962SOL    HW126522   2.753   0.798   6.508  1.6031 -1.8603 -0.1413
 4962SOL    HW226523   2.683   0.842   6.617  0.9888  0.2148 -0.5831
 4963SOL     OW26524   2.878   1.272   4.599 -0.5516 -0.1898 -0.4564
 4963SOL    HW126525   2.862   1.212   4.671 -0.3948 -0.4908 -0.6683
 4963SOL    HW226526   2.858   1.219   4.521  1.9913 -0.6040 -0.8516
 4964SOL     OW26527   0.998   4.717   4.397  0.2298 -0.0321  0.9525
 4964SOL    HW126528   1.062   0.046   4.428  0.2405 -0.5288  1.9445
 4964SOL    HW226529   0.921   4.734   4.452 -0.9232  0.6865 -0.8830
 4965SOL     OW26530   1.285   0.682   8.118 -0.0443 -0.6513  0.2664
 4965SOL    HW126531   1.197   0.719   8.124 -0.2513 -0.4628 -3.4814
 4965SOL    HW226532   1.334   0.759   8.087 -0.6688  0.3545  1.8044
 4966SOL     OW26533   3.724   0.147   7.695 -0.1916 -0.4989  0.4229
 4966SOL    HW126534   3.700   0.229   7.737  0.2411  0.8862 -2.0251
 4966SOL    HW226535   3.679   0.148   7.610 -0.5091 -0.6479  0.5911
 4967SOL     OW26536   0.860   3.359   1.617 -0.5274  0.3995  0.0143
 4967SOL    HW126537   0.781   3.317   1.585 -0.5406  0.4242  0.0145
 4967SOL    HW226538   0.881   3.419   1.545  0.2284 -1.7239 -1.5249
 4968SOL     OW26539   0.822   2.603   3.036 -0.1791  0.0107 -0.3743
 4968SOL    HW126540   0.831   2.525   2.980 -0.1457 -0.3035  0.0686
 4968SOL    HW226541   0.879   2.575   3.107 -0.2595  2.7325  0.7616
 4969SOL     OW26542   1.881   3.662   5.792  0.0879 -0.4318 -0.4365
 4969SOL    HW126543   1.887   3.730   5.858  0.1356  0.2497 -1.1376
 4969SOL    HW226544   1.807   3.698   5.743 -0.3430 -0.5373  0.1452
 4970SOL     OW26545   2.746   4.124   7.161 -0.1291  0.1404  0.0461
 4970SOL    HW126546   2.718   4.120   7.252 -0.1952  0.8750  0.0646
 4970SOL    HW226547   2.828   4.076   7.165  0.0421  0.3228 -1.2765
 4971SOL     OW26548   4.720   1.471  13.281  0.4827  0.2586  0.6231
 4971SOL    HW126549   0.012   1.545  13.227 -2.9348 -0.1692 -1.6488
 4971SOL    HW226550   4.682   1.503  13.363 -2.2051 -1.8601  0.2161
 4972SOL     OW26551   4.075   2.196   7.676  0.5544  0.2209 -0.3375
 4972SOL    HW126552   4.049   2.112   7.637  0.6267  0.3960 -0.7632
 4972SOL    HW226553   4.000   2.253   7.663  1.3918  0.6821 -3.0245
 4973SOL     OW26554   0.652   1.034   2.458 -0.2195 -0.1052 -0.7669
 4973SOL    HW126555   0.583   0.977   2.493  0.5155  0.0134  0.8649
 4973SOL    HW226556   0.703   0.968   2.411 -0.2106 -1.5145  1.2578
 4974SOL     OW26557   1.194   1.510   4.424 -1.3256  0.0700 -0.4880
 4974SOL    HW126558   1.237   1.569   4.362  0.5373 -0.7140  0.0729
 4974SOL    HW226559   1.240   1.547   4.499 -3.0015  1.4621 -0.1337
 4975SOL     OW26560   2.374   1.868  11.887  0.0862  0.2517  0.3941
 4975SOL    HW126561   2.329   1.784  11.892  0.7597 -0.1449 -0.1988
 4975SOL    HW226562   2.359   1.892  11.796  0.5616  0.9760  0.5054
 4976SOL     OW26563   0.656   1.831   4.356 -0.5938  0.2117  0.1673
 4976SOL    HW126564   0.745   1.867   4.363 -1.9506  3.7167 -0.1303
 4976SOL    HW226565   0.658   1.738   4.375 -2.5568  0.0851 -0.2723
 4977SOL     OW26566   2.386   2.903   1.374 -0.2978  0.2948 -0.0765
 4977SOL    HW126567   2.396   2.829   1.315 -0.8487 -0.9804  1.4355
 4977SOL    HW226568   2.356   2.858   1.453  1.3530 -3.5084 -1.6083
 4978SOL     OW26569   0.125   0.274  12.669  0.3309 -0.0126 -0.3958
 4978SOL    HW126570   0.181   0.347  12.642 -1.1567  1.6519  1.0301
 4978SOL    HW226571   0.036   0.299  12.647  0.0714  0.1125  0.7937
 4979SOL     OW26572   1.089   4.315   4.004 -0.1237  0.0542 -0.2156
 4979SOL    HW126573   1.125   4.401   4.024 -0.6661  0.5890 -1.5421
 4979SOL    HW226574   1.049   4.342   3.921 -0.7806 -0.8753 -0.2128
 4980SOL     OW26575   1.413   0.044   3.154 -0.4960  1.1401  0.2937
 4980SOL    HW126576   1.400   0.103   3.080  0.4007 -0.4208 -1.1079
 4980SOL    HW226577   1.476   0.103   3.195  0.7722 -0.4580  0.6210
 4981SOL     OW26578   1.135   0.744   1.808  0.7867 -0.2147  0.0442
 4981SOL    HW126579   1.220   0.787   1.798  0.9289 -1.0845 -2.4951
 4981SOL    HW226580   1.165   0.662   1.847 -2.1189 -1.0962  0.4240
 4982SOL     OW26581   2.733   0.453   2.812 -0.4195  0.5451 -0.3056
 4982SOL    HW126582   2.771   0.540   2.798  1.2210 -0.2256 -0.5900
 4982SOL    HW226583   2.760   0.442   2.903 -0.2847  0.3638 -0.3673
 4983SOL     OW26584   3.225   3.589  17.732 -0.2066 -0.8290  0.3971
 4983SOL    HW126585   3.180   3.668  17.702  1.1946 -0.6098 -1.0899
 4983SOL    HW226586   3.310   3.599  17.689 -1.6631  0.3841 -2.2439
 4984SOL     OW26587   0.219   4.471  10.267  0.4482 -0.1331  0.6327
 4984SOL    HW126588   0.172   4.420  10.201  1.0675 -1.6950  1.3892
 4984SOL    HW226589   0.303   4.483  10.223 -0.4728  2.7508 -0.3169
 4985SOL     OW26590   2.473   0.606   4.524 -0.1070 -0.4341 -0.1005
 4985SOL    HW126591   2.549   0.548   4.514 -0.7104 -0.9961 -1.4556
 4985SOL    HW226592   2.517   0.676   4.571 -1.0881 -0.6180  1.0730
 4986SOL     OW26593   4.092   1.246   3.235  0.1212 -0.2462  0.1834
 4986SOL    HW126594   4.063   1.336   3.225  0.4591 -0.0609  0.8429
 4986SOL    HW226595   4.014   1.202   3.268  0.4588 -1.9896 -1.3812
 4987SOL     OW26596   0.589   2.633   2.075 -0.4248 -0.5390 -0.1143
 4987SOL    HW126597   0.582   2.654   1.982  2.6965  2.5926  0.3693
 4987SOL    HW226598   0.616   2.718   2.110  1.7696 -1.7490  1.0810
 4988SOL     OW26599   4.193   2.662   4.364  0.2082  0.3696  0.0138
 4988SOL    HW126600   4.198   2.636   4.456 -1.1493  0.1520  0.0235
 4988SOL    HW226601   4.210   2.576   4.324 -0.9715 -0.6108  1.5930
 4989SOL     OW26602   0.038   0.384   6.438  0.3004 -0.4022 -0.3424
 4989SOL    HW126603   0.048   0.462   6.383 -1.0081 -0.4289 -0.6220
 4989SOL    HW226604   0.130   0.363   6.456  0.7136  1.1052 -0.6865
 4990SOL     OW26605   3.061   1.128   3.660  0.5093 -0.8050  0.6986
 4990SOL    HW126606   2.987   1.186   3.678  0.6136 -0.8740  1.3773
 4990SOL    HW226607   3.117   1.183   3.606  1.8165 -0.0375  2.8280
 4991SOL     OW26608   0.951   2.519   5.274  0.2252 -0.3339 -0.1209
 4991SOL    HW126609   0.990   2.606   5.259  2.8721 -1.8049 -1.8948
 4991SOL    HW226610   0.931   2.522   5.367 -1.4756 -0.5013 -0.4876
 4992SOL     OW26611   0.528   1.065   1.517  0.1186 -0.3278  0.5980
 4992SOL    HW126612   0.620   1.076   1.493  1.5396 -4.1052  4.2477
 4992SOL    HW226613   0.504   1.009   1.443  4.3066 -2.4231  0.8086
 4993SOL     OW26614   3.841   2.986   6.806  0.1793  0.2469  0.2604
 4993SOL    HW126615   3.831   3.059   6.868  0.9249 -1.1150  1.9796
 4993SOL    HW226616   3.929   2.955   6.826 -0.3613 -0.3910  1.6125
 4994SOL     OW26617   1.510   1.511   3.407  0.3148  0.2220  0.2777
 4994SOL    HW126618   1.601   1.493   3.433 -0.1092 -0.2910  1.4166
 4994SOL    HW226619   1.518   1.516   3.312 -0.9957  1.7068  0.2321
 4995SOL     OW26620   2.553   2.743   4.500  1.1644  0.0579 -0.3865
 4995SOL    HW126621   2.604   2.668   4.471 -1.6618 -2.0537  0.0967
 4995SOL    HW226622   2.478   2.725   4.443  1.1472  3.0133 -1.3261
 4996SOL     OW26623   0.111   2.332   7.987  0.5150  0.4270 -0.0155
 4996SOL    HW126624   0.151   2.401   8.040 -1.5248  1.7503 -0.2175
 4996SOL    HW226625   0.173   2.328   7.914  0.8042 -0.5245  0.2747
 4997SOL     OW26626   4.523   1.203   3.704  0.1184 -0.2923  0.3220
 4997SOL    HW126627   4.522   1.205   3.609 -1.4762 -1.5526  0.3265
 4997SOL    HW226628   4.483   1.288   3.723  0.1914 -0.2370  0.2327
 4998SOL     OW26629   2.936   3.133   7.540  0.1030 -0.2631  0.2045
 4998SOL    HW126630   2.859   3.180   7.507  0.9649 -0.7381 -2.4416
 4998SOL    HW226631   2.891   3.083   7.609  0.0507  2.5709  2.2062
 4999SOL     OW26632   1.544   0.413   8.094 -0.4699  0.1494  0.3478
 4999SOL    HW126633   1.579   0.492   8.052 -0.9179 -0.6886 -1.6053
 4999SOL    HW226634   1.591   0.410   8.177  0.5930  1.5103 -0.2060
 5000SOL     OW26635   3.935   2.627   5.387  0.2361  0.4418  0.2987
 5000SOL    HW126636   3.947   2.598   5.477  1.2431  2.6522  0.8806
 5000SOL    HW226637   4.015   2.601   5.340 -1.8784 -0.6923 -2.6407
 5001SOL     OW26638   0.264   1.775   3.614 -0.2327  0.0847  0.0062
 5001SOL    HW126639   0.219   1.852   3.650 -0.0089 -0.1594  0.8025
 5001SOL    HW226640   0.208   1.699   3.628  0.4642 -0.3557  0.4025
 5002SOL     OW26641   3.115   1.570  11.263 -0.4927  0.2846  0.7332
 5002SOL    HW126642   3.086   1.503  11.324 -0.3237 -0.5706 -0.1327
 5002SOL    HW226643   3.123   1.649  11.317  3.4136  2.0958 -2.5509
 5003SOL     OW26644   1.223   1.002  15.463 -0.3330 -0.3988 -0.4041
 5003SOL    HW126645   1.151   1.059  15.438  0.6042  1.1581  0.4002
 5003SOL    HW226646   1.256   0.973  15.377 -0.1962 -0.1142 -0.4487
 5004SOL     OW26647   2.291   0.712  14.763  0.0288 -0.0301  0.3362
 5004SOL    HW126648   2.371   0.760  14.785  0.8197 -0.9748 -0.4730
 5004SOL    HW226649   2.260   0.774  14.697  1.3850 -0.3483 -0.6013
 5005SOL     OW26650   3.714   3.786   8.526 -0.0064 -0.3840  0.3285
 5005SOL    HW126651   3.792   3.766   8.578 -0.0432  0.0788  0.5657
 5005SOL    HW226652   3.749   3.845   8.459  0.9495 -3.5514 -1.9853
 5006SOL     OW26653   1.484   1.920   5.970 -0.1017 -0.2964 -0.0653
 5006SOL    HW126654   1.456   1.902   5.880 -2.0172  2.7088 -0.0723
 5006SOL    HW226655   1.539   1.844   5.988 -2.5402 -1.4681  2.2141
 5007SOL     OW26656   4.308   3.738   2.101 -0.3252 -0.0970 -0.1638
 5007SOL    HW126657   4.254   3.818   2.099 -1.7862 -1.1351 -2.1281
 5007SOL    HW226658   4.259   3.687   2.166 -0.6337 -0.9363 -1.0634
 5008SOL     OW26659   2.487   2.763   7.828  0.6346  0.5463 -0.1515
 5008SOL    HW126660   2.459   2.841   7.780 -0.7549  0.4212  0.4556
 5008SOL    HW226661   2.470   2.793   7.917  1.9618 -0.2376  0.3694
 5009SOL     OW26662   0.201   4.452   8.120 -0.2464 -0.1955 -0.1021
 5009SOL    HW126663   0.139   4.525   8.122 -0.0051 -0.0156  0.8738
 5009SOL    HW226664   0.173   4.421   8.206  0.9868 -1.1098 -0.0361
 5010SOL     OW26665   1.196   1.447   7.013  0.2825 -0.1832 -0.8261
 5010SOL    HW126666   1.215   1.403   7.095 -1.0898  0.4669 -0.1528
 5010SOL    HW226667   1.220   1.537   7.035 -2.1416  0.6988 -1.7200
 5011SOL     OW26668   0.930   4.315   6.657  0.2068 -0.3401  0.0489
 5011SOL    HW126669   0.928   4.289   6.749  0.6213 -1.1291 -0.1715
 5011SOL    HW226670   0.839   4.294   6.635  0.5477 -0.7643 -0.9672
 5012SOL     OW26671   0.465   0.038   9.225 -0.0059  0.9991  0.2983
 5012SOL    HW126672   0.533   0.091   9.184  0.8547 -0.1531  0.2165
 5012SOL    HW226673   0.479   0.057   9.318  0.1633 -0.0838  0.5008
 5013SOL     OW26674   1.086   2.892   8.365  0.0708 -0.1122  0.0935
 5013SOL    HW126675   1.134   2.973   8.347 -0.1140 -0.4111 -1.7330
 5013SOL    HW226676   1.003   2.926   8.397 -0.2115  1.8498 -2.7612
 5014SOL     OW26677   0.560   4.554   7.817 -0.2618 -0.3111  0.5040
 5014SOL    HW126678   0.644   4.516   7.843  1.3790  1.9900 -1.4412
 5014SOL    HW226679   0.508   4.552   7.897 -0.2880  1.2402  0.5215
 5015SOL     OW26680   1.920   0.450   8.213  0.1574 -0.6215  0.5988
 5015SOL    HW126681   1.841   0.429   8.264 -0.7302  3.0897  0.7472
 5015SOL    HW226682   1.902   0.385   8.146 -0.8681  0.8466 -0.5445
 5016SOL     OW26683   1.229   0.192   0.684 -0.2439  0.4329 -0.2756
 5016SOL    HW126684   1.272   0.259   0.737 -0.0427  1.0749 -1.2552
 5016SOL    HW226685   1.309   0.140   0.683 -1.1593 -0.9755  0.3175
 5017SOL     OW26686   2.159   1.583   3.383 -0.0120  0.1807  0.0936
 5017SOL    HW126687   2.180   1.644   3.454 -0.5318  0.1803  0.2442
 5017SOL    HW226688   2.067   1.607   3.375  0.2682  1.5657  1.0334
 5018SOL     OW26689   1.578   0.530   5.574 -0.1584 -0.0384 -0.0183
 5018SOL    HW126690   1.624   0.524   5.490  1.9263 -1.2088  1.1876
 5018SOL    HW226691   1.542   0.442   5.564  0.0281 -0.1320  0.1084
 5019SOL     OW26692   0.028   2.773   9.532 -0.2766 -0.4411 -0.1054
 5019SOL    HW126693   4.702   2.825   9.479  0.9149  1.5557  0.4991
 5019SOL    HW226694   0.074   2.721   9.465 -2.0367  0.7363 -2.2211
 5020SOL     OW26695   4.602   3.106   7.307  0.3164  0.3469  0.1704
 5020SOL    HW126696   4.539   3.059   7.253  0.4151 -0.1077  0.4508
 5020SOL    HW226697   4.557   3.186   7.334 -0.5805 -0.0724 -0.1003
 5021SOL     OW26698   3.347   0.925  16.937 -0.2907  0.8464 -0.8649
 5021SOL    HW126699   3.369   0.972  17.017  0.7988 -0.5338 -0.3335
 5021SOL    HW226700   3.359   0.997  16.875 -1.5681 -0.1270 -2.2402
 5022SOL     OW26701   4.236   1.818   8.507  0.5546 -0.1586 -0.4488
 5022SOL    HW126702   4.224   1.897   8.456  0.1527 -0.5119 -0.8971
 5022SOL    HW226703   4.195   1.843   8.590  1.3747 -1.8773  0.4885
 5023SOL     OW26704   2.673   0.058   5.884  0.1096 -0.0173 -0.5815
 5023SOL    HW126705   2.675   0.015   5.969  0.1360  0.7041 -0.2179
 5023SOL    HW226706   2.579   0.047   5.867 -1.2256  3.4111  4.5923
 5024SOL     OW26707   2.403   4.468  14.774  0.7141 -0.1304 -0.4971
 5024SOL    HW126708   2.475   4.516  14.735 -1.3098  2.0282 -1.5736
 5024SOL    HW226709   2.405   4.495  14.866 -1.8071  1.2603 -0.8478
 5025SOL     OW26710   4.182   4.591   3.004  0.3530  0.1908 -0.0552
 5025SOL    HW126711   4.199   4.685   3.005 -0.9599  0.4358 -0.7858
 5025SOL    HW226712   4.086   4.594   3.000  0.3303 -0.1428  0.1850
 5026SOL     OW26713   1.729   3.054   4.452  0.0504 -0.0575  0.0613
 5026SOL    HW126714   1.679   3.080   4.530 -3.7031 -0.1620 -2.3316
 5026SOL    HW226715   1.695   3.103   4.378  0.8371 -0.9049 -0.8517
 5027SOL     OW26716   2.025   2.638   1.760  0.0011 -0.1422  0.0924
 5027SOL    HW126717   2.033   2.732   1.741  1.8595 -0.7289 -1.9928
 5027SOL    HW226718   1.943   2.632   1.809  0.4759  1.3861  1.0792
 5028SOL     OW26719   0.514   3.987   6.905  0.3568 -0.5522  0.4274
 5028SOL    HW126720   0.575   3.925   6.865  0.4461 -1.7410  2.3991
 5028SOL    HW226721   0.568   4.066   6.908 -2.2211  1.3009 -1.9187
 5029SOL     OW26722   1.709   2.787   8.174  0.0701  0.2664 -0.0440
 5029SOL    HW126723   1.616   2.766   8.171 -0.0551  0.6846  1.1119
 5029SOL    HW226724   1.704   2.877   8.141 -0.9139  0.1340 -0.2487
 5030SOL     OW26725   3.392   2.104  14.859 -0.1351 -0.3823 -0.0363
 5030SOL    HW126726   3.433   2.080  14.777 -0.4952  1.6349 -0.7964
 5030SOL    HW226727   3.309   2.056  14.854 -0.0651 -0.2927 -1.8097
 5031SOL     OW26728   0.882   3.950   7.387 -0.2751 -0.8055 -0.4277
 5031SOL    HW126729   0.944   3.984   7.323 -1.5926  1.6336 -0.4094
 5031SOL    HW226730   0.823   4.026   7.386  1.0086  0.1652 -2.0098
 5032SOL     OW26731   3.683   2.059   9.510 -0.3623  0.3572  0.0896
 5032SOL    HW126732   3.713   2.074   9.420  2.0373 -2.6072  0.4435
 5032SOL    HW226733   3.594   2.096   9.511  0.3508  2.0329  1.5573
 5033SOL     OW26734   0.956   0.129   5.217  0.2804 -0.3622 -0.0676
 5033SOL    HW126735   0.968   0.161   5.128 -0.2970  0.8517  0.2920
 5033SOL    HW226736   1.040   0.092   5.242  0.4636  0.6885  0.8843
 5034SOL     OW26737   2.402   0.860   3.149 -0.3079 -0.0385 -0.3077
 5034SOL    HW126738   2.316   0.900   3.165 -0.9098 -0.8005 -1.6418
 5034SOL    HW226739   2.455   0.940   3.147 -0.3774 -0.0627 -2.5620
 5035SOL     OW26740   1.841   1.657  16.207 -0.0109  0.3343  0.3631
 5035SOL    HW126741   1.809   1.716  16.138  0.1622  1.3292  1.1412
 5035SOL    HW226742   1.931   1.690  16.214 -0.5149  2.0005 -1.1788
 5036SOL     OW26743   3.847   3.794   6.680 -0.5017  1.0928  0.6604
 5036SOL    HW126744   3.935   3.796   6.717 -0.4970  0.9691  0.6564
 5036SOL    HW226745   3.864   3.840   6.598  0.1359 -1.0001 -0.3948
 5037SOL     OW26746   3.453   1.491  14.224 -0.2406 -0.6298  0.1364
 5037SOL    HW126747   3.485   1.453  14.142 -0.4144 -0.7482  0.1218
 5037SOL    HW226748   3.524   1.466  14.283  1.2033 -1.5167 -1.9956
 5038SOL     OW26749   1.378   3.464   2.750 -0.0865 -0.4645 -0.0267
 5038SOL    HW126750   1.363   3.391   2.689 -4.2498 -0.1263  0.6179
 5038SOL    HW226751   1.293   3.452   2.792 -0.6984  1.1398 -0.8161
 5039SOL     OW26752   4.702   1.539  13.748  0.2577 -0.6739 -0.6033
 5039SOL    HW126753   0.044   1.597  13.755  0.5830 -1.1940  0.2021
 5039SOL    HW226754   4.711   1.497  13.834 -0.5330 -1.6104 -0.9878
 5040SOL     OW26755   3.710   3.338   8.046  0.3319  0.3193 -0.6154
 5040SOL    HW126756   3.749   3.353   7.960 -0.4852  0.6517 -0.9282
 5040SOL    HW226757   3.617   3.332   8.022  0.8930 -0.5489 -2.6138
 5041SOL     OW26758   1.128   2.080   1.561  0.2503 -0.1744 -0.5714
 5041SOL    HW126759   1.179   2.147   1.605  0.3166 -0.5882 -0.0275
 5041SOL    HW226760   1.113   2.125   1.478  2.0736  1.1206 -0.1895
 5042SOL     OW26761   2.544   1.864   9.224  0.2542 -1.1735 -0.5251
 5042SOL    HW126762   2.533   1.801   9.153 -1.3996 -1.7815  0.2471
 5042SOL    HW226763   2.529   1.804   9.298  0.6273 -1.7688 -0.9373
 5043SOL     OW26764   0.010   1.671   1.270  0.5590  0.2560 -0.5379
 5043SOL    HW126765   0.009   1.676   1.174  0.0023  0.9181 -0.5012
 5043SOL    HW226766   0.100   1.699   1.289  0.7472 -0.0206 -1.0269
 5044SOL     OW26767   1.137   0.982   4.494 -0.9657  0.2329 -0.0390
 5044SOL    HW126768   1.195   1.047   4.455 -3.1113  2.4153  0.4244
 5044SOL    HW226769   1.108   1.030   4.572  1.4228  0.9945  0.3878
 5045SOL     OW26770   4.147   2.699   8.080  0.0054  0.2938  0.0930
 5045SOL    HW126771   4.121   2.706   8.172  1.9403  0.6655  0.6050
 5045SOL    HW226772   4.241   2.686   8.089  0.0006  0.1291 -0.0862
 5046SOL     OW26773   4.530   2.618   6.243 -0.6662 -0.1213 -0.4455
 5046SOL    HW126774   4.610   2.627   6.192 -0.3690  0.9860  0.2096
 5046SOL    HW226775   4.568   2.603   6.329  0.5694  0.6949 -0.8471
 5047SOL     OW26776   0.233   0.930   4.398  0.2416 -0.2516  0.0445
 5047SOL    HW126777   0.251   0.931   4.304 -1.2331 -1.3868 -0.2545
 5047SOL    HW226778   0.211   0.836   4.402  0.7503 -0.3456  0.6123
 5048SOL     OW26779   4.499   2.749   6.679  0.0871  0.3071 -0.3653
 5048SOL    HW126780   4.561   2.736   6.607 -0.5618  1.6851 -1.1636
 5048SOL    HW226781   4.438   2.678   6.660 -1.2834  1.0480  1.2491
 5049SOL     OW26782   2.110   3.391   9.111  0.2998 -0.2941 -0.5586
 5049SOL    HW126783   2.030   3.390   9.059 -0.8643 -1.6482  1.2770
 5049SOL    HW226784   2.173   3.393   9.039 -0.5157 -1.2045 -1.2962
 5050SOL     OW26785   1.440   0.802  11.576  0.0917  0.0899 -0.4184
 5050SOL    HW126786   1.345   0.811  11.587  0.0603 -3.0235  1.9367
 5050SOL    HW226787   1.456   0.895  11.562 -1.1746  0.1417 -1.5285
 5051SOL     OW26788   0.986   2.843   9.854  0.1728 -0.0342  0.8070
 5051SOL    HW126789   0.949   2.800   9.931 -0.8728  1.6343  1.2382
 5051SOL    HW226790   0.959   2.782   9.785 -2.5458  2.6270 -0.4851
 5052SOL     OW26791   4.423   2.806  11.799 -0.2664  0.0371  0.0666
 5052SOL    HW126792   4.492   2.867  11.824 -0.1263  0.1656 -0.6166
 5052SOL    HW226793   4.349   2.833  11.853  2.1356  2.5234  2.1510
 5053SOL     OW26794   0.189   2.333  11.849  0.8572  0.1043  0.3415
 5053SOL    HW126795   0.123   2.313  11.915 -0.6488  3.6139 -0.0720
 5053SOL    HW226796   0.243   2.255  11.856  0.6856  0.0573  1.0540
 5054SOL     OW26797   0.563   4.154   8.923  0.1450 -0.5347  0.0199
 5054SOL    HW126798   0.505   4.158   8.847 -0.0298  0.4785  0.2000
 5054SOL    HW226799   0.593   4.243   8.905 -1.2893 -0.1243 -0.3250
 5055SOL     OW26800   1.521   3.348   6.595 -0.1466 -0.0008 -0.0085
 5055SOL    HW126801   1.477   3.403   6.530  1.2081  0.9528 -0.1298
 5055SOL    HW226802   1.540   3.400   6.673  0.3896 -1.3435  0.7689
 5056SOL     OW26803   1.453   2.493   4.584  0.1025 -0.0313 -0.2116
 5056SOL    HW126804   1.398   2.434   4.636  0.0731  0.8428  0.7457
 5056SOL    HW226805   1.409   2.575   4.565  1.0803  0.4292 -0.4543
 5057SOL     OW26806   1.114   4.580   2.373 -0.1624 -0.3884 -0.2376
 5057SOL    HW126807   1.055   4.514   2.336 -1.1695 -0.0134  0.6815
 5057SOL    HW226808   1.179   4.522   2.413 -1.1556  0.0070  1.9933
 5058SOL     OW26809   0.794   1.908  11.697 -0.9042 -0.4324 -0.0405
 5058SOL    HW126810   0.855   1.954  11.640  0.1085 -0.0544  1.3430
 5058SOL    HW226811   0.845   1.861  11.763 -2.6212 -0.6191  1.1496
 5059SOL     OW26812   3.423   1.618   0.013 -0.4413 -0.0217 -0.6734
 5059SOL    HW126813   3.364   1.547   0.038  0.8927 -0.7765  0.3336
 5059SOL    HW226814   3.510   1.588   0.039 -0.8311 -0.7957 -0.2417
 5060SOL     OW26815   2.188   1.277   5.774  0.1690  0.3241  0.0972
 5060SOL    HW126816   2.204   1.201   5.830  0.2272 -2.4952 -3.7526
 5060SOL    HW226817   2.173   1.247   5.684 -3.2153  2.7691 -0.1507
 5061SOL     OW26818   3.478   0.808  17.468 -0.4319  0.0095 -0.6382
 5061SOL    HW126819   3.495   0.775  17.380 -3.9196 -0.4005 -1.1668
 5061SOL    HW226820   3.460   0.729  17.520  0.6414  0.4200  0.3488
 5062SOL     OW26821   0.307   2.520   5.109 -0.8591  0.2553 -0.0043
 5062SOL    HW126822   0.328   2.572   5.186 -0.2783  0.1367 -0.0857
 5062SOL    HW226823   0.323   2.584   5.040  0.4948  0.0468  0.1209
 5063SOL     OW26824   0.512   1.038   0.576  0.2436 -0.1667  0.3515
 5063SOL    HW126825   0.464   0.989   0.643  0.6317  0.9259  1.4297
 5063SOL    HW226826   0.435   1.070   0.527 -0.0648  1.7139  2.0899
 5064SOL     OW26827   2.737   3.984   8.633 -0.1150 -0.4148  0.4636
 5064SOL    HW126828   2.726   4.070   8.675  2.0036 -0.4159  1.0253
 5064SOL    HW226829   2.692   3.995   8.549  1.0963  1.9702  0.1114
 5065SOL     OW26830   1.957   0.315   6.323 -0.2546  0.1100  0.3354
 5065SOL    HW126831   1.933   0.346   6.410  0.5733  3.0573 -0.4637
 5065SOL    HW226832   2.033   0.372   6.311 -0.9156  0.6680 -1.1684
 5066SOL     OW26833   0.195   1.973  15.989  0.0813 -0.1800  0.2746
 5066SOL    HW126834   0.169   1.887  16.023  1.4264  0.2216  2.3159
 5066SOL    HW226835   0.132   2.035  16.025  1.0813 -1.0045  3.4808
 5067SOL     OW26836   1.488   1.051   9.755  0.6107 -0.6989  0.2711
 5067SOL    HW126837   1.501   1.082   9.665  0.9764  5.3375  2.4389
 5067SOL    HW226838   1.479   1.132   9.804  0.2122 -1.5041  1.5280
 5068SOL     OW26839   3.728   4.152   2.259 -0.0583 -0.0673 -0.3465
 5068SOL    HW126840   3.688   4.066   2.271 -2.3496  0.8109 -1.6433
 5068SOL    HW226841   3.653   4.177   2.205 -0.6658 -0.5713  0.2576
 5069SOL     OW26842   4.116   4.108   5.883 -0.1876 -1.3502 -0.3939
 5069SOL    HW126843   4.074   4.024   5.904 -1.5377 -0.5239  0.1633
 5069SOL    HW226844   4.049   4.143   5.825 -0.2925  0.9517  1.1168
 5070SOL     OW26845   4.367   2.938  10.517  0.6521 -0.2809 -0.4061
 5070SOL    HW126846   4.420   2.996  10.572 -1.2780  0.4725  0.6487
 5070SOL    HW226847   4.351   2.864  10.576 -2.0860 -1.3658 -2.5433
 5071SOL     OW26848   0.640   1.746   7.683 -0.4599  0.8297 -0.0148
 5071SOL    HW126849   0.651   1.658   7.718  0.2735  0.3462 -1.4794
 5071SOL    HW226850   0.733   1.768   7.678 -0.2861 -0.4735 -2.3669
 5072SOL     OW26851   0.341   2.133   3.239 -0.2851 -0.0742 -0.0392
 5072SOL    HW126852   0.415   2.155   3.296 -1.4090 -0.1380  1.4257
 5072SOL    HW226853   0.284   2.107   3.311  1.5123 -2.1274  0.6397
 5073SOL     OW26854   1.077   3.717   2.871 -0.0103  0.0195  0.0758
 5073SOL    HW126855   1.160   3.759   2.851  0.4905  0.1034  2.3447
 5073SOL    HW226856   1.094   3.684   2.959 -1.8593  1.4571  1.0000
 5074SOL     OW26857   0.024   4.120   1.437 -0.1666 -0.4991 -0.0819
 5074SOL    HW126858   0.109   4.106   1.479 -0.0568  2.0960  0.5174
 5074SOL    HW226859   0.011   4.043   1.380  0.0859 -0.7982  0.2674
 5075SOL     OW26860   4.575   3.104  12.716 -0.1685 -0.0077 -0.2688
 5075SOL    HW126861   4.513   3.105  12.788 -1.5990  0.4913 -1.5118
 5075SOL    HW226862   4.520   3.072  12.644  1.2878  0.2620 -1.5146
 5076SOL     OW26863   1.283   1.018   3.832 -0.2896  0.4308 -0.2191
 5076SOL    HW126864   1.357   0.964   3.861  0.5257  1.2485 -0.7820
 5076SOL    HW226865   1.324   1.103   3.820  3.5460 -1.2854  0.4958
 5077SOL     OW26866   3.416   1.638   6.613  0.3314  0.1014 -0.5861
 5077SOL    HW126867   3.322   1.654   6.609  0.0094 -1.5194  0.5160
 5077SOL    HW226868   3.444   1.704   6.549 -0.7309  0.5294 -0.6028
 5078SOL     OW26869   3.145   4.435  15.500 -0.2925  0.1753 -0.0803
 5078SOL    HW126870   3.139   4.366  15.435 -1.7162 -2.9983  3.4154
 5078SOL    HW226871   3.219   4.404  15.553  1.4053  2.6106 -0.9850
 5079SOL     OW26872   4.572   0.226   4.084 -0.3390 -0.2476 -0.3078
 5079SOL    HW126873   4.519   0.147   4.074  0.1052 -0.6366  0.3829
 5079SOL    HW226874   4.511   0.294   4.058 -1.3273 -0.4385  1.4802
 5080SOL     OW26875   1.799   1.782   2.992 -0.2865 -0.1979  0.1283
 5080SOL    HW126876   1.880   1.795   3.043 -0.5999  0.3413  0.4906
 5080SOL    HW226877   1.728   1.807   3.051 -0.7594 -0.4683 -0.3352
 5081SOL     OW26878   1.889   2.387   6.544  0.6355  0.4623  0.1652
 5081SOL    HW126879   1.949   2.462   6.539  0.2735  0.7044 -0.5570
 5081SOL    HW226880   1.891   2.362   6.452 -1.7366  0.2350  0.1851
 5082SOL     OW26881   1.641   1.889   2.369  0.1969 -0.3130  0.0847
 5082SOL    HW126882   1.695   1.956   2.411 -1.4551 -1.0061  3.3372
 5082SOL    HW226883   1.637   1.823   2.438  1.1430 -1.5065 -1.0016
 5083SOL     OW26884   1.670   1.134   5.028  0.4444  0.2765 -0.1134
 5083SOL    HW126885   1.619   1.212   5.051  0.1981  0.1617 -0.2775
 5083SOL    HW226886   1.662   1.137   4.933  0.2455 -2.8737 -0.1859
 5084SOL     OW26887   4.131   0.909  14.191 -0.0672  0.3492 -0.0497
 5084SOL    HW126888   4.172   0.836  14.146  1.0180  1.2308 -0.4875
 5084SOL    HW226889   4.066   0.929  14.123  0.6260 -0.0352 -0.8206
 5085SOL     OW26890   1.741   3.061  16.335  0.1292  0.1133 -0.3544
 5085SOL    HW126891   1.749   3.010  16.254 -1.2519 -1.7465  0.6954
 5085SOL    HW226892   1.825   3.038  16.375 -0.4546  1.7607  1.7915
 5086SOL     OW26893   2.400   3.280   2.390  0.5386 -0.0690  0.3090
 5086SOL    HW126894   2.368   3.201   2.433 -0.5739 -0.3065 -0.9558
 5086SOL    HW226895   2.410   3.341   2.463 -1.5086  1.0608 -0.3663
 5087SOL     OW26896   2.359   1.201   2.919  0.7197  0.0138  0.4899
 5087SOL    HW126897   2.378   1.129   2.859 -1.8729  0.5848 -1.0492
 5087SOL    HW226898   2.279   1.238   2.880  1.2152  1.1515  0.5515
 5088SOL     OW26899   3.784   4.345   8.738  0.2976  0.2586  0.0085
 5088SOL    HW126900   3.754   4.348   8.647 -0.1149 -0.1287  0.1296
 5088SOL    HW226901   3.814   4.435   8.751 -1.9837  1.0329 -0.1109
 5089SOL     OW26902   2.884   2.823   3.484 -0.6063  0.1962  1.0300
 5089SOL    HW126903   2.901   2.855   3.396  1.6547  1.1074  1.7958
 5089SOL    HW226904   2.963   2.777   3.511 -0.6923 -0.0080  0.9368
 5090SOL     OW26905   1.916   1.631   7.306 -0.9508 -0.0894  0.6232
 5090SOL    HW126906   1.955   1.573   7.371 -0.1398 -0.3652 -0.1172
 5090SOL    HW226907   1.837   1.579   7.291 -0.9983  0.3004 -0.5268
 5091SOL     OW26908   2.731   4.612  12.379 -0.5918  0.0965 -0.0637
 5091SOL    HW126909   2.721   4.706  12.396 -0.9523 -0.2586  1.6531
 5091SOL    HW226910   2.807   4.616  12.321 -0.3439 -0.9578  0.1916
 5092SOL     OW26911   3.507   1.977  13.534  0.4438 -0.1346  0.4975
 5092SOL    HW126912   3.568   2.042  13.500  1.2073 -0.4581  1.2601
 5092SOL    HW226913   3.436   2.037  13.511  0.8506 -0.0765 -0.6077
 5093SOL     OW26914   3.352   3.272  16.305 -0.6263 -0.5796  0.4661
 5093SOL    HW126915   3.352   3.363  16.278 -1.1375 -0.5922  0.4264
 5093SOL    HW226916   3.314   3.223  16.233 -2.9698 -0.9225  1.9367
 5094SOL     OW26917   4.549   1.664  16.734  0.3316 -0.7773 -0.6361
 5094SOL    HW126918   4.525   1.599  16.668 -2.0233 -0.0571 -0.5087
 5094SOL    HW226919   4.512   1.625  16.813 -0.6401 -1.1579 -1.2799
 5095SOL     OW26920   3.111   0.989   3.873  0.6754 -0.3768 -0.1373
 5095SOL    HW126921   3.202   1.014   3.890  0.0476  1.0098  1.2602
 5095SOL    HW226922   3.088   1.045   3.799  1.1850 -0.5376 -0.4103
 5096SOL     OW26923   3.113   2.111   5.531 -0.4213  0.1032  0.1110
 5096SOL    HW126924   3.113   2.102   5.435 -1.5720  1.1089  0.0150
 5096SOL    HW226925   3.051   2.182   5.547 -3.0950 -1.8661 -1.3462
 5097SOL     OW26926   1.757   2.794   1.801 -0.0435 -0.0698  0.0863
 5097SOL    HW126927   1.729   2.880   1.832  1.0084  0.6364 -0.9095
 5097SOL    HW226928   1.679   2.744   1.820 -1.1146  1.7793  0.5682
 5098SOL     OW26929   3.021   0.109   5.840  0.4013 -0.2973 -0.4431
 5098SOL    HW126930   3.043   0.017   5.826  4.6923  0.5288  0.8758
 5098SOL    HW226931   3.019   0.146   5.752  2.6380 -2.4770 -1.3937
 5099SOL     OW26932   1.877   1.977   4.502 -0.1402 -0.4601 -0.0464
 5099SOL    HW126933   1.928   2.028   4.566  1.0848 -0.0635 -1.3475
 5099SOL    HW226934   1.835   1.906   4.550  0.9167 -0.6873  0.5401
 5100SOL     OW26935   3.769   2.819   2.419  0.9519 -0.2027 -0.1035
 5100SOL    HW126936   3.741   2.910   2.436  0.0672 -0.1015 -2.0798
 5100SOL    HW226937   3.773   2.818   2.323 -0.2402  2.5118 -0.1821
 5101SOL     OW26938   3.400   2.254  15.401  0.8923  0.2759 -0.4570
 5101SOL    HW126939   3.325   2.278  15.346  0.6159  1.9346  0.6359
 5101SOL    HW226940   3.420   2.164  15.376 -0.0851 -0.6491  2.1441
 5102SOL     OW26941   4.483   0.106   5.721 -0.1603 -0.0223  0.1335
 5102SOL    HW126942   4.550   0.111   5.653 -1.1055  1.0360 -0.7297
 5102SOL    HW226943   4.530   0.149   5.792  0.3995 -1.4248  0.6163
 5103SOL     OW26944   2.908   0.683   2.375  0.1428  0.3432  0.3012
 5103SOL    HW126945   2.942   0.599   2.345  0.5306  1.7197 -3.1529
 5103SOL    HW226946   2.839   0.661   2.437  0.5304 -1.0428  0.2481
 5104SOL     OW26947   1.570   0.084   5.278  0.1404  0.5457 -0.5716
 5104SOL    HW126948   1.658   0.050   5.293 -0.7711 -1.6365 -0.1741
 5104SOL    HW226949   1.519   0.007   5.254  1.2482 -0.1926 -0.5330
 5105SOL     OW26950   4.274   2.775  13.612 -0.0664 -0.2538  0.6382
 5105SOL    HW126951   4.242   2.837  13.678 -0.2565 -0.4744  0.7519
 5105SOL    HW226952   4.197   2.774  13.554 -0.8946  2.1673  1.6604
 5106SOL     OW26953   2.024   2.062   1.382 -0.4625 -0.7524 -0.6819
 5106SOL    HW126954   2.013   1.991   1.445 -1.9382  0.4267  0.3903
 5106SOL    HW226955   1.943   2.107   1.405 -0.2762 -2.1244  2.6026
 5107SOL     OW26956   1.275   2.581   7.588 -0.0154  0.0361  0.0807
 5107SOL    HW126957   1.278   2.673   7.562 -0.7005 -0.3457 -1.3796
 5107SOL    HW226958   1.252   2.545   7.502  0.0644 -1.9640  0.8972
 5108SOL     OW26959   0.331   2.914  10.282 -0.4625 -0.0082  0.6798
 5108SOL    HW126960   0.387   2.836  10.276 -0.6888 -0.0976 -0.3453
 5108SOL    HW226961   0.246   2.878  10.307 -0.4676 -1.1300 -0.9478
 5109SOL     OW26962   2.087   3.551   4.123 -0.0306 -0.3246  0.4537
 5109SOL    HW126963   2.172   3.560   4.166 -0.9646 -0.3473  2.3284
 5109SOL    HW226964   2.047   3.487   4.181  1.2059 -1.4637  0.0513
 5110SOL     OW26965   3.979   2.784   9.120 -0.2412  0.3039 -0.3593
 5110SOL    HW126966   3.916   2.801   9.050  0.7913 -1.2518 -1.6696
 5110SOL    HW226967   4.035   2.721   9.075  1.8681  0.6832  1.7133
 5111SOL     OW26968   3.798   1.945   7.037  0.6866  0.4985  0.3131
 5111SOL    HW126969   3.869   1.890   7.072 -0.7178 -1.1923  0.5313
 5111SOL    HW226970   3.844   2.029   7.040  0.0819  0.8993 -1.9544
 5112SOL     OW26971   1.673   2.662   5.313 -0.1822  0.2172 -0.5594
 5112SOL    HW126972   1.581   2.684   5.327  0.3387  0.8138  1.9664
 5112SOL    HW226973   1.686   2.683   5.220  0.4312 -0.1905 -0.5721
 5113SOL     OW26974   3.030   2.482   4.554 -0.0107 -1.0012 -0.1089
 5113SOL    HW126975   3.048   2.389   4.571  1.5966 -0.5429  0.7045
 5113SOL    HW226976   3.112   2.516   4.519 -0.0194  1.5285  2.2864
 5114SOL     OW26977   0.928   3.845   3.583  0.1431 -0.6298  0.1336
 5114SOL    HW126978   0.907   3.833   3.675 -1.4287  1.8424  0.1081
 5114SOL    HW226979   0.860   3.800   3.534  0.3057 -1.1020  0.3427
 5115SOL     OW26980   1.431   0.831   6.762  0.1312  0.2702 -0.1638
 5115SOL    HW126981   1.477   0.848   6.680 -0.7431  0.5644 -0.5904
 5115SOL    HW226982   1.422   0.922   6.791  1.2069  0.8732 -1.7133
 5116SOL     OW26983   2.803   3.917   9.258  0.6968 -0.0266 -0.2429
 5116SOL    HW126984   2.891   3.934   9.291  1.1478 -1.0788 -0.9020
 5116SOL    HW226985   2.790   3.822   9.260 -0.3987  0.2002  2.6587
 5117SOL     OW26986   3.757   4.262   7.458 -0.0532 -0.2058 -0.1465
 5117SOL    HW126987   3.752   4.289   7.366 -4.5031 -1.1062 -0.1783
 5117SOL    HW226988   3.768   4.344   7.505 -3.6324  0.6316 -0.7483
 5118SOL     OW26989   3.825   2.390   5.869  0.4519  0.2048  0.3746
 5118SOL    HW126990   3.798   2.451   5.938 -1.9754 -1.0924  0.5547
 5118SOL    HW226991   3.747   2.341   5.843 -0.9900  1.6747  1.9313
 5119SOL     OW26992   1.139   3.487  14.836 -0.1294 -0.0171  0.3001
 5119SOL    HW126993   1.216   3.542  14.821  1.2772 -2.6594 -2.1835
 5119SOL    HW226994   1.132   3.499  14.931 -4.9636 -0.7589  0.0366
 5120SOL     OW26995   3.839   3.288  14.384  0.5161 -0.4666  0.3388
 5120SOL    HW126996   3.884   3.329  14.457 -2.6911 -1.0969  2.6453
 5120SOL    HW226997   3.898   3.215  14.362  1.4009  0.6656 -1.0967
 5121SOL     OW26998   2.750   0.659   6.991 -0.1059 -0.7211  0.3051
 5121SOL    HW126999   2.704   0.622   6.916  0.0583 -0.8121  0.2472
 5121SOL    HW227000   2.771   0.585   7.048  0.0021 -0.3969  0.6883
 5122SOL     OW27001   2.821   3.335   9.202 -0.0542  0.0936 -0.0740
 5122SOL    HW127002   2.881   3.309   9.271 -2.0123 -0.1875  1.5315
 5122SOL    HW227003   2.856   3.293   9.124 -1.5176 -0.1703 -0.5873
 5123SOL     OW27004   0.435   0.159   1.022 -0.3114  0.1127 -0.4641
 5123SOL    HW127005   0.496   0.095   0.984  0.1488 -0.2105  0.8173
 5123SOL    HW227006   0.429   0.226   0.954  3.0362  2.0702  1.1825
 5124SOL     OW27007   1.080   2.086   7.379  0.0397 -0.2786 -0.3582
 5124SOL    HW127008   1.124   2.030   7.443 -0.4656  0.1447  0.3596
 5124SOL    HW227009   1.099   2.043   7.296  0.8743 -2.0606  0.7532
 5125SOL     OW27010   2.352   1.176  14.552  0.5484 -0.2164 -0.2372
 5125SOL    HW127011   2.343   1.096  14.604  1.2159 -0.1962 -0.0962
 5125SOL    HW227012   2.384   1.244  14.612 -0.3191 -0.7091  0.7935
 5126SOL     OW27013   0.617   0.906   7.553 -0.6160 -0.4823  0.4022
 5126SOL    HW127014   0.534   0.900   7.601  0.0009 -0.7589  1.4069
 5126SOL    HW227015   0.627   0.812   7.538 -2.2775 -0.5428 -0.3985
 5127SOL     OW27016   2.595   4.057  16.836  0.3340 -0.3861 -0.5814
 5127SOL    HW127017   2.624   4.138  16.794  1.5117 -0.9748 -0.8822
 5127SOL    HW227018   2.581   4.003  16.758 -1.6824  0.1715 -0.6083
 5128SOL     OW27019   4.263   1.244   2.975  0.0241 -0.2561 -0.3442
 5128SOL    HW127020   4.183   1.191   2.977 -0.2460  0.1461 -0.4676
 5128SOL    HW227021   4.287   1.232   3.067 -1.1455 -0.6672 -0.0918
 5129SOL     OW27022   4.353   3.496   8.026  0.3990 -0.0623  0.0603
 5129SOL    HW127023   4.348   3.411   7.982 -0.8004 -0.3152  0.6942
 5129SOL    HW227024   4.282   3.482   8.089 -0.1914  1.1954 -0.3230
 5130SOL     OW27025   2.426   0.271   5.623  0.0939 -0.5021  0.3997
 5130SOL    HW127026   2.407   0.189   5.577  1.9151 -0.2836 -0.7807
 5130SOL    HW227027   2.425   0.233   5.711 -1.5838 -1.1349  0.0982
 5131SOL     OW27028   2.591   4.113   9.233  0.0624 -0.1121  0.3500
 5131SOL    HW127029   2.667   4.055   9.230 -0.6989 -1.0998  0.3306
 5131SOL    HW227030   2.546   4.098   9.150  1.5192 -2.4291 -0.0206
 5132SOL     OW27031   1.776   3.804  15.384 -0.6357  0.3012  0.1155
 5132SOL    HW127032   1.742   3.763  15.463 -1.8051  0.3945 -0.3330
 5132SOL    HW227033   1.831   3.875  15.417 -0.9660  0.7631 -0.3209
 5133SOL     OW27034   4.233   0.315   5.080  0.0169 -0.3801 -0.0445
 5133SOL    HW127035   4.320   0.353   5.067 -1.2255  2.1860 -0.7975
 5133SOL    HW227036   4.225   0.251   5.009  0.2274  1.6754 -1.9338
 5134SOL     OW27037   2.741   2.164   3.456 -0.1041 -0.7831 -0.1039
 5134SOL    HW127038   2.726   2.241   3.401 -0.6647  0.3909  1.7117
 5134SOL    HW227039   2.732   2.204   3.542 -2.1947  0.2319 -0.7748
 5135SOL     OW27040   1.268   3.462   3.286 -0.5041  0.5482  0.1153
 5135SOL    HW127041   1.178   3.437   3.262 -0.5021 -0.4009  1.0579
 5135SOL    HW227042   1.277   3.454   3.381 -0.7135 -0.2985  0.0682
 5136SOL     OW27043   3.161   1.281  15.122  0.2993 -0.3129  0.4238
 5136SOL    HW127044   3.145   1.278  15.028  1.8531  3.7868 -0.0076
 5136SOL    HW227045   3.226   1.211  15.129  0.2606 -0.4994 -1.2945
 5137SOL     OW27046   3.631   3.408   2.036  0.7885 -0.4768  0.4088
 5137SOL    HW127047   3.636   3.485   1.981  1.1715 -0.8022 -0.0127
 5137SOL    HW227048   3.587   3.343   1.982  2.3882 -1.2303  0.0044
 5138SOL     OW27049   0.587   3.758   0.656 -0.5702 -0.0893 -0.1591
 5138SOL    HW127050   0.680   3.737   0.646 -0.6274  0.4521 -1.8760
 5138SOL    HW227051   0.597   3.829   0.718  0.5837 -0.3160 -0.0956
 5139SOL     OW27052   1.154   4.184   9.940  0.3898  0.5951 -0.3025
 5139SOL    HW127053   1.222   4.120   9.919 -1.4261 -0.8221 -1.9861
 5139SOL    HW227054   1.100   4.128   9.996  0.6951 -0.4757 -1.0653
 5140SOL     OW27055   3.884   3.971  11.624 -0.5275 -0.4001  0.0601
 5140SOL    HW127056   3.844   4.023  11.693  0.5355 -0.8525  1.0171
 5140SOL    HW227057   3.862   4.031  11.553 -0.2508 -1.3198 -0.8023
 5141SOL     OW27058   2.157   4.101   9.300  0.3433  0.3430  0.3792
 5141SOL    HW127059   2.081   4.056   9.337  1.9286 -3.2359 -0.7596
 5141SOL    HW227060   2.159   4.187   9.343 -1.2039  0.6898 -0.2295
 5142SOL     OW27061   3.512   0.078   8.631  0.1619 -0.2935 -0.4393
 5142SOL    HW127062   3.491   0.001   8.578  0.7791 -0.7299 -0.0436
 5142SOL    HW227063   3.603   0.089   8.603  0.5467 -0.3893  0.7959
 5143SOL     OW27064   2.516   4.281   9.765 -0.2085  0.1998 -0.3712
 5143SOL    HW127065   2.520   4.185   9.760  0.8472  0.2916 -1.2353
 5143SOL    HW227066   2.458   4.306   9.837  2.6666  1.8306  1.3950
 5144SOL     OW27067   4.700   1.418   0.993 -0.0817  0.6022 -0.2979
 5144SOL    HW127068   0.020   1.380   0.924 -1.9884  0.5690 -1.7908
 5144SOL    HW227069   0.000   1.371   1.069 -1.3350  0.5330  0.2343
 5145SOL     OW27070   3.821   1.877   1.443  0.0352 -0.2986  0.4476
 5145SOL    HW127071   3.801   1.791   1.478  1.6406 -1.1200 -0.6814
 5145SOL    HW227072   3.916   1.876   1.432 -0.2075 -0.0927 -1.6791
 5146SOL     OW27073   0.260   0.161   8.476 -0.2260 -0.5545 -0.2003
 5146SOL    HW127074   0.299   0.074   8.484  0.1767 -0.3800 -0.2906
 5146SOL    HW227075   0.171   0.134   8.452 -0.3402 -0.8103  0.4942
 5147SOL     OW27076   4.471   2.814   1.734 -0.0653 -0.3761 -0.2486
 5147SOL    HW127077   4.395   2.850   1.778 -0.9220 -2.8833  0.3566
 5147SOL    HW227078   4.495   2.889   1.680 -1.0006  0.0772 -0.0232
 5148SOL     OW27079   3.528   3.196   1.804 -0.7498  0.5315  0.0095
 5148SOL    HW127080   3.437   3.203   1.774 -0.5124 -0.3144 -0.9012
 5148SOL    HW227081   3.565   3.120   1.759 -0.0619  0.2397  1.0634
 5149SOL     OW27082   3.075   4.238   6.124 -0.3726 -1.0374 -0.8079
 5149SOL    HW127083   2.985   4.226   6.153 -0.7833 -1.7927 -2.4315
 5149SOL    HW227084   3.106   4.237   6.215 -0.6586  1.7723 -0.6711
 5150SOL     OW27085   2.785   1.350   2.949  0.1942 -0.2031  0.5278
 5150SOL    HW127086   2.862   1.406   2.945  1.0190 -1.2334  1.9014
 5150SOL    HW227087   2.752   1.341   2.860  0.0116 -3.4142  0.9286
 5151SOL     OW27088   2.502   1.336   4.320 -0.8849  0.2203 -0.1187
 5151SOL    HW127089   2.515   1.430   4.311 -1.0763  0.1753 -0.9076
 5151SOL    HW227090   2.573   1.321   4.382 -0.4479 -3.0434 -1.3777
 5152SOL     OW27091   3.210   1.410   5.270 -0.5634  0.0320 -0.4813
 5152SOL    HW127092   3.172   1.486   5.224 -1.3822 -1.0354 -1.5586
 5152SOL    HW227093   3.173   1.428   5.356  0.9944 -0.7642  0.3399
 5153SOL     OW27094   2.248   2.677   7.580 -0.1305 -0.3418 -0.0885
 5153SOL    HW127095   2.279   2.625   7.654  1.5319 -0.4414 -0.8552
 5153SOL    HW227096   2.323   2.669   7.520  0.1353  1.1296  0.0427
 5154SOL     OW27097   0.165   2.149   9.101  0.2954 -0.4159 -0.3755
 5154SOL    HW127098   0.077   2.127   9.072  0.0775  0.2255 -0.1905
 5154SOL    HW227099   0.211   2.140   9.018  0.9534 -1.2240  0.0690
 5155SOL     OW27100   1.899   1.752   5.817  0.0860 -0.8118  0.0095
 5155SOL    HW127101   1.922   1.662   5.796  2.3066  0.2145 -1.8694
 5155SOL    HW227102   1.839   1.774   5.745 -0.5620 -1.5640  0.3119
 5156SOL     OW27103   2.324   3.658   2.090  0.2800  0.0888 -0.1177
 5156SOL    HW127104   2.317   3.673   2.185  0.0441  3.2391 -0.6384
 5156SOL    HW227105   2.369   3.736   2.060 -1.0194  0.1084 -2.0268
 5157SOL     OW27106   3.211   0.336   8.686  0.1033 -0.1011  0.5285
 5157SOL    HW127107   3.144   0.275   8.655 -1.5800  0.2418  3.5277
 5157SOL    HW227108   3.178   0.378   8.766  2.6158  1.1572  0.8883
 5158SOL     OW27109   2.345   1.425   6.261 -0.1297 -0.1096 -0.0492
 5158SOL    HW127110   2.406   1.400   6.330 -0.3356 -1.1517 -0.2356
 5158SOL    HW227111   2.294   1.344   6.257 -2.3508  1.1726  1.7199
 5159SOL     OW27112   4.690   3.378   1.510  0.1871  0.0242  0.1465
 5159SOL    HW127113   4.611   3.361   1.460  1.3101  0.6407 -1.8578
 5159SOL    HW227114   4.659   3.401   1.597 -1.4722  0.0679 -0.4640
 5160SOL     OW27115   0.122   1.432   4.433 -0.4658  0.1191  0.4738
 5160SOL    HW127116   0.040   1.424   4.481 -0.0868 -4.5674  0.2845
 5160SOL    HW227117   0.176   1.364   4.473 -0.9178 -0.6686 -0.2492
 5161SOL     OW27118   2.267   1.928  11.646  0.4335  0.3716  0.1640
 5161SOL    HW127119   2.226   1.982  11.578 -0.5802 -0.6390 -0.0257
 5161SOL    HW227120   2.293   1.860  11.584 -1.1348  1.0718 -1.2677
 5162SOL     OW27121   0.670   0.788   1.101 -0.1271 -0.1762 -0.5090
 5162SOL    HW127122   0.757   0.808   1.135 -0.4636  2.0922 -1.0045
 5162SOL    HW227123   0.618   0.850   1.153  0.6465  0.1088 -0.0798
 5163SOL     OW27124   1.696   3.397   4.745  0.3189 -0.4036  0.4102
 5163SOL    HW127125   1.641   3.387   4.823 -0.9032 -0.6260 -0.5031
 5163SOL    HW227126   1.683   3.492   4.748 -1.5550 -0.6808  0.9389
 5164SOL     OW27127   3.811   2.556   8.122  0.3377 -0.6135 -0.4294
 5164SOL    HW127128   3.747   2.577   8.054 -0.7399  0.4510  0.9087
 5164SOL    HW227129   3.891   2.598   8.089  0.9086 -2.3536 -1.2310
 5165SOL     OW27130   0.628   2.599   6.270  0.2204  0.4824 -0.0891
 5165SOL    HW127131   0.688   2.556   6.332 -1.0839 -1.5082 -0.2214
 5165SOL    HW227132   0.698   2.645   6.224  0.3767  0.5688  0.2342
 5166SOL     OW27133   1.414   1.730   0.184 -0.4132 -0.1494  0.0325
 5166SOL    HW127134   1.498   1.700   0.219 -1.6021 -2.1739  1.1578
 5166SOL    HW227135   1.359   1.662   0.224 -2.0880  1.1039 -0.1273
 5167SOL     OW27136   2.423   4.351   6.348 -0.2519 -0.3350  0.5844
 5167SOL    HW127137   2.400   4.288   6.417  2.3769 -2.1555 -0.1838
 5167SOL    HW227138   2.356   4.419   6.352  0.0640 -0.0261  0.6143
 5168SOL     OW27139   0.110   1.872   0.786 -0.2416  0.2387  0.0073
 5168SOL    HW127140   0.116   1.783   0.753 -0.2293  0.3731 -0.3590
 5168SOL    HW227141   0.101   1.852   0.879  1.0624  0.1518  0.1059
 5169SOL     OW27142   1.789   0.167   6.156  0.2234  0.6435 -0.2812
 5169SOL    HW127143   1.767   0.100   6.221 -1.1216  1.7799  0.4482
 5169SOL    HW227144   1.858   0.217   6.199  0.1884 -0.9482  1.6320
 5170SOL     OW27145   4.692   0.885   5.214  0.1083 -0.0708  0.3660
 5170SOL    HW127146   0.038   0.884   5.264  0.1564  2.6666  0.3611
 5170SOL    HW227147   4.629   0.891   5.286 -0.4376 -1.1025 -0.0280
 5171SOL     OW27148   2.512   0.835   4.888 -0.0827 -0.7376 -0.3818
 5171SOL    HW127149   2.510   0.769   4.957  0.7515  0.4519  0.7741
 5171SOL    HW227150   2.537   0.917   4.930 -1.8925  0.1799 -1.0604
 5172SOL     OW27151   4.535   1.401   5.967  0.3147  1.2289  0.1381
 5172SOL    HW127152   4.495   1.488   5.969  0.5542  1.3881 -1.8612
 5172SOL    HW227153   4.618   1.426   5.927 -0.9479  3.0070 -1.3911
 5173SOL     OW27154   3.480   2.480   4.980  0.1546 -0.3155  0.4775
 5173SOL    HW127155   3.446   2.466   4.891  0.6250  0.9522  0.0975
 5173SOL    HW227156   3.565   2.437   4.966 -0.0725 -0.8334  0.6844
 5174SOL     OW27157   0.986   1.956   7.963  0.1401 -0.0193 -0.2809
 5174SOL    HW127158   0.918   1.970   7.897  0.3985 -0.8939 -0.7366
 5174SOL    HW227159   1.054   2.019   7.941  1.0798 -0.6225  0.8614
 5175SOL     OW27160   0.034   2.279   5.475  0.2182  0.3861  0.2128
 5175SOL    HW127161   0.034   2.326   5.391  0.9304 -0.4838 -0.2766
 5175SOL    HW227162   4.700   2.329   5.520 -0.0619  0.5274 -0.3686
 5176SOL     OW27163   0.269   2.467   4.132 -0.0419 -0.0841 -0.3403
 5176SOL    HW127164   0.327   2.483   4.206 -0.0291  1.0176 -0.5920
 5176SOL    HW227165   0.300   2.535   4.073 -2.0262  1.1287  0.0162
 5177SOL     OW27166   4.023   0.720  13.525 -0.2374 -0.0534 -0.3217
 5177SOL    HW127167   3.990   0.786  13.463  2.7086  0.9002 -0.8979
 5177SOL    HW227168   4.092   0.677  13.476  1.1558  1.3596  0.3924
 5178SOL     OW27169   2.372   0.181   9.407 -0.5421 -0.1663  0.5957
 5178SOL    HW127170   2.383   0.144   9.494  0.8455 -0.4306  0.2922
 5178SOL    HW227171   2.356   0.275   9.419 -0.9678 -0.1226 -0.2822
 5179SOL     OW27172   0.649   3.782   5.212 -0.8834  0.0890  0.9847
 5179SOL    HW127173   0.672   3.850   5.276 -0.9658 -1.2704  2.4376
 5179SOL    HW227174   0.625   3.712   5.273 -2.9792 -1.4127 -1.5867
 5180SOL     OW27175   2.513   2.396   5.876  0.0212 -0.1180 -0.1131
 5180SOL    HW127176   2.547   2.310   5.900 -0.3438 -0.7617 -1.9372
 5180SOL    HW227177   2.421   2.383   5.898 -0.4691  2.5855 -0.5651
 5181SOL     OW27178   0.565   1.158   3.662  0.1970 -0.5733 -0.3313
 5181SOL    HW127179   0.546   1.132   3.572 -1.6154  2.1424 -0.7587
 5181SOL    HW227180   0.480   1.151   3.706 -0.3257  2.4269 -0.7995
 5182SOL     OW27181   2.585   1.614   8.398  0.5066  0.1700 -0.4140
 5182SOL    HW127182   2.659   1.554   8.387  1.2350  1.5877 -3.4487
 5182SOL    HW227183   2.614   1.650   8.482  0.3894 -0.8538  0.0721
 5183SOL     OW27184   0.816   1.181  16.851  0.1011 -0.3085 -0.2674
 5183SOL    HW127185   0.810   1.235  16.772  2.4684 -1.6767 -1.3713
 5183SOL    HW227186   0.722   1.173  16.865  0.0081 -0.8863 -1.2578
 5184SOL     OW27187   3.490   4.441  13.665 -0.0216 -0.0636  0.0958
 5184SOL    HW127188   3.466   4.524  13.624 -1.3460 -0.4122  0.1608
 5184SOL    HW227189   3.563   4.423  13.606  0.9259 -1.5075  1.7311
 5185SOL     OW27190   0.284   0.120   4.383  0.5655 -0.0401  0.3701
 5185SOL    HW127191   0.230   0.197   4.402 -0.7941 -1.1458  0.9320
 5185SOL    HW227192   0.244   0.080   4.306  0.3623  0.4516  0.2214
 5186SOL     OW27193   1.397   4.037  14.781  0.1198 -0.2828 -0.2899
 5186SOL    HW127194   1.336   4.007  14.849  0.3836 -2.1049 -0.8636
 5186SOL    HW227195   1.347   4.046  14.700 -0.1979 -2.1905 -0.2981
 5187SOL     OW27196   4.394   0.378   8.934 -0.2943  0.0769 -0.3477
 5187SOL    HW127197   4.456   0.412   8.998 -0.9848 -1.1512  0.9896
 5187SOL    HW227198   4.400   0.458   8.882 -0.6396 -0.3744 -1.0970
 5188SOL     OW27199   0.763   3.695   0.956 -0.3764 -0.1052  0.0252
 5188SOL    HW127200   0.835   3.636   0.979 -0.7482 -0.9876 -1.1319
 5188SOL    HW227201   0.803   3.731   0.877 -0.8869 -0.3222 -0.3313
 5189SOL     OW27202   3.945   0.150   4.271  0.1494  0.0742  1.0277
 5189SOL    HW127203   4.037   0.170   4.251 -0.3579  1.2061 -0.1577
 5189SOL    HW227204   3.925   0.200   4.350 -1.3365  0.2579  0.5354
 5190SOL     OW27205   0.404   1.050   5.941 -0.0417 -0.9691 -0.1322
 5190SOL    HW127206   0.345   1.014   5.874 -0.4982 -3.2650  1.5262
 5190SOL    HW227207   0.478   1.004   5.900  0.7492 -0.0301  0.2248
 5191SOL     OW27208   0.395   4.523   6.380  0.3179 -0.0865 -0.1983
 5191SOL    HW127209   0.351   4.545   6.298  0.1067 -1.7168 -0.5107
 5191SOL    HW227210   0.421   4.608   6.416  1.2713  0.0321 -1.1801
 5192SOL     OW27211   1.782   3.534   6.910 -0.2769 -0.2143  0.1326
 5192SOL    HW127212   1.795   3.622   6.948 -1.4025 -0.1739  0.4254
 5192SOL    HW227213   1.860   3.512   6.858 -0.9540  0.4828 -1.1625
 5193SOL     OW27214   4.264   0.177   7.290  0.3713  0.3679 -0.4059
 5193SOL    HW127215   4.223   0.255   7.252 -1.0249  0.1379  0.6278
 5193SOL    HW227216   4.216   0.114   7.236 -0.9559  3.0769 -2.3806
 5194SOL     OW27217   0.100   3.031   8.501 -0.1789  0.5276  0.7390
 5194SOL    HW127218   0.043   2.961   8.468 -0.5236  1.6315 -1.0311
 5194SOL    HW227219   0.140   2.983   8.574 -0.5136  0.7213  1.0485
 5195SOL     OW27220   1.928   4.012   8.709  0.1932  0.3847 -0.1036
 5195SOL    HW127221   1.954   4.023   8.800  0.2471  1.0789 -0.1973
 5195SOL    HW227222   1.872   4.089   8.697  0.1156  0.1127 -1.5795
 5196SOL     OW27223   0.419   2.859   5.831  0.1003  0.4230  0.4907
 5196SOL    HW127224   0.405   2.767   5.807  0.0388  0.4584  0.3943
 5196SOL    HW227225   0.383   2.897   5.752  2.4638  1.0858 -0.2602
 5197SOL     OW27226   3.908   1.856   4.314  0.1553 -0.1646 -0.0141
 5197SOL    HW127227   3.898   1.766   4.284 -2.3940  0.1548 -0.1341
 5197SOL    HW227228   3.968   1.887   4.246  1.7831 -0.7954  1.1344
 5198SOL     OW27229   1.220   2.711   2.271 -0.7658 -0.2596  0.6611
 5198SOL    HW127230   1.198   2.790   2.320 -2.1542 -1.2152  1.5744
 5198SOL    HW227231   1.224   2.750   2.183  0.5572 -1.2515  0.2771
 5199SOL     OW27232   2.215   2.680   4.427 -0.0302  0.2569  0.2069
 5199SOL    HW127233   2.129   2.638   4.426  0.7050 -1.2478  0.7679
 5199SOL    HW227234   2.223   2.695   4.333  0.6236  0.5768  0.3113
 5200SOL     OW27235   1.672   0.628   7.363  0.0449 -0.4698 -0.6920
 5200SOL    HW127236   1.622   0.698   7.405 -1.2984 -1.5165 -0.5460
 5200SOL    HW227237   1.750   0.681   7.348 -1.2130  1.9391  1.3620
 5201SOL     OW27238   3.241   2.683   3.481 -0.2058 -0.9254 -0.6868
 5201SOL    HW127239   3.309   2.625   3.445 -0.0129 -0.9042 -0.3487
 5201SOL    HW227240   3.164   2.637   3.448 -1.2363  1.2636 -1.3111
 5202SOL     OW27241   3.142   3.732  11.068  0.2439 -0.5909 -0.1427
 5202SOL    HW127242   3.158   3.735  11.162  1.2294  2.2788 -0.4055
 5202SOL    HW227243   3.109   3.819  11.048  2.6682  1.1061  3.2480
 5203SOL     OW27244   3.810   4.397  11.070 -0.5238 -0.3887 -0.5236
 5203SOL    HW127245   3.715   4.413  11.074 -0.5816 -0.8446 -0.0071
 5203SOL    HW227246   3.833   4.393  11.163 -0.0938  1.9694 -0.5249
 5204SOL     OW27247   2.676   2.604  16.231 -0.5132  0.1495 -0.0415
 5204SOL    HW127248   2.655   2.512  16.248  1.5666 -0.6543 -1.7459
 5204SOL    HW227249   2.764   2.594  16.268 -0.3003  0.7921 -0.3892
 5205SOL     OW27250   4.170   1.712   2.811  0.4498 -0.5410  0.9778
 5205SOL    HW127251   4.226   1.689   2.738 -2.2801  0.9512 -1.6061
 5205SOL    HW227252   4.121   1.783   2.769  1.0846 -0.2823  0.6764
 5206SOL     OW27253   1.680   0.773   1.853  0.1924 -0.5764 -0.0004
 5206SOL    HW127254   1.730   0.710   1.906 -0.6222 -0.8077  0.4958
 5206SOL    HW227255   1.674   0.848   1.913 -2.4053 -0.2785 -0.6131
 5207SOL     OW27256   2.328   0.968   2.158 -0.8496  0.4802  0.2416
 5207SOL    HW127257   2.377   0.992   2.079 -0.3193  1.1921  0.7803
 5207SOL    HW227258   2.289   1.054   2.176  1.6525  1.4500  1.0519
 5208SOL     OW27259   4.608   0.912   5.476  0.3929  0.2364 -0.8062
 5208SOL    HW127260   4.636   0.890   5.564  0.6338  0.9902 -0.6953
 5208SOL    HW227261   4.520   0.949   5.488 -0.6670 -2.4497 -0.1062
 5209SOL     OW27262   4.195   0.379   7.137 -0.6313  0.4013  0.3868
 5209SOL    HW127263   4.247   0.356   7.060  1.9240  0.6852  2.0135
 5209SOL    HW227264   4.246   0.453   7.171  0.1964 -0.5201  1.1149
 5210SOL     OW27265   0.653   3.722  15.885 -0.3489 -0.7290 -0.0064
 5210SOL    HW127266   0.663   3.816  15.867 -2.3052 -0.1970  1.7931
 5210SOL    HW227267   0.742   3.694  15.861 -0.9005 -1.1763 -1.5644
 5211SOL     OW27268   0.984   3.298   1.875  0.4363  0.3757 -0.4086
 5211SOL    HW127269   0.940   3.339   1.800  1.4741 -0.7582 -1.6277
 5211SOL    HW227270   1.066   3.347   1.881  1.6658 -1.5990 -1.0966
 5212SOL     OW27271   4.315   2.213   4.228 -0.3298 -0.5027  0.3760
 5212SOL    HW127272   4.220   2.219   4.219 -0.0319  1.7382 -1.3357
 5212SOL    HW227273   4.330   2.169   4.312  0.3113  0.3220  0.7064
 5213SOL     OW27274   0.883   4.509  15.453 -0.1285  0.1461  0.0916
 5213SOL    HW127275   0.944   4.581  15.440  0.4500 -0.9108 -3.0741
 5213SOL    HW227276   0.904   4.452  15.379  1.7015 -0.2229  0.8876
 5214SOL     OW27277   2.756   0.536   7.597 -0.3974  0.1109  0.1426
 5214SOL    HW127278   2.805   0.598   7.542 -0.6095  0.9268  0.8831
 5214SOL    HW227279   2.827   0.511   7.655 -1.0746  0.6498  1.2052
 5215SOL     OW27280   2.380   1.666   9.396  0.0456 -0.0854  0.3611
 5215SOL    HW127281   2.334   1.676   9.479  1.9472  0.5680  1.3305
 5215SOL    HW227282   2.345   1.579   9.376  2.5028 -0.8354 -0.6935
 5216SOL     OW27283   3.723   1.140   5.969 -0.0788  0.1109  0.4153
 5216SOL    HW127284   3.764   1.188   6.041  0.9230 -1.8753  1.1718
 5216SOL    HW227285   3.679   1.074   6.024  0.8619 -0.9181 -0.0542
 5217SOL     OW27286   2.071   3.619   1.951 -0.1539 -0.0714  0.2682
 5217SOL    HW127287   2.136   3.651   2.013  0.6106 -1.4406  0.1603
 5217SOL    HW227288   2.137   3.577   1.896  0.0225 -1.1114  1.2742
 5218SOL     OW27289   0.635   2.820   1.562 -0.5848  0.5804  0.1764
 5218SOL    HW127290   0.542   2.818   1.584 -0.7778 -0.6568 -0.7252
 5218SOL    HW227291   0.654   2.889   1.625  0.4986  0.0711  0.4105
 5219SOL     OW27292   3.091   1.238   2.689  0.4698 -0.5272  0.2881
 5219SOL    HW127293   3.014   1.190   2.658  0.3673 -0.8581  1.0558
 5219SOL    HW227294   3.103   1.201   2.776  0.5930  0.5802  0.7413
 5220SOL     OW27295   0.733   3.972  15.833  0.4158 -0.1644  0.3125
 5220SOL    HW127296   0.782   4.015  15.764 -4.0149  3.3633 -0.6510
 5220SOL    HW227297   0.795   3.939  15.898  1.8900 -0.9587 -1.5061
 5221SOL     OW27298   4.322   4.073   6.696  0.3315  0.0096  0.4529
 5221SOL    HW127299   4.310   4.152   6.644 -0.4952  0.5402  1.4526
 5221SOL    HW227300   4.376   4.023   6.635 -0.8415 -2.0769  1.1193
 5222SOL     OW27301   3.562   1.780   8.460  0.2137  0.8612 -0.5840
 5222SOL    HW127302   3.511   1.859   8.443 -0.0462  0.9449  0.5623
 5222SOL    HW227303   3.627   1.766   8.391  1.8112 -1.0334  1.3138
 5223SOL     OW27304   1.871   3.282  13.361  1.2802  0.7020  0.7419
 5223SOL    HW127305   1.914   3.243  13.285  1.4057 -0.1587  1.2527
 5223SOL    HW227306   1.854   3.210  13.422  0.7925 -0.4764 -0.7935
 5224SOL     OW27307   3.181   0.984  10.450  0.0952 -0.5993 -0.5252
 5224SOL    HW127308   3.241   1.029  10.389  0.3062  1.2175  1.0196
 5224SOL    HW227309   3.207   1.017  10.536  0.7478 -0.9355 -0.5916
 5225SOL     OW27310   4.501   0.810   9.298 -0.1271  0.3432  0.0907
 5225SOL    HW127311   4.440   0.738   9.314 -2.0609  1.5554 -1.7893
 5225SOL    HW227312   4.484   0.828   9.206  0.1380 -2.5714 -0.5296
 5226SOL     OW27313   0.519   4.152   8.355 -0.3897 -0.6671 -0.1853
 5226SOL    HW127314   0.540   4.112   8.270  1.3250  0.3227 -0.2291
 5226SOL    HW227315   0.432   4.116   8.370  0.4112 -1.8437  1.7168
 5227SOL     OW27316   3.425   3.745   7.947  0.0208  0.3496  0.2825
 5227SOL    HW127317   3.448   3.660   7.908 -0.2752 -0.0484  0.9690
 5227SOL    HW227318   3.495   3.750   8.012 -0.6623 -1.6065  1.1776
 5228SOL     OW27319   1.286   1.230   5.304  0.2129 -0.0293 -0.3068
 5228SOL    HW127320   1.212   1.169   5.302 -0.4646  0.8106 -1.1093
 5228SOL    HW227321   1.357   1.178   5.341  0.9321 -1.2364 -3.4002
 5229SOL     OW27322   0.820   2.816   7.198  0.5010 -0.4600  0.6437
 5229SOL    HW127323   0.825   2.860   7.282  1.6795  1.6948 -0.5504
 5229SOL    HW227324   0.733   2.844   7.170  0.8823 -0.5677 -0.6469
 5230SOL     OW27325   3.259   4.633   6.991  0.2695 -0.4890  0.2178
 5230SOL    HW127326   3.253   4.683   7.072  0.1473 -1.9094  1.0799
 5230SOL    HW227327   3.193   4.564   6.999  1.5960 -1.8549 -0.5128
 5231SOL     OW27328   0.685   2.385   1.692 -0.3667 -0.6783  0.0441
 5231SOL    HW127329   0.764   2.368   1.745 -1.6957 -1.6900  1.7261
 5231SOL    HW227330   0.725   2.443   1.628  1.3808 -3.1630 -1.1322
 5232SOL     OW27331   0.595   2.938   3.530 -0.0223 -0.2356  0.0661
 5232SOL    HW127332   0.587   3.025   3.491 -3.0793 -0.3850  0.3739
 5232SOL    HW227333   0.507   2.937   3.568 -0.6478 -0.7120 -1.3898
 5233SOL     OW27334   1.059   3.482   8.312 -0.9119 -0.4398 -0.3768
 5233SOL    HW127335   1.155   3.487   8.313 -0.9372  0.0806 -0.4538
 5233SOL    HW227336   1.031   3.496   8.402 -0.7143 -0.0821 -0.3689
 5234SOL     OW27337   0.043   0.664  11.760 -0.2898 -0.5524  0.0229
 5234SOL    HW127338   0.032   0.697  11.671  2.1167  0.9413  0.2611
 5234SOL    HW227339   0.012   0.744  11.804 -0.0482 -1.2824  1.4932
 5235SOL     OW27340   3.383   0.560   6.473 -0.0342  0.2261  0.1830
 5235SOL    HW127341   3.434   0.544   6.394 -2.4253 -1.1458 -1.1034
 5235SOL    HW227342   3.441   0.523   6.539  0.7705  0.8960 -0.1598
 5236SOL     OW27343   0.963   3.905   4.295 -0.5397 -0.0786  0.2193
 5236SOL    HW127344   0.982   3.865   4.380  2.2124 -1.1648 -0.9170
 5236SOL    HW227345   1.007   3.843   4.236 -0.7270  0.6764 -0.7191
 5237SOL     OW27346   3.521   1.877   5.083 -0.2601 -0.0724  0.5984
 5237SOL    HW127347   3.556   1.939   5.019  0.5009 -1.7705 -0.6482
 5237SOL    HW227348   3.581   1.876   5.158  0.6908 -1.6533 -0.1692
 5238SOL     OW27349   4.647   0.277   7.077  0.0338 -1.0340  0.0746
 5238SOL    HW127350   0.004   0.300   7.092 -0.1621  0.6614 -1.4069
 5238SOL    HW227351   4.609   0.319   7.154  0.6440 -0.8354  0.2668
 5239SOL     OW27352   3.093   0.097   4.897  0.0148 -0.1376  0.7048
 5239SOL    HW127353   3.072   0.106   4.990 -0.3296  1.1920  0.5057
 5239SOL    HW227354   3.015   0.054   4.861 -0.9421  1.9215  0.2663
 5240SOL     OW27355   3.412   1.936   2.450 -0.1882 -0.4578 -0.4245
 5240SOL    HW127356   3.412   2.025   2.414 -0.2488 -0.7190 -1.0612
 5240SOL    HW227357   3.440   1.877   2.380  0.4608 -1.3795  0.6002
 5241SOL     OW27358   2.350   2.009  11.337  0.7712  0.3875 -0.5972
 5241SOL    HW127359   2.257   2.020  11.357  0.1941 -2.3114 -1.7580
 5241SOL    HW227360   2.406   2.069  11.386  0.3056 -1.8966  2.7231
 5242SOL     OW27361   1.538   2.688  14.145  0.1143  0.1309  0.0342
 5242SOL    HW127362   1.468   2.627  14.122 -0.1271  0.5796 -0.4601
 5242SOL    HW227363   1.490   2.771  14.148  1.0759  0.7730 -1.6936
 5243SOL     OW27364   2.491   1.359   6.487 -0.3052 -0.8041 -0.3288
 5243SOL    HW127365   2.585   1.355   6.467 -0.5836 -0.2488 -1.7445
 5243SOL    HW227366   2.473   1.272   6.522 -0.2089 -1.4590 -1.9204
 5244SOL     OW27367   4.604   2.731   1.161  0.3855 -0.6102  0.0743
 5244SOL    HW127368   4.610   2.642   1.196  0.9570 -0.8492 -0.6279
 5244SOL    HW227369   4.636   2.785   1.233 -2.3783 -2.1298  2.4433
 5245SOL     OW27370   1.739   3.716   8.444  0.0263  0.2540  0.2619
 5245SOL    HW127371   1.715   3.792   8.497  0.3100  0.4192  0.1516
 5245SOL    HW227372   1.829   3.704   8.473  0.1032 -1.2018 -0.5776
 5246SOL     OW27373   1.717   0.310   0.246  0.1815 -0.3251  0.2361
 5246SOL    HW127374   1.640   0.303   0.190  0.1004  3.1817 -0.1359
 5246SOL    HW227375   1.676   0.261   0.317 -0.1221 -0.1643  0.1709
 5247SOL     OW27376   4.455   0.065  14.932  0.2371 -0.2973 -0.3212
 5247SOL    HW127377   4.471   4.722  14.878 -1.7264 -1.1438  0.3276
 5247SOL    HW227378   4.446   0.038  15.023 -1.6527  1.7523  0.1014
 5248SOL     OW27379   1.172   0.106  13.005  0.1919  0.3151 -0.0677
 5248SOL    HW127380   1.104   0.158  13.047 -1.7373 -2.8317  0.6067
 5248SOL    HW227381   1.235   0.168  12.967  0.4076 -0.6967 -1.3466
 5249SOL     OW27382   2.174   0.438   8.122 -0.2007  0.4586  0.4641
 5249SOL    HW127383   2.085   0.438   8.156 -0.7971  2.5894 -1.1389
 5249SOL    HW227384   2.161   0.422   8.029 -0.7739  0.0808  0.6111
 5250SOL     OW27385   2.911   0.393   4.921 -0.5612 -0.2765  0.5851
 5250SOL    HW127386   2.905   0.315   4.865 -2.8333  0.2522  0.0747
 5250SOL    HW227387   2.887   0.461   4.858  0.1179 -1.9099 -1.4311
 5251SOL     OW27388   0.181   3.244  13.616 -0.3185  0.7281 -0.7246
 5251SOL    HW127389   0.190   3.169  13.557 -0.7844  0.9339 -1.0572
 5251SOL    HW227390   0.248   3.304  13.582 -1.5759  3.0603  0.8538
 5252SOL     OW27391   2.883   1.939   9.846  0.3702  0.2415  0.2166
 5252SOL    HW127392   2.942   1.980   9.784  0.9457  0.0679  0.6458
 5252SOL    HW227393   2.948   1.886   9.892 -0.5775 -0.1070  1.1601
 5253SOL     OW27394   2.094   4.301   9.782 -0.4778 -0.3298 -0.1161
 5253SOL    HW127395   2.155   4.245   9.735 -3.0663 -1.2468 -2.3732
 5253SOL    HW227396   2.035   4.327   9.711 -0.2550 -3.2132 -1.3416
 5254SOL     OW27397   4.461   4.500  13.523 -0.0060 -0.0446 -0.2266
 5254SOL    HW127398   4.437   4.486  13.431  0.0482 -1.3725 -0.0297
 5254SOL    HW227399   4.394   4.561  13.556  0.7210  1.6566 -1.9393
 5255SOL     OW27400   2.574   4.605  15.607 -0.0829 -0.5332  0.0330
 5255SOL    HW127401   2.523   4.536  15.649 -1.8123 -0.8892 -2.6071
 5255SOL    HW227402   2.651   4.614  15.662  0.6913  2.5259 -1.5610
 5256SOL     OW27403   2.655   3.972   1.724  0.1741 -0.7103  0.2732
 5256SOL    HW127404   2.596   4.045   1.705  1.9305  0.3955 -0.9598
 5256SOL    HW227405   2.738   3.999   1.684 -0.3901  1.0416  0.2530
 5257SOL     OW27406   2.405   2.976   7.075 -0.0972 -0.3566  0.4667
 5257SOL    HW127407   2.465   3.036   7.120  0.6739 -1.3858  0.8239
 5257SOL    HW227408   2.433   2.893   7.115 -1.1892 -1.3493 -0.8516
 5258SOL     OW27409   4.284   0.328   5.386 -0.4076  0.4861 -0.2279
 5258SOL    HW127410   4.298   0.315   5.292 -3.1837 -0.7697 -0.4529
 5258SOL    HW227411   4.370   0.366   5.405 -0.3016  0.1261  0.0317
 5259SOL     OW27412   1.325   3.591   9.319 -0.3870 -0.1122  0.3329
 5259SOL    HW127413   1.288   3.648   9.387 -1.1598 -1.4592  1.0326
 5259SOL    HW227414   1.284   3.634   9.244 -0.9198 -0.3426  0.4903
 5260SOL     OW27415   1.360   4.286  12.231 -0.3369 -0.2350 -0.5383
 5260SOL    HW127416   1.388   4.325  12.148 -2.4785 -1.1878 -1.6860
 5260SOL    HW227417   1.392   4.333  12.308 -3.1596  2.8274 -1.2459
 5261SOL     OW27418   4.319   1.358   8.492  0.5411 -0.4020  0.1292
 5261SOL    HW127419   4.250   1.391   8.435 -2.2222 -2.9396  2.0027
 5261SOL    HW227420   4.332   1.418   8.566 -1.0664 -0.5569  0.5349
 5262SOL     OW27421   3.959   0.290  15.447  0.3661 -0.0544  0.4319
 5262SOL    HW127422   3.941   0.270  15.538  0.5943 -2.2658 -0.0077
 5262SOL    HW227423   3.964   0.199  15.420  1.0887  1.2150 -3.7633
 5263SOL     OW27424   2.835   2.055   5.832 -0.3108 -0.0766  0.5710
 5263SOL    HW127425   2.787   2.137   5.845  0.2726 -0.1037  2.8279
 5263SOL    HW227426   2.893   2.052   5.908 -0.5244  0.2154  0.7452
 5264SOL     OW27427   1.061   0.736   4.425  0.5344 -0.4329 -0.1911
 5264SOL    HW127428   1.037   0.697   4.509  0.0866 -0.6606 -0.4248
 5264SOL    HW227429   1.061   0.826   4.456 -1.1000 -0.5646  0.2133
 5265SOL     OW27430   1.517   0.487   7.207  0.8010  0.2081  0.1455
 5265SOL    HW127431   1.564   0.548   7.264  3.9133  0.0904 -2.2885
 5265SOL    HW227432   1.534   0.544   7.133  0.0694  0.6491  0.3159
 5266SOL     OW27433   1.526   2.607   1.850  0.2741  0.8055 -0.3126
 5266SOL    HW127434   1.502   2.537   1.911  0.0599  1.1455 -0.0007
 5266SOL    HW227435   1.490   2.563   1.774  2.8575 -1.1385 -0.4177
 5267SOL     OW27436   4.727   0.097  16.287 -0.5564 -0.2428 -0.9379
 5267SOL    HW127437   4.692   0.009  16.278  0.0706 -0.6986  1.1105
 5267SOL    HW227438   4.724   0.139  16.201  0.5212 -0.8927 -1.2818
 5268SOL     OW27439   0.982   1.119   6.478  0.1499  0.3365 -0.0021
 5268SOL    HW127440   0.902   1.070   6.460 -0.6792  2.4291 -1.9312
 5268SOL    HW227441   0.961   1.158   6.562  0.6970 -0.7640  0.6517
 5269SOL     OW27442   1.739   3.050   1.876 -0.2746 -0.4884 -0.1597
 5269SOL    HW127443   1.734   3.135   1.833 -1.5855 -1.2280 -1.4769
 5269SOL    HW227444   1.774   3.078   1.960 -0.4256 -2.5337  0.5956
 5270SOL     OW27445   2.270   3.068   8.846 -0.2564 -0.0174 -0.2783
 5270SOL    HW127446   2.208   3.054   8.918 -1.2740 -0.6252 -1.2759
 5270SOL    HW227447   2.348   3.055   8.901 -0.2340 -0.0084 -0.3080
 5271SOL     OW27448   4.442   4.419   4.436  0.1744 -0.4630 -0.2252
 5271SOL    HW127449   4.397   4.501   4.415 -2.5604 -2.1824 -1.0733
 5271SOL    HW227450   4.461   4.417   4.530  0.3363 -0.9766 -0.2667
 5272SOL     OW27451   2.969   1.828   8.437  0.1899 -0.4474  0.1933
 5272SOL    HW127452   2.971   1.901   8.500 -1.1283  0.5165 -0.8715
 5272SOL    HW227453   2.962   1.751   8.494 -0.9401 -0.1621  0.4404
 5273SOL     OW27454   4.229   0.098   2.886 -0.7786  0.0152  0.2579
 5273SOL    HW127455   4.264   0.029   2.829  0.9705  2.7136 -1.9274
 5273SOL    HW227456   4.150   0.122   2.838 -2.4541 -2.4419  1.7810
 5274SOL     OW27457   3.182   3.396   2.605  0.1488  0.0953 -0.1913
 5274SOL    HW127458   3.130   3.458   2.554  0.5581 -0.4422 -1.2749
 5274SOL    HW227459   3.261   3.449   2.611 -0.8742  1.4163  1.6390
 5275SOL     OW27460   0.236   2.228   2.135  0.1629 -0.1598 -0.5850
 5275SOL    HW127461   0.276   2.302   2.088 -0.2387  0.5282  0.1635
 5275SOL    HW227462   0.301   2.180   2.185 -1.7524 -1.6659  0.4731
 5276SOL     OW27463   4.449   2.043   2.152  0.4743  0.3734  0.0289
 5276SOL    HW127464   4.390   2.014   2.222  2.0811 -4.1589 -0.5182
 5276SOL    HW227465   4.386   2.085   2.093  0.7952 -1.4552 -1.5961
 5277SOL     OW27466   1.141   0.172  14.408 -0.0520  0.0567 -0.1933
 5277SOL    HW127467   1.177   0.137  14.326 -0.7087 -1.9073  0.3552
 5277SOL    HW227468   1.180   0.116  14.475  0.5340 -0.5233 -1.0241
 5278SOL     OW27469   2.683   0.458   9.136 -0.4690  0.3296 -0.2729
 5278SOL    HW127470   2.772   0.484   9.157 -0.4255  0.0999 -0.1761
 5278SOL    HW227471   2.710   0.422   9.051 -3.8113  0.9024 -1.5985
 5279SOL     OW27472   0.439   3.487   1.699 -0.0338 -0.5892  0.3220
 5279SOL    HW127473   0.349   3.475   1.668  0.0576  1.3399 -0.6776
 5279SOL    HW227474   0.482   3.423   1.643  1.6120 -0.8036  1.8035
 5280SOL     OW27475   4.282   3.398   6.593  0.6963  0.3281  0.0467
 5280SOL    HW127476   4.198   3.409   6.549 -0.3788  1.0883  2.2701
 5280SOL    HW227477   4.308   3.488   6.615 -0.4532  1.1246 -1.8477
 5281SOL     OW27478   3.870   2.574   3.186 -0.1214  0.1928  0.6836
 5281SOL    HW127479   3.922   2.641   3.230 -0.9992  0.8346  0.7395
 5281SOL    HW227480   3.867   2.509   3.256 -0.5318 -0.3527  0.1686
 5282SOL     OW27481   2.339   1.503   5.913 -0.0415 -0.3773 -0.5425
 5282SOL    HW127482   2.293   1.585   5.895 -0.1202 -0.3597 -0.2515
 5282SOL    HW227483   2.285   1.442   5.863 -2.6111 -0.5132  2.3996
 5283SOL     OW27484   2.829   1.951  15.656  0.3390 -0.3274  0.6042
 5283SOL    HW127485   2.879   2.030  15.636  1.3151 -0.8924  0.8489
 5283SOL    HW227486   2.806   1.917  15.569  1.8742  0.5965 -0.1559
 5284SOL     OW27487   0.023   2.640   4.104  0.4957 -0.4669  0.0246
 5284SOL    HW127488   0.101   2.599   4.141  0.1785 -1.4094 -0.3533
 5284SOL    HW227489   4.730   2.567   4.048 -3.2943 -0.4559  1.8570
 5285SOL     OW27490   1.600   2.177  10.825  0.5503 -0.1670 -0.0719
 5285SOL    HW127491   1.605   2.083  10.807  0.9555 -0.5533  1.9681
 5285SOL    HW227492   1.628   2.186  10.917  0.0534  1.0445 -0.0431
 5286SOL     OW27493   3.377   2.016   6.234  0.0338  0.8927  0.3466
 5286SOL    HW127494   3.428   2.051   6.161  0.8888  1.0682  1.0245
 5286SOL    HW227495   3.356   1.929   6.201  1.4133 -0.4574  3.0306
 5287SOL     OW27496   2.825   4.466   5.336 -0.8214  0.4578 -0.9083
 5287SOL    HW127497   2.803   4.558   5.324  3.1803  1.2323 -2.1585
 5287SOL    HW227498   2.892   4.466   5.404 -0.3616  0.1930 -1.3647
 5288SOL     OW27499   2.352   0.244   5.238  0.1430  0.1671  0.6956
 5288SOL    HW127500   2.350   0.322   5.183  2.1030  0.1948  0.6474
 5288SOL    HW227501   2.445   0.228   5.255  0.0941 -3.0316 -2.0056
 5289SOL     OW27502   2.034   4.440  14.189 -0.1388  0.7070  0.3828
 5289SOL    HW127503   1.950   4.422  14.147  0.6139 -1.5834 -0.1119
 5289SOL    HW227504   2.010   4.406  14.275 -3.3118  0.8052 -0.4538
 5290SOL     OW27505   0.241   1.446   9.701 -0.1234  0.5821  0.2373
 5290SOL    HW127506   0.190   1.373   9.664  0.9112 -0.4822  0.9351
 5290SOL    HW227507   0.214   1.432   9.792 -0.0071  4.3648  0.8508
 5291SOL     OW27508   0.781   1.584   3.750 -0.1233 -0.4407 -0.1678
 5291SOL    HW127509   0.836   1.621   3.819 -1.5167  0.5638  0.4107
 5291SOL    HW227510   0.749   1.501   3.786 -1.5157  1.2952  2.5279
 5292SOL     OW27511   2.246   4.317  14.499  0.7327  0.0745  0.0518
 5292SOL    HW127512   2.161   4.339  14.462  2.3307  0.8412 -3.1199
 5292SOL    HW227513   2.290   4.265  14.432  0.7217  0.4332 -0.2316
 5293SOL     OW27514   1.302   3.771   8.242 -0.1151  0.0223 -0.0667
 5293SOL    HW127515   1.284   3.681   8.214  0.0707  0.1329 -0.5356
 5293SOL    HW227516   1.335   3.750   8.330  0.0650 -1.0159 -0.3735
 5294SOL     OW27517   2.757   2.232  13.079 -0.0633  0.2529  0.7448
 5294SOL    HW127518   2.820   2.278  13.135 -2.6234  1.0324  2.9827
 5294SOL    HW227519   2.776   2.144  13.111 -1.3357 -0.0533  0.6424
 5295SOL     OW27520   0.846   2.068   1.863  0.0839  0.2182  0.3838
 5295SOL    HW127521   0.764   2.036   1.902  0.0217 -2.2897 -1.8338
 5295SOL    HW227522   0.900   2.026   1.930  1.0235 -2.2304 -1.9356
 5296SOL     OW27523   3.766   4.449   9.134 -0.1116 -0.0290  0.5438
 5296SOL    HW127524   3.764   4.478   9.225 -0.6656  0.5878  0.3302
 5296SOL    HW227525   3.860   4.430   9.134  0.0355  0.7153  1.1647
 5297SOL     OW27526   4.125   1.265   7.926  0.0070  0.2644 -0.4491
 5297SOL    HW127527   4.196   1.329   7.918  1.6443 -1.4665  0.3579
 5297SOL    HW227528   4.188   1.195   7.943  1.2856  1.6033  0.3315
 5298SOL     OW27529   4.454   4.114   2.965  0.3653 -0.5542  0.2490
 5298SOL    HW127530   4.439   4.042   3.026 -3.1586  0.3818  0.4676
 5298SOL    HW227531   4.369   4.143   2.931  0.9239  2.1708  1.1805
 5299SOL     OW27532   1.209   4.476  16.709 -0.0179 -0.3451 -0.4178
 5299SOL    HW127533   1.140   4.530  16.747  0.4826 -0.3186  0.4484
 5299SOL    HW227534   1.238   4.429  16.787 -0.7674 -0.6638 -0.3342
 5300SOL     OW27535   3.526   4.124   9.090  0.1628  0.1331 -0.2801
 5300SOL    HW127536   3.600   4.065   9.077  0.2415  0.5634 -1.8441
 5300SOL    HW227537   3.462   4.088   9.029 -1.6906 -0.7194  2.1962
 5301SOL     OW27538   3.123   4.722   2.987  0.5051 -0.3431  0.3214
 5301SOL    HW127539   3.101   0.019   2.900  0.5860 -0.6342  0.1978
 5301SOL    HW227540   3.038   4.688   3.014 -0.3280  0.4224 -1.3590
 5302SOL     OW27541   2.899   2.844   6.550 -0.0172 -0.4448 -0.5641
 5302SOL    HW127542   2.822   2.901   6.559 -1.8711 -2.8923 -0.7803
 5302SOL    HW227543   2.871   2.803   6.468 -2.1887 -0.8166  0.3678
 5303SOL     OW27544   1.356   1.593  15.138 -0.4050 -0.0387 -0.0900
 5303SOL    HW127545   1.431   1.634  15.097 -0.7040  1.7741  1.1798
 5303SOL    HW227546   1.287   1.658  15.122 -1.5638 -0.9658  1.1607
 5304SOL     OW27547   4.150   1.588   8.375  0.1797 -0.4400 -0.1678
 5304SOL    HW127548   4.098   1.575   8.454 -1.9588  1.9281 -1.2236
 5304SOL    HW227549   4.192   1.672   8.391 -0.3547 -0.9450  4.0443
 5305SOL     OW27550   3.501   0.726  14.801 -0.4280 -0.0337  0.2759
 5305SOL    HW127551   3.484   0.766  14.887 -1.6734 -2.4751  1.1666
 5305SOL    HW227552   3.592   0.697  14.810 -0.4686  0.4036  2.2358
 5306SOL     OW27553   0.148   0.072   1.506  0.0967  0.2624  0.8260
 5306SOL    HW127554   0.065   0.108   1.536 -1.4129  0.5216 -3.7069
 5306SOL    HW227555   0.174   0.015   1.579  1.0061 -0.0194  0.2801
 5307SOL     OW27556   2.541   3.213  16.769  0.4960 -0.0125  0.4811
 5307SOL    HW127557   2.574   3.299  16.740 -1.3023  0.6746  0.4835
 5307SOL    HW227558   2.624   3.167  16.782  0.0672 -1.0664 -0.5478
 5308SOL     OW27559   2.678   2.912  11.443 -0.0427  0.0735  0.5881
 5308SOL    HW127560   2.757   2.900  11.497 -0.3995  0.1155  1.1266
 5308SOL    HW227561   2.616   2.846  11.472 -0.0411  1.3275  3.4675
 5309SOL     OW27562   2.762   2.845   8.117  0.2182 -0.1629  0.3258
 5309SOL    HW127563   2.677   2.887   8.131  0.7376  0.2635  2.2005
 5309SOL    HW227564   2.731   2.756   8.131  1.5632 -0.7147 -0.1888
 5310SOL     OW27565   3.856   4.447   0.882 -0.5464  0.1578 -0.1654
 5310SOL    HW127566   3.772   4.473   0.922 -0.2596 -1.0363  1.2123
 5310SOL    HW227567   3.881   4.529   0.840 -0.4170 -0.4899 -1.3393
 5311SOL     OW27568   3.473   4.052   3.530  0.4057 -0.0366  0.3036
 5311SOL    HW127569   3.406   4.045   3.462 -0.7120  1.8004  1.2061
 5311SOL    HW227570   3.453   3.966   3.568 -0.3235  0.5520  1.2594
 5312SOL     OW27571   3.624   3.014   1.601  0.3703  0.4049 -0.1874
 5312SOL    HW127572   3.610   2.940   1.542  0.3415  0.3397 -0.1001
 5312SOL    HW227573   3.628   3.075   1.528  1.2381  1.9969  1.2025
 5313SOL     OW27574   4.529   0.443   5.437  0.4062 -0.1724 -0.3000
 5313SOL    HW127575   4.572   0.404   5.513 -0.8027 -3.0445 -1.0984
 5313SOL    HW227576   4.604   0.442   5.378  1.7016 -0.9780  1.3593
 5314SOL     OW27577   0.481   1.703   5.543  0.1812  0.1801 -0.9068
 5314SOL    HW127578   0.445   1.659   5.465  0.6961 -3.1724  0.7827
 5314SOL    HW227579   0.517   1.627   5.587 -0.6196  0.6157  0.4976
 5315SOL     OW27580   1.511   2.013   8.546 -0.7269  0.4151 -0.0362
 5315SOL    HW127581   1.552   1.977   8.624 -0.2391 -1.3741 -1.1046
 5315SOL    HW227582   1.464   1.936   8.515  1.7953 -1.4225  0.6483
 5316SOL     OW27583   2.155   1.039   4.426  0.4404  0.0350  0.3925
 5316SOL    HW127584   2.177   0.962   4.373 -1.2778  0.3178 -0.7427
 5316SOL    HW227585   2.063   1.047   4.399  0.7507  1.3926 -0.2671
 5317SOL     OW27586   4.614   1.287  15.484  0.0065 -0.4925  0.2084
 5317SOL    HW127587   4.547   1.261  15.421 -1.0874 -0.7357  1.4757
 5317SOL    HW227588   4.624   1.381  15.468  2.2748 -1.2504 -2.7941
 5318SOL     OW27589   0.339   2.100   5.771 -0.3321  0.4092 -0.1149
 5318SOL    HW127590   0.312   2.141   5.689 -0.2453 -0.0539 -0.3735
 5318SOL    HW227591   0.324   2.007   5.756 -1.9946  0.7737 -0.7348
 5319SOL     OW27592   3.181   4.146   1.084  0.6373  0.0074  0.0607
 5319SOL    HW127593   3.146   4.099   1.160  0.8040  1.6081  1.1227
 5319SOL    HW227594   3.150   4.236   1.089  0.8616  0.0310  0.9674
 5320SOL     OW27595   4.190   4.152   8.386  0.7251  0.6799 -0.4419
 5320SOL    HW127596   4.166   4.234   8.344  0.7517  0.3171 -1.1656
 5320SOL    HW227597   4.193   4.103   8.304  0.1240 -3.6023  2.0199
 5321SOL     OW27598   3.184   3.492   4.126  0.2189 -0.0605 -0.3395
 5321SOL    HW127599   3.091   3.500   4.107  0.6852  5.0324 -0.4928
 5321SOL    HW227600   3.219   3.557   4.064 -2.2571 -0.1649 -1.8401
 5322SOL     OW27601   3.703   0.012   8.448 -0.8264 -0.9390  0.1684
 5322SOL    HW127602   3.772   0.059   8.496  1.6744 -2.2886 -2.0801
 5322SOL    HW227603   3.743   0.002   8.362 -3.1489  0.1430 -1.0346
 5323SOL     OW27604   0.979   3.165   5.513 -0.1614  0.0799  0.1624
 5323SOL    HW127605   0.964   3.133   5.424 -1.6830  1.6820 -0.1573
 5323SOL    HW227606   0.964   3.084   5.563 -1.3733  0.5606  0.5814
 5324SOL     OW27607   0.365   4.576   0.325  0.8711  0.0046 -0.1891
 5324SOL    HW127608   0.304   4.505   0.306 -0.1020  1.2302 -1.7779
 5324SOL    HW227609   0.435   4.558   0.262 -0.8003 -0.8393 -1.8008
 5325SOL     OW27610   2.420   3.840   7.481  0.4483  0.3875 -0.8897
 5325SOL    HW127611   2.468   3.789   7.546  0.2683 -0.7113 -1.6132
 5325SOL    HW227612   2.333   3.822   7.515  0.8732 -2.9801 -1.5998
 5326SOL     OW27613   1.430   4.091   4.831  0.1462  0.1613 -0.6324
 5326SOL    HW127614   1.351   4.055   4.791  0.5509 -0.0561 -1.2344
 5326SOL    HW227615   1.489   4.106   4.757  1.1959 -1.4433 -0.1361
 5327SOL     OW27616   3.934   4.560   4.878 -0.4436  0.7008 -0.3877
 5327SOL    HW127617   3.855   4.509   4.888 -1.7592  2.5583 -1.2085
 5327SOL    HW227618   3.980   4.547   4.961  1.7751 -3.5752 -2.2698
 5328SOL     OW27619   4.660   2.695   7.752 -0.2343  0.0854  0.2588
 5328SOL    HW127620   4.692   2.705   7.842 -0.2129  1.8809  0.0488
 5328SOL    HW227621   4.720   2.625   7.725  0.0789  0.3201  0.3491
 5329SOL     OW27622   2.835   4.278   2.931  0.0893  0.3255 -0.0459
 5329SOL    HW127623   2.914   4.249   2.885 -0.0894  1.1899 -0.9085
 5329SOL    HW227624   2.836   4.366   2.893 -0.8885  0.6659  0.7144
 5330SOL     OW27625   0.484   4.116   2.828 -0.3306  0.8956  0.4272
 5330SOL    HW127626   0.498   4.199   2.782 -1.6023  0.8121 -0.1083
 5330SOL    HW227627   0.574   4.106   2.859 -0.9837 -0.8526  1.7794
 5331SOL     OW27628   2.821   0.036  14.564  0.5299 -0.0233 -0.2120
 5331SOL    HW127629   2.856   0.076  14.643 -0.6061  0.2982  0.1221
 5331SOL    HW227630   2.857   0.091  14.495  1.6950  1.2175  1.4014
 5332SOL     OW27631   3.679   3.043   3.042 -0.7995 -0.5122 -0.6890
 5332SOL    HW127632   3.694   3.078   2.955  0.5340  1.2132  0.2339
 5332SOL    HW227633   3.595   2.997   3.032 -1.0157  0.1109 -1.6234
 5333SOL     OW27634   1.544   0.068   2.747  0.4402 -0.4962  0.2513
 5333SOL    HW127635   1.604   0.099   2.679  0.4875  2.0446  1.4565
 5333SOL    HW227636   1.492   0.014   2.687 -0.5707  1.2126 -0.4209
 5334SOL     OW27637   2.181   0.311  13.958 -0.4197 -0.2603  0.4167
 5334SOL    HW127638   2.181   0.287  14.051 -0.6706  1.0995  0.7670
 5334SOL    HW227639   2.217   0.232  13.919 -0.3288  0.2926 -0.6093
 5335SOL     OW27640   3.603   2.181   7.488  0.5114 -0.3341  0.1158
 5335SOL    HW127641   3.675   2.234   7.454  0.4184 -0.4687 -0.3023
 5335SOL    HW227642   3.652   2.120   7.543  2.8145  1.8711  0.4935
 5336SOL     OW27643   0.544   3.156   6.739 -0.2910 -0.0460  0.6286
 5336SOL    HW127644   0.629   3.199   6.742  0.1262 -0.7721 -0.8533
 5336SOL    HW227645   0.539   3.105   6.820 -1.6273 -0.1131  0.5151
 5337SOL     OW27646   3.470   4.474   3.046  0.0885 -0.3033 -0.0844
 5337SOL    HW127647   3.508   4.562   3.046 -0.6458  0.0155  0.0577
 5337SOL    HW227648   3.383   4.486   3.006  0.1234 -2.0130 -0.6697
 5338SOL     OW27649   3.890   3.666  16.949 -0.9009  0.5753 -0.2775
 5338SOL    HW127650   3.892   3.688  17.042 -0.3453 -2.6821  0.5029
 5338SOL    HW227651   3.973   3.618  16.940 -1.9416 -1.0349 -1.4084
 5339SOL     OW27652   3.874   3.043   4.327  0.1609 -0.0643 -0.4065
 5339SOL    HW127653   3.884   3.137   4.341  1.9364 -0.2512 -0.4069
 5339SOL    HW227654   3.787   3.046   4.289  1.6422  0.3786 -3.7669
 5340SOL     OW27655   1.816   1.649  16.510 -0.1967 -0.0071 -0.2903
 5340SOL    HW127656   1.792   1.647  16.418  0.4422  1.0874 -0.4895
 5340SOL    HW227657   1.789   1.559  16.528 -2.1461  0.6397  0.0130
 5341SOL     OW27658   1.666   1.082   0.564 -0.0316  0.1805 -0.0567
 5341SOL    HW127659   1.586   1.029   0.554  0.1050  0.3553 -2.0884
 5341SOL    HW227660   1.716   1.012   0.606 -0.9331 -1.3652 -1.5508
 5342SOL     OW27661   2.821   0.332   5.899  0.4284 -0.5237  0.2212
 5342SOL    HW127662   2.850   0.240   5.897  1.9358 -0.0630  0.3964
 5342SOL    HW227663   2.743   0.329   5.954 -0.3792  0.2920 -0.9026
 5343SOL     OW27664   1.067   1.291  17.148 -0.0458 -0.7891 -0.4358
 5343SOL    HW127665   0.994   1.345  17.118  0.3645  0.1983  0.3656
 5343SOL    HW227666   1.131   1.323  17.085  1.0696 -2.7081 -0.2865
 5344SOL     OW27667   1.331   1.791   2.083  0.3977  0.0857  0.3159
 5344SOL    HW127668   1.387   1.868   2.089  0.8206 -0.0851 -1.7199
 5344SOL    HW227669   1.310   1.788   2.177  1.0648  0.5123  0.4782
 5345SOL     OW27670   3.274   2.940   8.908 -0.5850 -0.4882  0.0466
 5345SOL    HW127671   3.212   2.921   8.837  0.5280 -0.9360 -0.8040
 5345SOL    HW227672   3.218   2.966   8.982 -0.1599  0.8769 -0.1182
 5346SOL     OW27673   2.185   0.865  10.898  0.5883 -0.4764 -0.0335
 5346SOL    HW127674   2.145   0.783  10.870 -0.3740  0.8949 -2.7520
 5346SOL    HW227675   2.218   0.894  10.813  0.6931 -1.7909 -0.4410
 5347SOL     OW27676   4.096   0.509   8.716  0.1649 -0.0825 -0.6345
 5347SOL    HW127677   4.160   0.439   8.733 -0.3513 -0.7053 -1.2469
 5347SOL    HW227678   4.124   0.521   8.625 -1.4231  1.6718 -0.8757
 5348SOL     OW27679   1.440   3.031  15.021  0.3762  0.5326 -0.1882
 5348SOL    HW127680   1.503   3.033  14.949  1.1965  3.2945  0.5927
 5348SOL    HW227681   1.394   3.111  14.994 -1.0158  0.4278  1.8821
 5349SOL     OW27682   0.754   3.665   2.138 -0.0492  0.1904  0.5586
 5349SOL    HW127683   0.715   3.726   2.075  1.3778 -0.6724 -1.1630
 5349SOL    HW227684   0.845   3.671   2.109 -0.2022 -1.6200 -0.3474
 5350SOL     OW27685   2.870   1.107   7.247 -0.0812 -0.4810  0.3261
 5350SOL    HW127686   2.848   1.199   7.265  1.4654 -0.5451  2.5839
 5350SOL    HW227687   2.784   1.072   7.270 -0.1832 -0.9534 -0.7748
 5351SOL     OW27688   1.094   0.463  16.978  0.0300  0.0974 -0.1699
 5351SOL    HW127689   1.080   0.556  16.959  0.4556 -0.0404 -1.1785
 5351SOL    HW227690   1.034   0.457  17.052  0.9322 -1.1646  0.4474
 5352SOL     OW27691   2.246   2.679  15.109  0.1377 -0.3222 -0.1687
 5352SOL    HW127692   2.217   2.618  15.042  0.7970  0.5933 -1.3005
 5352SOL    HW227693   2.241   2.620  15.184 -1.9777 -0.5017 -0.4574
 5353SOL     OW27694   1.967   4.709   7.457  0.7417  0.1073  0.0388
 5353SOL    HW127695   1.914   4.631   7.471 -2.9499  2.3674 -1.4332
 5353SOL    HW227696   1.903   0.045   7.456  0.8545  0.2047 -0.2393
 5354SOL     OW27697   1.522   1.827   3.414  0.0555 -0.1589  0.2645
 5354SOL    HW127698   1.498   1.885   3.487  0.2260  0.1353  0.0868
 5354SOL    HW227699   1.519   1.747   3.466 -0.2358 -0.9921 -1.0741
 5355SOL     OW27700   2.278   1.576   4.097  0.0651  0.4169  0.2043
 5355SOL    HW127701   2.238   1.602   4.014  1.6688 -0.6316 -0.8960
 5355SOL    HW227702   2.303   1.484   4.083 -2.0993 -0.3186  1.1295
 5356SOL     OW27703   4.470   3.155   6.425  0.5394 -0.2355 -0.2251
 5356SOL    HW127704   4.513   3.097   6.361 -0.3760 -0.5506 -0.5576
 5356SOL    HW227705   4.398   3.180   6.367  1.1815 -1.1405 -1.4280
 5357SOL     OW27706   1.300   3.362   2.256 -0.6449 -0.0891 -0.3363
 5357SOL    HW127707   1.358   3.289   2.237  0.1749  0.6778 -0.7874
 5357SOL    HW227708   1.215   3.318   2.262 -0.7746 -0.1819 -2.8821
 5358SOL     OW27709   0.035   0.957   6.930 -0.2073  0.1678 -0.1170
 5358SOL    HW127710   0.092   0.993   6.999  2.2418 -1.7166 -1.1375
 5358SOL    HW227711   0.068   0.867   6.936  0.0102  0.2410 -0.2277
 5359SOL     OW27712   2.441   4.092   4.317 -0.5354 -0.2214  0.0150
 5359SOL    HW127713   2.486   4.137   4.245 -0.7350  0.7236  0.4740
 5359SOL    HW227714   2.380   4.162   4.340 -2.2993 -1.8142  0.1310
 5360SOL     OW27715   0.243   2.790   2.318 -0.0034 -0.4179 -0.6636
 5360SOL    HW127716   0.159   2.752   2.346 -0.2679  0.9199  0.3450
 5360SOL    HW227717   0.273   2.719   2.261 -1.0687 -0.7608 -0.7948
 5361SOL     OW27718   3.928   2.478   9.182  0.4726  0.0102  0.3401
 5361SOL    HW127719   3.987   2.529   9.127  0.0183  1.4316  1.1758
 5361SOL    HW227720   3.978   2.486   9.264 -1.9023  2.6358  1.5083
 5362SOL     OW27721   0.425   0.519   4.538 -0.0773 -0.9832  0.2369
 5362SOL    HW127722   0.519   0.501   4.538  0.0802 -0.1327  0.4580
 5362SOL    HW227723   0.410   0.538   4.630  0.4583  0.0523  0.1088
 5363SOL     OW27724   1.703   2.220  13.322  0.2246 -0.0367  0.4854
 5363SOL    HW127725   1.692   2.161  13.397  0.4703 -1.4938 -0.6048
 5363SOL    HW227726   1.616   2.258  13.325 -0.1460 -0.7908 -0.4968
 5364SOL     OW27727   2.088   0.063   4.005 -0.0388 -0.0629 -0.0675
 5364SOL    HW127728   2.058   0.063   3.914  2.6724  0.6109 -0.9487
 5364SOL    HW227729   2.126   0.150   4.015  0.9981 -0.6630  1.2684
 5365SOL     OW27730   0.580   0.019  11.186 -0.2572  0.6392 -0.0688
 5365SOL    HW127731   0.494   4.721  11.161 -0.8594  2.4510 -0.2882
 5365SOL    HW227732   0.609   0.043  11.098  0.4227  1.5153  0.3926
 5366SOL     OW27733   2.020   1.514   6.860  0.1929  0.1620  0.0912
 5366SOL    HW127734   2.077   1.582   6.896  0.6319  0.5700 -1.4054
 5366SOL    HW227735   2.001   1.467   6.941  3.1220  0.1222  0.7628
 5367SOL     OW27736   3.761   2.819   9.772  0.0112 -0.4735 -0.4246
 5367SOL    HW127737   3.760   2.889   9.837  2.8635 -0.4650 -0.3696
 5367SOL    HW227738   3.852   2.835   9.747 -0.1959  0.5845 -0.4827
 5368SOL     OW27739   0.236   3.887   6.283  1.2306 -0.1136 -0.2753
 5368SOL    HW127740   0.277   3.915   6.201  4.2859 -1.1136  0.9112
 5368SOL    HW227741   0.273   3.802   6.304  3.0558  0.5688 -0.6650
 5369SOL     OW27742   1.099   2.557  11.648 -0.1841 -0.1088 -0.1918
 5369SOL    HW127743   1.089   2.601  11.564 -1.1541 -1.2173 -0.6742
 5369SOL    HW227744   1.092   2.471  11.606 -1.7858 -0.7969  1.4839
 5370SOL     OW27745   3.975   1.421   8.199  0.1842  1.0832 -0.4391
 5370SOL    HW127746   3.893   1.419   8.248 -0.8070 -0.5939 -2.1572
 5370SOL    HW227747   4.028   1.478   8.255  1.3408  1.3095 -1.7643
 5371SOL     OW27748   0.751   2.165  12.360  0.0222  0.3549  0.4266
 5371SOL    HW127749   0.832   2.143  12.406 -0.2292 -1.6911 -0.0782
 5371SOL    HW227750   0.691   2.183  12.432 -0.8396  0.3672 -0.2897
 5372SOL     OW27751   0.097   4.704   8.361 -0.7137 -0.2439 -0.0570
 5372SOL    HW127752   0.025   4.641   8.368 -0.5128 -0.5118 -0.3434
 5372SOL    HW227753   0.165   4.664   8.415 -1.4185  3.0989  3.2625
 5373SOL     OW27754   1.703   0.581  11.150 -0.0037 -0.3965  0.4249
 5373SOL    HW127755   1.720   0.673  11.129  1.4853 -0.4621  1.3119
 5373SOL    HW227756   1.695   0.575  11.245  1.0237  1.3517  0.6183
 5374SOL     OW27757   3.090   0.056   7.213 -0.4833 -0.3224 -0.1003
 5374SOL    HW127758   3.135   0.097   7.287  0.5071 -1.4003 -0.0868
 5374SOL    HW227759   3.003   0.028   7.242 -1.2605  3.2613  0.9505
 5375SOL     OW27760   2.467   4.330   3.467  0.2463  0.9002  0.1944
 5375SOL    HW127761   2.527   4.403   3.481 -0.1475  0.9847  1.4983
 5375SOL    HW227762   2.451   4.349   3.375  0.1634 -1.8210 -0.3650
 5376SOL     OW27763   2.417   3.738   8.398 -0.0638 -0.5098 -0.4447
 5376SOL    HW127764   2.425   3.708   8.307  1.8490  0.9345 -0.7551
 5376SOL    HW227765   2.324   3.734   8.419  0.3106  0.0629  1.2820
 5377SOL     OW27766   2.418   1.204   7.085  0.2023 -0.1822  0.2698
 5377SOL    HW127767   2.457   1.291   7.082  0.4589 -0.2854  0.5734
 5377SOL    HW227768   2.403   1.189   7.178  2.8414  0.8532  0.8756
 5378SOL     OW27769   4.730   1.386  11.597  0.3105  0.0240 -0.6671
 5378SOL    HW127770   4.644   1.385  11.638  1.2246 -0.2651  1.2696
 5378SOL    HW227771   4.713   1.406  11.505 -3.6768  0.5402  0.1914
 5379SOL     OW27772   4.300   0.609   7.210  0.1351 -0.5896 -0.0353
 5379SOL    HW127773   4.275   0.664   7.285  0.6072  2.0682 -1.8124
 5379SOL    HW227774   4.281   0.673   7.141  3.7726  0.7333  0.1642
 5380SOL     OW27775   1.454   2.077  17.710  0.0339  0.9130 -0.3308
 5380SOL    HW127776   1.442   2.172  17.703  0.3117  1.0082  0.4834
 5380SOL    HW227777   1.536   2.087   0.021 -0.5362  2.6515  0.2572
 5381SOL     OW27778   2.989   4.079   8.557 -0.9543 -0.0435 -0.0522
 5381SOL    HW127779   2.929   4.006   8.573 -1.9389  0.8457  0.3362
 5381SOL    HW227780   3.053   4.031   8.505 -2.8144 -0.7743 -1.6638
 5382SOL     OW27781   0.468   0.292  15.090 -0.3499  0.1362 -0.0013
 5382SOL    HW127782   0.446   0.383  15.073  0.2772  0.2452 -0.2571
 5382SOL    HW227783   0.501   0.305  15.180  2.6896 -1.7638 -0.8440
 5383SOL     OW27784   3.683   0.028   4.650  0.5766  0.0098  0.4383
 5383SOL    HW127785   3.667   0.030   4.745 -1.9171  2.7003 -0.0422
 5383SOL    HW227786   3.778   0.038   4.653  0.6338  0.3334 -2.6415
 5384SOL     OW27787   1.635   3.847  13.053 -1.2037  0.1425 -0.2087
 5384SOL    HW127788   1.711   3.846  13.112 -1.7835 -0.4673  0.5331
 5384SOL    HW227789   1.609   3.939  13.053 -0.0931  0.4583 -0.6096
 5385SOL     OW27790   0.476   2.802   9.032  0.0261  0.4450 -0.0158
 5385SOL    HW127791   0.481   2.708   9.050  1.2296  0.0749 -2.3181
 5385SOL    HW227792   0.541   2.816   8.964  1.4508 -0.5129  1.1583
 5386SOL     OW27793   2.566   4.600  16.799 -0.3512 -0.2502 -0.2344
 5386SOL    HW127794   2.559   4.544  16.876  0.6633  1.9010  1.4243
 5386SOL    HW227795   2.620   4.668  16.838  0.9291 -0.3693 -1.8295
 5387SOL     OW27796   0.116   4.087   5.303  0.3093 -0.1050  0.2172
 5387SOL    HW127797   0.047   4.053   5.359 -0.4561  1.3068  0.1249
 5387SOL    HW227798   0.172   4.010   5.293  1.8839  1.1702 -0.6816
 5388SOL     OW27799   2.744   0.208  15.097  0.2048  0.4058  0.0221
 5388SOL    HW127800   2.734   0.134  15.038 -0.0788  0.7040 -0.3075
 5388SOL    HW227801   2.657   0.247  15.093  0.0711  0.0719 -0.2338
 5389SOL     OW27802   0.024   3.544  10.694 -0.4414  0.2021  0.0649
 5389SOL    HW127803   0.044   3.548  10.600 -0.4930  1.1288  0.0893
 5389SOL    HW227804   4.733   3.632  10.723 -0.2738 -0.4580  2.2299
 5390SOL     OW27805   1.385   3.785  15.743  0.2557 -0.2835 -0.7623
 5390SOL    HW127806   1.371   3.785  15.838  2.5729 -1.6892 -0.4493
 5390SOL    HW227807   1.375   3.879  15.723  1.2557  0.0799  0.4772
 5391SOL     OW27808   1.064   4.303   7.235  0.0975  0.4038  0.2353
 5391SOL    HW127809   1.118   4.378   7.257 -1.4219  1.3685  0.6394
 5391SOL    HW227810   0.982   4.326   7.279 -0.0607  2.5807 -1.1827
 5392SOL     OW27811   0.721   3.014  14.795 -0.5673 -0.1325 -0.3679
 5392SOL    HW127812   0.784   2.954  14.835 -0.4908 -0.4626 -0.9738
 5392SOL    HW227813   0.648   2.951  14.788  1.8707 -3.0665  0.6141
 5393SOL     OW27814   1.398   1.935   8.006 -0.0330 -0.1543 -0.6142
 5393SOL    HW127815   1.489   1.914   8.027  0.5423  0.4727 -2.4637
 5393SOL    HW227816   1.374   1.949   8.097  1.9321 -2.6574  0.2712
 5394SOL     OW27817   4.298   2.697   6.098 -0.5216 -0.4398 -0.4870
 5394SOL    HW127818   4.377   2.655   6.131  0.0185  0.4259 -0.6844
 5394SOL    HW227819   4.261   2.623   6.049 -1.1358  0.6250 -1.6438
 5395SOL     OW27820   2.612   3.708  10.667 -0.0409  0.0808  0.3142
 5395SOL    HW127821   2.568   3.738  10.747 -0.7145 -1.3933  0.5023
 5395SOL    HW227822   2.680   3.652  10.703 -2.9528 -3.8331 -0.1812
 5396SOL     OW27823   4.011   0.993   4.537 -0.4548 -0.2176  0.2793
 5396SOL    HW127824   4.012   0.920   4.599  1.7745  2.2111  3.1050
 5396SOL    HW227825   4.014   1.067   4.598  1.2350  1.6472 -2.0397
 5397SOL     OW27826   0.152   0.186   6.881  0.4573  0.1274  0.1133
 5397SOL    HW127827   0.225   0.133   6.849 -0.3535 -0.3975 -0.8583
 5397SOL    HW227828   0.201   0.229   6.951 -0.5128  1.9874 -0.3514
 5398SOL     OW27829   4.085   3.645   7.745 -0.3279 -0.3138  0.4481
 5398SOL    HW127830   4.098   3.721   7.801 -2.0367 -0.7559  1.4587
 5398SOL    HW227831   4.176   3.628   7.721  0.0912 -0.3506  2.1133
 5399SOL     OW27832   3.107   1.881   7.625  0.6150 -0.1164  0.3842
 5399SOL    HW127833   3.200   1.856   7.627  0.2522 -1.3841  2.3114
 5399SOL    HW227834   3.119   1.967   7.666 -2.0355  0.6541 -0.4788
 5400SOL     OW27835   3.182   3.563   9.612  0.3572 -0.1426  0.1914
 5400SOL    HW127836   3.215   3.635   9.559  0.4146 -1.8680 -2.0927
 5400SOL    HW227837   3.188   3.600   9.700  0.1940 -0.9867  0.5678
 5401SOL     OW27838   1.146   1.851   5.870 -0.2886 -0.6971  0.8994
 5401SOL    HW127839   1.076   1.873   5.808  1.3484  0.4270 -0.5590
 5401SOL    HW227840   1.154   1.756   5.858 -1.3677 -0.8492  1.4236
 5402SOL     OW27841   1.600   3.391  13.869 -0.4197 -0.1208  0.2869
 5402SOL    HW127842   1.595   3.480  13.904 -0.4510 -0.0634  0.1390
 5402SOL    HW227843   1.653   3.408  13.791  1.3363  0.6324  1.6527
 5403SOL     OW27844   0.254   2.556  12.894 -0.7409 -0.3240  0.4837
 5403SOL    HW127845   0.197   2.633  12.893  0.4869  0.5688 -0.7900
 5403SOL    HW227846   0.320   2.601  12.946  1.3555 -1.0668 -1.5304
 5404SOL     OW27847   3.956   4.204  16.719  0.1013 -0.5540 -0.2357
 5404SOL    HW127848   4.050   4.208  16.736 -0.0447 -0.0360  0.5044
 5404SOL    HW227849   3.960   4.155  16.637  0.2015 -0.8147 -0.0743
 5405SOL     OW27850   2.834   1.259   3.583 -0.1119 -0.2907  0.4634
 5405SOL    HW127851   2.839   1.208   3.502 -0.8942  2.0624 -1.0864
 5405SOL    HW227852   2.740   1.271   3.597  0.1165 -0.7489  2.2536
 5406SOL     OW27853   1.145   2.232   2.794  0.3257  0.1353 -0.5835
 5406SOL    HW127854   1.132   2.182   2.713  2.0926  0.0402 -0.8246
 5406SOL    HW227855   1.223   2.286   2.781  0.0646  0.3558 -1.2400
 5407SOL     OW27856   3.287   1.190   6.139  0.0764 -0.0103 -0.2055
 5407SOL    HW127857   3.345   1.187   6.215 -1.1058 -1.2612  0.6384
 5407SOL    HW227858   3.239   1.108   6.150 -1.9906  1.3330  0.7711
 5408SOL     OW27859   3.677   0.641   5.796  1.0030 -0.1051 -0.0852
 5408SOL    HW127860   3.648   0.707   5.859 -1.3992 -0.7872 -0.4924
 5408SOL    HW227861   3.708   0.571   5.853  0.1031 -0.1005  0.4009
 5409SOL     OW27862   4.656   2.677   0.581  0.1468 -1.0465 -0.0076
 5409SOL    HW127863   4.705   2.616   0.635  0.2191  0.8114  2.0008
 5409SOL    HW227864   4.584   2.623   0.547 -2.3856  1.6262  1.0730
 5410SOL     OW27865   2.257   3.475  13.834 -0.3205 -0.3196 -0.1786
 5410SOL    HW127866   2.163   3.489  13.843 -0.1922  1.8228 -2.2073
 5410SOL    HW227867   2.268   3.537  13.762  1.9441 -0.9657 -0.4061
 5411SOL     OW27868   0.169   3.499   2.631  0.5610 -0.7526  0.3523
 5411SOL    HW127869   0.089   3.544   2.660 -0.2663 -1.1750 -1.2751
 5411SOL    HW227870   0.133   3.423   2.584 -3.3623  0.6203  1.1028
 5412SOL     OW27871   4.567   1.159   3.444  0.1149 -0.4265  0.2625
 5412SOL    HW127872   4.588   1.171   3.352  2.1587  2.4776  1.0958
 5412SOL    HW227873   4.578   1.064   3.454  1.8228 -0.2415  0.1928
 5413SOL     OW27874   0.659   1.037   7.863 -0.7492 -0.3246 -0.0993
 5413SOL    HW127875   0.656   1.047   7.958  2.2704 -1.4978  0.1436
 5413SOL    HW227876   0.692   1.123   7.837  0.2963 -1.3496 -2.1654
 5414SOL     OW27877   3.285   1.303   8.355 -0.0557 -0.2025 -0.4313
 5414SOL    HW127878   3.357   1.243   8.341  0.4764  0.6283 -1.2547
 5414SOL    HW227879   3.263   1.325   8.264 -2.0010 -1.8835 -0.3673
 5415SOL     OW27880   1.804   2.614  10.797  0.1394 -0.0817  0.1290
 5415SOL    HW127881   1.857   2.573  10.865 -1.7235  0.5345  1.9691
 5415SOL    HW227882   1.743   2.667  10.849  0.3059  1.0394 -0.8149
 5416SOL     OW27883   2.559   2.741   3.784  0.4318  0.0053  0.2431
 5416SOL    HW127884   2.578   2.819   3.732 -0.0988 -0.5668 -0.8080
 5416SOL    HW227885   2.470   2.720   3.756  1.7681 -1.8752 -2.5668
 5417SOL     OW27886   2.438   3.701   5.192 -0.5029 -0.1033 -0.1060
 5417SOL    HW127887   2.507   3.732   5.251  0.4173  2.5029 -2.5480
 5417SOL    HW227888   2.457   3.743   5.108 -0.5308  0.0663 -0.0278
 5418SOL     OW27889   3.295   2.762   6.673 -0.3683 -0.3755  0.4654
 5418SOL    HW127890   3.363   2.769   6.606  0.2153  0.1492  1.1121
 5418SOL    HW227891   3.230   2.830   6.654  0.3363  0.3191  0.5454
 5419SOL     OW27892   1.992   2.259   1.954  1.0927 -0.2517 -0.1031
 5419SOL    HW127893   2.086   2.264   1.972  1.2625 -2.1795 -0.5114
 5419SOL    HW227894   1.986   2.262   1.859 -1.2615 -0.3653  0.0385
 5420SOL     OW27895   3.025   3.395   7.918  0.5779  0.6324 -0.2015
 5420SOL    HW127896   3.071   3.311   7.921 -0.9120 -0.1092  1.5833
 5420SOL    HW227897   3.086   3.431   7.853  2.1118  0.4532  1.1388
 5421SOL     OW27898   4.335   0.570  11.768 -0.3262 -0.4169  0.2929
 5421SOL    HW127899   4.405   0.533  11.821  0.2373 -1.3991 -1.1398
 5421SOL    HW227900   4.376   0.591  11.684 -0.0556 -1.3607  0.1855
 5422SOL     OW27901   1.033   3.678   0.320 -0.2763 -0.0632 -0.1441
 5422SOL    HW127902   1.012   3.771   0.309  0.2255  0.0538 -0.1335
 5422SOL    HW227903   0.951   3.640   0.289 -0.2646 -1.1074  1.0996
 5423SOL     OW27904   3.390   1.266   3.746  0.6404  0.1684  0.3846
 5423SOL    HW127905   3.385   1.182   3.792  0.2163 -0.2920 -0.5108
 5423SOL    HW227906   3.469   1.305   3.784  1.1040  1.2858 -1.7271
 5424SOL     OW27907   0.643   1.819  14.578  0.0514  0.4728  0.8604
 5424SOL    HW127908   0.585   1.893  14.565  0.4375  0.8580  1.3381
 5424SOL    HW227909   0.724   1.858  14.610  1.3249 -0.5619 -1.1007
 5425SOL     OW27910   2.689   1.069  11.576 -0.3998  0.0160  0.3982
 5425SOL    HW127911   2.607   1.071  11.627 -0.2394  0.9587  0.6164
 5425SOL    HW227912   2.703   0.975  11.565 -1.8960 -0.2708  0.8875
 5426SOL     OW27913   0.205   1.552   6.572 -0.0288 -0.2010 -0.1031
 5426SOL    HW127914   0.132   1.614   6.571 -1.4785 -1.9053  0.4159
 5426SOL    HW227915   0.157   1.469   6.582 -2.2980  1.2543  1.0800
 5427SOL     OW27916   2.597   0.206   2.645 -0.1544 -0.0660 -0.1842
 5427SOL    HW127917   2.633   0.289   2.676  2.3892 -0.8278 -1.0534
 5427SOL    HW227918   2.642   0.142   2.701  1.1683  0.1517 -1.0158
 5428SOL     OW27919   0.918   0.299   8.302  0.3967  0.8504 -0.7039
 5428SOL    HW127920   0.992   0.240   8.320 -0.3405  0.4103  0.8891
 5428SOL    HW227921   0.965   0.382   8.311  1.3358  0.3001 -0.5308
 5429SOL     OW27922   0.901   1.392   5.566 -0.7870 -0.4660 -0.6735
 5429SOL    HW127923   0.991   1.360   5.570 -1.2470 -1.4954  1.8269
 5429SOL    HW227924   0.921   1.483   5.545 -0.8444  0.0217  1.3372
 5430SOL     OW27925   0.145   1.809   1.980  0.6374 -0.6909 -0.1196
 5430SOL    HW127926   0.066   1.847   2.016  1.6306  1.1797  0.0920
 5430SOL    HW227927   0.190   1.889   1.955  0.0993 -0.6876 -1.0851
 5431SOL     OW27928   3.182   1.972   9.506  0.0792 -0.7839 -0.2865
 5431SOL    HW127929   3.149   1.894   9.552  3.0348 -1.0083  1.4089
 5431SOL    HW227930   3.181   2.040   9.573 -1.0835 -1.9877  0.9260
 5432SOL     OW27931   3.050   1.637   3.899 -0.4969  0.0982 -0.2744
 5432SOL    HW127932   2.964   1.625   3.858  0.1955 -0.6687 -1.5082
 5432SOL    HW227933   3.092   1.557   3.865 -1.6601 -0.2734 -0.8352
 5433SOL     OW27934   4.623   4.018   6.012 -0.0029  0.9604 -0.0314
 5433SOL    HW127935   4.695   4.079   5.994  0.8417  0.6354  2.0916
 5433SOL    HW227936   4.657   3.934   5.982 -0.8828  0.6986 -0.2745
 5434SOL     OW27937   2.570   1.382   1.815 -0.1148 -0.2832 -0.2762
 5434SOL    HW127938   2.627   1.448   1.776 -2.0287  1.5001 -0.1100
 5434SOL    HW227939   2.527   1.433   1.885  0.3169  0.1493 -0.3287
 5435SOL     OW27940   3.813   1.357   3.495 -0.1454 -0.4941  0.1727
 5435SOL    HW127941   3.848   1.446   3.506 -0.1492 -0.4631 -0.0682
 5435SOL    HW227942   3.879   1.311   3.547 -1.8179  0.9788  3.6439
 5436SOL     OW27943   3.920   0.317   1.014 -0.0834  0.3542  0.4235
 5436SOL    HW127944   3.935   0.401   1.057 -0.9888  0.4297  0.5965
 5436SOL    HW227945   3.954   0.338   0.927  2.0370 -0.3874  1.0879
 5437SOL     OW27946   2.921   1.237  11.668  0.0961 -0.3600 -0.5294
 5437SOL    HW127947   2.954   1.288  11.594  3.1395 -1.0991  0.3099
 5437SOL    HW227948   2.829   1.262  11.661  0.2233  0.7620  1.9634
 5438SOL     OW27949   3.149   1.572   6.965  0.6251 -0.7518 -0.2123
 5438SOL    HW127950   3.186   1.659   6.982 -2.6017  0.7668 -0.7962
 5438SOL    HW227951   3.223   1.519   6.993  1.2547 -0.1418 -0.7004
 5439SOL     OW27952   3.612   4.462   1.018 -0.0206  0.1541 -0.1897
 5439SOL    HW127953   3.575   4.382   1.056 -0.3605 -1.0939 -3.1693
 5439SOL    HW227954   3.554   4.466   0.942 -1.0787  0.1376  0.6034
 5440SOL     OW27955   0.446   3.725   7.467 -0.2040  0.3852 -0.2060
 5440SOL    HW127956   0.380   3.783   7.504  0.1182  0.7100 -0.1363
 5440SOL    HW227957   0.420   3.725   7.375 -1.1557 -1.7768  0.0709
 5441SOL     OW27958   3.776   1.066  14.185 -0.0027  0.3292 -0.0100
 5441SOL    HW127959   3.687   1.095  14.203 -0.1710  0.4177 -0.9944
 5441SOL    HW227960   3.771   1.068  14.090 -0.6983  4.3535  0.0969
 5442SOL     OW27961   2.600   2.092   5.062  0.0820  0.4792  0.1715
 5442SOL    HW127962   2.649   2.011   5.052  2.9337  2.4891 -2.0118
 5442SOL    HW227963   2.541   2.098   4.986 -1.9807  1.9283  1.8948
 5443SOL     OW27964   0.974   3.809  15.580 -0.0316 -0.0184 -0.3284
 5443SOL    HW127965   1.040   3.751  15.616 -0.0709 -0.1489 -0.4693
 5443SOL    HW227966   0.897   3.753  15.580  0.0502 -0.1111  1.2759
 5444SOL     OW27967   1.647   1.935   8.769 -0.5651 -0.0022  0.3563
 5444SOL    HW127968   1.726   1.986   8.754 -1.1531  0.1188 -2.4185
 5444SOL    HW227969   1.686   1.849   8.785 -1.5984 -0.7548 -1.0714
 5445SOL     OW27970   3.735   3.833   3.223  0.0601 -0.2719  0.0231
 5445SOL    HW127971   3.645   3.825   3.192  0.4876 -3.6762 -0.3398
 5445SOL    HW227972   3.723   3.817   3.317 -0.2469  0.3418  0.0905
 5446SOL     OW27973   2.152   3.526   1.369  0.1056  0.0091 -0.0487
 5446SOL    HW127974   2.099   3.452   1.401 -0.9636  1.0556  0.6326
 5446SOL    HW227975   2.233   3.477   1.383  0.6366  0.9997  0.3385
 5447SOL     OW27976   1.692   4.101   7.153  0.1576  0.4582  0.3973
 5447SOL    HW127977   1.764   4.048   7.122  0.0015  1.0045 -0.8739
 5447SOL    HW227978   1.619   4.076   7.096 -0.3491 -0.7362  1.5659
 5448SOL     OW27979   3.277   4.028   1.997 -0.0842 -0.4162  0.6439
 5448SOL    HW127980   3.322   4.102   2.038 -0.6866  0.4972 -0.3405
 5448SOL    HW227981   3.271   4.058   1.907  0.7393  0.4072  0.8646
 5449SOL     OW27982   0.764   2.657   8.212  0.0852  0.4209  0.5323
 5449SOL    HW127983   0.781   2.652   8.118 -1.8501 -0.1266  0.1975
 5449SOL    HW227984   0.805   2.576   8.241 -0.9172 -0.0729  0.5764
 5450SOL     OW27985   3.143   3.809  10.675 -1.0343  0.1930 -0.1530
 5450SOL    HW127986   3.157   3.727  10.723  0.5798  0.5609  0.0375
 5450SOL    HW227987   3.204   3.868  10.720  0.5978 -0.9885 -0.8045
 5451SOL     OW27988   1.775   1.363   2.897 -0.4364 -0.1740 -0.1071
 5451SOL    HW127989   1.687   1.330   2.880  0.6117 -2.4883 -1.1502
 5451SOL    HW227990   1.836   1.290   2.888 -0.3735 -0.1588  0.1941
 5452SOL     OW27991   3.022   2.188   7.301  0.1668 -0.2070  0.1564
 5452SOL    HW127992   3.015   2.179   7.206  0.5136  2.9121 -0.1621
 5452SOL    HW227993   3.033   2.097   7.329 -0.3642 -1.2141 -2.9488
 5453SOL     OW27994   1.750   3.249   6.250 -0.0703  0.3320 -0.4921
 5453SOL    HW127995   1.686   3.320   6.245  1.2825  1.4728 -1.4604
 5453SOL    HW227996   1.763   3.233   6.157 -0.5887  1.2503 -0.7155
 5454SOL     OW27997   2.788   2.124   1.490 -0.7145 -0.3817 -0.1484
 5454SOL    HW127998   2.846   2.178   1.543  0.4755 -0.9347 -0.8796
 5454SOL    HW227999   2.820   2.127   1.400  0.9176  1.2403  0.4844
 5455SOL     OW28000   1.824   3.169   8.270 -0.6361  0.2470  0.0188
 5455SOL    HW128001   1.833   3.259   8.302  0.3918  0.2188 -0.1890
 5455SOL    HW228002   1.807   3.129   8.355  3.1631 -1.2043  0.1003
 5456SOL     OW28003   1.595   2.764  10.889 -0.1358  0.4992 -0.0439
 5456SOL    HW128004   1.530   2.759  10.958  0.0283  2.0317  0.2105
 5456SOL    HW228005   1.571   2.851  10.858 -1.9879  0.3728  1.0447
 5457SOL     OW28006   0.733   2.510   0.665  0.7672 -0.3884 -0.0235
 5457SOL    HW128007   0.806   2.549   0.713  1.3562  2.0128 -2.8435
 5457SOL    HW228008   0.790   2.462   0.605  1.7652 -0.1364  0.7322
 5458SOL     OW28009   0.830   2.113   2.892 -1.0960  0.2366  0.3748
 5458SOL    HW128010   0.840   2.025   2.857  2.2670  0.7285  0.0916
 5458SOL    HW228011   0.829   2.160   2.809  0.6165 -0.5301 -0.1002
 5459SOL     OW28012   1.135   3.767   1.753  0.2417 -0.2663  0.0123
 5459SOL    HW128013   1.102   3.690   1.706 -0.0133 -0.5083  0.5814
 5459SOL    HW228014   1.151   3.830   1.683 -1.1775  1.4571  1.2435
 5460SOL     OW28015   4.714   0.355   2.306  0.2877  0.2190 -0.1392
 5460SOL    HW128016   4.668   0.275   2.284  1.5791 -0.1481 -1.4537
 5460SOL    HW228017   4.693   0.355   2.400  2.1860 -1.6823  0.2681
 5461SOL     OW28018   2.927   2.440   7.043  0.3624 -0.0719  0.4540
 5461SOL    HW128019   2.882   2.360   7.070 -1.4448  1.3324  1.6691
 5461SOL    HW228020   2.876   2.514   7.076 -2.9724 -2.1453 -0.0419
 5462SOL     OW28021   0.285   2.892   9.201  0.2902 -0.0469  0.1794
 5462SOL    HW128022   0.358   2.872   9.143 -1.0723  0.6957 -1.7768
 5462SOL    HW228023   0.252   2.969   9.154  1.0643  0.6544  0.7972
 5463SOL     OW28024   1.113   3.316   7.106 -0.4568 -0.5763  0.0621
 5463SOL    HW128025   1.023   3.296   7.134 -1.0106 -1.8680 -2.6814
 5463SOL    HW228026   1.105   3.338   7.013  0.1139 -1.4442 -0.1861
 5464SOL     OW28027   2.558   4.234   8.107  0.4881  0.1569 -0.0146
 5464SOL    HW128028   2.642   4.197   8.133  0.1228 -1.0151 -0.4843
 5464SOL    HW228029   2.602   4.296   8.049  0.3292 -0.4753 -0.8156
 5465SOL     OW28030   2.101   4.494   8.573 -0.8334 -0.2275  0.1245
 5465SOL    HW128031   2.163   4.564   8.551 -1.0128  0.1767  0.8886
 5465SOL    HW228032   2.125   4.489   8.666  0.0252 -0.0145 -0.0815
 5466SOL     OW28033   3.876   0.342   4.666  0.1154 -0.3042 -0.1434
 5466SOL    HW128034   3.907   0.362   4.578 -1.3512 -0.3099 -0.6470
 5466SOL    HW228035   3.921   0.262   4.693  0.6970 -0.1050 -0.5203
 5467SOL     OW28036   2.687   2.230   8.353  0.4894  0.3122 -0.2281
 5467SOL    HW128037   2.695   2.320   8.322 -1.0543 -0.7514 -3.7938
 5467SOL    HW228038   2.687   2.234   8.449  1.4575 -0.2047 -0.2126
 5468SOL     OW28039   0.750   1.683  13.977  0.0456  0.1604  0.0385
 5468SOL    HW128040   0.690   1.660  14.048 -0.9567  0.3716 -0.7426
 5468SOL    HW228041   0.805   1.754  14.011  1.9882 -1.3339  0.0673
 5469SOL     OW28042   3.378   3.596   6.182 -0.0992 -0.0891 -0.4409
 5469SOL    HW128043   3.342   3.653   6.249  0.8139  0.5258 -0.4822
 5469SOL    HW228044   3.300   3.558   6.142 -0.0920  0.6413 -1.1278
 5470SOL     OW28045   4.296   3.277   6.229 -0.3336  0.0567  0.2938
 5470SOL    HW128046   4.320   3.316   6.145  1.3289 -2.3072 -0.3159
 5470SOL    HW228047   4.239   3.346   6.264 -0.4483  0.6082 -0.9917
 5471SOL     OW28048   4.622   1.061   5.822 -0.1483 -0.0046 -0.2804
 5471SOL    HW128049   4.713   1.079   5.797 -0.0264 -0.6958 -0.3393
 5471SOL    HW228050   4.630   0.969   5.848 -2.1461  0.1749  0.9669
 5472SOL     OW28051   1.453   1.222   6.114  0.1458 -0.1164 -0.0991
 5472SOL    HW128052   1.510   1.276   6.059  1.3012 -2.6972 -1.4637
 5472SOL    HW228053   1.468   1.256   6.202  0.6231 -0.6098  0.0145
 5473SOL     OW28054   1.092   1.035   5.327  0.4749 -0.5085  0.3405
 5473SOL    HW128055   1.060   1.035   5.417 -0.1229 -1.2419  0.1317
 5473SOL    HW228056   1.009   1.065   5.289  0.4450  1.5041  2.0077
 5474SOL     OW28057   0.841   2.721  11.565 -0.4742  0.7153 -0.3593
 5474SOL    HW128058   0.915   2.702  11.508 -0.2737  1.0144 -0.1964
 5474SOL    HW228059   0.810   2.806  11.534  1.9103  1.8450  0.3413
 5475SOL     OW28060   3.717   0.154   5.273  0.2890 -0.0728 -0.6977
 5475SOL    HW128061   3.705   0.159   5.368  1.8496  1.3389 -0.5779
 5475SOL    HW228062   3.640   0.196   5.236  1.6442  1.4772 -1.7724
 5476SOL     OW28063   4.258   4.642   2.294 -0.5485  0.1009  0.2157
 5476SOL    HW128064   4.207   4.561   2.281 -0.4376  0.3155 -1.5793
 5476SOL    HW228065   4.225   4.704   2.228 -1.3965 -0.6311 -0.0588
 5477SOL     OW28066   2.787   1.935  17.507 -0.2420 -0.0917 -0.3453
 5477SOL    HW128067   2.784   2.017  17.556 -0.4262 -0.7615  0.7747
 5477SOL    HW228068   2.882   1.928  17.502 -0.2141 -0.0771  0.1983
 5478SOL     OW28069   3.147   1.517   0.280  0.1862  0.2075 -0.4178
 5478SOL    HW128070   3.087   1.444   0.271 -0.5368  0.4772  2.3511
 5478SOL    HW228071   3.228   1.474   0.308 -0.5826 -2.2314 -2.0215
 5479SOL     OW28072   3.123   2.768  13.015 -0.0484 -0.6638 -0.5746
 5479SOL    HW128073   3.134   2.799  12.926  1.3536  1.4980  0.3631
 5479SOL    HW228074   3.030   2.746  13.028 -0.0973  0.1055  0.3838
 5480SOL     OW28075   4.507   0.880   9.038 -0.1370 -0.1195  0.2768
 5480SOL    HW128076   4.580   0.832   9.000  0.2433  1.9011 -1.5836
 5480SOL    HW228077   4.490   0.934   8.960  2.4742  0.7729  0.3321
 5481SOL     OW28078   3.037   1.419   2.394  0.7329 -0.3804  0.3077
 5481SOL    HW128079   3.028   1.334   2.350 -0.7707 -0.9263  1.7006
 5481SOL    HW228080   3.056   1.465   2.312 -1.2112 -1.2069 -0.5940
 5482SOL     OW28081   2.475   4.518  12.072  0.3728  0.3789 -0.2417
 5482SOL    HW128082   2.461   4.551  12.161 -3.0265 -0.5596 -0.4020
 5482SOL    HW228083   2.484   4.425  12.095  0.9370  0.7672  1.1191
 5483SOL     OW28084   0.155   2.946   4.506 -0.4574  0.1330  0.4263
 5483SOL    HW128085   0.181   3.037   4.490  1.0092 -0.3664  0.0218
 5483SOL    HW228086   0.203   2.891   4.446 -1.5936 -1.9384  1.4146
 5484SOL     OW28087   1.774   3.547   5.495  0.4243  0.1195  0.3005
 5484SOL    HW128088   1.820   3.629   5.512  0.1748  0.2817  0.1828
 5484SOL    HW228089   1.747   3.529   5.585 -1.0905 -3.0167 -0.7830
 5485SOL     OW28090   0.706   3.362   5.111  0.6626  0.1484  0.6212
 5485SOL    HW128091   0.624   3.312   5.119 -0.1583  1.4069 -0.0778
 5485SOL    HW228092   0.734   3.379   5.201 -2.5199  0.6711  1.5379
 5486SOL     OW28093   0.170   3.184   1.252  0.3269 -0.2131 -0.2772
 5486SOL    HW128094   0.206   3.105   1.292 -0.8822 -0.0273  1.2026
 5486SOL    HW228095   0.203   3.244   1.319 -1.3408 -0.8136  1.1097
 5487SOL     OW28096   1.127   2.572   0.779  0.3924 -0.0430 -0.0982
 5487SOL    HW128097   1.128   2.477   0.782 -0.9785 -0.0557  0.3128
 5487SOL    HW228098   1.040   2.598   0.811  0.0240 -1.4101 -0.0052
 5488SOL     OW28099   3.463   3.441   4.174  0.2358  0.1319 -0.0815
 5488SOL    HW128100   3.380   3.484   4.152 -0.0719  1.1885  3.1633
 5488SOL    HW228101   3.432   3.385   4.244 -0.3721 -0.4296 -0.7939
 5489SOL     OW28102   0.621   1.743   3.635 -0.3577  0.0771  0.2850
 5489SOL    HW128103   0.619   1.673   3.700  0.8429 -0.4986 -0.3124
 5489SOL    HW228104   0.712   1.744   3.606 -0.9402 -2.8132 -1.5665
 5490SOL     OW28105   2.978   0.872   0.813  0.6580  0.1210 -0.7845
 5490SOL    HW128106   2.914   0.800   0.808 -1.1821  1.6482  0.8176
 5490SOL    HW228107   3.057   0.831   0.779 -0.8198 -2.8459 -0.7102
 5491SOL     OW28108   0.066   3.416   7.018 -0.6520 -0.1210  0.1851
 5491SOL    HW128109   0.126   3.479   7.059 -0.0956 -1.0207  0.7526
 5491SOL    HW228110   0.132   3.363   6.974  0.3801  1.1623  0.1847
 5492SOL     OW28111   1.408   2.360   8.231  0.2342  0.3048 -0.1998
 5492SOL    HW128112   1.450   2.311   8.301 -0.3387 -0.3372 -0.2981
 5492SOL    HW228113   1.346   2.291   8.206  0.3408 -0.8526  2.6848
 5493SOL     OW28114   0.047   2.034   6.913 -0.1810 -0.0676  0.3748
 5493SOL    HW128115   0.055   1.954   6.964  1.3543 -0.3547 -0.3271
 5493SOL    HW228116   0.125   2.024   6.859 -0.6426 -2.9339  0.2424
 5494SOL     OW28117   2.216   2.242   7.616 -0.1153  0.0160 -0.2574
 5494SOL    HW128118   2.144   2.291   7.656  1.0615  1.2066  0.4064
 5494SOL    HW228119   2.292   2.293   7.642 -0.3455  0.2299 -0.0033
 5495SOL     OW28120   1.636   3.131   6.468 -0.1719 -0.2594  0.2537
 5495SOL    HW128121   1.652   3.180   6.388  2.3159  1.1086  1.5941
 5495SOL    HW228122   1.597   3.204   6.515 -0.1209  1.5308 -2.4765
 5496SOL     OW28123   1.753   0.933   7.036 -0.1695  0.1994 -0.1266
 5496SOL    HW128124   1.666   0.948   7.073 -0.3245  0.4934 -0.6232
 5496SOL    HW228125   1.744   0.896   6.949 -2.0065 -3.3899  1.5978
 5497SOL     OW28126   1.978   3.204  14.461  0.0554 -0.2931 -0.1456
 5497SOL    HW128127   1.907   3.185  14.400  0.6125  0.9333 -1.1812
 5497SOL    HW228128   1.917   3.239  14.527  3.1378  0.9180  2.0608
 5498SOL     OW28129   1.931   1.079   5.714  0.0139  0.4152  0.1787
 5498SOL    HW128130   1.950   0.986   5.705 -2.5287 -0.3421  2.9567
 5498SOL    HW228131   1.981   1.104   5.792 -1.9096  1.5074  1.0592
 5499SOL     OW28132   1.817   1.356  13.175 -0.4568 -0.1997 -0.1074
 5499SOL    HW128133   1.764   1.279  13.152  0.6028 -1.2454  0.9911
 5499SOL    HW228134   1.833   1.324  13.263  1.7862  2.6625  0.5106
 5500SOL     OW28135   1.015   4.374  12.541  0.6090  0.1724 -0.4373
 5500SOL    HW128136   1.088   4.435  12.530 -0.4503  1.4505 -0.3455
 5500SOL    HW228137   0.946   4.433  12.513 -1.1665 -1.7229 -0.0358
 5501SOL     OW28138   0.189   1.593   3.384 -0.4760  0.1917  0.0673
 5501SOL    HW128139   0.180   1.578   3.290 -4.4977 -0.5284  0.5688
 5501SOL    HW228140   0.276   1.633   3.389 -0.0638 -0.7088  0.0965
 5502SOL     OW28141   2.070   0.194   7.661  0.2504  0.0844  0.3298
 5502SOL    HW128142   2.132   0.143   7.610  0.2140 -0.1468  0.5155
 5502SOL    HW228143   1.995   0.184   7.602  0.3698 -1.8153  0.4899
 5503SOL     OW28144   1.263   3.228  14.944 -0.3776 -0.1852  0.2495
 5503SOL    HW128145   1.191   3.174  14.977 -0.5875  0.4150  0.7656
 5503SOL    HW228146   1.223   3.312  14.921 -0.3873 -0.4521 -0.7195
 5504SOL     OW28147   4.148   2.929   8.542 -0.3172 -0.0308  0.2161
 5504SOL    HW128148   4.137   3.020   8.514  0.2561  0.2591  0.9480
 5504SOL    HW228149   4.159   2.930   8.637 -0.3193 -4.0000  0.2910
 5505SOL     OW28150   2.202   3.058  16.060 -0.0010  0.3194  0.6138
 5505SOL    HW128151   2.180   3.065  15.967 -1.7654  0.7608  1.0606
 5505SOL    HW228152   2.252   3.139  16.069  0.5106  0.0853 -0.1158
 5506SOL     OW28153   1.429   0.135   1.288  0.9184  0.1650  0.3230
 5506SOL    HW128154   1.497   0.184   1.334  1.0088 -0.9085  1.3147
 5506SOL    HW228155   1.463   0.140   1.199  0.1730  3.8330  0.2361
 5507SOL     OW28156   1.220   2.268   7.253  0.4334 -0.4519  0.4255
 5507SOL    HW128157   1.293   2.206   7.252  1.7773  1.1679 -1.5078
 5507SOL    HW228158   1.162   2.216   7.310  1.0392 -0.0478  1.4181
 5508SOL     OW28159   2.150   3.074   8.582 -0.3331  0.0852 -0.3031
 5508SOL    HW128160   2.146   2.985   8.548 -0.4385 -0.2336  0.5380
 5508SOL    HW228161   2.183   3.047   8.668 -1.0086 -0.3522 -0.1759
 5509SOL     OW28162   3.986   4.597   0.418 -0.0173 -0.0963  0.3194
 5509SOL    HW128163   4.069   4.574   0.459 -0.1379 -2.1110 -0.5446
 5509SOL    HW228164   3.937   4.604   0.501 -0.7829  1.2625 -0.2497
 5510SOL     OW28165   3.570   2.283   6.321  0.0612 -0.1178  0.0088
 5510SOL    HW128166   3.629   2.226   6.371  0.0372  1.4207  1.7860
 5510SOL    HW228167   3.554   2.220   6.250 -0.0079  0.6261 -0.6307
 5511SOL     OW28168   3.538   1.105  13.515  0.6180 -0.3119  0.2103
 5511SOL    HW128169   3.593   1.053  13.456 -0.3073 -0.2415 -0.6983
 5511SOL    HW228170   3.541   1.067  13.603  1.3092 -5.5243 -2.0563
 5512SOL     OW28171   2.254   1.953   2.740 -0.3922  0.1128  0.0152
 5512SOL    HW128172   2.259   2.026   2.678  1.2714  0.2703  0.3294
 5512SOL    HW228173   2.317   1.891   2.705  0.3051  2.4164 -2.8025
 5513SOL     OW28174   4.357   1.860   7.437 -0.1793 -0.5054  0.3058
 5513SOL    HW128175   4.273   1.822   7.413  0.7363 -2.6434  0.5058
 5513SOL    HW228176   4.352   1.874   7.531  2.7953  0.3512  0.3602
 5514SOL     OW28177   0.307   3.060   5.607  0.4557 -0.2491 -0.2069
 5514SOL    HW128178   0.227   3.111   5.625  0.0111 -1.5203  1.4092
 5514SOL    HW228179   0.336   3.125   5.542  0.2346  0.0025 -0.0556
 5515SOL     OW28180   3.335   0.261   4.117  0.1040  0.3998 -0.1888
 5515SOL    HW128181   3.420   0.220   4.133  0.0743  0.3493 -0.1582
 5515SOL    HW228182   3.277   0.185   4.111  0.8039 -0.0909 -0.7994
 5516SOL     OW28183   4.045   4.179   4.562  0.1321  0.4628 -0.2111
 5516SOL    HW128184   4.042   4.274   4.564  0.4252  0.4370  1.8100
 5516SOL    HW228185   4.064   4.161   4.654 -0.1706  3.1123  0.3801
 5517SOL     OW28186   3.767   4.204   9.627 -0.3279 -0.2539  0.4080
 5517SOL    HW128187   3.727   4.132   9.578 -1.6488  1.9210 -1.7066
 5517SOL    HW228188   3.852   4.167   9.652  0.2747  0.5365 -0.4705
 5518SOL     OW28189   2.565   2.155   6.253  0.2945  0.1409 -0.1029
 5518SOL    HW128190   2.532   2.135   6.340  2.3147 -0.0463  0.6102
 5518SOL    HW228191   2.658   2.148   6.271  0.4315  1.8316 -0.1564
 5519SOL     OW28192   1.908   1.606   8.656  0.0018 -0.2480  0.4389
 5519SOL    HW128193   1.928   1.666   8.584  0.2059 -0.7498  0.0777
 5519SOL    HW228194   1.865   1.658   8.724  1.9992  0.0686  1.4316
 5520SOL     OW28195   2.548   3.690  12.718 -0.1583  0.1952 -0.0173
 5520SOL    HW128196   2.472   3.637  12.695 -0.2301  0.7752 -1.0964
 5520SOL    HW228197   2.572   3.642  12.797 -0.0265 -1.9197 -1.3478
 5521SOL     OW28198   3.725   2.508  13.942  0.2118  0.1420  0.3104
 5521SOL    HW128199   3.674   2.515  13.861  0.5441 -0.6509  0.0348
 5521SOL    HW228200   3.662   2.538  14.008  0.1398  1.6704 -0.4601
 5522SOL     OW28201   0.624   0.492   2.632 -0.1230  0.0885  0.1281
 5522SOL    HW128202   0.694   0.557   2.633  0.2492 -0.3010 -0.3906
 5522SOL    HW228203   0.654   0.430   2.566 -2.7067 -0.8770 -0.1487
 5523SOL     OW28204   0.000   3.936   6.647  0.6295  0.5225  0.0178
 5523SOL    HW128205   4.646   3.967   6.628  0.8563  0.2704 -1.4476
 5523SOL    HW228206   0.013   3.869   6.579 -0.2422 -0.2523  0.6200
 5524SOL     OW28207   3.690   4.437   4.845  0.0518  0.6230 -0.3786
 5524SOL    HW128208   3.623   4.475   4.901 -1.9040 -2.0735 -0.8794
 5524SOL    HW228209   3.644   4.427   4.762 -2.4326  1.1581  0.9506
 5525SOL     OW28210   2.516   1.086   4.954  0.2088 -0.0314  1.3143
 5525SOL    HW128211   2.468   1.154   4.907  2.3986  1.9369  1.9289
 5525SOL    HW228212   2.495   1.104   5.046 -1.0190 -2.2107  1.4472
 5526SOL     OW28213   3.914   1.908   3.075  0.2829  0.3835 -0.5918
 5526SOL    HW128214   3.921   1.955   2.992  0.8428 -0.8402 -1.2469
 5526SOL    HW228215   3.852   1.971   3.111  1.1970  0.6318  0.5509
 5527SOL     OW28216   1.280   0.841   0.766  0.0882  0.0513  0.5539
 5527SOL    HW128217   1.226   0.905   0.721 -1.2473 -1.1341  0.4749
 5527SOL    HW228218   1.366   0.852   0.725 -0.4926  1.6890 -0.2348
 5528SOL     OW28219   1.266   3.158   2.647 -0.0574 -0.6554 -0.3385
 5528SOL    HW128220   1.240   3.067   2.666 -1.1614 -0.4519 -0.8845
 5528SOL    HW228221   1.181   3.198   2.629  1.1854  2.2679  0.3198
 5529SOL     OW28222   1.232   4.479  15.407  0.2596 -0.1310  0.1207
 5529SOL    HW128223   1.272   4.477  15.494 -1.1287 -1.3455  0.7335
 5529SOL    HW228224   1.258   4.568  15.382 -2.3732  0.2706 -1.1774
 5530SOL     OW28225   2.090   3.835   4.197 -0.0701 -0.0664 -0.4897
 5530SOL    HW128226   2.035   3.893   4.145 -1.8835 -0.4670  0.9654
 5530SOL    HW228227   2.055   3.753   4.163  0.2632 -0.4647  0.1267
 5531SOL     OW28228   0.606   0.280  16.676  1.1400  0.3123 -0.3109
 5531SOL    HW128229   0.521   0.278  16.720  1.2769  0.2795 -0.0438
 5531SOL    HW228230   0.654   0.336  16.737  2.6390 -2.8451  1.4720
 5532SOL     OW28231   1.462   0.528  11.686 -0.7326 -0.0715  0.2694
 5532SOL    HW128232   1.405   0.512  11.761 -0.0137 -1.9034  0.4462
 5532SOL    HW228233   1.458   0.623  11.676 -1.1164 -0.2341 -1.1397
 5533SOL     OW28234   4.526   1.164   6.774  0.9412 -0.2498 -0.3439
 5533SOL    HW128235   4.568   1.247   6.792 -3.3979  1.5765  1.4823
 5533SOL    HW228236   4.598   1.121   6.728  1.1439  2.7785 -2.8005
 5534SOL     OW28237   3.023   0.641   7.775 -0.4103  0.2232  0.3592
 5534SOL    HW128238   2.956   0.703   7.806 -0.7803 -0.1765  0.3521
 5534SOL    HW228239   3.098   0.700   7.773 -0.2153 -0.0114  0.9064
 5535SOL     OW28240   3.714   1.718   9.455  0.6039 -0.2113  0.1437
 5535SOL    HW128241   3.643   1.778   9.478 -0.4388 -1.0094 -1.0301
 5535SOL    HW228242   3.769   1.724   9.534 -0.8003 -0.7560  1.1563
 5536SOL     OW28243   2.303   1.100   5.974 -0.1498 -0.1031 -0.3526
 5536SOL    HW128244   2.261   1.014   5.966 -1.5340  0.6533 -1.2838
 5536SOL    HW228245   2.387   1.073   6.011  0.5290  1.4564 -0.7624
 5537SOL     OW28246   4.647   3.045   8.004  0.5203  0.7079  0.4039
 5537SOL    HW128247   4.578   2.979   8.014  0.2509  0.9340  0.0506
 5537SOL    HW228248   4.632   3.096   8.083 -1.1430  1.1380 -0.1876
 5538SOL     OW28249   3.760   2.735   6.617 -0.2321  0.4020 -0.0909
 5538SOL    HW128250   3.811   2.811   6.645  0.5367  0.0531 -0.5078
 5538SOL    HW228251   3.797   2.664   6.671 -1.9786 -0.0491  0.5072
 5539SOL     OW28252   4.404   2.745   0.941 -0.3402  0.1352 -1.1191
 5539SOL    HW128253   4.334   2.784   0.993  0.1502 -0.0536 -0.3095
 5539SOL    HW228254   4.464   2.717   1.010 -2.3563 -0.9286  0.2250
 5540SOL     OW28255   0.606   1.937  11.296 -0.2842  0.2747  0.4277
 5540SOL    HW128256   0.625   1.853  11.338 -0.4469 -0.2908 -0.6371
 5540SOL    HW228257   0.683   1.945  11.239  0.2411 -0.3482  1.0493
 5541SOL     OW28258   1.190   0.308   9.306 -0.4260  0.0910 -0.5909
 5541SOL    HW128259   1.121   0.374   9.315  0.4771  0.8545  0.8339
 5541SOL    HW228260   1.171   0.247   9.377 -1.6077  1.4709  0.2936
 5542SOL     OW28261   1.570   1.498   2.319  0.2852 -0.4273  0.1378
 5542SOL    HW128262   1.631   1.506   2.393  0.0158 -0.7882  0.4007
 5542SOL    HW228263   1.522   1.581   2.326  1.4395  0.0113  3.1062
 5543SOL     OW28264   3.414   3.769  11.560  0.0863  0.3711  0.0167
 5543SOL    HW128265   3.382   3.760  11.471  0.8411 -0.8070 -0.1463
 5543SOL    HW228266   3.508   3.758  11.546 -0.0542  0.1325 -0.7296
 5544SOL     OW28267   3.195   3.779   2.608 -0.6515  0.2112  0.5975
 5544SOL    HW128268   3.193   3.871   2.636 -0.1507  0.1429  0.8547
 5544SOL    HW228269   3.161   3.733   2.684 -1.9348  2.0753  1.1736
 5545SOL     OW28270   2.478   3.718   8.111 -0.2579 -0.0012 -0.5413
 5545SOL    HW128271   2.451   3.732   8.020 -1.3356 -1.3574 -0.4151
 5545SOL    HW228272   2.553   3.779   8.111 -0.8425  0.7140 -0.3800
 5546SOL     OW28273   2.690   2.671   2.468  0.5064 -0.0364 -0.3103
 5546SOL    HW128274   2.739   2.631   2.396 -1.4916  1.0518 -2.2617
 5546SOL    HW228275   2.601   2.637   2.459  0.8078 -0.7436 -0.5963
 5547SOL     OW28276   0.939   0.207   9.932 -0.2604 -0.1476  0.3358
 5547SOL    HW128277   0.947   0.114   9.952  1.9459 -0.7947 -3.4534
 5547SOL    HW228278   0.955   0.242  10.019  0.8719 -1.6462  0.7214
 5548SOL     OW28279   3.357   4.320  17.310  0.2062 -0.4794 -0.2026
 5548SOL    HW128280   3.390   4.353  17.226 -2.3677  1.5876 -0.4307
 5548SOL    HW228281   3.350   4.228  17.284  2.3011 -0.5015 -0.6612
 5549SOL     OW28282   0.364   4.406   0.961  0.1533 -0.0533 -0.0913
 5549SOL    HW128283   0.374   4.361   1.044 -0.0730  0.5376  0.2589
 5549SOL    HW228284   0.454   4.405   0.928  0.0243  1.3587 -0.4912
 5550SOL     OW28285   0.519   0.215   7.433  0.0531  0.1735 -0.3351
 5550SOL    HW128286   0.522   0.262   7.516 -1.5734 -1.7976  0.8400
 5550SOL    HW228287   0.423   0.207   7.426  0.2754 -3.2791  0.7240
 5551SOL     OW28288   1.718   3.775  15.894 -0.3064  0.5569 -0.1178
 5551SOL    HW128289   1.792   3.728  15.932 -2.9413 -3.7437 -0.2644
 5551SOL    HW228290   1.727   3.848  15.955  2.1100  0.1568  0.0327
 5552SOL     OW28291   2.219   0.684   2.516  0.0757 -0.5246 -0.3438
 5552SOL    HW128292   2.151   0.715   2.456  1.5165  1.4286 -0.9507
 5552SOL    HW228293   2.269   0.614   2.473  1.4519  0.5962 -0.5494
 5553SOL     OW28294   0.272   1.624   9.046 -0.3911 -0.1173  0.3174
 5553SOL    HW128295   0.259   1.568   9.123 -0.1742  0.5703  0.8531
 5553SOL    HW228296   0.220   1.585   8.975 -2.5943 -0.2211  2.0030
 5554SOL     OW28297   0.311   2.207   3.966  0.2729 -0.9248  0.6648
 5554SOL    HW128298   0.284   2.294   3.996 -0.5490 -1.8221  2.5698
 5554SOL    HW228299   0.291   2.146   4.037  1.8771 -0.4009  1.5681
 5555SOL     OW28300   3.097   0.478   8.908  0.2648 -0.1016  0.6483
 5555SOL    HW128301   3.045   0.558   8.911 -0.8264 -0.7998  0.3599
 5555SOL    HW228302   3.112   0.450   8.998 -0.6777 -2.4047  0.1003
 5556SOL     OW28303   3.796   0.787   4.219  0.0252  0.4900 -0.6885
 5556SOL    HW128304   3.820   0.698   4.193  0.0482  0.4145 -0.4009
 5556SOL    HW228305   3.783   0.780   4.313 -0.1675  1.7877 -0.6158
 5557SOL     OW28306   4.328   3.896   3.128  0.0236 -0.3280  0.1291
 5557SOL    HW128307   4.338   3.802   3.137  0.7097 -0.1088  1.5462
 5557SOL    HW228308   4.233   3.903   3.130  0.0010 -0.4388 -0.4198
 5558SOL     OW28309   2.799   1.695   7.652 -0.2331 -0.4644  0.4458
 5558SOL    HW128310   2.792   1.718   7.744  0.1510  0.6679  0.1873
 5558SOL    HW228311   2.892   1.711   7.637 -0.7612  1.2663 -0.9614
 5559SOL     OW28312   4.632   0.208   4.837 -0.5520  0.1825  0.7151
 5559SOL    HW128313   4.647   0.186   4.929  0.2936  0.5617  0.6716
 5559SOL    HW228314   4.709   0.261   4.813  0.6342  0.0314  4.0999
 5560SOL     OW28315   4.320   3.336   3.539 -0.0770  0.0432 -0.4133
 5560SOL    HW128316   4.338   3.264   3.479 -0.7607 -0.0636 -0.4931
 5560SOL    HW228317   4.308   3.292   3.623 -0.1675  0.1734 -0.3585
 5561SOL     OW28318   0.847   0.838  10.527  0.5779 -0.1785 -0.8067
 5561SOL    HW128319   0.885   0.831  10.615 -1.3396 -0.2387  0.0171
 5561SOL    HW228320   0.834   0.932  10.518  3.2462  0.2257 -0.5592
 5562SOL     OW28321   3.997   2.646   7.237  0.6266 -0.3723  0.1778
 5562SOL    HW128322   4.070   2.690   7.193  0.7530  0.6076  1.3801
 5562SOL    HW228323   3.956   2.725   7.273  1.5883 -0.4344  1.4055
 5563SOL     OW28324   0.850   4.326   5.778 -1.0094  0.3903 -0.5484
 5563SOL    HW128325   0.936   4.315   5.739 -0.5587  1.9618 -0.0241
 5563SOL    HW228326   0.864   4.403   5.834 -1.1180 -0.1588  0.2360
 5564SOL     OW28327   3.368   1.657   5.002 -0.0713 -0.3143  0.4515
 5564SOL    HW128328   3.299   1.714   4.968 -1.2358 -1.3025  1.1598
 5564SOL    HW228329   3.422   1.723   5.044 -2.0446 -0.6273  3.4534
 5565SOL     OW28330   2.095   2.475   2.732  0.3162  0.1603 -0.1317
 5565SOL    HW128331   2.130   2.404   2.785 -0.0369 -1.5366 -2.1436
 5565SOL    HW228332   2.018   2.504   2.781  1.2825  3.4805 -0.5463
 5566SOL     OW28333   3.768   3.161   5.037 -0.0440 -0.1390  0.0627
 5566SOL    HW128334   3.745   3.077   4.998 -2.9975  0.5562  0.2838
 5566SOL    HW228335   3.811   3.203   4.963 -1.6152 -1.2988 -1.4818
 5567SOL     OW28336   2.538   4.734  15.208  0.3783  0.3369 -0.0995
 5567SOL    HW128337   2.472   4.694  15.151 -0.1860  0.1021  0.7178
 5567SOL    HW228338   2.486   0.071  15.245  0.9517  1.8914 -2.3087
 5568SOL     OW28339   0.796   2.520   6.484 -0.5881  0.0497  0.0814
 5568SOL    HW128340   0.870   2.548   6.538  0.5653  0.3913 -1.6920
 5568SOL    HW228341   0.784   2.433   6.522 -0.3058 -0.2974 -0.6290
 5569SOL     OW28342   0.654   0.346   7.081  0.1294 -0.5635 -0.2713
 5569SOL    HW128343   0.613   0.410   7.024  0.4610 -0.8958 -0.8875
 5569SOL    HW228344   0.628   0.264   7.038 -2.1963  0.0679 -0.0672
 5570SOL     OW28345   1.244   1.111   7.111 -0.2841 -0.3138 -0.2831
 5570SOL    HW128346   1.233   1.199   7.148  1.4671 -0.1514 -0.1421
 5570SOL    HW228347   1.151   1.091   7.104 -0.5216  0.9184 -0.7264
 5571SOL     OW28348   3.716   1.592   4.413  0.5643  0.0751 -0.1597
 5571SOL    HW128349   3.688   1.590   4.322  0.0298 -3.6046  0.0722
 5571SOL    HW228350   3.638   1.562   4.459  2.5951 -0.4034  2.9501
 5572SOL     OW28351   0.314   2.054   8.326  0.4983 -0.3641 -0.2424
 5572SOL    HW128352   0.405   2.082   8.314 -0.0050  0.1384 -3.0256
 5572SOL    HW228353   0.273   2.140   8.337  1.2275 -0.4140  2.6637
 5573SOL     OW28354   2.467   1.068   1.960 -0.1751  0.1059  0.4800
 5573SOL    HW128355   2.428   1.119   1.889  1.5934  1.0815  0.1966
 5573SOL    HW228356   2.518   1.004   1.910  1.6553  0.4653  1.8673
 5574SOL     OW28357   4.643   3.322   3.068 -0.0054 -0.3988  0.1721
 5574SOL    HW128358   4.728   3.279   3.078  0.7540  0.8685 -0.8790
 5574SOL    HW228359   4.668   3.391   3.008 -0.4979  0.2174  0.6705
 5575SOL     OW28360   4.120   2.221   4.571  0.5969 -0.0171  0.0669
 5575SOL    HW128361   4.049   2.197   4.631  0.6690 -0.9567 -0.2318
 5575SOL    HW228362   4.173   2.142   4.559  2.6269  1.2634  0.5105
 5576SOL     OW28363   3.103   0.980   4.716  0.2730 -0.2554  0.2311
 5576SOL    HW128364   3.117   1.048   4.782  0.2532 -0.2455  0.2249
 5576SOL    HW228365   3.072   1.028   4.639  0.9487  0.2943  0.3037
 5577SOL     OW28366   0.713   4.165   7.433 -0.3307  0.1553 -0.2691
 5577SOL    HW128367   0.687   4.215   7.510  0.5156  0.7846 -0.3905
 5577SOL    HW228368   0.767   4.238   7.401 -1.3825  0.1389 -2.0757
 5578SOL     OW28369   3.017   3.951   9.597 -0.4941 -0.5313  0.2333
 5578SOL    HW128370   3.076   3.958   9.672  1.6214 -0.7624 -1.4107
 5578SOL    HW228371   3.036   4.024   9.539 -0.8098  1.5523  2.7834
 5579SOL     OW28372   0.816   1.557   6.018  0.2148  0.1467 -0.4109
 5579SOL    HW128373   0.809   1.647   5.984  0.7805  0.0498 -0.7977
 5579SOL    HW228374   0.809   1.579   6.110 -1.3015 -0.0244 -0.4890
 5580SOL     OW28375   2.764   2.170  10.329 -0.0348  0.8228 -0.1526
 5580SOL    HW128376   2.815   2.230  10.275  2.6819 -3.1155 -1.9888
 5580SOL    HW228377   2.810   2.086  10.320 -1.2014  0.2029 -0.3512
 5581SOL     OW28378   1.901   3.386  15.708  0.0710  0.5281  0.2187
 5581SOL    HW128379   1.823   3.360  15.659  0.9778 -0.7723 -0.5361
 5581SOL    HW228380   1.941   3.443  15.641 -1.7884  0.6140 -0.8198
 5582SOL     OW28381   2.297   4.561  13.749  0.2547  0.0198  0.3142
 5582SOL    HW128382   2.311   4.565  13.654  0.0832 -2.9418  0.1530
 5582SOL    HW228383   2.332   4.472  13.753  0.0547 -0.1134 -0.7776
 5583SOL     OW28384   2.055   1.452  16.600 -0.2814  0.1252 -0.0021
 5583SOL    HW128385   2.064   1.367  16.642  1.8130 -0.9396 -2.5903
 5583SOL    HW228386   1.985   1.429  16.539 -1.3263  0.9214  0.8845
 5584SOL     OW28387   4.228   3.510   9.949  0.4843 -0.4301 -0.5019
 5584SOL    HW128388   4.155   3.466   9.993  2.8557 -1.5245  2.3802
 5584SOL    HW228389   4.185   3.541   9.870 -1.2871 -3.1664 -0.6113
 5585SOL     OW28390   4.052   2.576   7.761 -0.2075  0.2934 -0.2258
 5585SOL    HW128391   3.980   2.529   7.803 -0.1166  1.0598  0.7671
 5585SOL    HW228392   4.032   2.574   7.667 -2.4869  0.1623  0.2563
 5586SOL     OW28393   1.377   1.701   2.371 -0.3238 -0.6159 -0.0274
 5586SOL    HW128394   1.392   1.685   2.465  0.9345 -0.9159 -0.2833
 5586SOL    HW228395   1.283   1.682   2.364 -0.4680 -0.4506  1.3206
 5587SOL     OW28396   4.213   3.338   3.910 -0.5551  0.4472  0.0602
 5587SOL    HW128397   4.213   3.320   4.004  0.0435 -0.3629 -0.0937
 5587SOL    HW228398   4.308   3.336   3.896 -0.5866  0.1731 -0.1219
 5588SOL     OW28399   0.878   0.851   2.447  0.0205  0.8618  0.1710
 5588SOL    HW128400   0.909   0.812   2.365  0.7016  1.5234  0.1108
 5588SOL    HW228401   0.902   0.944   2.444  0.8275  0.7324  2.2229
 5589SOL     OW28402   3.306   2.387   1.748 -0.1633  0.6146 -0.6029
 5589SOL    HW128403   3.256   2.326   1.803 -0.3357  2.3465  1.1569
 5589SOL    HW228404   3.276   2.358   1.663  1.2309 -0.7000 -0.6513
 5590SOL     OW28405   4.592   0.500   7.217  0.0287  0.0662 -0.3228
 5590SOL    HW128406   4.518   0.530   7.270 -0.6919 -2.0466 -0.1458
 5590SOL    HW228407   4.591   0.575   7.157  0.2719  0.6706  0.4324
 5591SOL     OW28408   3.853   4.271   4.977 -0.0034 -0.1985 -0.0099
 5591SOL    HW128409   3.863   4.291   5.070  0.0914  0.2085 -0.1061
 5591SOL    HW228410   3.786   4.331   4.944  0.6033  0.3643 -0.2341
 5592SOL     OW28411   4.700   3.733   1.061  0.3979 -0.1166  0.3343
 5592SOL    HW128412   0.014   3.654   1.083  2.5150  1.9379  3.0928
 5592SOL    HW228413   4.617   3.690   1.040 -0.5256  1.5121  0.5920
 5593SOL     OW28414   0.530   3.210   3.484  0.4962 -0.0309  0.0327
 5593SOL    HW128415   0.438   3.238   3.492 -0.1462 -1.8422 -0.9574
 5593SOL    HW228416   0.553   3.235   3.573 -1.3804  1.3907  0.1205
 5594SOL     OW28417   1.171   1.361   3.935  0.1725 -0.5074  0.8912
 5594SOL    HW128418   1.127   1.394   3.857  0.2287  1.7744  1.8155
 5594SOL    HW228419   1.259   1.353   3.897 -0.4437 -1.6800 -0.2680
 5595SOL     OW28420   4.199   2.946   1.809 -0.0732 -0.1042 -0.2846
 5595SOL    HW128421   4.214   2.979   1.897 -0.3875 -0.5976 -0.0476
 5595SOL    HW228422   4.108   2.922   1.824 -0.1088 -0.7919 -1.5380
 5596SOL     OW28423   2.061   2.886   9.324 -0.5845  0.6125  0.2647
 5596SOL    HW128424   2.042   2.800   9.360  3.4243 -0.1588  0.5188
 5596SOL    HW228425   1.993   2.946   9.355 -3.3954 -1.6935 -1.4524
 5597SOL     OW28426   0.903   0.089   5.989 -0.3567  0.0371  0.6739
 5597SOL    HW128427   0.823   0.057   6.031 -1.5341  0.6458 -1.1285
 5597SOL    HW228428   0.926   0.173   6.028  0.1344 -0.2306  0.9625
 5598SOL     OW28429   2.286   2.019   5.375  0.1469  0.8528 -0.1526
 5598SOL    HW128430   2.380   2.031   5.381  0.3432 -1.7224  2.0049
 5598SOL    HW228431   2.269   1.944   5.432  0.0705  0.9189 -0.0890
 5599SOL     OW28432   3.971   2.100   3.468 -0.6314  0.2753 -0.5577
 5599SOL    HW128433   4.024   2.032   3.509  0.0202  0.8682 -0.4123
 5599SOL    HW228434   3.929   2.146   3.541  1.0735 -0.0851  0.6254
 5600SOL     OW28435   0.635   2.218  13.923 -0.3584 -0.0674 -0.2865
 5600SOL    HW128436   0.710   2.183  13.876  0.6616  2.2326 -0.3655
 5600SOL    HW228437   0.576   2.221  13.848 -1.1488 -0.2076  0.3286
 5601SOL     OW28438   0.985   1.016   8.113 -0.2920  0.8152  0.4459
 5601SOL    HW128439   1.053   1.055   8.059 -0.7363  1.1315  0.1070
 5601SOL    HW228440   0.907   1.066   8.088 -0.0743  0.9000 -0.0586
 5602SOL     OW28441   2.283   1.984   5.710  0.1024  0.2796 -0.5198
 5602SOL    HW128442   2.307   1.906   5.660 -2.4180 -0.2423 -0.9392
 5602SOL    HW228443   2.217   2.030   5.658  1.1461  1.1818 -1.0629
 5603SOL     OW28444   0.677   0.325   6.047  0.3108  0.5901  0.1108
 5603SOL    HW128445   0.677   0.314   5.952  1.5102 -0.1756  0.2112
 5603SOL    HW228446   0.728   0.406   6.054  2.0934 -0.4363 -1.2800
 5604SOL     OW28447   2.634   2.087   2.683 -0.6112  0.2761  0.0330
 5604SOL    HW128448   2.603   2.004   2.719  3.3347 -1.0553  0.3768
 5604SOL    HW228449   2.698   2.066   2.615 -0.6787  0.9195 -0.2344
 5605SOL     OW28450   3.652   2.246   5.567 -0.4594  0.1732  0.4632
 5605SOL    HW128451   3.687   2.320   5.518  0.6006 -0.5463  0.1249
 5605SOL    HW228452   3.572   2.231   5.518  1.1424  3.4852 -3.1128
 5606SOL     OW28453   4.415   0.194   6.110  0.0848 -0.6868 -0.5945
 5606SOL    HW128454   4.344   0.172   6.050  0.8182 -1.1530 -1.2998
 5606SOL    HW228455   4.466   0.114   6.123  1.5426 -0.1205 -2.8396
 5607SOL     OW28456   2.721   1.810   3.155  0.6354 -0.4376 -0.5146
 5607SOL    HW128457   2.674   1.820   3.073  1.6778 -2.9976 -1.4098
 5607SOL    HW228458   2.768   1.893   3.167  0.8279 -0.4824 -0.9856
 5608SOL     OW28459   0.226   0.687   9.258 -0.4513  0.2858  0.6414
 5608SOL    HW128460   0.208   0.660   9.168 -1.3482 -0.0699  0.9278
 5608SOL    HW228461   0.138   0.687   9.296 -1.6874  0.2432 -2.2119
 5609SOL     OW28462   3.088   3.884   1.594 -0.2996  0.1405  0.0490
 5609SOL    HW128463   3.099   3.972   1.629  1.0305 -1.2997  3.1893
 5609SOL    HW228464   3.178   3.865   1.567 -0.0256  0.4089  0.7843
 5610SOL     OW28465   4.473   4.209   6.143  0.0659  0.4816  0.0695
 5610SOL    HW128466   4.437   4.150   6.209 -0.6211 -0.1458 -0.8694
 5610SOL    HW228467   4.530   4.147   6.098  1.0321  2.8753 -2.0071
 5611SOL     OW28468   2.610   0.293   4.858  0.1655 -0.4984  0.0347
 5611SOL    HW128469   2.697   0.256   4.845  0.4469 -0.1996  1.0974
 5611SOL    HW228470   2.572   0.309   4.771  1.2078 -0.7464 -0.4640
 5612SOL     OW28471   4.054   0.274   5.521  0.2263  0.2020 -0.4019
 5612SOL    HW128472   4.141   0.273   5.480  0.9802 -2.3310  1.2322
 5612SOL    HW228473   4.010   0.323   5.451  0.0901 -1.3562 -1.3964
 5613SOL     OW28474   4.332   1.732  11.937 -0.0594  0.0325 -0.0591
 5613SOL    HW128475   4.317   1.693  12.023 -0.4049  0.1559 -0.0641
 5613SOL    HW228476   4.424   1.754  11.955 -0.3788 -0.4270  2.1513
 5614SOL     OW28477   3.421   2.026  11.839 -0.3019  0.3790  0.1360
 5614SOL    HW128478   3.466   2.076  11.907  1.4971  0.2526 -0.9684
 5614SOL    HW228479   3.341   1.999  11.884 -0.5501  0.7432 -0.0792
 5615SOL     OW28480   4.197   3.948   7.617 -0.0407 -0.6360  0.2589
 5615SOL    HW128481   4.168   3.963   7.527 -0.6937 -0.1733  0.5460
 5615SOL    HW228482   4.270   4.009   7.624  0.2553 -1.0102  0.4361
 5616SOL     OW28483   3.627   2.296   1.979  0.2658  0.6045  0.1241
 5616SOL    HW128484   3.589   2.223   2.028  0.3757  2.3999  2.9468
 5616SOL    HW228485   3.637   2.263   1.890 -0.4982 -2.0388  1.0302
 5617SOL     OW28486   1.300   2.847  17.004  0.3933 -0.4324 -0.6274
 5617SOL    HW128487   1.262   2.908  16.941 -0.1301 -1.9785 -1.8259
 5617SOL    HW228488   1.284   2.894  17.085  1.6951 -0.7491 -0.1840
 5618SOL     OW28489   2.237   4.556   5.779 -0.3932  0.0082 -0.3705
 5618SOL    HW128490   2.236   4.461   5.766  0.2357  0.2642 -2.2235
 5618SOL    HW228491   2.155   4.570   5.731 -1.4189 -1.4948  0.8901
 5619SOL     OW28492   3.648   0.602  17.586 -0.1398 -0.3841  0.0540
 5619SOL    HW128493   3.606   0.629  17.668  1.7573 -1.6471  1.4440
 5619SOL    HW228494   3.680   0.685  17.551  1.8287  0.0784  2.8419
 5620SOL     OW28495   0.771   0.411  10.132 -0.2146 -0.2105 -0.2610
 5620SOL    HW128496   0.763   0.333  10.186  0.8674  0.1620  0.4161
 5620SOL    HW228497   0.863   0.429  10.148 -0.8312  1.5745  1.2190
 5621SOL     OW28498   4.448   1.490   1.131  0.2982 -0.2445  0.0899
 5621SOL    HW128499   4.380   1.462   1.070 -1.7258  2.7684  0.9541
 5621SOL    HW228500   4.524   1.449   1.090  0.9873 -0.4687  1.5782
 5622SOL     OW28501   0.477   4.308   5.106 -0.7077 -0.0385  0.0425
 5622SOL    HW128502   0.456   4.249   5.179 -0.7668 -0.5978 -0.4270
 5622SOL    HW228503   0.390   4.299   5.068 -0.4366 -0.0071 -0.5830
 5623SOL     OW28504   2.148   3.050   6.470 -0.0985 -0.4217 -0.4916
 5623SOL    HW128505   2.097   2.974   6.442 -1.1053 -0.0938  0.4464
 5623SOL    HW228506   2.092   3.128   6.464  0.0679 -0.3027 -0.4974
 5624SOL     OW28507   1.520   0.796   5.586 -0.4081  0.3521 -0.0457
 5624SOL    HW128508   1.528   0.702   5.601 -0.7132  0.6925  2.2802
 5624SOL    HW228509   1.598   0.807   5.531 -0.8461 -0.0638 -0.7432
 5625SOL     OW28510   2.383   4.570   9.526  0.0730 -0.1148  0.0571
 5625SOL    HW128511   2.360   4.660   9.549 -2.3729  0.2733 -3.7498
 5625SOL    HW228512   2.440   4.555   9.601 -0.3309 -0.2301  0.3414
 5626SOL     OW28513   4.065   3.898   7.844 -0.6023 -0.2868 -0.1971
 5626SOL    HW128514   4.114   3.971   7.882  2.3586 -2.2097 -0.2652
 5626SOL    HW228515   4.095   3.903   7.753  0.2349 -0.7425  0.0538
 5627SOL     OW28516   4.667   0.206   5.118  0.1979  0.3082 -0.4469
 5627SOL    HW128517   4.685   0.124   5.164  0.4801 -1.0173 -2.9625
 5627SOL    HW228518   0.010   0.261   5.133 -1.2262  1.7722  1.5897
 5628SOL     OW28519   1.178   0.779   9.262 -0.4432 -0.0761 -0.4327
 5628SOL    HW128520   1.100   0.825   9.293  0.1906 -0.6058  1.9705
 5628SOL    HW228521   1.231   0.808   9.337 -0.5797  1.6722 -1.0240
 5629SOL     OW28522   3.763   1.457   0.319 -0.0963 -0.1087 -0.1542
 5629SOL    HW128523   3.734   1.519   0.385 -0.8847 -0.0525 -0.5475
 5629SOL    HW228524   3.733   1.502   0.239  1.4872  0.9257 -0.1561
 5630SOL     OW28525   4.186   2.784   1.554  0.5442 -0.2905 -0.0909
 5630SOL    HW128526   4.269   2.737   1.556  0.8766  0.3049  0.4006
 5630SOL    HW228527   4.181   2.816   1.644 -0.9937  0.4197 -0.4342
 5631SOL     OW28528   1.965   4.188  10.509  0.1233 -0.0537  0.1988
 5631SOL    HW128529   1.881   4.147  10.489 -1.3345  2.3084  1.4751
 5631SOL    HW228530   1.998   4.120  10.566  1.6660  0.9451  0.5039
 5632SOL     OW28531   0.416   0.380   2.333  0.1928 -0.2655  0.1540
 5632SOL    HW128532   0.428   0.308   2.395 -1.3711  0.1977  0.9885
 5632SOL    HW228533   0.408   0.456   2.390  0.2926 -1.4672  1.7834
 5633SOL     OW28534   3.221   3.663  14.942 -0.9174 -0.1227 -0.0459
 5633SOL    HW128535   3.182   3.629  14.862  0.1322 -2.7731  0.5578
 5633SOL    HW228536   3.310   3.666  14.907 -0.6348  1.8269  0.8369
 5634SOL     OW28537   0.037   0.587   8.036  0.1712  0.1792 -0.2473
 5634SOL    HW128538   0.052   0.672   8.077 -0.4619  0.6250 -0.9550
 5634SOL    HW228539   0.067   0.534   8.110  1.2902  0.1385 -0.7289
 5635SOL     OW28540   2.441   4.216  12.086  0.2066 -0.0523  0.5844
 5635SOL    HW128541   2.345   4.222  12.090  0.3622  2.3351  0.6937
 5635SOL    HW228542   2.463   4.129  12.120 -0.1250 -0.3456  0.0440
 5636SOL     OW28543   1.636   2.769  17.443  0.0017 -0.0096 -0.3844
 5636SOL    HW128544   1.709   2.707  17.449 -0.3778 -0.5004 -0.8021
 5636SOL    HW228545   1.678   2.855  17.442  1.1474 -0.5839 -1.0818
 5637SOL     OW28546   0.935   0.214  14.734 -0.2752  0.0671  0.0425
 5637SOL    HW128547   0.938   0.128  14.692  0.7782  1.5275 -2.9295
 5637SOL    HW228548   0.908   0.265  14.658  1.6489  0.4018 -0.4144
 5638SOL     OW28549   0.090   0.363   3.055 -0.1560  0.1080 -0.1911
 5638SOL    HW128550   0.166   0.309   3.078  0.4952  0.7331 -0.8987
 5638SOL    HW228551   0.090   0.337   2.963 -1.3806  0.3366 -0.2561
 5639SOL     OW28552   0.843   3.238   6.477  0.4678 -0.1656  0.0664
 5639SOL    HW128553   0.902   3.200   6.412  0.1057  0.7051 -0.7726
 5639SOL    HW228554   0.805   3.165   6.526  2.0489  0.6391  2.4739
 5640SOL     OW28555   2.720   4.346  12.211 -0.2463  0.4440  0.2288
 5640SOL    HW128556   2.729   4.440  12.225  0.4056  0.6118 -1.2957
 5640SOL    HW228557   2.638   4.330  12.164 -0.6245  2.2252  0.2753
 5641SOL     OW28558   0.253   0.092   5.715  0.0036  0.3294  0.0328
 5641SOL    HW128559   0.240   0.183   5.742 -1.1604  0.5902 -1.3808
 5641SOL    HW228560   0.275   0.097   5.622 -2.2913 -0.4728 -0.5579
 5642SOL     OW28561   2.378   4.465   8.457 -0.2062  0.8078  0.1908
 5642SOL    HW128562   2.419   4.413   8.526  0.1097 -1.3339 -1.6110
 5642SOL    HW228563   2.451   4.504   8.409  1.2013  0.8762  2.3892
 5643SOL     OW28564   1.169   0.065   6.443 -0.3112  0.2963  0.1431
 5643SOL    HW128565   1.112   0.025   6.378  0.3070  1.0377 -0.8487
 5643SOL    HW228566   1.138   0.154   6.427 -0.3836  0.4513  1.1689
 5644SOL     OW28567   3.765   3.014   2.741  0.3456  0.2498 -0.1962
 5644SOL    HW128568   3.696   2.973   2.688 -1.3086  0.8154  1.5047
 5644SOL    HW228569   3.837   2.952   2.738 -1.7550 -2.2584  2.3535
 5645SOL     OW28570   3.148   3.875   3.726 -0.4967 -0.6762 -0.3082
 5645SOL    HW128571   3.230   3.862   3.678 -0.3360 -2.4416  0.4310
 5645SOL    HW228572   3.151   3.970   3.734  1.1715 -0.7594  0.0351
 5646SOL     OW28573   0.591   1.938   1.929  0.2928 -0.0497 -0.6824
 5646SOL    HW128574   0.569   1.872   1.996 -0.7942  2.3474  1.3412
 5646SOL    HW228575   0.583   1.892   1.846 -2.4474 -1.7294  0.4926
 5647SOL     OW28576   0.746   3.257  12.210  0.3199 -0.2887 -0.4222
 5647SOL    HW128577   0.730   3.333  12.267  0.8018 -1.5184  1.3503
 5647SOL    HW228578   0.682   3.283  12.144  1.1518  1.9252 -0.3806
 5648SOL     OW28579   0.017   3.808   4.460  0.0389 -0.5818  0.4795
 5648SOL    HW128580   0.001   3.879   4.398 -1.5151 -0.8193  0.6054
 5648SOL    HW228581   4.719   3.851   4.539 -1.2984 -0.3209 -0.2098
 5649SOL     OW28582   1.228   0.209  15.112  0.3450  0.1399 -0.2357
 5649SOL    HW128583   1.150   0.261  15.089  0.5587  0.2370 -0.7331
 5649SOL    HW228584   1.284   0.233  15.039 -0.8781  0.8374 -0.9420
 5650SOL     OW28585   1.999   0.168  13.559  0.0901 -0.1026  0.6669
 5650SOL    HW128586   2.091   0.146  13.549  0.2307  0.7829 -0.0000
 5650SOL    HW228587   1.971   0.129  13.642  3.4838  0.3456  1.9955
 5651SOL     OW28588   4.699   1.210   5.276  0.1122  0.4870 -0.3212
 5651SOL    HW128589   4.699   1.221   5.371 -0.2595 -0.0649 -0.2601
 5651SOL    HW228590   0.059   1.203   5.262  0.3015  0.2405  1.1285
 5652SOL     OW28591   3.942   2.847   0.859 -0.5280  0.2770  0.1757
 5652SOL    HW128592   4.012   2.846   0.925 -0.4220  1.1130  0.0730
 5652SOL    HW228593   3.859   2.831   0.903 -0.2971  1.6032  1.1003
 5653SOL     OW28594   2.579   4.246   3.171  0.9928  0.3623 -0.7567
 5653SOL    HW128595   2.585   4.158   3.208 -1.7213  1.1341  1.5510
 5653SOL    HW228596   2.601   4.214   3.083 -0.3058  0.1048 -0.9968
 5654SOL     OW28597   3.411   0.212   7.500 -0.1163  0.2894 -0.1030
 5654SOL    HW128598   3.407   0.225   7.595  0.8792  0.0952 -0.0315
 5654SOL    HW228599   3.402   0.301   7.464  2.0032  0.1183 -1.1010
 5655SOL     OW28600   1.262   4.513   9.794  0.6646 -0.1015 -0.2174
 5655SOL    HW128601   1.292   4.588   9.743  0.4115  0.1955  0.0731
 5655SOL    HW228602   1.243   4.554   9.878 -0.8579  0.3120 -0.7665
 5656SOL     OW28603   1.826   0.884   5.065  0.0143 -0.0938 -0.2319
 5656SOL    HW128604   1.772   0.806   5.054 -0.8937  0.1250  2.6873
 5656SOL    HW228605   1.777   0.962   5.039 -2.1973 -0.3958  3.0398
 5657SOL     OW28606   3.701   4.131   7.767 -0.4616  0.2874 -0.0911
 5657SOL    HW128607   3.719   4.040   7.793  1.9872  0.5351 -0.9156
 5657SOL    HW228608   3.696   4.130   7.671 -0.5570  1.6302 -0.0884
 5658SOL     OW28609   1.256   2.579   8.309  0.3365  0.1564  0.0055
 5658SOL    HW128610   1.283   2.656   8.258 -0.3784  0.8317  0.6566
 5658SOL    HW228611   1.324   2.515   8.289  0.9422  0.6907  0.3500
 5659SOL     OW28612   0.429   2.031  11.081  0.0890  0.2206  0.0485
 5659SOL    HW128613   0.472   2.008  11.163  0.9392  0.3336 -0.3697
 5659SOL    HW228614   0.410   2.125  11.082  0.3196  0.2646  0.2584
 5660SOL     OW28615   4.019   1.191   4.151 -0.0595  0.0027  0.0523
 5660SOL    HW128616   4.087   1.246   4.189 -0.6972  1.1514 -0.4580
 5660SOL    HW228617   3.937   1.229   4.183  0.2690  0.3412  0.4849
 5661SOL     OW28618   0.877   4.485   2.634 -0.1856 -0.5439 -0.3532
 5661SOL    HW128619   0.795   4.528   2.659 -0.2174 -1.3989  0.9864
 5661SOL    HW228620   0.911   4.467   2.721  0.6065  2.4810 -0.0442
 5662SOL     OW28621   0.909   0.305   4.004  0.3037  0.6978  0.0468
 5662SOL    HW128622   0.880   0.385   3.962  0.5258  1.6160  1.6311
 5662SOL    HW228623   0.975   0.338   4.066  2.5959  0.4537 -2.2672
 5663SOL     OW28624   0.645   0.197   3.770 -0.7100 -0.5923  0.1096
 5663SOL    HW128625   0.581   0.139   3.730 -1.4520 -0.2623  0.8020
 5663SOL    HW228626   0.588   0.271   3.791 -0.6498 -0.6595  0.5256
 5664SOL     OW28627   3.944   4.264   1.048 -0.5264 -0.0138  0.6914
 5664SOL    HW128628   3.869   4.207   1.064 -0.8710  0.1177 -0.4795
 5664SOL    HW228629   3.916   4.326   0.980  0.7679  0.9675  1.0315
 5665SOL     OW28630   2.872   3.299   5.782 -0.3901  0.3182  0.4131
 5665SOL    HW128631   2.896   3.207   5.789  2.8563  1.2053  1.1519
 5665SOL    HW228632   2.905   3.329   5.867 -0.2358 -0.3086  0.5781
 5666SOL     OW28633   0.526   3.317  15.321 -0.5507 -1.0878 -0.8774
 5666SOL    HW128634   0.588   3.292  15.252 -0.7850 -1.1755 -1.0550
 5666SOL    HW228635   0.524   3.412  15.313 -1.4589 -0.8793  1.9079
 5667SOL     OW28636   2.703   2.760   5.022  0.0813  0.1115 -0.4104
 5667SOL    HW128637   2.629   2.753   5.081 -0.6923  2.5444 -1.0941
 5667SOL    HW228638   2.664   2.755   4.935 -0.1183  0.9053 -0.3713
 5668SOL     OW28639   1.345   2.804   4.793  0.7185 -0.2503 -0.0837
 5668SOL    HW128640   1.419   2.861   4.772  0.3594 -0.7846 -2.7485
 5668SOL    HW228641   1.274   2.867   4.780 -0.1672 -1.4188 -1.0057
 5669SOL     OW28642   4.707   0.884   8.571 -0.1987  0.1795  0.2021
 5669SOL    HW128643   0.026   0.909   8.495 -1.6634  2.5613 -0.0359
 5669SOL    HW228644   0.007   0.800   8.601  0.2188  0.2694 -0.0185
 5670SOL     OW28645   2.352   3.634   9.378 -0.0250 -0.7157  0.8374
 5670SOL    HW128646   2.375   3.652   9.287 -2.0136  0.2117  0.5165
 5670SOL    HW228647   2.433   3.597   9.414  1.2371  1.0236 -0.2761
 5671SOL     OW28648   1.454   2.016   3.628 -0.1140 -0.6030 -0.0608
 5671SOL    HW128649   1.368   2.007   3.587 -0.7045 -0.9379  1.2558
 5671SOL    HW228650   1.468   2.108   3.652 -0.9100 -0.9774  1.8119
 5672SOL     OW28651   3.871   4.292   6.369 -0.4280 -0.0642 -0.0276
 5672SOL    HW128652   3.821   4.319   6.292 -1.7994 -2.3263  0.0664
 5672SOL    HW228653   3.944   4.353   6.378 -1.4530  1.1948 -0.4575
 5673SOL     OW28654   1.450   3.641   5.480 -0.4383 -0.0334  0.6343
 5673SOL    HW128655   1.469   3.726   5.521  2.1683 -0.9790  1.4295
 5673SOL    HW228656   1.537   3.600   5.486  0.0362  0.6710 -1.4219
 5674SOL     OW28657   3.776   3.093   2.219 -0.1646  0.2565 -0.4293
 5674SOL    HW128658   3.694   3.073   2.264  0.3971  0.0038  0.4802
 5674SOL    HW228659   3.743   3.121   2.134 -0.9233 -0.3356 -0.3229
 5675SOL     OW28660   4.192   0.644  14.107 -0.2172 -0.2075  0.2174
 5675SOL    HW128661   4.274   0.650  14.058 -0.0217 -1.3177  0.4004
 5675SOL    HW228662   4.135   0.591  14.052 -0.9675 -0.7520  1.5271
 5676SOL     OW28663   1.858   2.921  13.082  0.1204  0.1127 -0.1675
 5676SOL    HW128664   1.913   2.924  13.161 -0.3002  1.0423  0.0918
 5676SOL    HW228665   1.899   2.974  13.015 -0.2411 -0.1018 -0.5555
 5677SOL     OW28666   2.808   4.564   1.309  0.0567  0.4252  0.5118
 5677SOL    HW128667   2.733   4.527   1.356 -0.7308  0.5384 -0.6600
 5677SOL    HW228668   2.838   4.629   1.373  1.7167  0.6657 -0.5174
 5678SOL     OW28669   3.523   2.163  17.714  0.0768 -0.6078  0.3000
 5678SOL    HW128670   3.612   2.176   0.009  0.2746  0.8118 -0.7633
 5678SOL    HW228671   3.506   2.071  17.730 -1.3731 -0.4444 -0.2799
 5679SOL     OW28672   3.165   0.617  15.640 -0.0517 -0.7077 -0.1341
 5679SOL    HW128673   3.162   0.680  15.712 -1.2652  0.5808 -1.3013
 5679SOL    HW228674   3.226   0.558  15.682 -1.1526 -0.8877  1.2028
 5680SOL     OW28675   3.793   1.308   6.680  0.3501 -0.0039  0.0338
 5680SOL    HW128676   3.737   1.232   6.669  0.0947  0.1585  0.2074
 5680SOL    HW228677   3.855   1.269   6.742  1.1104 -1.9329 -1.9865
 5681SOL     OW28678   1.087   1.938   2.230  0.1016  0.4330  1.1779
 5681SOL    HW128679   1.026   1.982   2.289  1.8277  0.8467  2.6397
 5681SOL    HW228680   1.096   1.852   2.271  0.9341 -0.2092 -0.3668
 5682SOL     OW28681   4.032   2.487   7.482  0.2659 -0.5764 -0.1952
 5682SOL    HW128682   4.118   2.446   7.494 -1.1612 -3.7804 -0.8243
 5682SOL    HW228683   4.045   2.523   7.394 -0.3644 -2.9053 -1.2488
 5683SOL     OW28684   0.662   0.854   6.559  0.2815  0.0521 -0.5854
 5683SOL    HW128685   0.746   0.828   6.597  0.2562 -0.7349 -1.0590
 5683SOL    HW228686   0.680   0.940   6.522  0.4684  0.1032 -0.3732
 5684SOL     OW28687   3.137   2.449  13.579  0.0367 -0.6583  0.5079
 5684SOL    HW128688   3.181   2.526  13.616 -1.0878 -0.5061  1.5351
 5684SOL    HW228689   3.122   2.477  13.489  4.2816 -0.1585 -0.0195
 5685SOL     OW28690   1.625   2.072   7.666  0.4167  0.0191  0.2511
 5685SOL    HW128691   1.629   2.104   7.756 -0.8794 -1.9224  1.0158
 5685SOL    HW228692   1.698   2.119   7.627 -0.0496 -0.0598 -0.7291
 5686SOL     OW28693   2.398   2.551   8.888  0.0697  0.2939  0.3367
 5686SOL    HW128694   2.485   2.511   8.891  0.1478  0.7445  4.6365
 5686SOL    HW228695   2.362   2.526   8.974  3.3475 -2.4176  0.9168
 5687SOL     OW28696   2.741   2.804  14.414  0.4618  0.3461  0.4623
 5687SOL    HW128697   2.728   2.817  14.508 -0.3295  0.2525  0.3648
 5687SOL    HW228698   2.795   2.882  14.398 -0.2178  1.1725  2.1534
 5688SOL     OW28699   0.466   0.533   6.674  0.1001  0.1179  0.7632
 5688SOL    HW128700   0.455   0.580   6.591  2.5724 -1.2873 -0.3513
 5688SOL    HW228701   0.379   0.549   6.710 -0.2775 -0.0913 -0.0659
 5689SOL     OW28702   4.572   0.371   7.725 -0.0634  0.0206  0.0302
 5689SOL    HW128703   4.621   0.453   7.732 -0.3310  0.3660 -2.0124
 5689SOL    HW228704   4.642   0.321   7.765 -1.1326 -0.2110  1.6124
 5690SOL     OW28705   4.341   0.742   5.314 -0.1904  0.2318 -0.3900
 5690SOL    HW128706   4.414   0.771   5.369 -0.5901  2.4127 -1.0205
 5690SOL    HW228707   4.292   0.702   5.386 -1.7312 -2.9281 -3.1994
 5691SOL     OW28708   1.785   2.083  13.542 -0.4029  0.0379 -0.3327
 5691SOL    HW128709   1.732   2.023  13.593 -1.2879  0.5176 -0.6967
 5691SOL    HW228710   1.848   2.013  13.521 -3.2075 -1.7888 -2.7304
 5692SOL     OW28711   0.242   4.192   6.013  0.1554  0.4105  0.0793
 5692SOL    HW128712   0.173   4.200   5.948 -1.5361 -2.0110  1.6004
 5692SOL    HW228713   0.301   4.253   5.967 -0.7785  2.2507  1.3129
 5693SOL     OW28714   4.319   3.907  10.878 -0.2643 -0.1216  0.2375
 5693SOL    HW128715   4.383   3.860  10.931 -0.8521  1.1491  2.0735
 5693SOL    HW228716   4.244   3.910  10.937 -0.5826 -1.5502 -0.0940
 5694SOL     OW28717   3.882   0.638  10.343  0.1927  0.3694  0.4413
 5694SOL    HW128718   3.959   0.647  10.287  2.1304  0.3891  3.1242
 5694SOL    HW228719   3.898   0.560  10.396 -0.7758 -0.4822 -0.5354
 5695SOL     OW28720   0.480   1.428   4.325  0.1269  0.5105  0.5942
 5695SOL    HW128721   0.467   1.362   4.394 -0.0865  1.1497  1.1628
 5695SOL    HW228722   0.549   1.476   4.370  0.4115 -0.8611  1.6349
 5696SOL     OW28723   4.560   1.457   9.052 -0.5368 -0.5305 -0.6599
 5696SOL    HW128724   4.648   1.468   9.088 -0.6567 -0.4619 -0.3880
 5696SOL    HW228725   4.566   1.523   8.982 -1.3770 -1.5559 -1.7132
 5697SOL     OW28726   4.158   4.578   2.580 -0.3016 -0.1052  0.0793
 5697SOL    HW128727   4.186   4.591   2.490  1.2655 -0.4930  0.5104
 5697SOL    HW228728   4.224   4.631   2.624 -1.3776  0.1838  1.3336
 5698SOL     OW28729   3.559   0.695  12.767  0.6892 -0.3517  0.2975
 5698SOL    HW128730   3.625   0.762  12.747  1.5827 -0.7929  1.8095
 5698SOL    HW228731   3.543   0.705  12.860  1.1907 -0.6493  0.4129
 5699SOL     OW28732   2.635   2.593  10.459  0.3335 -0.1868 -0.1138
 5699SOL    HW128733   2.578   2.663  10.430  1.3536  1.0179  0.7730
 5699SOL    HW228734   2.718   2.639  10.447 -1.0929  2.2854 -0.3694
 5700SOL     OW28735   2.366   1.193   1.736 -0.0533  0.0406 -0.2022
 5700SOL    HW128736   2.358   1.221   1.645  0.7738  1.0203  0.0204
 5700SOL    HW228737   2.432   1.256   1.764  0.6551 -1.1841  0.8714
 5701SOL     OW28738   3.266   2.991   2.071  0.1201 -0.1258  0.3122
 5701SOL    HW128739   3.317   3.058   2.026 -2.4670  2.4947  1.3145
 5701SOL    HW228740   3.293   2.912   2.024 -1.4382  0.7894 -2.1284
 5702SOL     OW28741   0.426   4.452   7.612  0.3096  0.4132  0.7809
 5702SOL    HW128742   0.355   4.403   7.654 -0.8489  0.9100 -0.5869
 5702SOL    HW228743   0.455   4.508   7.684 -3.8027 -0.5695  3.2095
 5703SOL     OW28744   3.825   0.460   7.571  0.5242 -0.1471  0.0963
 5703SOL    HW128745   3.757   0.515   7.531  1.0016  0.1960 -0.2404
 5703SOL    HW228746   3.805   0.456   7.664 -0.1942  1.2760  0.0100
 5704SOL     OW28747   2.499   0.209   3.321  0.1597 -0.3069 -0.3796
 5704SOL    HW128748   2.462   0.260   3.393 -0.5838 -2.2458  0.6312
 5704SOL    HW228749   2.451   0.129   3.341 -1.7659  0.0497 -3.4809
 5705SOL     OW28750   4.170   0.848   8.535 -0.0793 -0.5635 -0.2889
 5705SOL    HW128751   4.262   0.831   8.512  0.8856  0.3011  2.8169
 5705SOL    HW228752   4.180   0.817   8.626  0.6393 -0.6716 -0.4052
 5706SOL     OW28753   3.716   1.934   3.663 -0.4684 -0.0614 -0.2116
 5706SOL    HW128754   3.781   1.910   3.597 -0.5799  1.7763 -0.9650
 5706SOL    HW228755   3.654   1.866   3.636 -0.0581 -0.9830  1.1418
 5707SOL     OW28756   3.443   3.427  12.150 -0.0556  0.1385 -0.4722
 5707SOL    HW128757   3.527   3.462  12.121 -0.7782 -0.6584 -3.6255
 5707SOL    HW228758   3.407   3.485  12.217 -1.8159 -0.8003 -0.6037
 5708SOL     OW28759   1.816   3.175   3.631 -0.9812  0.0154  0.3084
 5708SOL    HW128760   1.846   3.157   3.542 -0.2156 -1.1103  0.7950
 5708SOL    HW228761   1.832   3.087   3.667  1.2384 -0.2334 -1.3167
 5709SOL     OW28762   1.784   2.005   3.441 -0.2600 -0.2190 -0.2013
 5709SOL    HW128763   1.862   1.990   3.495  0.0370 -0.1388 -0.6072
 5709SOL    HW228764   1.746   1.918   3.451  1.4064 -0.9492 -0.2978
 5710SOL     OW28765   1.097   3.892   1.509  0.0089  0.6858  0.1413
 5710SOL    HW128766   1.078   3.984   1.492 -2.6454 -0.0629 -0.9848
 5710SOL    HW228767   1.032   3.841   1.460  0.9289 -0.6180  0.2739
 5711SOL     OW28768   2.112   2.040   8.601 -0.2023  0.5729  1.0555
 5711SOL    HW128769   2.203   2.029   8.630  0.5302 -1.5481 -2.0270
 5711SOL    HW228770   2.070   2.003   8.678 -3.5346 -2.0629 -2.0025
 5712SOL     OW28771   2.134   3.048  10.569 -0.0945 -0.4097 -0.3239
 5712SOL    HW128772   2.103   2.995  10.643  2.0784 -1.9065 -0.4744
 5712SOL    HW228773   2.084   3.007  10.498 -1.9211  1.5212 -0.1421
 5713SOL     OW28774   0.978   1.791   9.159 -0.3116 -0.0986 -0.3516
 5713SOL    HW128775   0.963   1.823   9.248  0.1149 -0.3045 -0.2053
 5713SOL    HW228776   1.004   1.699   9.164 -0.5401 -0.0506  1.4776
 5714SOL     OW28777   3.025   1.377   7.205 -0.2644  0.3728  0.3238
 5714SOL    HW128778   2.932   1.395   7.223 -0.6760 -2.2931  0.8935
 5714SOL    HW228779   3.020   1.351   7.113 -0.7191  0.8212  0.2204
 5715SOL     OW28780   1.485   0.420   8.632  0.0706 -0.0901 -0.2869
 5715SOL    HW128781   1.503   0.441   8.723 -2.3211  0.6457  0.0251
 5715SOL    HW228782   1.513   0.496   8.581 -0.4537  1.1904  1.3228
 5716SOL     OW28783   3.538   1.430   6.916  0.2703 -0.7420  0.3235
 5716SOL    HW128784   3.585   1.492   6.860 -0.4933  0.2992  0.8510
 5716SOL    HW228785   3.494   1.488   6.978 -0.1346 -0.9940  0.2719
 5717SOL     OW28786   1.092   4.054  17.021 -0.3656 -0.0060  0.2036
 5717SOL    HW128787   1.080   4.093  16.935 -1.2273 -1.4844 -0.3458
 5717SOL    HW228788   1.173   4.091  17.058 -0.5774 -0.6625  1.3524
 5718SOL     OW28789   2.123   2.313  10.960  0.0475 -0.3509 -0.0062
 5718SOL    HW128790   2.061   2.289  10.890 -0.4119  1.2977 -0.1682
 5718SOL    HW228791   2.199   2.260  10.934  1.0045  1.3012 -0.5437
 5719SOL     OW28792   3.086   1.868   2.448  0.7968 -0.3420 -0.0551
 5719SOL    HW128793   3.178   1.865   2.473  1.1823 -1.3172 -1.5811
 5719SOL    HW228794   3.041   1.843   2.528 -0.8025  0.1726 -0.7946
 5720SOL     OW28795   1.166   4.619  12.194 -0.5475  0.1121 -0.1200
 5720SOL    HW128796   1.207   4.686  12.140 -0.4513 -1.2920 -1.8185
 5720SOL    HW228797   1.158   4.669  12.275  1.5439  0.2308  0.0011
 5721SOL     OW28798   3.034   1.560  10.897  0.1769 -0.4700 -0.2857
 5721SOL    HW128799   3.026   1.506  10.819 -2.9141  0.0718 -0.3220
 5721SOL    HW228800   2.967   1.512  10.946  1.0608 -0.1870  1.2143
 5722SOL     OW28801   2.013   2.284   6.059 -0.4251 -0.0342  0.6287
 5722SOL    HW128802   2.092   2.302   6.110 -0.7093  0.5903  0.8388
 5722SOL    HW228803   2.038   2.316   5.972 -1.4716  1.7336  1.0025
 5723SOL     OW28804   4.392   2.686   2.555 -0.4576  0.2993 -0.2509
 5723SOL    HW128805   4.336   2.609   2.544  0.2312 -0.6268  2.7275
 5723SOL    HW228806   4.477   2.645   2.567 -1.4829 -1.4250  1.0701
 5724SOL     OW28807   3.498   4.222   4.446  0.3300  0.3829 -0.0912
 5724SOL    HW128808   3.425   4.281   4.423  0.8682  1.0706 -0.0485
 5724SOL    HW228809   3.519   4.201   4.355 -2.2485 -0.0893 -0.5920
 5725SOL     OW28810   0.562   1.632  14.769 -0.0837  0.8311 -0.4204
 5725SOL    HW128811   0.569   1.684  14.689 -0.3906  0.1967 -0.8608
 5725SOL    HW228812   0.630   1.677  14.819 -0.9468  1.0886  0.5035
 5726SOL     OW28813   4.591   4.053   8.704 -1.0169 -0.4869 -0.7218
 5726SOL    HW128814   4.524   3.995   8.740 -0.6648  1.9939  3.9518
 5726SOL    HW228815   4.544   4.128   8.667  0.2699  1.0984  0.8784
 5727SOL     OW28816   1.529   1.313  11.453 -0.2126 -0.2571  0.1021
 5727SOL    HW128817   1.620   1.326  11.481 -0.3763  0.7228  0.1789
 5727SOL    HW228818   1.538   1.324  11.359  0.9065 -0.8544  0.1292
 5728SOL     OW28819   1.491   1.362   1.772 -0.0098 -0.5352 -0.3771
 5728SOL    HW128820   1.568   1.413   1.746  0.7765 -0.6705  1.7267
 5728SOL    HW228821   1.446   1.426   1.828  0.5773 -0.5778  0.1434
 5729SOL     OW28822   4.149   2.100  10.681 -0.8742  0.1025 -0.0292
 5729SOL    HW128823   4.238   2.109  10.646  0.0980 -0.3573  2.2749
 5729SOL    HW228824   4.161   2.168  10.748 -1.1832  1.2537 -1.1488
 5730SOL     OW28825   3.095   1.531   2.630 -0.2315 -0.0963  0.6300
 5730SOL    HW128826   3.083   1.501   2.539  0.4877 -2.1562  1.2043
 5730SOL    HW228827   3.080   1.444   2.667 -1.5995 -0.5046 -0.8518
 5731SOL     OW28828   2.506   2.362   8.068 -0.1186 -0.2312 -0.0524
 5731SOL    HW128829   2.492   2.305   7.992 -5.2281  0.0584  0.6462
 5731SOL    HW228830   2.501   2.299   8.140  2.0491 -1.2252 -0.7825
 5732SOL     OW28831   4.145   3.351   8.162  0.0769  0.4558  0.8017
 5732SOL    HW128832   4.068   3.374   8.215 -0.0305 -1.2517  1.3995
 5732SOL    HW228833   4.115   3.363   8.072  0.8566 -0.7681  0.3788
 5733SOL     OW28834   1.834   4.218  13.205 -0.3919  0.1400  0.2262
 5733SOL    HW128835   1.895   4.269  13.258  1.3037  1.3092 -2.8376
 5733SOL    HW228836   1.885   4.202  13.125  0.2480 -0.7198  0.8036
 5734SOL     OW28837   2.618   0.202   6.775  0.0954 -0.2449 -0.7384
 5734SOL    HW128838   2.596   0.113   6.803  1.0132 -0.4956 -0.8149
 5734SOL    HW228839   2.709   0.197   6.802 -0.2847  0.9953  0.8157
 5735SOL     OW28840   3.750   2.884  10.219  0.1299  0.4813 -0.2789
 5735SOL    HW128841   3.690   2.924  10.282 -0.3713 -2.2528  0.9678
 5735SOL    HW228842   3.813   2.836  10.273 -0.8019  1.4420  1.6773
 5736SOL     OW28843   3.144   2.405   7.398  0.0049 -0.4928 -0.4239
 5736SOL    HW128844   3.214   2.356   7.440  0.2229  0.3551  0.2106
 5736SOL    HW228845   3.100   2.338   7.346 -0.6308  1.2206 -2.1081
 5737SOL     OW28846   3.177   0.023   7.939  0.1154 -0.2272  0.2870
 5737SOL    HW128847   3.230   4.702   7.882  1.9318  0.5360  1.2390
 5737SOL    HW228848   3.095   0.017   7.889 -0.1916 -0.0309  0.7708
 5738SOL     OW28849   2.881   3.910   2.787  0.4332 -0.6869 -0.1457
 5738SOL    HW128850   2.856   3.914   2.879 -1.2837 -0.3222 -0.6262
 5738SOL    HW228851   2.885   3.814   2.785  0.3007 -0.6586 -1.4703
 5739SOL     OW28852   1.372   4.117   4.065  0.1922 -0.6940 -0.5604
 5739SOL    HW128853   1.358   4.183   3.996  4.1587  0.7349 -0.0085
 5739SOL    HW228854   1.408   4.044   4.014 -0.5590 -1.9161  0.6712
 5740SOL     OW28855   2.630   2.015   4.492 -0.3830 -0.0632  0.5407
 5740SOL    HW128856   2.719   2.012   4.457 -0.7300 -1.1318 -0.2322
 5740SOL    HW228857   2.591   1.956   4.427  2.2091 -0.6891 -0.4716
 5741SOL     OW28858   2.162   2.506   2.475  0.4965 -0.1150 -0.0876
 5741SOL    HW128859   2.075   2.487   2.441 -0.2349 -0.9227  2.2406
 5741SOL    HW228860   2.147   2.513   2.569 -0.1082 -1.4650 -0.0776
 5742SOL     OW28861   2.600   0.109   2.324 -0.1300 -0.6094 -0.7061
 5742SOL    HW128862   2.594   0.096   2.419  0.9911  0.0907 -0.5377
 5742SOL    HW228863   2.579   0.022   2.291 -0.9670 -0.3100 -0.9694
 5743SOL     OW28864   0.791   2.518   8.607  0.6296  0.1337 -0.7985
 5743SOL    HW128865   0.879   2.514   8.569 -0.1367 -2.2424 -2.3497
 5743SOL    HW228866   0.777   2.612   8.606  1.5562  0.2811 -0.1849
 5744SOL     OW28867   0.256   4.155   8.451 -0.0489 -0.1170 -0.0835
 5744SOL    HW128868   0.218   4.239   8.475  1.1882  1.0015 -2.0777
 5744SOL    HW228869   0.190   4.091   8.478 -0.2702  0.0549 -0.2100
 5745SOL     OW28870   4.620   3.870   1.694 -0.1905  0.8766  0.0373
 5745SOL    HW128871   4.595   3.832   1.778  3.2485  0.7666  1.0231
 5745SOL    HW228872   4.702   3.916   1.711  0.1778  0.8906 -1.7961
 5746SOL     OW28873   2.465   1.649  16.531  0.0826 -0.2710  0.2371
 5746SOL    HW128874   2.449   1.724  16.588 -1.2365 -0.3111 -0.0872
 5746SOL    HW228875   2.541   1.685  16.484  1.3157 -0.9044  1.7668
 5747SOL     OW28876   0.810   2.071   3.895  0.6203 -0.0888 -0.1199
 5747SOL    HW128877   0.853   2.018   3.828 -0.7964 -0.9638 -0.3415
 5747SOL    HW228878   0.775   2.132   3.830 -1.4729 -1.9133 -0.6980
 5748SOL     OW28879   0.130   2.189  16.223  0.2729  0.2329 -1.0458
 5748SOL    HW128880   0.129   2.250  16.297 -4.0628  0.2915 -1.1551
 5748SOL    HW228881   0.048   2.141  16.232 -0.1185  0.7638 -1.8552
 5749SOL     OW28882   1.338   0.273   9.083 -0.0616 -0.8588  0.1706
 5749SOL    HW128883   1.296   0.290   9.168  2.0405 -3.4206  1.7331
 5749SOL    HW228884   1.297   0.337   9.025  0.7879 -1.1496 -0.7418
 5750SOL     OW28885   2.754   0.994   7.613  0.8780  0.5566 -0.3018
 5750SOL    HW128886   2.687   1.039   7.665  0.1305  1.0853 -1.7149
 5750SOL    HW228887   2.718   0.996   7.524 -0.1248 -3.5803  0.0405
 5751SOL     OW28888   2.125   1.788  10.222 -0.6804 -0.2554 -0.5531
 5751SOL    HW128889   2.148   1.698  10.199 -2.9208 -1.4151  1.7481
 5751SOL    HW228890   2.151   1.839  10.145 -2.2654  0.5142 -0.5784
 5752SOL     OW28891   2.445   4.527   9.248  0.4300  0.4756 -0.4512
 5752SOL    HW128892   2.422   4.525   9.341  0.2813  2.5403 -0.4464
 5752SOL    HW228893   2.530   4.482   9.249  0.8249  1.1979 -1.6627
 5753SOL     OW28894   4.087   4.106   4.039 -0.9527 -0.4143  0.0987
 5753SOL    HW128895   4.008   4.060   4.065 -0.9898 -0.0778  0.5746
 5753SOL    HW228896   4.114   4.118   4.130 -1.0375 -2.9190  0.4521
 5754SOL     OW28897   3.086   0.088   4.228  0.4800  0.1029  0.7422
 5754SOL    HW128898   2.999   0.115   4.200  1.2109  0.4879 -1.1868
 5754SOL    HW228899   3.086   0.117   4.319  0.0963 -2.6654  1.6367
 5755SOL     OW28900   3.033   4.034  13.134 -0.0547  0.4379  0.3971
 5755SOL    HW128901   2.999   4.115  13.171 -2.1996 -1.1585  1.9351
 5755SOL    HW228902   3.100   4.019  13.201 -0.0568 -2.1048 -0.1818
 5756SOL     OW28903   1.345   4.130   8.272 -0.4816  0.2442  0.1629
 5756SOL    HW128904   1.327   4.121   8.365  1.7809 -0.0914  0.5607
 5756SOL    HW228905   1.351   4.037   8.251  1.3426  0.1478  1.1656
 5757SOL     OW28906   0.535   4.625   0.866  0.1076  0.6411 -0.3409
 5757SOL    HW128907   0.565   4.534   0.868 -0.2584  0.5260  0.1032
 5757SOL    HW228908   0.461   4.620   0.806 -0.1730  0.9804 -0.0231
 5758SOL     OW28909   1.855   4.557   2.430 -0.3540  0.0795 -0.2820
 5758SOL    HW128910   1.819   4.606   2.356  2.3512  1.2407 -0.8295
 5758SOL    HW228911   1.910   4.618   2.479 -0.0360  1.3815 -2.2726
 5759SOL     OW28912   0.016   1.048   1.685 -0.6426  0.1634  0.4190
 5759SOL    HW128913   4.671   1.000   1.661  0.2995 -0.9365 -0.5021
 5759SOL    HW228914   4.730   1.080   1.773  0.9672 -0.5657  1.0468
 5760SOL     OW28915   3.875   1.118   3.328  0.2567  0.1846 -0.0693
 5760SOL    HW128916   3.788   1.084   3.309 -1.0459  2.6063  1.5310
 5760SOL    HW228917   3.856   1.193   3.386 -0.3916  0.6493 -0.8796
 5761SOL     OW28918   1.259   0.802   5.854 -0.1957 -0.7292  0.2732
 5761SOL    HW128919   1.258   0.809   5.758 -3.0648  0.5219  0.3788
 5761SOL    HW228920   1.261   0.893   5.881 -1.9788 -0.8589  0.8665
 5762SOL     OW28921   4.202   3.021  11.818 -0.1378  0.2273  0.1468
 5762SOL    HW128922   4.174   3.112  11.814  3.5134  1.3708  0.7092
 5762SOL    HW228923   4.148   2.968  11.758 -1.1402  2.4294 -0.8800
 5763SOL     OW28924   0.728   3.708   3.414  0.2886 -0.2065 -0.1575
 5763SOL    HW128925   0.707   3.616   3.425  0.9685 -0.4962 -1.2719
 5763SOL    HW228926   0.678   3.727   3.334  0.0280 -2.0480 -0.4269
 5764SOL     OW28927   3.042   3.066   3.245 -0.2110  0.3606  0.4021
 5764SOL    HW128928   3.060   3.156   3.219 -0.6587 -0.3826 -2.4483
 5764SOL    HW228929   3.129   3.026   3.255  0.5529  1.8827 -0.1106
 5765SOL     OW28930   4.233   2.316   7.377  0.5366 -0.2042  0.1018
 5765SOL    HW128931   4.325   2.307   7.401  1.0725  0.8606 -1.6147
 5765SOL    HW228932   4.222   2.245   7.314 -0.7924  0.3778 -0.3109
 5766SOL     OW28933   1.681   3.766   2.968 -0.2290  0.0899  0.0960
 5766SOL    HW128934   1.667   3.856   2.997  0.8791  0.1036  0.5787
 5766SOL    HW228935   1.725   3.779   2.884  2.6328  0.5917  1.6849
 5767SOL     OW28936   2.835   2.998   5.058  0.3817  0.2787 -0.9333
 5767SOL    HW128937   2.746   3.036   5.063  0.3226 -0.1511  1.2659
 5767SOL    HW228938   2.817   2.905   5.049  1.1453  0.0769 -0.2788
 5768SOL     OW28939   1.621   4.597   5.843 -1.1568  0.5273 -0.3863
 5768SOL    HW128940   1.699   4.630   5.888  0.6309 -1.3019 -2.1763
 5768SOL    HW228941   1.555   4.590   5.913 -0.6243 -0.8041 -0.0198
 5769SOL     OW28942   0.025   4.093   2.450 -0.0201  0.0384  0.9925
 5769SOL    HW128943   4.707   4.035   2.504  0.2428 -0.1168  1.0836
 5769SOL    HW228944   4.711   4.175   2.453  0.2051  0.2773 -1.5370
 5770SOL     OW28945   3.671   2.914   4.969  0.3550  0.1819 -0.4274
 5770SOL    HW128946   3.622   2.831   4.972  2.1343 -0.8952 -1.2977
 5770SOL    HW228947   3.667   2.931   4.875 -1.8866  1.3939 -0.1106
 5771SOL     OW28948   2.508   2.224   1.753  0.2506  0.1276 -0.1077
 5771SOL    HW128949   2.470   2.140   1.726 -0.2485  0.1227  0.6029
 5771SOL    HW228950   2.505   2.282   1.677 -0.1752 -1.6682 -1.4696
 5772SOL     OW28951   4.088   3.908   6.718  0.0929 -0.2096 -0.5156
 5772SOL    HW128952   4.173   3.951   6.714  0.6569 -1.3206 -0.5238
 5772SOL    HW228953   4.029   3.981   6.702  2.1323  1.3104 -1.1252
 5773SOL     OW28954   2.837   1.902  10.475 -0.5220  0.1253  0.5704
 5773SOL    HW128955   2.904   1.932  10.414 -0.0822 -0.5047  0.7459
 5773SOL    HW228956   2.784   1.847  10.417 -1.2501 -0.2788  1.6098
 5774SOL     OW28957   3.682   0.771   6.935 -0.3524 -0.1856  0.1706
 5774SOL    HW128958   3.695   0.844   6.995 -0.9624  0.3166 -0.3092
 5774SOL    HW228959   3.594   0.748   6.964 -0.4624  2.2781  1.8130
 5775SOL     OW28960   4.555   0.773  16.644  0.9673 -0.5352  0.3356
 5775SOL    HW128961   4.460   0.758  16.649  1.1567 -1.9723 -0.3517
 5775SOL    HW228962   4.588   0.699  16.695 -1.7416 -1.8055  0.2987
 5776SOL     OW28963   0.379   0.095   1.365 -0.2637  0.6192  0.1487
 5776SOL    HW128964   0.372   0.102   1.270  1.2002 -3.2255 -0.2516
 5776SOL    HW228965   0.290   0.070   1.390 -0.5055  1.0615 -0.2685
 5777SOL     OW28966   0.930   2.872   7.485  0.0707  0.2295  0.6795
 5777SOL    HW128967   0.921   2.967   7.483 -0.5172  0.1708  0.4710
 5777SOL    HW228968   1.026   2.868   7.479  0.1659  1.0324  1.7534
 5778SOL     OW28969   0.748   2.704  10.250  0.0538  0.5160  0.8723
 5778SOL    HW128970   0.655   2.721  10.262  0.1148  1.0143  0.6589
 5778SOL    HW228971   0.768   2.667  10.336 -1.1731 -1.5401  0.2685
 5779SOL     OW28972   0.952   3.597   9.006  0.0963 -0.0060  0.3401
 5779SOL    HW128973   0.929   3.504   9.007  0.8143 -0.1776 -0.0097
 5779SOL    HW228974   0.900   3.632   8.934  2.4839  1.7638 -0.5197
 5780SOL     OW28975   2.889   3.128   8.667 -0.3095 -0.3612 -0.4476
 5780SOL    HW128976   2.854   3.193   8.606 -0.6715 -0.9521 -0.8711
 5780SOL    HW228977   2.975   3.167   8.682 -0.5474  0.1296 -0.3548
 5781SOL     OW28978   0.278   1.375   2.885  0.2222 -0.3255  0.3732
 5781SOL    HW128979   0.312   1.339   2.803 -2.5359 -2.1420  0.0185
 5781SOL    HW228980   0.211   1.308   2.900 -2.6542  2.3454 -0.6902
 5782SOL     OW28981   3.118   2.238   5.981 -0.2663 -0.1061 -0.2877
 5782SOL    HW128982   3.047   2.302   5.991 -2.1534 -2.2955  0.3301
 5782SOL    HW228983   3.197   2.291   5.987 -1.2903  1.4095 -0.1533
 5783SOL     OW28984   0.571   1.853   6.965 -0.2152  0.2430  0.1102
 5783SOL    HW128985   0.616   1.846   7.049  0.3013  0.5132 -0.1404
 5783SOL    HW228986   0.575   1.947   6.946  2.0944  0.8387  3.6132
 5784SOL     OW28987   2.527   3.868   9.620 -0.2748  0.8268 -0.0745
 5784SOL    HW128988   2.484   3.903   9.541 -3.5825 -1.0499  0.8930
 5784SOL    HW228989   2.616   3.854   9.590 -0.8956  1.3067 -2.1520
 5785SOL     OW28990   2.571   1.789   6.257 -0.7385 -0.3544 -0.4421
 5785SOL    HW128991   2.613   1.709   6.224 -2.4854 -1.3488 -0.2422
 5785SOL    HW228992   2.533   1.826   6.178 -0.1272 -0.0671 -0.6003
 5786SOL     OW28993   1.067   3.719  14.367  0.4642  0.4466  0.5986
 5786SOL    HW128994   0.994   3.659  14.356  1.2960 -0.5491  0.4651
 5786SOL    HW228995   1.031   3.801  14.401 -0.9725 -0.3967  1.0835
 5787SOL     OW28996   0.806   0.950   9.051  0.0047  0.3382 -0.4194
 5787SOL    HW128997   0.760   0.977   9.131 -3.2058 -0.9210 -1.8358
 5787SOL    HW228998   0.725   0.919   9.010 -0.6760  1.3357  0.1692
 5788SOL     OW28999   0.037   1.532   5.890 -0.2851  0.3110 -0.1071
 5788SOL    HW129000   0.096   1.540   5.965  1.5269 -0.9127 -1.4025
 5788SOL    HW229001   0.012   1.623   5.874 -0.9460  0.0883 -0.3087
 5789SOL     OW29002   1.847   2.920  10.959  0.1257 -0.2305 -0.8443
 5789SOL    HW129003   1.932   2.892  10.926 -0.6057 -1.3552 -1.7865
 5789SOL    HW229004   1.793   2.851  10.919  0.0860 -0.8261  0.2585
 5790SOL     OW29005   3.397   1.038   3.882 -0.0690 -0.1266 -0.2875
 5790SOL    HW129006   3.466   1.082   3.932 -0.7577 -1.3126  1.6932
 5790SOL    HW229007   3.434   0.950   3.872 -0.1603 -0.3302  1.1655
 5791SOL     OW29008   2.081   3.599  16.977 -0.2785  0.5537 -0.6276
 5791SOL    HW129009   2.056   3.531  17.040  0.1565  1.6827  0.7695
 5791SOL    HW229010   2.034   3.669  17.022  0.8183 -1.1159  3.1884
 5792SOL     OW29011   0.356   1.803   6.615 -0.6507  0.1535 -0.2899
 5792SOL    HW129012   0.340   1.835   6.526  1.0774  1.5948 -0.0910
 5792SOL    HW229013   0.327   1.713   6.602  0.5813 -0.2565 -0.1316
 5793SOL     OW29014   1.745   2.241   3.665 -0.2629  0.5630  0.3242
 5793SOL    HW129015   1.690   2.237   3.586  0.1750  0.5918  0.0175
 5793SOL    HW229016   1.672   2.232   3.726 -0.6174 -0.1474 -0.2007
 5794SOL     OW29017   2.377   3.702  17.662  0.1034 -0.1394 -0.4891
 5794SOL    HW129018   2.348   3.782  17.618 -0.8555  0.2675  0.8943
 5794SOL    HW229019   2.299   3.648  17.645 -0.1107 -0.7757  2.5575
 5795SOL     OW29020   0.578   2.490   6.805  0.2072  0.2728 -0.3037
 5795SOL    HW129021   0.667   2.454   6.798  0.2404  0.5848 -1.4716
 5795SOL    HW229022   0.593   2.573   6.850 -1.4191  0.4297 -0.0662
 5796SOL     OW29023   0.951   0.902   9.420  0.3014 -0.2385  0.1409
 5796SOL    HW129024   0.864   0.895   9.381  0.2015 -1.0365  0.5072
 5796SOL    HW229025   0.927   0.926   9.510 -0.6417 -2.8819  0.6039
 5797SOL     OW29026   4.446   3.148   3.368 -0.2851 -0.2527  0.0154
 5797SOL    HW129027   4.442   3.238   3.336 -0.4104 -0.6551 -1.1054
 5797SOL    HW229028   4.455   3.093   3.290 -0.0654 -1.8580  1.1750
 5798SOL     OW29029   3.822   2.966  16.170 -0.1687 -0.4046  0.5278
 5798SOL    HW129030   3.899   2.998  16.124 -2.2356 -0.6869 -3.1028
 5798SOL    HW229031   3.788   3.046  16.209 -1.5239 -1.2686  1.1413
 5799SOL     OW29032   2.048   2.234   5.766 -0.3334  0.0694 -0.2022
 5799SOL    HW129033   2.006   2.166   5.713 -1.4943 -0.6306  1.5923
 5799SOL    HW229034   2.111   2.255   5.698  1.1104 -0.7254  0.8839
 5800SOL     OW29035   4.437   3.220   2.546  0.5794  0.0605 -0.7120
 5800SOL    HW129036   4.347   3.194   2.525  0.3618  0.5012 -0.3174
 5800SOL    HW229037   4.422   3.280   2.619 -3.0167 -2.3356  0.5274
 5801SOL     OW29038   2.645   2.725  17.145 -0.4822  0.3697  0.1191
 5801SOL    HW129039   2.601   2.646  17.114 -0.0409  0.6888 -1.3275
 5801SOL    HW229040   2.733   2.712  17.109 -0.5681 -1.2882  0.4779
 5802SOL     OW29041   2.014   0.696   5.538  0.1059 -0.0601 -0.3560
 5802SOL    HW129042   1.943   0.686   5.474  1.0113  1.1147 -1.5315
 5802SOL    HW229043   1.984   0.632   5.603  0.6068 -0.9444 -0.9877
 5803SOL     OW29044   4.612   4.226   6.431 -0.1431 -0.1815 -0.0201
 5803SOL    HW129045   4.545   4.186   6.487  1.3003  0.4810  2.1745
 5803SOL    HW229046   4.651   4.154   6.381  2.4492  0.2443  1.3524
 5804SOL     OW29047   0.703   0.481  17.083  0.0558 -0.5846  0.3684
 5804SOL    HW129048   0.681   0.448  16.996 -1.5628  0.3125  0.4398
 5804SOL    HW229049   0.641   0.553  17.080 -1.3585 -1.8763 -1.4016
 5805SOL     OW29050   1.051   2.230  11.160 -0.3205  0.7394 -0.1346
 5805SOL    HW129051   1.004   2.254  11.239 -0.3339  0.1541  0.0289
 5805SOL    HW229052   0.985   2.170  11.127 -1.8365  1.6792  1.2048
 5806SOL     OW29053   1.491   2.196   4.691 -0.2035  0.6445  0.5269
 5806SOL    HW129054   1.438   2.167   4.617 -2.0588  1.3354  1.5797
 5806SOL    HW229055   1.473   2.127   4.756  0.9602  1.0898  1.3362
 5807SOL     OW29056   2.100   0.023   1.866 -0.3538  0.3031  0.1434
 5807SOL    HW129057   2.131   0.051   1.779 -1.7843  0.6317 -0.2632
 5807SOL    HW229058   2.166   4.694   1.893  2.0505  2.2874 -1.1329
 5808SOL     OW29059   3.696   3.023   8.007 -0.3042 -0.4977  0.2894
 5808SOL    HW129060   3.740   3.060   8.084  2.7703  0.3413 -1.8816
 5808SOL    HW229061   3.753   2.956   7.969  2.7332  1.2024  1.8530
 5809SOL     OW29062   2.393   2.292  14.584  0.0256 -0.4809  0.1782
 5809SOL    HW129063   2.402   2.319  14.676  0.1985 -1.0601  0.3268
 5809SOL    HW229064   2.308   2.335  14.572  0.8377  0.9399 -0.5640
 5810SOL     OW29065   2.752   1.622  17.294  0.3202 -0.0338  0.7403
 5810SOL    HW129066   2.785   1.643  17.381  1.3613  1.8687 -0.1273
 5810SOL    HW229067   2.719   1.533  17.310 -2.4121  0.7158 -0.7495
 5811SOL     OW29068   4.356   4.637   0.448 -0.2506  0.7224  0.9404
 5811SOL    HW129069   4.281   4.646   0.508  0.2448 -0.1258  1.6923
 5811SOL    HW229070   4.387   4.551   0.477 -2.5643  0.2395  2.0589
 5812SOL     OW29071   0.945   0.466  17.196  0.1454  0.0088 -0.3097
 5812SOL    HW129072   0.943   0.480  17.291  0.7754  0.7673 -0.4106
 5812SOL    HW229073   0.854   0.475  17.170 -0.1152  1.7419  1.1952
 5813SOL     OW29074   2.721   0.952   5.358 -0.6401 -0.4559  0.2941
 5813SOL    HW129075   2.682   1.017   5.416 -0.7817 -0.7746  0.5515
 5813SOL    HW229076   2.659   0.881   5.367  0.9042 -2.0553 -1.6568
 5814SOL     OW29077   3.209   2.464   3.765 -0.1561 -0.2634 -0.2787
 5814SOL    HW129078   3.116   2.453   3.746 -0.5410 -1.0357  2.0257
 5814SOL    HW229079   3.213   2.440   3.857  2.3469 -1.3608 -0.6847
 5815SOL     OW29080   1.802   3.114   6.007 -0.5359  0.2189  0.3914
 5815SOL    HW129081   1.883   3.072   5.978 -0.3534  1.1219 -0.4509
 5815SOL    HW229082   1.755   3.102   5.924 -0.2243 -0.6403  0.3402
 5816SOL     OW29083   3.603   3.708  16.466 -0.6176 -0.6127 -0.9540
 5816SOL    HW129084   3.544   3.774  16.503  1.3210 -0.5399  2.0306
 5816SOL    HW229085   3.687   3.754  16.473  0.3748 -2.7061  1.0152
 5817SOL     OW29086   2.575   1.416  13.360  0.3872 -0.0475  0.3639
 5817SOL    HW129087   2.540   1.489  13.310  2.0323 -1.0849 -2.2913
 5817SOL    HW229088   2.670   1.432  13.362  0.4053 -0.1714  0.6219
 5818SOL     OW29089   3.568   2.523   6.216 -0.2381  0.4033  0.3731
 5818SOL    HW129090   3.657   2.549   6.241 -1.0675  0.6238  3.0719
 5818SOL    HW229091   3.568   2.433   6.247 -1.1948  0.3573  0.2454
 5819SOL     OW29092   2.963   0.172  14.745 -0.7841  0.3388 -0.3517
 5819SOL    HW129093   2.955   0.226  14.824  0.5697  1.5899 -1.0767
 5819SOL    HW229094   3.050   0.191  14.709 -0.6556  0.0095 -0.2158
 5820SOL     OW29095   2.733   2.982   5.782 -0.2679  0.3145 -0.0819
 5820SOL    HW129096   2.824   2.962   5.803  0.1210 -0.0556 -2.0357
 5820SOL    HW229097   2.674   2.942   5.845 -0.9372 -0.0799 -0.9501
 5821SOL     OW29098   0.477   3.694  16.681  0.1640 -0.1793 -0.3866
 5821SOL    HW129099   0.445   3.624  16.623 -1.5613  0.2138  0.0918
 5821SOL    HW229100   0.526   3.747  16.618  1.5902 -1.8713 -0.7098
 5822SOL     OW29101   3.074   4.206   8.795 -0.4348 -0.2442  0.2736
 5822SOL    HW129102   3.030   4.154   8.728  1.4894 -0.8571 -0.5117
 5822SOL    HW229103   3.160   4.166   8.787 -0.0818  1.0391 -2.2817
 5823SOL     OW29104   3.281   2.103   8.932 -0.2529 -0.0900 -0.0964
 5823SOL    HW129105   3.211   2.052   8.892 -1.2343  0.9559  0.2951
 5823SOL    HW229106   3.356   2.089   8.874  0.3503  3.2229 -0.1024
 5824SOL     OW29107   2.488   4.122   5.449  0.4640 -0.0449 -0.6276
 5824SOL    HW129108   2.583   4.114   5.455  0.3987  0.3366  0.8730
 5824SOL    HW229109   2.459   4.033   5.470 -2.3054  1.1625  0.5715
 5825SOL     OW29110   1.640   0.620   7.958 -0.9005 -0.2784 -0.8066
 5825SOL    HW129111   1.727   0.613   7.919  0.3600  1.1537  1.8349
 5825SOL    HW229112   1.643   0.707   7.997  1.1892  0.7054 -3.1428
 5826SOL     OW29113   3.760   1.168   4.459  0.1526  0.0361 -1.1038
 5826SOL    HW129114   3.741   1.076   4.441  0.9075  0.0438 -1.9334
 5826SOL    HW229115   3.767   1.175   4.554  1.0963  0.5445 -1.2120
 5827SOL     OW29116   0.714   0.279  17.612 -0.5701 -0.3813  0.0723
 5827SOL    HW129117   0.792   0.272  17.558  0.0793  4.7346  0.3770
 5827SOL    HW229118   0.745   0.285  17.702  1.6002  1.1790 -0.7993
 5828SOL     OW29119   1.808   2.718   4.221  0.3629 -0.1679  0.6154
 5828SOL    HW129120   1.741   2.688   4.159 -0.8296  0.4259  1.6200
 5828SOL    HW229121   1.750   2.753   4.288 -0.7228 -1.0867  0.1462
 5829SOL     OW29122   3.160   1.135   0.611 -0.0976 -0.1171  0.8512
 5829SOL    HW129123   3.153   1.136   0.707 -0.2947 -1.6357  0.8443
 5829SOL    HW229124   3.103   1.209   0.593 -0.2250 -0.0761  1.4150
 5830SOL     OW29125   3.971   3.766  17.201 -0.0415  0.1596 -0.3377
 5830SOL    HW129126   4.041   3.796  17.259 -1.8107  1.1776  1.2855
 5830SOL    HW229127   3.974   3.840  17.141 -0.6260 -0.3459 -0.9872
 5831SOL     OW29128   4.323   2.166  12.705  0.1204 -0.1492 -0.2840
 5831SOL    HW129129   4.393   2.120  12.752  1.4059 -0.0927 -2.1499
 5831SOL    HW229130   4.323   2.123  12.620 -1.9034  1.7343 -1.2496
 5832SOL     OW29131   1.551   2.151   5.804  0.2049 -0.3708  0.4315
 5832SOL    HW129132   1.531   2.077   5.862  1.0073 -0.5410  0.4944
 5832SOL    HW229133   1.641   2.163   5.835  0.2422 -0.7029  0.4497
 5833SOL     OW29134   2.674   3.254   6.152  0.2967  0.1472  0.1496
 5833SOL    HW129135   2.760   3.296   6.152  0.1856  0.3915  1.9019
 5833SOL    HW229136   2.628   3.323   6.104  1.1550 -1.0546 -2.3864
 5834SOL     OW29137   3.244   2.827   2.537  0.4919 -0.1744  0.0272
 5834SOL    HW129138   3.151   2.812   2.554  0.3643  1.1145  0.4382
 5834SOL    HW229139   3.240   2.905   2.482 -1.0287  1.6581  2.7794
 5835SOL     OW29140   3.533   0.791   3.957  0.7549  0.8082 -0.4976
 5835SOL    HW129141   3.480   0.719   3.924  3.5056 -1.9017  1.0175
 5835SOL    HW229142   3.559   0.752   4.041 -0.1322  1.1910 -0.0329
 5836SOL     OW29143   0.107   3.187  12.660 -0.0838 -0.0981 -0.3943
 5836SOL    HW129144   0.028   3.172  12.713  0.7459 -0.0644  0.8591
 5836SOL    HW229145   0.169   3.131  12.708 -1.3445 -0.3050  1.0106
 5837SOL     OW29146   0.131   0.677   4.477 -0.3422 -0.1219  0.1832
 5837SOL    HW129147   0.041   0.710   4.484 -0.1319  0.6055 -0.5443
 5837SOL    HW229148   0.148   0.670   4.571 -0.5678  0.2174  0.2515
 5838SOL     OW29149   4.491   1.982   2.604  0.6115  0.5800  0.6267
 5838SOL    HW129150   4.580   1.952   2.586 -0.0708 -1.1840  0.2230
 5838SOL    HW229151   4.441   1.901   2.612 -0.6074  1.2495 -0.2126
 5839SOL     OW29152   3.362   3.296   8.251  0.0035 -0.0238  0.3513
 5839SOL    HW129153   3.292   3.361   8.249  0.8899  0.9107 -0.4302
 5839SOL    HW229154   3.337   3.225   8.192  1.7202 -0.7121  0.4629
 5840SOL     OW29155   3.911   1.551   4.053  0.4673  0.1173  0.3944
 5840SOL    HW129156   3.885   1.508   4.135  0.7927 -0.4742  0.1835
 5840SOL    HW229157   3.900   1.498   3.975 -1.8383  2.1801 -0.6510
 5841SOL     OW29158   0.389   4.488   6.777 -0.1430  0.2255  0.2672
 5841SOL    HW129159   0.418   4.434   6.704 -1.6239  0.9197 -0.8355
 5841SOL    HW229160   0.327   4.430   6.823  1.1492 -0.3543  1.2822
 5842SOL     OW29161   4.346   3.686   2.529 -0.5063 -0.4742  0.7391
 5842SOL    HW129162   4.341   3.748   2.601  0.2870  2.6869 -1.9487
 5842SOL    HW229163   4.373   3.750   2.464  1.0319 -1.7786  0.0807
 5843SOL     OW29164   1.233   4.503   1.868  0.2119 -0.1995 -0.7734
 5843SOL    HW129165   1.300   4.460   1.815 -0.7153 -0.5708 -1.6627
 5843SOL    HW229166   1.177   4.436   1.906 -0.2770  0.1212 -0.9312
 5844SOL     OW29167   0.895   4.125   2.562 -0.2502  0.4581  0.0899
 5844SOL    HW129168   0.880   4.034   2.537 -1.0354  1.7351 -3.9802
 5844SOL    HW229169   0.866   4.127   2.653  0.1457 -1.2516  0.2498
 5845SOL     OW29170   3.205   1.606  15.831  0.1928  0.0421  0.0024
 5845SOL    HW129171   3.153   1.573  15.758  0.3860 -0.3526  0.0436
 5845SOL    HW229172   3.173   1.696  15.825  1.0686  0.2310 -1.8383
 5846SOL     OW29173   0.620   2.837   6.051 -0.0071 -0.2848 -0.0138
 5846SOL    HW129174   0.585   2.838   5.962  1.4649 -0.6436 -0.5942
 5846SOL    HW229175   0.714   2.843   6.038 -0.0182 -0.5875 -0.2371
 5847SOL     OW29176   3.710   2.920   3.355 -0.0617  0.2218 -0.1667
 5847SOL    HW129177   3.785   2.866   3.331  0.8894  0.2130  2.7917
 5847SOL    HW229178   3.646   2.892   3.289 -1.0822  1.0380  0.4745
 5848SOL     OW29179   1.922   4.588   9.904  0.4419 -0.4579 -0.3805
 5848SOL    HW129180   1.964   4.609   9.987 -1.0137  0.8701  0.0250
 5848SOL    HW229181   1.907   4.494   9.917  0.0308 -0.1997  1.0361
 5849SOL     OW29182   0.331   0.532   8.743  0.2630  0.1278  0.7947
 5849SOL    HW129183   0.411   0.556   8.789  0.5841 -1.7347  1.2045
 5849SOL    HW229184   0.340   0.436   8.735  2.4263  0.2404  1.7204
 5850SOL     OW29185   0.582   3.115   7.309  0.3217  0.1863  0.1810
 5850SOL    HW129186   0.550   3.035   7.269  0.5920  1.6030 -2.8933
 5850SOL    HW229187   0.616   3.157   7.230 -2.0505  2.6761  0.4640
 5851SOL     OW29188   4.652   0.309   8.428  0.4631  0.6844  0.0820
 5851SOL    HW129189   4.647   0.219   8.460 -1.5419  1.3321  1.6071
 5851SOL    HW229190   4.636   0.338   8.518  0.8845  1.1363  0.0120
 5852SOL     OW29191   1.111   2.023   5.278 -0.1716 -1.0057 -0.5652
 5852SOL    HW129192   1.123   1.932   5.307  0.0927 -1.8850 -3.4356
 5852SOL    HW229193   1.046   2.055   5.340  2.0178 -0.1572  1.2744
 5853SOL     OW29194   0.535   2.643   1.807 -0.1026  0.3039  0.2818
 5853SOL    HW129195   0.449   2.604   1.791 -0.0328 -0.2361  1.2388
 5853SOL    HW229196   0.589   2.573   1.771  1.7107  1.4700  0.7378
 5854SOL     OW29197   0.300   0.765  14.586  0.7514  0.1072  0.0412
 5854SOL    HW129198   0.299   0.851  14.544 -2.0452 -0.8090 -1.7460
 5854SOL    HW229199   0.228   0.753  14.648  0.2872  2.8890  0.0353
 5855SOL     OW29200   1.650   1.182   7.791  0.1877 -0.6634  0.0140
 5855SOL    HW129201   1.694   1.247   7.737 -1.2096 -2.3344 -3.1125
 5855SOL    HW229202   1.668   1.216   7.879  0.4069  1.1282 -0.7283
 5856SOL     OW29203   3.655   3.269  15.170  0.1373 -0.1795 -0.6684
 5856SOL    HW129204   3.613   3.185  15.188 -1.9544  1.0825  0.3416
 5856SOL    HW229205   3.586   3.312  15.121 -0.7858 -0.8799  0.0196
 5857SOL     OW29206   2.979   1.958   6.464 -0.3708  0.4352 -0.0003
 5857SOL    HW129207   3.003   1.935   6.554  0.7702  1.0689 -0.1364
 5857SOL    HW229208   2.930   1.877   6.449  2.5031 -1.8442  2.8102
 5858SOL     OW29209   2.497   4.001   9.845  0.1549 -0.2207 -0.7674
 5858SOL    HW129210   2.580   3.966   9.875 -0.4831 -0.5349  0.6418
 5858SOL    HW229211   2.484   3.945   9.769  2.2919 -0.6831 -0.7825
 5859SOL     OW29212   0.175   3.373   6.634 -0.7365 -0.2161  0.5650
 5859SOL    HW129213   0.229   3.294   6.644 -1.0511 -0.6518 -1.1236
 5859SOL    HW229214   0.092   3.339   6.601 -0.4500  1.1781 -1.6000
 5860SOL     OW29215   2.788   0.979   9.091  0.4498 -0.6088 -0.2172
 5860SOL    HW129216   2.713   0.966   9.148 -1.3435 -0.4331 -2.5468
 5860SOL    HW229217   2.771   0.921   9.017  0.6471 -3.8832  2.2670
 5861SOL     OW29218   0.740   3.659   9.244 -0.4074  0.1493 -0.0235
 5861SOL    HW129219   0.781   3.585   9.288 -3.3242 -0.6990  1.3194
 5861SOL    HW229220   0.808   3.670   9.178 -0.0184 -0.2169  0.3233
 5862SOL     OW29221   1.611   4.074   3.694 -0.4910 -0.1866 -0.5186
 5862SOL    HW129222   1.564   4.109   3.618  0.7845  1.9920 -0.3018
 5862SOL    HW229223   1.656   4.151   3.730 -0.3804 -0.1714 -0.6893
 5863SOL     OW29224   0.231   0.199  11.450  0.4913 -0.5828 -0.0275
 5863SOL    HW129225   0.318   0.235  11.467  0.7878 -0.5259 -1.6949
 5863SOL    HW229226   0.167   0.263  11.480 -0.9253 -0.6777 -2.9481
 5864SOL     OW29227   3.181   4.449   2.302 -0.2150  0.4842  0.0204
 5864SOL    HW129228   3.274   4.450   2.282  0.0094 -0.4435  1.0426
 5864SOL    HW229229   3.162   4.379   2.365  0.7936 -0.6397 -0.9261
 5865SOL     OW29230   3.894   1.965   8.233 -0.5648 -0.8366  0.3963
 5865SOL    HW129231   3.905   1.885   8.285 -3.2560 -0.5012  1.4935
 5865SOL    HW229232   3.854   2.019   8.301  2.2275  0.9006  0.6635
 5866SOL     OW29233   0.897   2.451   7.747  0.2875 -0.3535 -0.7068
 5866SOL    HW129234   0.903   2.366   7.703  0.4425 -0.9489  0.4436
 5866SOL    HW229235   0.923   2.425   7.836 -1.4588 -0.2303 -0.1577
 5867SOL     OW29236   4.014   3.511   3.917  0.4996  0.1019 -0.3418
 5867SOL    HW129237   3.937   3.455   3.927 -1.0950  2.4903  0.7029
 5867SOL    HW229238   4.081   3.444   3.934 -1.4793 -2.0496 -0.9597
 5868SOL     OW29239   2.616   4.327   5.976 -0.1939 -0.2567  0.0745
 5868SOL    HW129240   2.662   4.320   6.060 -0.1106 -1.9313 -0.1167
 5868SOL    HW229241   2.680   4.295   5.913  0.8653  0.6921  0.6716
 5869SOL     OW29242   0.225   4.031   8.065  0.3977  0.4382  0.6626
 5869SOL    HW129243   0.300   4.035   8.125 -0.6345 -2.9611  2.1415
 5869SOL    HW229244   0.270   3.988   7.992  2.6788  1.2433  1.5932
 5870SOL     OW29245   1.866   0.009   5.946 -0.4323 -0.5142 -0.1213
 5870SOL    HW129246   1.843   0.077   6.010  1.0212 -0.5635  0.4642
 5870SOL    HW229247   1.956   4.729   5.975 -0.7192 -2.2229 -0.0984
 5871SOL     OW29248   4.045   2.518   2.354  0.2780  0.2559  0.1507
 5871SOL    HW129249   4.001   2.438   2.325  0.3636  0.1191  0.4037
 5871SOL    HW229250   4.137   2.493   2.367  0.0321  0.9099  3.0563
 5872SOL     OW29251   3.688   3.516   4.321 -0.0985  0.3774 -0.1208
 5872SOL    HW129252   3.753   3.554   4.262 -0.3213 -0.7184 -1.0609
 5872SOL    HW229253   3.612   3.503   4.263 -0.0834  0.2879 -0.1197
 5873SOL     OW29254   0.080   1.627   3.110 -0.1996  0.1658  0.5144
 5873SOL    HW129255   0.053   1.719   3.110  0.0448  0.2404 -0.1966
 5873SOL    HW229256   0.004   1.585   3.068  0.5791 -0.0011 -0.7109
 5874SOL     OW29257   1.573   1.995   1.724  0.2667  0.4742  0.5308
 5874SOL    HW129258   1.528   1.910   1.729  1.4861 -0.0244  3.0268
 5874SOL    HW229259   1.626   1.992   1.804  0.2996 -1.6653  0.4251
 5875SOL     OW29260   0.598   4.153  13.743 -0.4194 -0.2442 -0.0879
 5875SOL    HW129261   0.649   4.103  13.806  1.0460  3.0773  1.3532
 5875SOL    HW229262   0.511   4.159  13.784  0.3646 -3.9443  2.0186
 5876SOL     OW29263   2.960   0.291   4.626  0.1679 -0.4974 -0.1473
 5876SOL    HW129264   3.043   0.257   4.593  0.6563 -0.6388  1.2217
 5876SOL    HW229265   2.907   0.219   4.591 -1.5463  0.5140  0.4187
 5877SOL     OW29266   3.468   1.425   5.126 -0.2642 -0.0354 -0.6116
 5877SOL    HW129267   3.540   1.391   5.073 -2.6553 -1.6496 -2.8053
 5877SOL    HW229268   3.438   1.498   5.072  1.8020  1.1071 -0.2435
 5878SOL     OW29269   3.979   2.460   5.645 -0.5265  0.4911  0.0979
 5878SOL    HW129270   4.026   2.543   5.651  0.9507 -0.2834 -0.7047
 5878SOL    HW229271   3.919   2.455   5.719 -0.9898  0.2724 -0.2915
 5879SOL     OW29272   1.133   4.229  15.290 -0.2001 -0.3051  0.3684
 5879SOL    HW129273   1.161   4.320  15.292  0.1423 -0.4390  1.3928
 5879SOL    HW229274   1.044   4.243  15.257 -0.6460  1.1855  2.2088
 5880SOL     OW29275   2.042   2.409   8.470 -0.5884  0.0983 -0.1253
 5880SOL    HW129276   2.066   2.371   8.555  2.4390  1.0718 -0.5585
 5880SOL    HW229277   1.985   2.484   8.488 -0.7025 -0.1793  0.7053
 5881SOL     OW29278   2.739   2.012   7.331  0.7863 -0.5925  0.2712
 5881SOL    HW129279   2.702   1.957   7.400 -3.0908 -0.1423 -1.4656
 5881SOL    HW229280   2.830   1.992   7.356  0.8785  0.1034  0.5134
 5882SOL     OW29281   1.091   1.727   6.818 -0.7108 -0.1319 -0.3068
 5882SOL    HW129282   1.111   1.684   6.901  0.3470 -0.1150 -0.5475
 5882SOL    HW229283   1.112   1.818   6.838 -0.2572  0.0139 -1.3940
 5883SOL     OW29284   4.020   2.435   7.029 -0.3186 -0.7037 -0.4665
 5883SOL    HW129285   4.020   2.509   6.969 -1.3017 -0.2284  0.1210
 5883SOL    HW229286   4.076   2.469   7.099 -3.1728  0.8472  1.0571
 5884SOL     OW29287   3.936   3.482   9.501  0.2662  0.5315  0.0887
 5884SOL    HW129288   3.848   3.450   9.520 -0.0498  1.3096 -0.0418
 5884SOL    HW229289   3.996   3.408   9.496 -2.1822 -1.5812  2.3530
 5885SOL     OW29290   3.614   3.096  12.836 -0.6565  0.0502 -0.1244
 5885SOL    HW129291   3.526   3.071  12.864 -0.8223 -0.7196 -1.3448
 5885SOL    HW229292   3.651   3.008  12.837 -0.5335  0.0218 -4.1460
 5886SOL     OW29293   1.675   2.957  16.068 -0.0636 -0.2333  0.1840
 5886SOL    HW129294   1.627   3.039  16.075  0.0188 -0.0440 -1.4377
 5886SOL    HW229295   1.727   2.964  15.987  0.8057 -1.3304  0.6448
 5887SOL     OW29296   0.731   2.833   1.926 -0.3581 -0.0999  0.6824
 5887SOL    HW129297   0.811   2.841   1.874 -0.7113 -1.5522 -0.0869
 5887SOL    HW229298   0.678   2.788   1.859 -0.7810 -2.0238  2.3097
 5888SOL     OW29299   3.526   3.734   6.521  0.2554 -0.2223 -0.2304
 5888SOL    HW129300   3.461   3.745   6.452 -0.7943  2.7091  1.1907
 5888SOL    HW229301   3.595   3.795   6.494 -1.4547  2.6734  1.8585
 5889SOL     OW29302   0.953   0.924  15.500  0.4249 -0.8305  0.1948
 5889SOL    HW129303   0.912   0.966  15.576  0.1918 -1.7626  0.5927
 5889SOL    HW229304   0.880   0.879  15.458  0.1330 -1.9604  1.8951
 5890SOL     OW29305   3.113   4.230   2.463 -0.5076  0.1478 -0.3175
 5890SOL    HW129306   3.055   4.168   2.506  0.5166  0.9085  2.1228
 5890SOL    HW229307   3.200   4.190   2.466 -1.2605 -1.3202  1.4560
 5891SOL     OW29308   3.123   1.940   3.736 -0.3278  0.5822  0.1614
 5891SOL    HW129309   3.162   1.900   3.814  0.4715  0.1108 -0.4706
 5891SOL    HW229310   3.174   2.020   3.729 -0.5306  0.8553  1.9600
 5892SOL     OW29311   1.871   2.756  12.829 -0.0720  0.2851 -0.0391
 5892SOL    HW129312   1.934   2.792  12.766  2.8848 -0.4996  2.4595
 5892SOL    HW229313   1.909   2.782  12.913 -0.6231 -0.2544  0.3756
 5893SOL     OW29314   4.290   1.431   3.484  0.6706 -0.1182  0.1200
 5893SOL    HW129315   4.385   1.436   3.474  0.6317  0.8180  0.2189
 5893SOL    HW229316   4.280   1.336   3.493 -0.2498 -0.1846 -1.7405
 5894SOL     OW29317   4.125   2.289  12.378  0.1406 -0.6667 -0.0525
 5894SOL    HW129318   4.177   2.228  12.326 -2.4780 -3.2885  0.4126
 5894SOL    HW229319   4.176   2.369  12.366 -0.8498  0.2201  1.5384
 5895SOL     OW29320   2.092   3.143   6.169 -0.0802 -0.2718  0.1022
 5895SOL    HW129321   2.148   3.214   6.138 -1.3972  0.4782 -0.5672
 5895SOL    HW229322   2.014   3.190   6.198  2.0543  2.6641  1.0324
 5896SOL     OW29323   3.651   2.966   1.935  0.6185 -0.1115 -0.9931
 5896SOL    HW129324   3.629   2.918   2.015 -0.6468  0.9423 -0.7065
 5896SOL    HW229325   3.613   2.911   1.867  1.0607  1.9238 -2.9051
 5897SOL     OW29326   1.979   4.001   4.005  0.4901 -0.3513 -0.1121
 5897SOL    HW129327   1.954   3.985   3.913  1.5004  1.3603 -0.6708
 5897SOL    HW229328   1.907   4.055   4.037  0.9949  1.2931 -1.7763
 5898SOL     OW29329   3.512   2.953  17.126  0.3664  0.0786  0.3578
 5898SOL    HW129330   3.447   3.022  17.121  2.7121  2.3194  1.1658
 5898SOL    HW229331   3.481   2.906  17.204  0.1609 -1.7675 -0.8228
 5899SOL     OW29332   3.067   0.294   6.030 -0.6706 -0.4151  0.2377
 5899SOL    HW129333   2.973   0.299   6.051 -0.7580 -0.3202 -0.1608
 5899SOL    HW229334   3.063   0.243   5.949 -2.2862 -0.7897  0.5389
 5900SOL     OW29335   3.263   3.675   4.878  0.5546  0.4922  0.7075
 5900SOL    HW129336   3.252   3.588   4.916  0.2835  0.3281  0.2526
 5900SOL    HW229337   3.298   3.642   4.795 -0.0058  2.0866 -0.1651
 5901SOL     OW29338   3.086   4.191   5.620 -0.0425  0.6730 -0.5065
 5901SOL    HW129339   3.079   4.114   5.675 -3.6066 -1.4673 -3.9210
 5901SOL    HW229340   2.998   4.227   5.633  0.1034  0.1013  2.0840
 5902SOL     OW29341   0.426   0.502   6.051  0.2197  0.4960 -0.0357
 5902SOL    HW129342   0.463   0.575   6.102  0.5036  0.2004  0.1801
 5902SOL    HW229343   0.483   0.429   6.076 -1.0162 -0.1080  1.0383
 5903SOL     OW29344   0.783   0.898  15.067 -0.0622  0.5312  0.4703
 5903SOL    HW129345   0.845   0.856  15.008 -2.1177 -1.6538 -0.1467
 5903SOL    HW229346   0.693   0.887  15.036 -0.1887 -0.5168  1.2324
 5904SOL     OW29347   1.532   3.438   9.501 -0.1930  0.2127  0.4909
 5904SOL    HW129348   1.613   3.487   9.486 -0.1370 -0.9873 -3.1029
 5904SOL    HW229349   1.478   3.458   9.424 -0.2382  0.0205  0.4718
 5905SOL     OW29350   3.702   3.429   3.599  0.0568 -0.7249  0.3634
 5905SOL    HW129351   3.699   3.448   3.692  0.3974  2.2679 -0.2388
 5905SOL    HW229352   3.709   3.334   3.599  0.0403 -0.7310 -0.6777
 5906SOL     OW29353   3.568   3.437   0.536 -0.3776 -0.5735 -0.2307
 5906SOL    HW129354   3.570   3.342   0.519 -0.5368 -0.5855 -0.1743
 5906SOL    HW229355   3.531   3.477   0.458  0.4904  3.2063  1.2754
 5907SOL     OW29356   4.312   3.318   9.037 -0.9598 -0.6973  0.1899
 5907SOL    HW129357   4.276   3.258   9.102  1.1736 -0.0406  1.9565
 5907SOL    HW229358   4.379   3.369   9.082 -0.8201  0.0889 -0.8989
 5908SOL     OW29359   0.680   4.637  14.609  0.3757 -0.1087 -0.3779
 5908SOL    HW129360   0.690   4.595  14.694 -1.1906  0.3654  0.0344
 5908SOL    HW229361   0.590   4.612  14.590  0.6923 -0.8068 -0.9397
 5909SOL     OW29362   3.917   2.112   1.935  0.6343 -0.3349 -0.5105
 5909SOL    HW129363   3.906   2.057   2.013  0.7231  1.5138  0.7897
 5909SOL    HW229364   3.828   2.143   1.917  0.1357 -0.9044  0.9294
 5910SOL     OW29365   0.938   4.503  11.810 -0.1945  0.0010 -0.5895
 5910SOL    HW129366   0.852   4.461  11.817  0.7631 -2.0120 -0.8336
 5910SOL    HW229367   0.963   4.496  11.903  0.3054 -0.6354 -0.7692
 5911SOL     OW29368   0.909   3.053   8.509  0.2107  0.2178 -0.3453
 5911SOL    HW129369   0.849   3.125   8.526 -1.3959 -1.8575  2.7723
 5911SOL    HW229370   0.993   3.091   8.535  2.0481 -2.3606 -2.4183
 5912SOL     OW29371   0.479   4.682   7.118  0.5330  0.0545  0.1583
 5912SOL    HW129372   0.480   4.661   7.212  0.8208 -2.6351 -0.4400
 5912SOL    HW229373   0.496   4.596   7.081 -0.9266 -0.2635  0.2021
 5913SOL     OW29374   1.603   3.568   2.423 -0.1068  0.3252 -0.1355
 5913SOL    HW129375   1.584   3.553   2.330  0.9435  3.0937 -0.8229
 5913SOL    HW229376   1.512   3.585   2.446  0.0605  0.9351  0.0738
 5914SOL     OW29377   4.413   2.214   6.041 -0.0513  0.0854  0.4178
 5914SOL    HW129378   4.382   2.124   6.043 -2.8421  1.0133 -0.1274
 5914SOL    HW229379   4.502   2.214   6.075 -0.9345 -2.1875  2.7169
 5915SOL     OW29380   0.459   4.089   4.846  0.1521  0.2149  0.7897
 5915SOL    HW129381   0.380   4.057   4.804  0.3283  0.8309 -0.0225
 5915SOL    HW229382   0.467   4.040   4.927  2.0276  2.7179  2.1155
 5916SOL     OW29383   1.630   0.186   3.223  0.0524 -0.3619 -1.0299
 5916SOL    HW129384   1.638   0.259   3.162  2.7627 -1.4943 -2.0597
 5916SOL    HW229385   1.722   0.167   3.241 -0.4320 -1.7401 -0.0372
 5917SOL     OW29386   3.029   3.013  14.905 -0.3632  0.6688 -0.4663
 5917SOL    HW129387   3.095   3.039  14.841 -0.4324  1.9476 -0.0180
 5917SOL    HW229388   2.973   3.089  14.913  1.1332  1.9265 -1.9376
 5918SOL     OW29389   3.629   1.759   8.158  0.6001 -0.1235  0.3669
 5918SOL    HW129390   3.718   1.725   8.158  0.5203 -0.3367 -0.0692
 5918SOL    HW229391   3.634   1.851   8.130  1.3609 -0.7989 -1.7132
 5919SOL     OW29392   2.667   1.826   8.150  0.3136  0.2287  0.0238
 5919SOL    HW129393   2.750   1.796   8.188 -0.2347  0.0610  1.0916
 5919SOL    HW229394   2.602   1.768   8.189 -0.1230  0.6361 -0.1033
 5920SOL     OW29395   1.230   3.282   4.860  0.5074 -1.0136 -0.0580
 5920SOL    HW129396   1.197   3.371   4.878  2.1390 -0.0839 -1.6917
 5920SOL    HW229397   1.271   3.298   4.775  0.4651  0.2791  0.1600
 5921SOL     OW29398   4.186   2.126   2.120 -0.1939  0.0579 -0.7013
 5921SOL    HW129399   4.196   2.108   2.026  0.5633 -1.7600 -0.2702
 5921SOL    HW229400   4.201   2.220   2.125  0.2252  0.0273 -1.3234
 5922SOL     OW29401   3.930   0.550   5.681 -0.0382 -0.2924  0.5586
 5922SOL    HW129402   3.862   0.585   5.739 -1.5953 -0.4003 -1.1897
 5922SOL    HW229403   3.907   0.458   5.690 -1.5395 -0.1209 -1.4970
 5923SOL     OW29404   0.562   3.697   9.566 -0.3306 -0.0561  0.1308
 5923SOL    HW129405   0.537   3.740   9.484 -0.3494  3.0757  1.7792
 5923SOL    HW229406   0.472   3.694   9.598 -0.5664 -0.2732 -0.5377
 5924SOL     OW29407   3.762   1.064   7.061  0.2179  0.2279  0.3946
 5924SOL    HW129408   3.787   1.118   7.136 -1.5557  1.5890 -0.0253
 5924SOL    HW229409   3.688   1.015   7.097  1.6217 -0.8580  1.8544
 5925SOL     OW29410   1.508   4.380   9.803  0.0314  0.0316  0.1042
 5925SOL    HW129411   1.517   4.382   9.898  0.3320  0.8281  0.0639
 5925SOL    HW229412   1.424   4.426   9.794  0.5047  0.9765  0.4880
 5926SOL     OW29413   2.183   0.862   5.716  0.2297  0.0980  0.1396
 5926SOL    HW129414   2.136   0.800   5.660  0.4383  0.4188 -0.3947
 5926SOL    HW229415   2.249   0.888   5.653 -0.8968 -0.5735 -1.3226
 5927SOL     OW29416   3.281   3.720   0.277 -0.7055  0.1676  0.3207
 5927SOL    HW129417   3.331   3.793   0.241  0.9445 -0.9769  0.2818
 5927SOL    HW229418   3.242   3.668   0.206 -0.5378  0.8719 -0.2794
 5928SOL     OW29419   2.113   0.539   7.371  0.4771 -0.1193 -0.1994
 5928SOL    HW129420   2.162   0.598   7.428 -1.2936 -0.2287  1.4462
 5928SOL    HW229421   2.132   0.565   7.281 -2.8999  0.4781 -0.7586
 5929SOL     OW29422   2.019   2.360   3.670  0.5053  0.1999  0.6910
 5929SOL    HW129423   2.061   2.323   3.592 -0.5808 -0.0487  0.2223
 5929SOL    HW229424   1.931   2.322   3.666  2.0578 -3.2864 -1.4105
 5930SOL     OW29425   1.637   2.937   2.692 -0.0082 -0.1918 -0.3958
 5930SOL    HW129426   1.611   3.029   2.682  1.2665  0.1101 -0.9343
 5930SOL    HW229427   1.569   2.909   2.754  0.6372  0.5279  0.6330
 5931SOL     OW29428   2.728   1.873   5.004 -0.1354  0.2922 -0.5435
 5931SOL    HW129429   2.780   1.834   4.934 -0.6273  2.2015 -1.9904
 5931SOL    HW229430   2.783   1.844   5.077  0.2363 -0.5351 -1.1542
 5932SOL     OW29431   4.244   1.789   9.018  0.5873  0.9552 -0.2324
 5932SOL    HW129432   4.329   1.813   9.054  1.3111 -0.4775 -1.0201
 5932SOL    HW229433   4.198   1.773   9.100  1.7064  0.3538  0.2712
 5933SOL     OW29434   2.140   1.516   3.821 -0.1260 -0.3427 -0.2708
 5933SOL    HW129435   2.174   1.429   3.840  0.9638  0.1820  0.2181
 5933SOL    HW229436   2.055   1.491   3.785  0.1771 -0.2799 -1.0386
 5934SOL     OW29437   2.852   1.758   5.218 -0.1848  0.2446 -0.3228
 5934SOL    HW129438   2.823   1.694   5.284 -0.7071  0.9007  0.0839
 5934SOL    HW229439   2.944   1.734   5.215 -0.6876 -1.7551  0.1143
 5935SOL     OW29440   0.889   2.636   6.184 -0.2384  0.1665  0.5155
 5935SOL    HW129441   0.892   2.702   6.114  0.1957 -1.7647 -1.2793
 5935SOL    HW229442   0.943   2.679   6.252  0.4678  0.5195 -0.2617
 5936SOL     OW29443   0.246   2.409   5.816 -0.0276 -0.5088  0.2517
 5936SOL    HW129444   0.220   2.328   5.772 -0.3157  0.7717 -1.9127
 5936SOL    HW229445   0.160   2.440   5.843  0.6489  1.4347  0.1270
 5937SOL     OW29446   3.882   1.576  12.931  0.1234 -0.3115  0.3025
 5937SOL    HW129447   3.917   1.663  12.953  0.8012 -0.1998 -1.2311
 5937SOL    HW229448   3.879   1.589  12.836  0.2154  0.7949  0.4480
 5938SOL     OW29449   0.337   2.075  11.874 -0.7149  0.7985 -0.2906
 5938SOL    HW129450   0.260   2.040  11.918  0.1347 -3.0235 -1.8348
 5938SOL    HW229451   0.413   2.031  11.912 -0.2290 -0.8246 -3.1008
 5939SOL     OW29452   4.569   0.498  11.887 -0.5597 -0.9810 -0.0228
 5939SOL    HW129453   4.566   0.520  11.980  0.1169 -0.6856 -0.0696
 5939SOL    HW229454   4.643   0.548  11.852  1.0974 -2.1219  1.8062
 5940SOL     OW29455   3.621   0.875  16.064 -0.1394 -0.4209 -0.2706
 5940SOL    HW129456   3.657   0.959  16.036  0.4702  0.0358  1.8646
 5940SOL    HW229457   3.665   0.875  16.149  0.7799  1.2715 -0.7371
 5941SOL     OW29458   2.116   2.204   9.796 -0.1093 -0.7102 -0.6263
 5941SOL    HW129459   2.059   2.166   9.863 -0.2801  0.2168 -0.2415
 5941SOL    HW229460   2.106   2.135   9.730 -0.1143 -0.0965 -1.2670
 5942SOL     OW29461   1.054   3.185   3.521  0.2653  0.1839  0.4378
 5942SOL    HW129462   1.106   3.263   3.506  1.2193 -0.4767  0.3348
 5942SOL    HW229463   1.021   3.204   3.609  3.1006 -0.4538  1.6434
 5943SOL     OW29464   3.032   1.522   4.621 -0.1200 -1.1220  0.0968
 5943SOL    HW129465   3.098   1.490   4.683  1.2370  0.5550 -0.5141
 5943SOL    HW229466   2.986   1.438   4.610 -3.4862  0.7687 -0.2059
 5944SOL     OW29467   4.189   4.443  11.097  0.4562  0.3872 -1.1358
 5944SOL    HW129468   4.172   4.472  11.008 -0.6445  1.6734 -0.5113
 5944SOL    HW229469   4.213   4.526  11.138  2.6388 -0.8125  0.0387
 5945SOL     OW29470   1.868   0.251   4.397  0.1358 -0.0150  0.5551
 5945SOL    HW129471   1.830   0.182   4.453  0.1906  0.6302  1.3875
 5945SOL    HW229472   1.846   0.224   4.308  2.2960  1.1485 -0.3125
 5946SOL     OW29473   4.072   0.207  13.369  0.1027  0.1419 -0.3434
 5946SOL    HW129474   4.067   0.143  13.299 -0.6741 -1.3098  1.0338
 5946SOL    HW229475   4.118   0.276  13.321 -1.2330  0.4764 -1.1413
 5947SOL     OW29476   4.285   2.338   3.571  0.0038  0.1857 -0.0988
 5947SOL    HW129477   4.379   2.331   3.552  0.3284  0.4442  1.4391
 5947SOL    HW229478   4.263   2.259   3.521 -1.4587  0.6992 -0.2542
 5948SOL     OW29479   3.814   0.181   8.839 -0.1717  0.0646 -0.3204
 5948SOL    HW129480   3.742   0.240   8.860  0.5638  0.9365 -0.2833
 5948SOL    HW229481   3.817   0.131   8.921  0.6515 -1.2091 -1.1162
 5949SOL     OW29482   3.597   3.453  13.521  0.0730 -0.0840  0.0034
 5949SOL    HW129483   3.680   3.424  13.484  0.3197 -1.5721  1.7026
 5949SOL    HW229484   3.625   3.475  13.610 -1.5522 -0.5341  0.6247
 5950SOL     OW29485   4.710   1.332  12.931  1.0115  0.6984 -0.2126
 5950SOL    HW129486   4.652   1.370  12.865 -0.3979 -0.0034  0.6221
 5950SOL    HW229487   0.017   1.410  12.970  1.1656 -0.0435  1.0986
 5951SOL     OW29488   2.851   2.329   6.531  0.0635  0.2198 -0.0880
 5951SOL    HW129489   2.880   2.416   6.561  2.0056 -0.9287  1.3424
 5951SOL    HW229490   2.770   2.314   6.580  0.9863  3.3385  2.4301
 5952SOL     OW29491   2.404   1.609   1.401 -0.2173  0.2893  0.0142
 5952SOL    HW129492   2.359   1.648   1.326 -0.2401 -0.1417 -0.1953
 5952SOL    HW229493   2.383   1.661   1.478  0.9020 -0.8569  1.1008
 5953SOL     OW29494   1.972   1.789   4.850 -0.8806 -0.0133  0.2624
 5953SOL    HW129495   2.019   1.777   4.767  1.2554 -0.1865  1.5017
 5953SOL    HW229496   1.948   1.697   4.857 -2.1583  0.3593  0.6465
 5954SOL     OW29497   0.767   4.056   0.636 -0.5037 -0.1198  0.4033
 5954SOL    HW129498   0.746   4.062   0.543  2.0833 -1.4381 -0.2619
 5954SOL    HW229499   0.681   4.083   0.667 -0.5214  3.3203 -2.6852
 5955SOL     OW29500   4.098   4.287   2.618 -0.4041 -0.4252 -0.1479
 5955SOL    HW129501   4.113   4.381   2.604 -2.3646  0.1336  1.6508
 5955SOL    HW229502   4.004   4.282   2.602 -0.5062 -1.2340  0.7680
 5956SOL     OW29503   0.253   2.615  12.230  0.3322 -0.1411  0.3767
 5956SOL    HW129504   0.203   2.533  12.228 -0.4801  0.3763 -0.1783
 5956SOL    HW229505   0.266   2.645  12.140 -1.3764 -0.5014  0.0116
 5957SOL     OW29506   0.821   3.569   1.807  0.1960 -1.0374 -0.3300
 5957SOL    HW129507   0.836   3.529   1.721 -1.3017  0.1174 -1.1341
 5957SOL    HW229508   0.745   3.624   1.790 -1.1685 -2.8269  0.0661
 5958SOL     OW29509   1.294   1.752   9.363  0.5619  0.1948 -0.0381
 5958SOL    HW129510   1.211   1.792   9.387 -0.3475 -2.0883  0.6793
 5958SOL    HW229511   1.325   1.811   9.294 -0.7742  1.2980  0.3311
 5959SOL     OW29512   0.489   0.054   5.839  0.1138  0.0971 -0.0188
 5959SOL    HW129513   0.399   0.072   5.811  0.0434 -2.4733 -1.4191
 5959SOL    HW229514   0.534   0.030   5.757 -1.5746  0.0559 -0.9342
 5960SOL     OW29515   1.115   2.326   7.612 -0.0017  0.0146  0.0270
 5960SOL    HW129516   1.196   2.278   7.595  1.4486  2.8587 -0.8860
 5960SOL    HW229517   1.146   2.381   7.683  0.2584 -0.6393  0.4245
 5961SOL     OW29518   0.954   3.305   8.955  0.1621  0.3811 -0.1246
 5961SOL    HW129519   1.044   3.285   8.980 -0.4164 -2.2148 -0.1890
 5961SOL    HW229520   0.902   3.238   8.999 -0.8601  1.6121  0.5357
 5962SOL     OW29521   1.170   1.621   6.566  0.4201  0.2245  0.1041
 5962SOL    HW129522   1.229   1.546   6.572 -0.3562 -0.4595 -0.7215
 5962SOL    HW229523   1.139   1.639   6.655 -1.0196  0.7236 -0.4972
 5963SOL     OW29524   3.541   2.770   9.629  0.5902  0.2946 -0.1828
 5963SOL    HW129525   3.610   2.781   9.695  0.1335  0.4833  0.2665
 5963SOL    HW229526   3.597   2.738   9.558 -0.4122 -1.4798 -0.1656
 5964SOL     OW29527   2.603   0.972   3.634  0.4893  0.2392  0.4170
 5964SOL    HW129528   2.566   1.060   3.629  2.1395  0.8461 -1.1497
 5964SOL    HW229529   2.590   0.927   3.550 -0.7444  1.0136  0.1988
 5965SOL     OW29530   2.611   1.154  17.029  0.3200 -0.0838  0.2354
 5965SOL    HW129531   2.589   1.099  17.105 -0.9535 -0.5801 -0.4921
 5965SOL    HW229532   2.599   1.235  17.079  2.1811  0.3763 -0.0691
 5966SOL     OW29533   1.854   3.373   8.606 -0.0483 -0.4191 -0.1737
 5966SOL    HW129534   1.859   3.469   8.607  1.9603 -0.5349  0.1592
 5966SOL    HW229535   1.945   3.359   8.632 -0.3459 -0.0946  1.0203
 5967SOL     OW29536   0.726   0.129  10.215 -0.2776  0.2820  0.2014
 5967SOL    HW129537   0.810   0.084  10.201  0.3445  1.5331 -0.1278
 5967SOL    HW229538   0.702   0.111  10.305  1.6849 -0.4428  0.5770
 5968SOL     OW29539   2.114   3.027   9.065  0.3832 -0.5875  0.1482
 5968SOL    HW129540   2.091   2.948   9.113  2.0643 -0.8351  0.5426
 5968SOL    HW229541   2.027   3.067   9.059 -0.1572 -1.9500 -1.0295
 5969SOL     OW29542   4.501   2.730   3.858  0.1614  0.1903  0.4343
 5969SOL    HW129543   4.483   2.642   3.825 -2.1914  0.2700  1.4921
 5969SOL    HW229544   4.596   2.725   3.852  0.1322 -0.5186  0.5979
 5970SOL     OW29545   3.169   3.086   4.549 -1.0858  0.0209  0.2599
 5970SOL    HW129546   3.089   3.037   4.532 -0.8314  0.5024 -2.3092
 5970SOL    HW229547   3.224   3.071   4.472  1.8742  2.2201  1.9855
 5971SOL     OW29548   1.971   0.657  14.511 -0.5729 -0.6425 -0.1808
 5971SOL    HW129549   1.892   0.616  14.477  0.5467 -1.7241 -1.4809
 5971SOL    HW229550   2.025   0.670  14.433 -0.9795  0.8970 -0.1996
 5972SOL     OW29551   1.173   0.765   2.659  0.0874 -0.2179 -0.2129
 5972SOL    HW129552   1.159   0.763   2.753 -3.4634  2.4189 -0.6629
 5972SOL    HW229553   1.222   0.685   2.643  0.4603 -0.3479  1.6951
 5973SOL     OW29554   0.457   0.499   4.857  0.1827 -0.1143 -0.0027
 5973SOL    HW129555   0.462   0.404   4.862 -1.9634 -0.2905 -1.2000
 5973SOL    HW229556   0.550   0.521   4.847  0.0239 -0.4826 -2.1996
 5974SOL     OW29557   1.773   1.104  16.122 -0.5685  0.4253  0.3386
 5974SOL    HW129558   1.698   1.088  16.065  1.4887 -0.3207 -2.1458
 5974SOL    HW229559   1.757   1.043  16.194 -0.5841 -0.0143 -0.0426
 5975SOL     OW29560   0.506   1.921   5.930 -0.1089  0.2834 -0.3108
 5975SOL    HW129561   0.451   1.994   5.904  0.5652  0.7687 -0.3751
 5975SOL    HW229562   0.439   1.858   5.957  0.8174 -0.4952  0.2101
 5976SOL     OW29563   1.283   1.472   2.836  0.1687  0.0443 -0.7203
 5976SOL    HW129564   1.349   1.403   2.848 -0.6228 -0.3708  1.2656
 5976SOL    HW229565   1.231   1.436   2.764 -0.0743  1.0171 -1.0248
 5977SOL     OW29566   0.960   3.620  16.208 -0.0168 -0.1016 -0.7037
 5977SOL    HW129567   1.015   3.688  16.169 -1.1461  1.5640  0.5809
 5977SOL    HW229568   1.004   3.589  16.288  0.8258  0.4425 -0.9591
 5978SOL     OW29569   3.961   1.481   3.179  0.1949 -0.2045 -0.1243
 5978SOL    HW129570   3.965   1.495   3.084  0.7348  0.9003  0.0609
 5978SOL    HW229571   3.868   1.501   3.190  0.5574  1.3683  0.0897
 5979SOL     OW29572   1.935   1.725  12.658 -0.7289  0.2196 -0.2151
 5979SOL    HW129573   1.902   1.735  12.747 -0.8378 -0.8537 -0.1445
 5979SOL    HW229574   1.858   1.739  12.603 -1.1857  0.5058  0.4988
 5980SOL     OW29575   2.314   1.439  16.541  0.2306  0.0756  0.2992
 5980SOL    HW129576   2.361   1.521  16.560 -1.4492  1.2376 -0.5747
 5980SOL    HW229577   2.227   1.448  16.579  0.7172  2.4254  0.8668
 5981SOL     OW29578   3.387   3.095  11.769  0.3844 -0.2242  0.7338
 5981SOL    HW129579   3.445   3.148  11.714 -0.1319 -0.9122 -0.4682
 5981SOL    HW229580   3.396   3.136  11.854  0.5947  0.9753  0.1323
 5982SOL     OW29581   1.850   1.142   1.630 -0.1216  0.3538 -0.4221
 5982SOL    HW129582   1.866   1.216   1.689  0.5700  1.5424 -2.1131
 5982SOL    HW229583   1.886   1.174   1.547  1.8602 -0.4331  0.1234
 5983SOL     OW29584   1.190   2.785   8.133  0.1757 -0.2954 -0.1249
 5983SOL    HW129585   1.145   2.807   8.215  0.9345 -1.0215  0.4766
 5983SOL    HW229586   1.137   2.827   8.065  0.0087  0.0671  0.2251
 5984SOL     OW29587   3.459   1.895   0.005  0.7197 -0.3576  0.1311
 5984SOL    HW129588   3.435   1.824   0.064  0.6169 -1.9591 -1.8541
 5984SOL    HW229589   3.546   1.864  17.720  1.0760  0.4255  0.4286
 5985SOL     OW29590   3.263   1.807   6.987 -0.1380 -0.3594  0.0883
 5985SOL    HW129591   3.252   1.824   7.081 -0.6938 -2.1436  0.3395
 5985SOL    HW229592   3.357   1.827   6.982 -0.5553  1.7860  1.0513
 5986SOL     OW29593   2.225   0.313   4.038 -0.4282 -0.4098 -0.1224
 5986SOL    HW129594   2.226   0.385   4.101  1.4201 -0.9377  0.4277
 5986SOL    HW229595   2.319   0.303   4.025 -0.3061  0.2357  0.2720
 5987SOL     OW29596   1.256   1.859  13.440 -0.5345  0.1299 -0.2323
 5987SOL    HW129597   1.308   1.843  13.361  0.2321 -2.3031  0.7845
 5987SOL    HW229598   1.308   1.928  13.482 -0.1969  0.1568 -0.6940
 5988SOL     OW29599   3.876   1.792   8.839  1.0434 -1.2053  0.1652
 5988SOL    HW129600   3.800   1.765   8.787 -0.2667  1.2104  0.8264
 5988SOL    HW229601   3.896   1.714   8.891 -0.2988 -2.5519 -1.3324
 5989SOL     OW29602   0.969   3.151  14.965  0.3122  0.1185  0.1365
 5989SOL    HW129603   0.961   3.055  14.967 -2.4533  0.3632  0.1042
 5989SOL    HW229604   0.939   3.181  15.051  2.5764 -3.1292  2.0566
 5990SOL     OW29605   1.799   1.197   2.644 -0.0693 -0.4571  0.1018
 5990SOL    HW129606   1.893   1.200   2.661  0.1500  3.1061 -1.8796
 5990SOL    HW229607   1.801   1.232   2.555 -0.4682 -0.3450  0.1377
 5991SOL     OW29608   0.056   4.419   3.922  0.0715 -0.4290  0.5627
 5991SOL    HW129609   0.104   4.499   3.943 -2.5525  0.5891  2.6727
 5991SOL    HW229610   0.096   4.406   3.836 -0.2723  1.5149  0.1213
 5992SOL     OW29611   3.252   0.633   0.506 -0.3763 -0.3918 -0.2945
 5992SOL    HW129612   3.241   0.669   0.594 -1.6857  0.9579 -1.0214
 5992SOL    HW229613   3.335   0.669   0.474 -0.5187  0.2150  0.0200
 5993SOL     OW29614   1.304   2.666   3.542 -0.3176  0.1675 -0.3193
 5993SOL    HW129615   1.259   2.587   3.514  0.1364  1.1647 -3.8493
 5993SOL    HW229616   1.236   2.733   3.545 -0.6729 -0.2026 -0.0398
 5994SOL     OW29617   2.738   3.781   3.334  0.2647  0.7603 -0.5094
 5994SOL    HW129618   2.805   3.772   3.402  0.2968  4.0640 -0.0845
 5994SOL    HW229619   2.657   3.761   3.382 -0.1625  0.0659 -1.5362
 5995SOL     OW29620   2.495   0.936   4.376 -0.2822  0.3374  0.0463
 5995SOL    HW129621   2.472   0.878   4.449  0.8193  2.8021  2.3381
 5995SOL    HW229622   2.522   0.871   4.311 -0.2933  2.3617 -1.9585
 5996SOL     OW29623   0.697   2.933   5.401  0.3314  0.5229  0.1850
 5996SOL    HW129624   0.675   2.840   5.397  1.0563  0.2858  1.5412
 5996SOL    HW229625   0.677   2.964   5.490 -1.5332 -0.1618  0.0142
 5997SOL     OW29626   4.441   1.490   8.230 -0.4469  0.6366  0.0940
 5997SOL    HW129627   4.534   1.503   8.249 -0.9108  0.6597  2.3774
 5997SOL    HW229628   4.402   1.494   8.317 -0.0810  1.7958  0.2055
 5998SOL     OW29629   1.976   0.371   5.291  0.1176  0.2477 -0.6223
 5998SOL    HW129630   1.947   0.435   5.225  1.0675  0.1411 -1.1534
 5998SOL    HW229631   1.975   0.288   5.245 -2.7603 -0.0018 -0.1172
 5999SOL     OW29632   1.719   4.030  12.090  0.6047  0.0548 -0.3807
 5999SOL    HW129633   1.628   4.059  12.081 -0.2312 -2.4953 -0.0729
 5999SOL    HW229634   1.746   4.012  11.999 -0.3451  0.6283 -0.7805
 6000SOL     OW29635   1.426   3.408   3.898  0.5149 -0.4707  0.0593
 6000SOL    HW129636   1.367   3.483   3.907 -0.7080 -1.3372 -0.7449
 6000SOL    HW229637   1.405   3.351   3.972  0.5711 -0.9146 -0.2674
 6001SOL     OW29638   1.150   1.188   7.934 -0.1463 -0.1920  0.2518
 6001SOL    HW129639   1.218   1.120   7.937  2.3538  2.2683 -0.5890
 6001SOL    HW229640   1.183   1.258   7.992  1.0853 -0.2510 -0.3746
 6002SOL     OW29641   0.495   1.286  16.413  0.4694  0.4544 -0.0775
 6002SOL    HW129642   0.503   1.314  16.504 -0.6868  1.0965 -0.1775
 6002SOL    HW229643   0.418   1.229  16.412  1.1802 -0.5096 -1.4729
 6003SOL     OW29644   1.797   4.269   3.491 -0.3554  0.3885  0.0788
 6003SOL    HW129645   1.731   4.202   3.472  0.6006 -0.8784  1.2313
 6003SOL    HW229646   1.882   4.225   3.500 -0.6990 -0.2879  0.0304
 6004SOL     OW29647   4.044   2.642   6.824  0.3207 -0.3115  0.3332
 6004SOL    HW129648   4.007   2.589   6.754 -0.3232  0.9455 -0.2718
 6004SOL    HW229649   3.967   2.653   6.879  1.5427  1.0646  1.7715
 6005SOL     OW29650   0.927   0.337  14.481  0.2010 -0.2367  0.6807
 6005SOL    HW129651   0.891   0.324  14.393 -1.9142  1.0925  1.3400
 6005SOL    HW229652   1.015   0.301  14.472  0.2204 -0.7721  3.0129
 6006SOL     OW29653   2.815   3.654   0.335  0.2314  0.3384 -0.3749
 6006SOL    HW129654   2.855   3.612   0.411  0.6612  0.5253 -0.5000
 6006SOL    HW229655   2.890   3.708   0.311  0.0523 -0.0581 -1.8830
 6007SOL     OW29656   3.465   0.168  13.387 -0.3565  0.4822  0.0212
 6007SOL    HW129657   3.395   0.198  13.445  0.0650 -0.2442  0.9057
 6007SOL    HW229658   3.488   0.084  13.427  1.3252 -0.0243 -2.0297
 6008SOL     OW29659   0.186   0.752   6.342 -0.1502  0.2512 -0.0055
 6008SOL    HW129660   0.141   0.836   6.355 -0.0597  0.4541 -0.9204
 6008SOL    HW229661   0.272   0.787   6.317  0.5400 -0.3062  1.6146
 6009SOL     OW29662   3.485   2.219   8.781  0.1497  0.5022 -0.1192
 6009SOL    HW129663   3.407   2.253   8.738 -0.0563 -1.7270 -1.5098
 6009SOL    HW229664   3.530   2.178   8.707 -2.0753  1.5934 -2.0610
 6010SOL     OW29665   1.340   2.194   7.636  0.1771 -0.1935  0.1319
 6010SOL    HW129666   1.396   2.131   7.590  1.2821  0.4611  0.5855
 6010SOL    HW229667   1.407   2.259   7.656  2.9553 -2.6692 -0.9938
 6011SOL     OW29668   0.748   1.158   5.701 -0.3892 -0.3377  0.2046
 6011SOL    HW129669   0.812   1.205   5.754  0.1028 -0.7023 -0.0669
 6011SOL    HW229670   0.690   1.231   5.678  3.5932  1.9366 -2.7765
 6012SOL     OW29671   3.207   3.089   7.621 -0.4277  0.5898 -0.4033
 6012SOL    HW129672   3.234   3.018   7.563  0.7441 -0.9895  2.0679
 6012SOL    HW229673   3.136   3.131   7.573 -1.3081 -1.8590 -1.2280
 6013SOL     OW29674   2.299   4.144  16.708 -0.0695  0.1891  0.5537
 6013SOL    HW129675   2.311   4.238  16.719  0.4657  0.3075 -1.0880
 6013SOL    HW229676   2.374   4.110  16.660 -0.5677 -1.7476  1.1052
 6014SOL     OW29677   0.974   1.883   1.990  0.3567 -0.4707  0.1606
 6014SOL    HW129678   1.006   1.919   2.072  1.3219 -1.4235  0.1976
 6014SOL    HW229679   0.927   1.805   2.020  3.0790 -1.0937  2.6975
 6015SOL     OW29680   1.962   0.274   3.811 -0.0888 -0.0300 -0.1990
 6015SOL    HW129681   1.881   0.229   3.836 -1.0850  2.7523  1.5458
 6015SOL    HW229682   1.946   0.359   3.852  0.5970  0.6018 -1.2468
 6016SOL     OW29683   2.971   0.711  12.304 -0.3227 -0.2449 -0.0815
 6016SOL    HW129684   3.033   0.640  12.322 -0.3185  0.1022  1.2676
 6016SOL    HW229685   2.963   0.696  12.209  0.7935 -0.4224 -0.1535
 6017SOL     OW29686   2.284   2.219   5.920 -0.4795  0.3631 -0.2354
 6017SOL    HW129687   2.204   2.200   5.871 -0.5595 -0.5142  0.2322
 6017SOL    HW229688   2.264   2.174   6.002 -0.5919 -0.3913 -0.6799
 6018SOL     OW29689   3.326   0.090   3.549 -1.0079 -0.0614  0.0359
 6018SOL    HW129690   3.283   0.173   3.567 -2.3094 -0.9327  0.9837
 6018SOL    HW229691   3.416   0.123   3.543 -1.1137  0.0941 -0.7289
 6019SOL     OW29692   1.715   3.785   6.996 -0.5652 -0.1157 -0.1500
 6019SOL    HW129693   1.642   3.772   7.057  0.7069 -0.9048  1.2207
 6019SOL    HW229694   1.789   3.817   7.048 -0.5717  1.7701 -1.3318
 6020SOL     OW29695   0.112   1.159   7.585 -0.0881  0.3858  0.4337
 6020SOL    HW129696   0.152   1.182   7.669  1.1590 -2.3686  0.6125
 6020SOL    HW229697   0.070   1.243   7.565  2.4879  1.8021  0.9606
 6021SOL     OW29698   4.000   2.640   2.070 -0.6774 -0.1351 -0.0350
 6021SOL    HW129699   4.047   2.619   2.151 -1.1841 -0.9305  0.0529
 6021SOL    HW229700   3.919   2.589   2.081 -0.1271 -1.2241 -0.9638
 6022SOL     OW29701   2.748   3.327   7.416 -0.1465 -0.4277 -0.0126
 6022SOL    HW129702   2.785   3.416   7.417  1.1138 -0.9205 -2.0376
 6022SOL    HW229703   2.753   3.300   7.325  0.7615  1.6201 -0.5870
 6023SOL     OW29704   2.983   4.575   9.003  0.1457 -0.2891 -0.2886
 6023SOL    HW129705   3.002   4.481   9.012  1.2230  0.0393  0.7755
 6023SOL    HW229706   3.065   4.608   8.964  1.2072 -0.5995  1.7053
 6024SOL     OW29707   1.200   4.292   5.919  0.1182 -0.0946  0.9520
 6024SOL    HW129708   1.177   4.372   5.968 -0.8753  0.1992  0.0106
 6024SOL    HW229709   1.285   4.281   5.961  1.5621  0.4173 -1.8309
 6025SOL     OW29710   0.070   2.475   3.741 -0.0240  0.0213 -0.1127
 6025SOL    HW129711   0.159   2.492   3.772  0.1944  2.2407 -1.9937
 6025SOL    HW229712   0.091   2.428   3.661  0.0620 -2.7733  1.5448
 6026SOL     OW29713   1.205   2.146   9.019  0.0379 -0.2222  0.0317
 6026SOL    HW129714   1.123   2.146   8.969  0.3026  0.1455 -0.4060
 6026SOL    HW229715   1.265   2.147   8.944  0.6271 -1.0498  0.4965
 6027SOL     OW29716   2.363   1.541   3.203  0.3333  0.0471  0.0990
 6027SOL    HW129717   2.282   1.558   3.251  0.5832  2.2030 -0.2131
 6027SOL    HW229718   2.428   1.598   3.246  0.2989  0.0398  0.1605
 6028SOL     OW29719   2.212   1.642   6.195 -0.1447  0.3987  0.0236
 6028SOL    HW129720   2.268   1.566   6.205 -0.6801  0.0374  0.2809
 6028SOL    HW229721   2.215   1.673   6.286  2.5965 -1.0929  0.4331
 6029SOL     OW29722   0.887   3.581  13.409  1.2223 -0.0396 -0.1381
 6029SOL    HW129723   0.799   3.618  13.394  0.9268 -0.3155  0.9072
 6029SOL    HW229724   0.875   3.574  13.504  3.5980  2.4132  0.3374
 6030SOL     OW29725   1.307   0.051   7.934 -0.1511  0.2051  0.0258
 6030SOL    HW129726   1.376   0.055   8.000  1.1594 -0.0296 -1.3272
 6030SOL    HW229727   1.230   0.075   7.986 -1.8643 -1.9186 -1.5111
 6031SOL     OW29728   1.934   0.517   8.670 -0.1496 -0.0964 -0.0525
 6031SOL    HW129729   1.950   0.502   8.763 -0.8102  1.9060  0.3862
 6031SOL    HW229730   2.008   0.573   8.644  1.3776 -1.8271  0.5439
 6032SOL     OW29731   2.695   0.610   6.298  0.6395  0.3807 -0.0908
 6032SOL    HW129732   2.707   0.623   6.392 -0.1487 -0.0956  0.0696
 6032SOL    HW229733   2.711   0.517   6.281  0.9473  0.4867 -0.3883
 6033SOL     OW29734   3.824   0.066   4.055 -0.4293  0.0730 -0.0815
 6033SOL    HW129735   3.904   0.066   4.002 -0.3772 -1.0187 -0.0193
 6033SOL    HW229736   3.868   0.089   4.136 -2.0000  2.0485  0.1881
 6034SOL     OW29737   3.473   0.419  13.232 -0.0944 -0.2886  0.8907
 6034SOL    HW129738   3.495   0.329  13.258 -0.9605 -0.9202 -0.5482
 6034SOL    HW229739   3.437   0.464  13.308  0.4084 -0.9586  1.5138
 6035SOL     OW29740   3.487   1.585   4.764 -0.4645  0.5992 -0.4580
 6035SOL    HW129741   3.544   1.658   4.743 -0.3270  0.1386 -1.6798
 6035SOL    HW229742   3.438   1.624   4.836 -0.1249  3.0345 -1.5725
 6036SOL     OW29743   1.987   3.384   0.412 -0.0974  0.7505 -0.7079
 6036SOL    HW129744   1.974   3.394   0.318 -2.0209  1.4550 -0.3762
 6036SOL    HW229745   1.981   3.290   0.426 -0.5938  0.9857  0.6615
 6037SOL     OW29746   1.300   0.512   5.420  0.7202 -0.0355  0.1701
 6037SOL    HW129747   1.343   0.428   5.407 -0.7293 -0.8901  0.9495
 6037SOL    HW229748   1.284   0.538   5.329 -1.8746  0.6062  0.8073
 6038SOL     OW29749   0.477   0.366   7.652 -0.4050 -0.0500  0.2258
 6038SOL    HW129750   0.559   0.413   7.671 -1.1227  1.7732 -1.1661
 6038SOL    HW229751   0.419   0.440   7.633  1.5909  0.7849 -2.6027
 6039SOL     OW29752   3.623   0.069   4.922 -0.1701  0.1714 -1.2112
 6039SOL    HW129753   3.611   4.725   4.977  1.6528 -0.1704 -1.2951
 6039SOL    HW229754   3.533   0.076   4.893  0.8741 -0.8266 -4.6870
 6040SOL     OW29755   1.902   4.088  12.503 -0.1830  0.3028  0.0378
 6040SOL    HW129756   1.822   4.065  12.455  0.5823  0.6357 -1.3969
 6040SOL    HW229757   1.934   3.999  12.516 -1.8177 -0.1462  0.9851
 6041SOL     OW29758   3.688   3.088   5.283 -0.3208 -0.2941 -0.0806
 6041SOL    HW129759   3.729   3.135   5.210  0.4710 -0.2705  0.3763
 6041SOL    HW229760   3.595   3.095   5.266 -0.3161  0.5179  0.2515
 6042SOL     OW29761   0.991   0.592   7.917  0.3088 -0.3165 -0.3529
 6042SOL    HW129762   0.957   0.503   7.917 -0.7536  0.0842  0.1323
 6042SOL    HW229763   0.914   0.645   7.939  0.0851 -0.7516 -0.0808
 6043SOL     OW29764   1.129   4.275   1.653  0.1417  0.4368  0.4229
 6043SOL    HW129765   1.165   4.225   1.580  1.1435  1.7812  0.0043
 6043SOL    HW229766   1.066   4.329   1.606 -0.5057 -0.0525  0.7366
 6044SOL     OW29767   0.125   0.209   2.769 -0.7778 -0.4533  0.2386
 6044SOL    HW129768   0.142   0.168   2.684  0.6082 -0.6707  0.6281
 6044SOL    HW229769   0.081   0.141   2.820  2.6312 -0.9580  2.5053
 6045SOL     OW29770   3.790   4.191  11.795 -0.2766 -0.4302 -0.2371
 6045SOL    HW129771   3.811   4.161  11.884 -2.1497  0.7010  0.5791
 6045SOL    HW229772   3.695   4.179  11.801 -0.6555  1.8413 -1.8779
 6046SOL     OW29773   2.988   2.732   4.973  0.4865 -0.3777  0.1658
 6046SOL    HW129774   2.997   2.777   4.890 -1.6481  0.7781  0.5857
 6046SOL    HW229775   2.894   2.722   4.984  0.3095  2.0825  0.7355
 6047SOL     OW29776   1.146   1.511   1.376 -0.6717  0.6750  0.6728
 6047SOL    HW129777   1.092   1.573   1.327 -0.6108 -0.6868 -1.1061
 6047SOL    HW229778   1.129   1.543   1.464  0.5248  0.5452  0.9469
 6048SOL     OW29779   3.391   2.559   8.795  0.1408  0.4818  0.1022
 6048SOL    HW129780   3.359   2.482   8.748 -0.1526 -0.1788  1.3571
 6048SOL    HW229781   3.387   2.520   8.883 -0.7967  1.0916  0.3236
 6049SOL     OW29782   2.092   1.173   2.207  0.0181  0.2000 -0.2563
 6049SOL    HW129783   2.075   1.157   2.114  3.5070 -1.1222 -0.6487
 6049SOL    HW229784   2.132   1.260   2.207 -0.6897  0.5374  0.4584
 6050SOL     OW29785   3.397   2.708   5.252  0.1852  0.5409 -0.0965
 6050SOL    HW129786   3.363   2.709   5.163  3.0146 -1.6901 -1.2097
 6050SOL    HW229787   3.487   2.738   5.242  0.5971 -1.1560 -1.4469
 6051SOL     OW29788   0.331   2.497   3.788 -0.3847 -0.0305 -0.2099
 6051SOL    HW129789   0.367   2.417   3.827  0.5654 -0.5397 -2.1383
 6051SOL    HW229790   0.409   2.523   3.739 -0.3683 -1.1306 -0.7670
 6052SOL     OW29791   4.717   2.026   8.948 -0.6876  0.4399 -0.3240
 6052SOL    HW129792   4.732   1.979   8.866 -1.8828 -0.4735 -0.0314
 6052SOL    HW229793   4.625   2.049   8.934 -0.5237  0.7472 -0.8876
 6053SOL     OW29794   1.427   2.665  17.257 -0.1419  0.0254 -0.3876
 6053SOL    HW129795   1.497   2.702  17.311 -2.1406 -1.5138  3.2259
 6053SOL    HW229796   1.383   2.748  17.240 -1.0500 -0.2998  0.3967
 6054SOL     OW29797   4.676   0.021   6.965  0.3546 -0.6566  0.5962
 6054SOL    HW129798   0.010   0.069   6.919  0.5136 -1.1152  0.3511
 6054SOL    HW229799   4.644   0.094   7.018 -0.1535  0.0356 -0.6829
 6055SOL     OW29800   4.479   1.524   7.202  0.3909 -0.9490  0.0007
 6055SOL    HW129801   4.463   1.432   7.224 -2.2969 -1.2583 -3.2320
 6055SOL    HW229802   4.420   1.535   7.127 -0.8471 -0.2799  1.0843
 6056SOL     OW29803   2.308   0.459  13.765 -0.2957 -0.3036  0.0819
 6056SOL    HW129804   2.302   0.549  13.798  1.6539  0.4842 -1.7075
 6056SOL    HW229805   2.268   0.408  13.836  1.9835  0.3463  1.8382
 6057SOL     OW29806   1.866   3.996   1.444 -0.9258  0.8251 -0.2672
 6057SOL    HW129807   1.944   4.035   1.484  0.0888  0.5654 -2.0112
 6057SOL    HW229808   1.841   4.064   1.382  0.2374  0.5962 -0.9836
 6058SOL     OW29809   0.256   1.252   0.120 -0.3676 -0.2027 -0.3133
 6058SOL    HW129810   0.231   1.293   0.037  0.1609  0.4295 -0.1546
 6058SOL    HW229811   0.248   1.158   0.100  1.5695  0.2026 -3.0094
 6059SOL     OW29812   2.416   3.106   5.050 -0.6427  0.0784  0.1668
 6059SOL    HW129813   2.409   3.053   5.128 -0.3741  0.4002  0.4106
 6059SOL    HW229814   2.389   3.055   4.974  0.7541  0.3674 -0.5346
 6060SOL     OW29815   2.456   4.336  13.374  0.1847  0.2012  0.5176
 6060SOL    HW129816   2.417   4.270  13.315  0.2209  0.7414 -0.1078
 6060SOL    HW229817   2.455   4.284  13.454 -1.7947 -1.4504 -0.5785
 6061SOL     OW29818   1.662   1.723  12.864  0.1525 -0.2868  0.2092
 6061SOL    HW129819   1.743   1.703  12.911  0.3517  0.3603  0.1330
 6061SOL    HW229820   1.604   1.707  12.939  2.0875  1.9417  2.1558
 6062SOL     OW29821   0.552   0.267   6.648  0.0404 -0.6266 -0.4609
 6062SOL    HW129822   0.516   0.354   6.669  1.6126  0.0353 -0.5648
 6062SOL    HW229823   0.539   0.220   6.730 -1.5875  1.4006  0.4516
 6063SOL     OW29824   1.850   2.582   3.264  0.3927 -0.4951  0.2988
 6063SOL    HW129825   1.819   2.636   3.191  0.7568  0.9390  1.1839
 6063SOL    HW229826   1.863   2.647   3.334 -1.8170 -1.2673  1.4175
 6064SOL     OW29827   0.152   3.586  17.162 -0.2184  0.1665  0.2018
 6064SOL    HW129828   0.158   3.638  17.243  0.4419 -0.9679  0.8843
 6064SOL    HW229829   0.221   3.521  17.180  0.3189  0.9303  0.9302
 6065SOL     OW29830   4.489   3.353  12.365 -0.3573 -1.1610 -0.0159
 6065SOL    HW129831   4.487   3.422  12.299  2.9254  0.2702  1.3481
 6065SOL    HW229832   4.399   3.321  12.356 -0.4779 -0.8621  0.1188
 6066SOL     OW29833   2.916   1.717   0.484  0.4562  0.1128 -0.0510
 6066SOL    HW129834   2.911   1.669   0.566 -2.0298  1.3659  0.5291
 6066SOL    HW229835   2.853   1.665   0.434 -0.4795  0.6615  0.5674
 6067SOL     OW29836   0.997   1.541   9.205  0.5362  0.0350  0.2432
 6067SOL    HW129837   0.974   1.457   9.164  0.6835  0.3206 -0.4266
 6067SOL    HW229838   1.078   1.510   9.246  1.6643  0.3400 -1.7458
 6068SOL     OW29839   4.167   0.814  11.501  0.5583  0.0488 -0.4332
 6068SOL    HW129840   4.204   0.733  11.467 -0.6715 -0.8389  0.3904
 6068SOL    HW229841   4.237   0.859  11.549  2.0274 -1.3611 -1.2682
 6069SOL     OW29842   2.947   3.310   6.113  0.1068  0.3445  0.2989
 6069SOL    HW129843   3.024   3.301   6.057  0.6170 -1.7220  1.3388
 6069SOL    HW229844   2.992   3.330   6.195  0.9892  1.7118 -0.5253
 6070SOL     OW29845   1.588   3.208  14.097 -0.0280 -0.0251  0.1601
 6070SOL    HW129846   1.533   3.282  14.121  0.2735  0.2827 -0.0840
 6070SOL    HW229847   1.588   3.238  14.006 -0.2228  1.6707  0.7126
 6071SOL     OW29848   2.774   0.413   5.162 -0.3119 -0.1261  0.0971
 6071SOL    HW129849   2.741   0.499   5.134 -1.2463 -0.6300 -0.3281
 6071SOL    HW229850   2.819   0.383   5.084  1.2171  2.1718  0.0959
 6072SOL     OW29851   0.710   2.112   5.015 -0.1940  0.3897 -0.5060
 6072SOL    HW129852   0.744   2.197   5.042 -0.5987  0.7233 -1.0406
 6072SOL    HW229853   0.763   2.082   4.941  0.9064  2.0072 -0.3571
 6073SOL     OW29854   1.925   0.909   2.661  0.2728  0.3415  0.6983
 6073SOL    HW129855   1.926   0.991   2.611 -2.5656  0.0900  0.2284
 6073SOL    HW229856   1.885   0.838   2.610  0.0044  2.6852 -2.3535
 6074SOL     OW29857   4.383   2.709   3.325  0.5326 -0.3542  0.1744
 6074SOL    HW129858   4.450   2.667   3.379  2.0188  0.8183 -0.7327
 6074SOL    HW229859   4.331   2.632   3.301  0.7107 -0.0785 -1.0938
 6075SOL     OW29860   4.404   0.644   5.582  0.4293 -0.0849  0.7428
 6075SOL    HW129861   4.328   0.610   5.630 -2.3684  2.3523 -2.0044
 6075SOL    HW229862   4.434   0.562   5.543 -1.6707 -0.7147  0.4578
 6076SOL     OW29863   3.295   3.144   5.044  0.5743 -0.3522 -0.4655
 6076SOL    HW129864   3.211   3.107   5.073  0.4273  0.7422  0.5441
 6076SOL    HW229865   3.311   3.093   4.965  2.0053  2.0688 -1.7374
 6077SOL     OW29866   3.241   4.733   4.002 -0.3566 -0.2642  0.0999
 6077SOL    HW129867   3.240   4.637   3.994 -1.7372 -0.0832 -1.8855
 6077SOL    HW229868   3.203   0.009   4.089  0.7839 -0.1112  0.5918
 6078SOL     OW29869   0.687   0.059   2.507  0.3210 -0.3546  0.2740
 6078SOL    HW129870   0.757   0.029   2.449  0.6219  1.2486 -0.1911
 6078SOL    HW229871   0.741   0.059   2.586 -0.5317  1.5472  0.8647
 6079SOL     OW29872   3.367   2.018   8.262 -0.2165 -0.2195  0.6085
 6079SOL    HW129873   3.301   1.983   8.321 -0.3579  1.0690  1.2167
 6079SOL    HW229874   3.309   2.028   8.187 -1.1543 -1.5042  1.1618
 6080SOL     OW29875   0.953   4.041   1.078 -0.1248 -0.5777 -0.0485
 6080SOL    HW129876   1.025   4.102   1.091 -0.2136 -0.6441  0.7804
 6080SOL    HW229877   0.995   3.962   1.046  1.0922  0.5110 -1.1400
 6081SOL     OW29878   3.161   2.320   8.028 -0.4568  0.0681  0.0493
 6081SOL    HW129879   3.137   2.378   7.956 -2.9381  0.9489  1.6009
 6081SOL    HW229880   3.135   2.376   8.100  0.5829  0.1445  0.3635
 6082SOL     OW29881   4.523   4.360  11.056  0.4625 -0.0438  0.5742
 6082SOL    HW129882   4.549   4.402  10.973 -3.0615 -1.5820 -1.3421
 6082SOL    HW229883   4.593   4.297  11.068  0.4118 -0.3594 -0.7756
 6083SOL     OW29884   3.779   1.264   6.219 -0.1730  0.0287  0.0904
 6083SOL    HW129885   3.820   1.344   6.254  1.3743 -0.5668 -0.3670
 6083SOL    HW229886   3.823   1.200   6.275 -1.1734 -2.6714 -2.2246
 6084SOL     OW29887   3.330   2.755   4.695  0.8410  0.2221  0.6974
 6084SOL    HW129888   3.325   2.663   4.720 -2.1607  0.0092 -0.7382
 6084SOL    HW229889   3.243   2.782   4.667 -0.1289 -1.9638  1.5858
 6085SOL     OW29890   0.422   2.704   4.070 -0.1600 -0.0762  0.5168
 6085SOL    HW129891   0.397   2.753   3.992  3.8961  1.4908  0.1734
 6085SOL    HW229892   0.518   2.705   4.066 -0.2109 -0.3958 -0.8685
 6086SOL     OW29893   3.289   2.773   7.728  0.0876  0.3574 -0.0689
 6086SOL    HW129894   3.200   2.796   7.699 -0.4648 -0.3852  1.0322
 6086SOL    HW229895   3.344   2.840   7.688  0.7584  1.1065  2.1388
 6087SOL     OW29896   2.771   3.963   6.788  0.2153  0.2301 -0.1536
 6087SOL    HW129897   2.698   4.016   6.817  0.2700  0.1039  0.2184
 6087SOL    HW229898   2.839   3.974   6.855 -1.2241 -0.9682  1.5105
 6088SOL     OW29899   0.142   2.530  11.663  0.1289  0.1886  0.5103
 6088SOL    HW129900   0.222   2.582  11.651  0.9077 -0.6962  1.8085
 6088SOL    HW229901   0.156   2.484  11.746 -1.5946 -0.0455  0.6660
 6089SOL     OW29902   1.808   0.837  17.532  0.3186 -0.0803 -0.3037
 6089SOL    HW129903   1.902   0.856  17.535  0.5027 -1.2762  1.7314
 6089SOL    HW229904   1.799   0.791  17.616  1.0850  1.8125  0.8331
 6090SOL     OW29905   0.933   0.040  13.609 -0.3015 -0.1716  0.1692
 6090SOL    HW129906   0.896   4.717  13.542  1.1163 -0.8200 -0.0515
 6090SOL    HW229907   0.865   0.048  13.676  0.3435  1.6585  0.6229
 6091SOL     OW29908   1.203   2.117   6.587 -0.3207  0.2095  0.0726
 6091SOL    HW129909   1.205   2.038   6.534 -0.9828  0.4513 -0.3097
 6091SOL    HW229910   1.175   2.081   6.671  2.8623 -0.3852  0.8510
 6092SOL     OW29911   3.133   1.423   5.919  0.1338  0.1790  0.2385
 6092SOL    HW129912   3.171   1.497   5.872  1.1183  1.0119  2.3290
 6092SOL    HW229913   3.043   1.442   5.894 -0.3016 -0.2841  1.4187
 6093SOL     OW29914   1.023   2.141   6.286  0.0480  0.6591  0.3269
 6093SOL    HW129915   1.028   2.236   6.295 -0.7715  0.7269  0.0282
 6093SOL    HW229916   1.000   2.131   6.194  2.2329 -0.1639 -0.1407
 6094SOL     OW29917   1.843   2.312   3.084 -0.9508  0.2306 -0.3717
 6094SOL    HW129918   1.805   2.338   3.167 -1.0795  1.1684 -0.7222
 6094SOL    HW229919   1.794   2.356   3.014  2.4760  2.7758 -1.1906
 6095SOL     OW29920   0.351   1.319   5.936 -0.1800 -0.4620 -0.3530
 6095SOL    HW129921   0.373   1.226   5.940 -2.7398 -1.0050  1.1215
 6095SOL    HW229922   0.438   1.359   5.938 -1.4504  2.2183  1.9356
 6096SOL     OW29923   3.139   2.068   8.099 -0.0367  0.0396 -0.4548
 6096SOL    HW129924   3.056   2.090   8.141  0.0687  2.1044 -1.3645
 6096SOL    HW229925   3.178   2.153   8.082 -0.9930  0.4249 -0.6984
 6097SOL     OW29926   1.128   2.162   5.738 -0.2044 -0.0366  0.2279
 6097SOL    HW129927   1.165   2.248   5.758 -0.8599 -0.0803  1.6236
 6097SOL    HW229928   1.112   2.123   5.824  0.8460 -1.0975 -0.0488
 6098SOL     OW29929   3.458   1.255   7.144 -0.0789 -0.2817  0.5943
 6098SOL    HW129930   3.536   1.261   7.088  0.6528  2.8916  1.9704
 6098SOL    HW229931   3.426   1.345   7.150 -2.7304 -1.2233  0.4750
 6099SOL     OW29932   0.834   2.578  10.496  0.1923 -0.4614  0.2293
 6099SOL    HW129933   0.768   2.512  10.518 -1.1718  0.7466 -0.2643
 6099SOL    HW229934   0.910   2.527  10.467 -0.8214 -1.6786 -0.3090
 6100SOL     OW29935   3.955   2.662   8.702 -0.1167  0.5908 -0.0194
 6100SOL    HW129936   3.929   2.646   8.611 -0.4007 -0.4922  0.2556
 6100SOL    HW229937   3.941   2.756   8.696  2.9378  1.0460  0.1675
 6101SOL     OW29938   0.772   0.643   9.218 -0.4030  0.0263  0.0578
 6101SOL    HW129939   0.698   0.583   9.213  0.7374 -1.2587 -1.5191
 6101SOL    HW229940   0.717   0.722   9.216 -0.2421  0.1069 -1.2772
 6102SOL     OW29941   1.645   0.594  11.432  0.1954 -0.1897  0.0991
 6102SOL    HW129942   1.573   0.564  11.487 -1.0599  1.8221 -0.4624
 6102SOL    HW229943   1.662   0.684  11.458 -2.2178  0.5345 -0.8524
 6103SOL     OW29944   4.671   2.971   1.026  0.8327  0.9105  0.1481
 6103SOL    HW129945   4.654   2.878   1.036  0.2148  1.1677  1.4968
 6103SOL    HW229946   4.677   3.007   1.115  0.4372  0.5247  0.3304
 6104SOL     OW29947   2.243   3.795   9.582  0.1543 -0.5968  0.5914
 6104SOL    HW129948   2.277   3.754   9.661  0.2576 -1.9764 -0.1652
 6104SOL    HW229949   2.282   3.746   9.510 -0.6759  0.6304 -0.7111
 6105SOL     OW29950   0.560   3.136  15.530  0.1700  0.4931 -0.0147
 6105SOL    HW129951   0.535   3.196  15.600  1.9119  1.0363  0.1355
 6105SOL    HW229952   0.533   3.193  15.458 -0.2628 -0.3322 -0.5206
 6106SOL     OW29953   3.511   1.258   4.302  0.2843 -0.4574 -0.2256
 6106SOL    HW129954   3.576   1.207   4.350  0.3193 -0.9620 -0.8061
 6106SOL    HW229955   3.504   1.327   4.368 -0.7718 -0.1722 -0.6396
 6107SOL     OW29956   0.327   2.175   4.496  0.3524 -0.4580 -0.6549
 6107SOL    HW129957   0.387   2.133   4.435  1.8812 -0.1066  0.5895
 6107SOL    HW229958   0.387   2.194   4.568 -1.1094  2.6807 -0.2838
 6108SOL     OW29959   0.150   1.411   9.945  0.4894 -0.2697  0.1823
 6108SOL    HW129960   0.072   1.426   9.999  0.0526 -0.6054 -0.3619
 6108SOL    HW229961   0.215   1.397  10.014  0.8690 -3.1081 -0.7547
 6109SOL     OW29962   0.860   2.576   7.486  0.0883 -0.3672  0.1919
 6109SOL    HW129963   0.905   2.576   7.570  0.7667 -0.2584 -0.1696
 6109SOL    HW229964   0.867   2.668   7.459 -0.4423 -0.4428 -0.1982
 6110SOL     OW29965   3.371   0.861   5.389 -0.0098 -0.0246  0.2732
 6110SOL    HW129966   3.326   0.811   5.458  0.1057  0.4585  0.6978
 6110SOL    HW229967   3.437   0.898   5.448  1.9123 -1.2194 -1.1450
 6111SOL     OW29968   4.330   0.942   3.349  0.0652  0.2008  0.0993
 6111SOL    HW129969   4.324   0.914   3.258 -0.1664 -0.5999  0.3615
 6111SOL    HW229970   4.378   0.861   3.366 -0.4853 -0.2431 -0.4513
 6112SOL     OW29971   2.333   4.316   5.566 -0.2839  0.1882 -0.2101
 6112SOL    HW129972   2.380   4.246   5.521  0.0835  2.3435 -3.1542
 6112SOL    HW229973   2.407   4.375   5.575  1.3508 -1.6086 -2.0523
 6113SOL     OW29974   2.058   1.926  10.861  0.6726 -0.3082 -0.6053
 6113SOL    HW129975   2.039   2.011  10.900  0.7189 -0.8096  0.4970
 6113SOL    HW229976   1.978   1.919  10.808  2.3496  0.1548 -3.1791
 6114SOL     OW29977   0.736   0.920   4.749 -0.5955 -0.7312 -0.4099
 6114SOL    HW129978   0.754   0.930   4.842  0.9213 -3.2604 -0.4295
 6114SOL    HW229979   0.773   0.997   4.707 -0.0885 -0.3313  0.7805
 6115SOL     OW29980   2.855   0.031   4.571 -0.3793 -0.2201  0.2793
 6115SOL    HW129981   2.925   4.709   4.540 -1.2847 -1.8647  1.2218
 6115SOL    HW229982   2.804   0.030   4.490 -0.3427  2.0075  0.2260
 6116SOL     OW29983   2.029   1.376   6.161 -0.7825 -0.3913  0.4312
 6116SOL    HW129984   1.988   1.449   6.206 -0.4448  1.7331 -2.7135
 6116SOL    HW229985   2.115   1.408   6.135 -0.2397  0.1025  2.8661
 6117SOL     OW29986   4.582   2.280   2.592  0.4024 -0.0255  0.2457
 6117SOL    HW129987   4.529   2.204   2.614 -0.2197  0.7333  1.3834
 6117SOL    HW229988   4.600   2.260   2.501  0.2515 -1.0239  0.4396
 6118SOL     OW29989   3.434   2.223   4.756 -0.1168  0.1315 -0.1276
 6118SOL    HW129990   3.522   2.185   4.754 -0.0483  0.2868 -0.1400
 6118SOL    HW229991   3.397   2.165   4.690 -3.1755  0.5871  1.1736
 6119SOL     OW29992   1.136   0.822  16.853 -0.0984  0.4581 -0.3986
 6119SOL    HW129993   1.089   0.884  16.909  0.5177 -0.4376  1.1098
 6119SOL    HW229994   1.072   0.770  16.806 -0.9766  2.1175 -1.0477
 6120SOL     OW29995   1.870   3.436   8.268  0.4976 -0.1933 -0.1818
 6120SOL    HW129996   1.954   3.475   8.295  0.0697  0.6938 -0.1231
 6120SOL    HW229997   1.870   3.448   8.173  0.0525  1.4774  0.0349
 6121SOL     OW29998   3.246   2.252   1.475 -0.1239 -0.1406  0.3485
 6121SOL    HW129999   3.335   2.229   1.448  1.1189  1.6367  2.8715
 6121SOL    HW230000   3.235   2.306   1.397 -2.3189  0.4246  1.0401
 6122SOL     OW30001   0.454   4.557   9.625  0.1470 -0.2464  0.6324
 6122SOL    HW130002   0.453   4.651   9.643  1.4273 -0.4041  1.4908
 6122SOL    HW230003   0.524   4.552   9.559 -0.4246  0.6233 -0.0360
 6123SOL     OW30004   1.890   3.800  17.095  0.2319  0.5291 -0.2108
 6123SOL    HW130005   1.874   3.852  17.173 -1.5932 -2.8993  1.6869
 6123SOL    HW230006   1.811   3.746  17.096  0.7326 -0.2267 -1.6169
 6124SOL     OW30007   2.789   1.304  15.053 -0.2666  0.2974  0.1717
 6124SOL    HW130008   2.818   1.338  15.137  1.9639  1.0938 -0.9063
 6124SOL    HW230009   2.873   1.277  15.014 -0.1919  0.3406  0.3016
 6125SOL     OW30010   3.988   1.593   9.088  0.0880 -0.3112  0.0084
 6125SOL    HW130011   4.029   1.596   9.175  0.1000 -0.7173  0.0162
 6125SOL    HW230012   3.899   1.591   9.124 -0.4402  0.4351 -1.2807
 6126SOL     OW30013   3.600   2.659  10.164 -0.1324 -0.1586  1.0892
 6126SOL    HW130014   3.547   2.646  10.243 -0.6337  0.5249  0.8738
 6126SOL    HW230015   3.642   2.745  10.168 -0.6115  0.1456 -0.3568
 6127SOL     OW30016   0.383   2.696   8.671  0.1656 -0.2690 -0.6517
 6127SOL    HW130017   0.362   2.608   8.702 -1.4924 -0.3103 -1.8402
 6127SOL    HW230018   0.402   2.678   8.579  0.0360  1.7698 -1.0930
 6128SOL     OW30019   0.453   0.098   8.903  0.1906  0.1388 -0.6964
 6128SOL    HW130020   0.498   0.143   8.974 -0.3412 -0.2785 -0.1027
 6128SOL    HW230021   0.522   0.053   8.854  0.5210  0.3591 -0.4397
 6129SOL     OW30022   3.867   2.294  12.300 -0.7200  0.2211  0.1117
 6129SOL    HW130023   3.820   2.325  12.377  1.7165  1.6242  1.0555
 6129SOL    HW230024   3.958   2.282  12.328 -1.0667 -1.5174  0.4889
 6130SOL     OW30025   4.270   0.793   4.107 -0.0017  0.7010  0.0569
 6130SOL    HW130026   4.203   0.727   4.092 -0.4756  1.2064 -0.0417
 6130SOL    HW230027   4.218   0.853   4.160  3.6076  2.5481  1.5055
 6131SOL     OW30028   3.844   4.718   7.321  0.7174  0.6499 -0.0575
 6131SOL    HW130029   3.794   0.013   7.397 -0.2399 -0.7809 -0.1285
 6131SOL    HW230030   3.826   0.059   7.265 -1.8717  0.4994  0.5417
 6132SOL     OW30031   2.820   0.109   2.813 -0.4071  0.0138 -0.2993
 6132SOL    HW130032   2.915   0.119   2.816 -0.5474  1.3809 -0.2494
 6132SOL    HW230033   2.808   0.027   2.765  1.1912 -0.2172 -0.3136
 6133SOL     OW30034   3.916   2.536   8.448 -0.2230 -0.3274  0.2345
 6133SOL    HW130035   3.950   2.595   8.381 -0.0205  0.0095  0.6275
 6133SOL    HW230036   3.824   2.557   8.439  0.2315  1.7921  0.5356
 6134SOL     OW30037   2.122   4.136   7.016 -0.1242 -0.3442 -0.4373
 6134SOL    HW130038   2.114   4.148   7.111 -1.8443 -5.0698  0.0331
 6134SOL    HW230039   2.029   4.143   6.996 -0.6087 -0.9679  1.5281
 6135SOL     OW30040   3.522   3.094   3.798 -0.5486 -0.7521 -1.1419
 6135SOL    HW130041   3.498   3.011   3.839  0.5838 -0.1272  0.7890
 6135SOL    HW230042   3.575   3.141   3.862 -2.6134  0.6494 -0.4720
 6136SOL     OW30043   2.289   3.294   4.491  0.2597 -0.4612 -0.8315
 6136SOL    HW130044   2.197   3.303   4.516  0.0362 -0.8852 -1.5058
 6136SOL    HW230045   2.327   3.381   4.503 -0.0109 -0.5322  0.6538
 6137SOL     OW30046   0.143   2.842   4.007 -0.0088 -0.5483  0.6686
 6137SOL    HW130047   0.086   2.787   4.061  0.2597 -2.8925 -1.4049
 6137SOL    HW230048   0.146   2.779   3.935 -1.2232 -0.1761  0.2980
 6138SOL     OW30049   1.712   0.450  16.432 -0.2007 -0.3269 -0.9049
 6138SOL    HW130050   1.656   0.404  16.370  1.2136 -1.0521 -1.6542
 6138SOL    HW230051   1.776   0.488  16.371  3.4388 -3.8064  0.7116
 6139SOL     OW30052   3.244   4.183   5.399  0.1616  0.2237 -0.6093
 6139SOL    HW130053   3.181   4.160   5.467  0.1196  0.9866 -0.3973
 6139SOL    HW230054   3.319   4.130   5.424  0.8635  1.8335  0.6708
 6140SOL     OW30055   1.203   3.708   9.051  0.0683  0.3866 -0.0006
 6140SOL    HW130056   1.124   3.656   9.039  0.7327 -0.5437 -0.3028
 6140SOL    HW230057   1.259   3.642   9.010  0.6370  0.9173 -0.0885
 6141SOL     OW30058   3.788   1.947   7.921  0.7165  0.0574  0.2228
 6141SOL    HW130059   3.711   1.961   7.977 -0.0890 -0.5888 -0.7171
 6141SOL    HW230060   3.850   1.986   7.983 -2.5454  2.3464  2.0604
 6142SOL     OW30061   4.438   1.214   9.184  0.0243 -0.3454  0.5769
 6142SOL    HW130062   4.506   1.147   9.190 -0.1866 -0.7423 -1.4316
 6142SOL    HW230063   4.469   1.276   9.118  1.7734 -0.3550  1.3735
 6143SOL     OW30064   1.338   3.421  16.722  0.5595  0.5903 -0.2607
 6143SOL    HW130065   1.315   3.333  16.695  0.3318  0.6231 -0.1686
 6143SOL    HW230066   1.419   3.410  16.773  1.7842  0.0539 -2.3345
 6144SOL     OW30067   0.595   1.942   4.732  0.1660  0.1520  0.3664
 6144SOL    HW130068   0.522   1.894   4.694  1.0790 -0.8263 -0.1365
 6144SOL    HW230069   0.552   2.012   4.781 -1.9936 -0.5445 -0.5626
 6145SOL     OW30070   1.698   0.159   2.035 -0.3583  0.0702 -0.0921
 6145SOL    HW130071   1.755   0.236   2.027 -2.4697  1.7181  0.8727
 6145SOL    HW230072   1.647   0.150   1.955  0.4350  1.0548 -0.7001
 6146SOL     OW30073   0.675   4.577  13.601 -0.4598  0.4172  0.4264
 6146SOL    HW130074   0.747   4.598  13.541  0.9848 -0.3096  1.9024
 6146SOL    HW230075   0.658   4.656  13.654  2.2002  0.0664  1.8043
 6147SOL     OW30076   3.299   1.150   7.865 -0.2288 -0.3451  0.2668
 6147SOL    HW130077   3.348   1.231   7.879 -0.3451 -0.0928 -0.7761
 6147SOL    HW230078   3.349   1.087   7.917 -0.4531 -0.7668 -0.0308
 6148SOL     OW30079   3.390   2.449   2.626  0.3659  0.1276 -0.4082
 6148SOL    HW130080   3.409   2.454   2.720 -0.5500 -3.0761 -0.0556
 6148SOL    HW230081   3.401   2.539   2.595 -1.4434  0.6032  0.3722
 6149SOL     OW30082   3.667   2.568   1.191  0.0064 -0.3065  0.2672
 6149SOL    HW130083   3.716   2.536   1.266  2.3192  1.2570 -0.5705
 6149SOL    HW230084   3.723   2.540   1.118  2.7700 -0.1492  2.3570
 6150SOL     OW30085   0.949   0.008   1.627 -0.8495 -0.2205  0.0472
 6150SOL    HW130086   0.971   0.006   1.720  1.8160  1.9900 -0.5299
 6150SOL    HW230087   0.872   0.063   1.615 -0.3567  0.8214  1.7065
 6151SOL     OW30088   2.992   1.923   7.380  0.2502 -0.6416 -0.0953
 6151SOL    HW130089   3.039   1.900   7.460  1.0952 -1.9646 -0.9951
 6151SOL    HW230090   3.011   1.848   7.324  1.2590  0.7786 -1.6391
 6152SOL     OW30091   2.030   4.091   8.989 -0.4569 -0.5667  0.5026
 6152SOL    HW130092   2.081   4.111   9.067  0.7398 -0.4033 -0.3287
 6152SOL    HW230093   1.946   4.137   8.998 -0.5762 -0.3492 -1.5998
 6153SOL     OW30094   2.423   0.636  14.123  0.2385  0.1497 -0.6424
 6153SOL    HW130095   2.376   0.644  14.041  0.2389 -0.8315 -0.7420
 6153SOL    HW230096   2.410   0.727  14.149 -1.2818 -0.6423  1.4225
 6154SOL     OW30097   0.946   1.933   3.717 -0.0693  0.1791  0.3414
 6154SOL    HW130098   0.938   1.880   3.638 -0.4274 -2.2020  1.9868
 6154SOL    HW230099   1.020   1.902   3.769  0.3062  0.9135  0.2472
 6155SOL     OW30100   0.059   4.402  10.789 -0.3028 -0.3648 -0.2094
 6155SOL    HW130101   4.735   4.341  10.834  0.1729 -3.6782 -4.0725
 6155SOL    HW230102   0.009   4.411  10.708  2.2217 -1.1748 -1.8489
 6156SOL     OW30103   1.323   4.711  12.793 -0.3854  0.2287  0.1145
 6156SOL    HW130104   1.301   4.641  12.731 -0.6078  0.5927 -0.2228
 6156SOL    HW230105   1.304   0.053  12.739  1.0808  0.5656  0.0913
 6157SOL     OW30106   4.648   2.708   1.896  0.2696  0.1674 -0.2571
 6157SOL    HW130107   4.576   2.724   1.836  0.1888  0.5687 -0.0532
 6157SOL    HW230108   4.680   2.793   1.924 -1.7582  0.4070  1.3131
 6158SOL     OW30109   1.524   2.232   3.871  0.2039 -0.3968 -0.0706
 6158SOL    HW130110   1.433   2.203   3.865 -0.8724  2.4349  2.2061
 6158SOL    HW230111   1.530   2.284   3.951 -0.5787 -0.0879 -0.2093
 6159SOL     OW30112   2.273   1.754  12.452 -0.3456 -0.3444 -0.6195
 6159SOL    HW130113   2.300   1.832  12.403 -0.2222  0.8967  1.4287
 6159SOL    HW230114   2.357   1.709  12.443  2.0037  3.7516  0.7867
 6160SOL     OW30115   0.306   3.136   6.620 -0.2436  0.0049  0.4818
 6160SOL    HW130116   0.323   3.048   6.586 -0.2173  0.5790 -0.9948
 6160SOL    HW230117   0.378   3.143   6.682  1.8215  0.0198 -1.9399
 6161SOL     OW30118   2.212   1.620   7.950  0.5347  0.2669 -0.1573
 6161SOL    HW130119   2.269   1.634   8.026 -0.1311  2.0351  0.0335
 6161SOL    HW230120   2.244   1.686   7.888 -2.2432  0.8066 -0.9956
 6162SOL     OW30121   0.405   1.741   4.000  0.0410 -1.1262  0.7239
 6162SOL    HW130122   0.405   1.648   3.977 -2.5967 -1.0180  0.2685
 6162SOL    HW230123   0.498   1.754   4.013 -0.3723  1.4434  1.1909
 6163SOL     OW30124   1.648   2.189   3.277 -0.2255 -0.1082 -0.1394
 6163SOL    HW130125   1.687   2.118   3.328  1.3005  0.6813 -0.2138
 6163SOL    HW230126   1.585   2.220   3.341 -1.1407 -1.6070 -0.3012
 6164SOL     OW30127   2.928   2.264   3.015  0.4276  0.1258  0.5545
 6164SOL    HW130128   2.977   2.279   2.934 -1.2691  1.5219 -0.2213
 6164SOL    HW230129   2.976   2.311   3.083 -1.9622  0.6639  1.8591
 6165SOL     OW30130   1.984   0.842   3.121  0.1667  0.0682  0.1626
 6165SOL    HW130131   1.922   0.844   3.048  1.5021 -0.9343 -1.0019
 6165SOL    HW230132   2.013   0.753   3.103  0.7052  0.4552 -0.9116
 6166SOL     OW30133   0.991   1.897  13.490  0.8644  0.0546  0.5337
 6166SOL    HW130134   1.063   1.873  13.433 -0.3050  1.4315 -1.5348
 6166SOL    HW230135   1.022   1.864  13.575  0.6902 -0.3268  0.4503
 6167SOL     OW30136   4.666   2.842  13.248  0.5199  0.6327  1.1219
 6167SOL    HW130137   4.578   2.877  13.262 -0.2850 -1.6648  1.7672
 6167SOL    HW230138   4.718   2.919  13.225 -0.8399  0.6119 -1.9369
 6168SOL     OW30139   2.171   3.446   0.583  0.2688  0.2683 -0.5754
 6168SOL    HW130140   2.224   3.414   0.511  1.8485 -0.7874  1.0507
 6168SOL    HW230141   2.094   3.425   0.530  0.3403  0.0751 -0.6035
 6169SOL     OW30142   1.311   4.674   8.320 -0.3217 -0.1537  0.5775
 6169SOL    HW130143   1.382   4.615   8.295 -0.2763 -0.5137  1.5546
 6169SOL    HW230144   1.345   0.016   8.274 -0.5930 -1.5704 -1.9781
 6170SOL     OW30145   1.026   3.810  17.138  0.3150 -0.0056 -0.2057
 6170SOL    HW130146   1.040   3.890  17.087 -0.0763  1.1560  1.4901
 6170SOL    HW230147   1.072   3.832  17.220  0.4639 -0.0718 -0.2736
 6171SOL     OW30148   0.180   0.076   9.098  0.4972  0.4050  0.3162
 6171SOL    HW130149   0.211   0.042   9.182 -1.4247 -0.6220  0.6068
 6171SOL    HW230150   0.256   0.073   9.040  0.8295  1.4741  0.7037
 6172SOL     OW30151   0.096   4.612   9.326 -0.0092 -0.5275 -0.6915
 6172SOL    HW130152   0.142   4.674   9.383 -0.2384 -0.3762 -0.6725
 6172SOL    HW230153   0.003   4.632   9.338 -0.3436 -1.0244 -2.5419
 6173SOL     OW30154   3.150   4.031   1.334  0.0005  0.2742  0.0100
 6173SOL    HW130155   3.177   4.081   1.411 -1.4219 -0.5829  1.0679
 6173SOL    HW230156   3.202   3.954   1.355 -1.4631 -0.6230  0.3905
 6174SOL     OW30157   1.092   0.342   3.266  0.2300  0.0159  0.3364
 6174SOL    HW130158   1.046   0.283   3.207 -0.4345  2.6112 -1.7618
 6174SOL    HW230159   1.132   0.273   3.319  0.8403 -0.5766 -0.9028
 6175SOL     OW30160   2.306   2.900   4.603 -0.1090  0.0004 -0.0927
 6175SOL    HW130161   2.282   2.828   4.545  2.2166  0.5670 -1.7601
 6175SOL    HW230162   2.391   2.914   4.561  0.6673  0.4527  1.6150
 6176SOL     OW30163   4.423   1.842   3.000 -0.0705  0.4222 -0.1971
 6176SOL    HW130164   4.413   1.861   2.906  0.7787  0.8185 -0.2044
 6176SOL    HW230165   4.332   1.837   3.027 -0.9870 -0.9166 -3.4794
 6177SOL     OW30166   2.363   2.440   1.353  0.7613  0.0618  0.0518
 6177SOL    HW130167   2.351   2.422   1.260  1.0545 -2.2459  0.4489
 6177SOL    HW230168   2.405   2.357   1.376 -2.3028 -1.6791 -0.6243
 6178SOL     OW30169   1.775   4.032   2.347 -0.6149 -0.3671 -0.0116
 6178SOL    HW130170   1.866   4.042   2.320 -0.0515  0.8400  2.4006
 6178SOL    HW230171   1.782   3.940   2.370  0.7725 -0.4284 -0.6828
 6179SOL     OW30172   2.589   4.628   1.537  0.1780  0.0896  0.0070
 6179SOL    HW130173   2.522   4.660   1.476 -0.0772  0.2250  0.3589
 6179SOL    HW230174   2.669   4.678   1.525  0.1639  0.8038  2.8410
 6180SOL     OW30175   2.076   3.281   4.221 -0.1602 -0.1162 -0.0750
 6180SOL    HW130176   2.142   3.307   4.157  1.9512  0.9935  2.5497
 6180SOL    HW230177   2.114   3.200   4.256 -1.6532 -1.4650 -1.6030
 6181SOL     OW30178   2.880   1.124   2.599  0.0936 -0.2580 -0.7485
 6181SOL    HW130179   2.838   1.142   2.515 -0.8566  0.5212 -0.1112
 6181SOL    HW230180   2.837   1.047   2.638 -0.2808  0.1348 -0.3855
 6182SOL     OW30181   0.075   0.812   8.236 -0.1620 -0.2121  0.0415
 6182SOL    HW130182   0.141   0.860   8.286  1.2433 -2.5842  0.4292
 6182SOL    HW230183   0.015   0.879   8.203 -0.5930  0.0489  1.3626
 6183SOL     OW30184   0.720   1.848   7.196  0.7807  0.3529  0.0332
 6183SOL    HW130185   0.701   1.862   7.289  0.3318  0.4998 -0.0841
 6183SOL    HW230186   0.760   1.931   7.170  2.6017 -0.8136 -0.9331
 6184SOL     OW30187   3.633   4.732   6.965  0.0836  0.3932 -0.0586
 6184SOL    HW130188   3.722   4.731   6.931  0.3911  0.0204  0.7598
 6184SOL    HW230189   3.648   0.055   7.040 -1.4236 -2.4559  2.4180
 6185SOL     OW30190   3.760   4.619   3.788 -0.0808 -0.1462 -0.0024
 6185SOL    HW130191   3.837   4.670   3.814  2.9222 -3.8038 -1.8187
 6185SOL    HW230192   3.687   4.662   3.831 -0.8836 -2.1389  0.5936
 6186SOL     OW30193   3.429   3.684   8.511 -0.0463  0.8884 -0.9386
 6186SOL    HW130194   3.519   3.701   8.539 -0.0080 -0.2142 -0.4029
 6186SOL    HW230195   3.449   3.627   8.437  0.4634  0.7057 -0.6565
 6187SOL     OW30196   1.738   3.626   3.184  0.8283  0.2626  0.0604
 6187SOL    HW130197   1.725   3.682   3.108 -1.2948 -0.9318 -0.4565
 6187SOL    HW230198   1.655   3.629   3.232  1.1852  0.7252  0.6492
 6188SOL     OW30199   0.340   1.178   4.147 -0.0915 -0.3728  0.0727
 6188SOL    HW130200   0.351   1.182   4.242 -3.2356 -1.0633  0.4629
 6188SOL    HW230201   0.247   1.180   4.126  0.3310 -0.9808 -1.8174
 6189SOL     OW30202   0.653   0.345   1.102 -0.1466  0.0230  0.3334
 6189SOL    HW130203   0.644   0.329   1.008  1.1980  0.4956  0.1205
 6189SOL    HW230204   0.583   0.292   1.138  0.5024 -0.9241  0.1873
 6190SOL     OW30205   4.239   1.082   7.362  0.0807  0.3602 -0.2341
 6190SOL    HW130206   4.219   0.995   7.396  1.4638 -0.1794 -0.8232
 6190SOL    HW230207   4.328   1.065   7.332 -0.0397  0.5404 -0.6827
 6191SOL     OW30208   0.074   1.789  17.316 -0.4894  0.4021  0.2315
 6191SOL    HW130209   0.038   1.872  17.348  2.5859  0.7381  2.8322
 6191SOL    HW230210   0.091   1.738  17.395 -2.9266  0.3503  0.7042
 6192SOL     OW30211   4.479   3.108  10.741  0.1459 -0.5484  0.1286
 6192SOL    HW130212   4.538   3.174  10.704 -0.0009  0.5237  1.8076
 6192SOL    HW230213   4.457   3.153  10.823 -0.1170 -0.5060  0.0359
 6193SOL     OW30214   0.271   0.138  12.865 -0.2569  0.5482  0.1772
 6193SOL    HW130215   0.209   0.202  12.831  0.0337  0.7445  0.0140
 6193SOL    HW230216   0.332   0.144  12.791 -0.3019 -1.3315 -0.0197
 6194SOL     OW30217   0.953   3.405  13.078  0.0476  0.0257  0.4526
 6194SOL    HW130218   0.936   3.498  13.063 -1.0380 -0.2193  0.2058
 6194SOL    HW230219   0.930   3.359  12.997  1.9783 -0.3744  0.1248
 6195SOL     OW30220   3.252   0.922  13.725  0.2437  0.0801  0.2978
 6195SOL    HW130221   3.185   0.949  13.662  1.3033 -1.2857 -1.4034
 6195SOL    HW230222   3.191   0.869  13.777  0.6993 -2.0111 -1.3389
 6196SOL     OW30223   1.993   4.666  17.048 -0.0604  0.2571  0.5812
 6196SOL    HW130224   1.984   4.704  17.135 -1.3758 -2.9002  1.8376
 6196SOL    HW230225   1.920   4.604  17.048  1.0614 -1.0638  0.0006
 6197SOL     OW30226   2.296   1.528   7.285 -0.2306 -0.5434  0.2670
 6197SOL    HW130227   2.341   1.505   7.367  0.4285  0.1804  0.1024
 6197SOL    HW230228   2.211   1.494   7.311 -0.1282 -1.4177 -0.5434
 6198SOL     OW30229   2.218   0.513   2.844 -0.0632 -0.1283 -0.5626
 6198SOL    HW130230   2.291   0.539   2.900 -0.0064 -1.2459 -0.1142
 6198SOL    HW230231   2.196   0.594   2.798 -2.7160  0.2694  1.4089
 6199SOL     OW30232   2.291   1.844   6.019  0.9681 -0.2258 -0.2041
 6199SOL    HW130233   2.270   1.769   6.075  0.8730 -0.1989 -0.2031
 6199SOL    HW230234   2.210   1.859   5.969  1.0275 -1.0621 -0.5587
 6200SOL     OW30235   0.733   4.114   5.920  0.5472  0.5120  0.3397
 6200SOL    HW130236   0.783   4.175   5.865  0.8863  2.0095  2.3198
 6200SOL    HW230237   0.779   4.030   5.912 -1.5755 -0.6595  0.5353
 6201SOL     OW30238   2.047   0.343  10.238  0.0444 -0.0711 -0.2414
 6201SOL    HW130239   2.040   0.397  10.317 -0.8919  1.1803 -1.1689
 6201SOL    HW230240   1.989   0.271  10.264 -0.2398  0.5682  0.9120
 6202SOL     OW30241   0.358   2.487  17.591  0.4895  0.4369 -0.1585
 6202SOL    HW130242   0.450   2.464  17.582  0.3508 -0.9372  1.9478
 6202SOL    HW230243   0.361   2.576  17.626 -0.2911  0.0756  0.8171
 6203SOL     OW30244   0.950   3.937   3.078  0.3013  0.1703 -0.0236
 6203SOL    HW130245   0.865   3.982   3.073 -0.5449 -1.2531  1.3651
 6203SOL    HW230246   0.935   3.853   3.036  1.2015 -0.2109  0.4188
 6204SOL     OW30247   3.617   3.989   6.335  0.7621  0.3795  0.5711
 6204SOL    HW130248   3.709   3.987   6.362  0.5998  1.1296  1.1840
 6204SOL    HW230249   3.599   4.075   6.297 -0.0471 -0.2586 -0.4927
 6205SOL     OW30250   1.189   3.850  12.501 -0.2075 -0.2193 -0.5850
 6205SOL    HW130251   1.131   3.915  12.542  0.2880  0.0007 -0.2303
 6205SOL    HW230252   1.208   3.799  12.580  0.5672 -0.1660 -0.7389
 6206SOL     OW30253   1.880   3.844   8.971 -0.2254  0.2248 -0.0727
 6206SOL    HW130254   1.844   3.889   9.047 -2.0024  1.5347 -1.6864
 6206SOL    HW230255   1.959   3.810   9.014 -0.3542 -2.3060 -1.8071
 6207SOL     OW30256   1.051   0.450   3.740 -0.0254 -0.2425 -0.0923
 6207SOL    HW130257   0.996   0.386   3.694 -0.4892  0.9897 -1.2706
 6207SOL    HW230258   1.069   0.505   3.664 -0.9344  1.8476  1.2102
 6208SOL     OW30259   2.138   4.286   1.958  0.1344 -0.5556  0.3439
 6208SOL    HW130260   2.191   4.355   1.917  1.2788 -1.0472  1.0080
 6208SOL    HW230261   2.079   4.342   2.008  0.4049 -0.3813  0.4690
 6209SOL     OW30262   0.021   4.397   4.508  0.1178  0.6313  0.1687
 6209SOL    HW130263   0.063   4.346   4.439 -0.4204 -1.2028  1.1953
 6209SOL    HW230264   4.679   4.341   4.515  0.8844 -0.6965 -2.0124
 6210SOL     OW30265   2.597   4.561   3.546 -0.3273 -0.7052 -0.0675
 6210SOL    HW130266   2.670   4.526   3.596  2.2776  0.9620 -2.6980
 6210SOL    HW230267   2.634   4.646   3.523 -0.7234 -0.1698  1.2527
 6211SOL     OW30268   0.259   3.968   4.694  0.0225 -0.1762  0.4445
 6211SOL    HW130269   0.177   4.013   4.714 -1.8854 -3.0237 -0.9393
 6211SOL    HW230270   0.223   3.879   4.694  1.9911 -0.9547 -1.9670
 6212SOL     OW30271   3.077   1.290   4.002 -0.1504 -0.4009  0.1672
 6212SOL    HW130272   3.004   1.344   4.032 -0.1075 -0.3981  0.2644
 6212SOL    HW230273   3.076   1.318   3.910  1.6585  1.9886  0.8876
 6213SOL     OW30274   2.209   0.141   8.837 -0.5926 -0.4532  0.0206
 6213SOL    HW130275   2.225   0.230   8.867  1.1027 -0.7508 -0.0305
 6213SOL    HW230276   2.282   0.087   8.867  0.4509  1.2513  0.5092
 6214SOL     OW30277   1.378   3.653   5.972 -0.0514  0.1144  0.2033
 6214SOL    HW130278   1.374   3.723   5.907 -0.6461  0.9050  1.0756
 6214SOL    HW230279   1.437   3.696   6.035 -0.0223 -0.2160  0.4039
 6215SOL     OW30280   0.360   1.201   4.434 -0.2861 -0.2486  0.1811
 6215SOL    HW130281   0.332   1.110   4.435  1.4344 -0.7711  1.5008
 6215SOL    HW230282   0.394   1.216   4.522 -1.5500  0.4358  0.5419
 6216SOL     OW30283   2.127   2.516   5.943 -0.4363 -0.2464  0.0775
 6216SOL    HW130284   2.142   2.603   5.981 -1.6387  0.8575 -1.9838
 6216SOL    HW230285   2.201   2.476   5.989  1.2881  1.4601 -1.2164
 6217SOL     OW30286   3.785   3.603   9.941 -0.2411 -0.1441  0.4331
 6217SOL    HW130287   3.870   3.625   9.905 -1.9359  1.7980 -2.3892
 6217SOL    HW230288   3.812   3.564  10.024  0.5937  0.1284  0.2846
 6218SOL     OW30289   1.608   1.457   6.017  0.2271  0.3034  0.0544
 6218SOL    HW130290   1.615   1.552   6.023 -0.2464  0.3343  0.0836
 6218SOL    HW230291   1.695   1.419   6.004 -0.4613 -1.4472  0.4898
 6219SOL     OW30292   0.690   3.336   9.037 -0.0208  0.2341  0.8716
 6219SOL    HW130293   0.624   3.336   9.107  1.8274  0.6754  2.6278
 6219SOL    HW230294   0.774   3.334   9.082  0.9105 -1.2391 -0.9402
 6220SOL     OW30295   3.784   0.108   3.065 -0.0013  0.0859  0.4522
 6220SOL    HW130296   3.723   0.063   3.124 -0.1858 -0.2641 -0.0019
 6220SOL    HW230297   3.812   0.180   3.121 -0.2076  0.1396  0.4847
 6221SOL     OW30298   0.410   1.239   2.653  0.6049  0.1866  0.1733
 6221SOL    HW130299   0.375   1.193   2.578  0.5569 -1.9903  1.5355
 6221SOL    HW230300   0.503   1.247   2.633  1.1338 -0.9083  2.1688
 6222SOL     OW30301   3.932   0.609   8.931  0.6221 -0.5879  0.3818
 6222SOL    HW130302   3.969   0.556   8.861 -1.0126 -0.5547 -0.5155
 6222SOL    HW230303   3.979   0.686   8.896 -4.4888  1.7322 -1.3606
 6223SOL     OW30304   2.791   4.463   2.497  0.5254  0.2216  0.1362
 6223SOL    HW130305   2.878   4.465   2.537  0.2509 -0.0967  0.7457
 6223SOL    HW230306   2.785   4.549   2.457  1.1247 -0.0371 -0.5184
 6224SOL     OW30307   2.906   4.059   2.564  0.8722  0.0665  0.5045
 6224SOL    HW130308   2.858   4.037   2.484  1.7836  1.4731 -0.4256
 6224SOL    HW230309   2.859   3.998   2.621  1.0321  1.7223  2.4067
 6225SOL     OW30310   3.541   1.846   9.073 -0.6785  0.0611  0.1054
 6225SOL    HW130311   3.570   1.928   9.114  0.6121 -0.1019 -0.4664
 6225SOL    HW230312   3.596   1.788   9.126 -1.5299 -1.7081 -0.9614
 6226SOL     OW30313   1.013   1.692   4.924 -0.0110  0.1894  0.0097
 6226SOL    HW130314   1.042   1.740   4.847 -1.1199 -1.8088 -1.6564
 6226SOL    HW230315   0.925   1.728   4.940 -0.1451  0.1269 -0.5882
 6227SOL     OW30316   2.121   1.472  17.518 -0.1743 -0.1905 -0.1868
 6227SOL    HW130317   2.066   1.441  17.446 -0.8961 -0.7916  0.6207
 6227SOL    HW230318   2.151   1.555  17.483 -1.1838  0.1119 -0.3368
 6228SOL     OW30319   3.995   1.775   7.071 -0.4082  0.0930 -0.4292
 6228SOL    HW130320   3.949   1.693   7.056  1.1883 -0.6648 -1.1322
 6228SOL    HW230321   4.017   1.786   6.979 -1.0171  1.5716 -0.4060
 6229SOL     OW30322   1.834   4.258   4.400 -0.0097 -0.0126  0.4408
 6229SOL    HW130323   1.811   4.206   4.323 -2.9471  1.3797  0.3383
 6229SOL    HW230324   1.746   4.291   4.420 -0.2243 -0.4806  0.2650
 6230SOL     OW30325   4.718   3.906   2.893  0.0333  0.0616  0.8886
 6230SOL    HW130326   0.055   3.965   2.870 -0.7406 -0.1471 -1.9876
 6230SOL    HW230327   4.708   3.913   2.988  0.1550 -1.9874  1.0586
 6231SOL     OW30328   3.331   1.758   6.134 -0.2482 -0.8693  0.5417
 6231SOL    HW130329   3.243   1.763   6.096  0.5529 -2.3064 -1.5103
 6231SOL    HW230330   3.338   1.665   6.152  0.8789 -1.2286 -1.7554
 6232SOL     OW30331   4.513   4.236  13.090 -0.4558  0.5257  0.3147
 6232SOL    HW130332   4.581   4.177  13.121 -2.1997 -1.0251  1.2076
 6232SOL    HW230333   4.522   4.227  12.996  1.2424  0.4057  0.5000
 6233SOL     OW30334   2.128   2.675   1.141 -0.0321  0.2930 -0.0149
 6233SOL    HW130335   2.188   2.719   1.202  0.4481  0.0789 -0.3301
 6233SOL    HW230336   2.065   2.633   1.200 -0.0065 -1.9502 -1.5738
 6234SOL     OW30337   2.471   3.464  12.924 -0.0037  0.6371  0.1164
 6234SOL    HW130338   2.407   3.460  12.853  1.2037  0.8853 -0.9973
 6234SOL    HW230339   2.549   3.418  12.891 -1.4487 -1.6984 -0.0474
 6235SOL     OW30340   3.399   2.638   1.207 -0.3263 -0.6399  0.4312
 6235SOL    HW130341   3.389   2.676   1.120  1.1733  0.3436  0.6741
 6235SOL    HW230342   3.486   2.599   1.197  0.1901  0.2129  1.4736
 6236SOL     OW30343   0.451   3.260   4.770  0.1709 -0.3241  0.2822
 6236SOL    HW130344   0.406   3.316   4.708  2.1885  1.1740  0.1551
 6236SOL    HW230345   0.532   3.312   4.775 -0.8675  1.3862 -1.0888
 6237SOL     OW30346   3.039   0.952   7.055  0.2481  0.2022 -0.7634
 6237SOL    HW130347   3.127   0.988   7.071 -0.3153  0.4357  1.8601
 6237SOL    HW230348   2.990   1.030   7.029  2.4054  1.2228 -1.7551
 6238SOL     OW30349   2.952   1.852   2.940 -0.0276 -0.4610 -0.1921
 6238SOL    HW130350   2.884   1.911   2.908 -0.7172 -1.4347 -0.5228
 6238SOL    HW230351   2.904   1.797   3.001 -1.0123 -0.9617 -1.4046
 6239SOL     OW30352   3.054   3.483   3.731  0.0081 -0.6386 -0.2312
 6239SOL    HW130353   3.041   3.425   3.657 -3.2528 -0.1379 -0.0750
 6239SOL    HW230354   2.965   3.509   3.755  1.1374  1.3999  1.7703
 6240SOL     OW30355   3.134   2.958   9.147 -0.1948  0.5428 -0.2982
 6240SOL    HW130356   3.049   2.993   9.175 -0.2837  0.1179 -0.0324
 6240SOL    HW230357   3.119   2.868   9.179  2.0080 -0.2955 -1.6537
 6241SOL     OW30358   1.752   4.046   7.733  0.0284 -0.7042 -0.3553
 6241SOL    HW130359   1.744   3.954   7.710 -0.1789 -1.1711  1.5752
 6241SOL    HW230360   1.662   4.076   7.739  0.2243 -0.4157  1.1287
 6242SOL     OW30361   0.272   2.673  11.316  0.0857  0.3729  0.3284
 6242SOL    HW130362   0.219   2.602  11.352 -0.2959  0.9399  0.8824
 6242SOL    HW230363   0.339   2.614  11.282  0.8903  1.4186  0.0849
 6243SOL     OW30364   1.911   1.281   4.763  0.0591 -0.6470 -0.1129
 6243SOL    HW130365   1.858   1.240   4.695 -0.4710  0.3774 -0.3172
 6243SOL    HW230366   1.956   1.205   4.799  3.3213  0.9110 -0.8888
 6244SOL     OW30367   2.392   2.096   7.929 -0.4516  0.5681 -0.6683
 6244SOL    HW130368   2.391   2.082   7.834  0.0888  1.5958 -0.8232
 6244SOL    HW230369   2.301   2.111   7.955 -0.4870  0.5636 -0.7889
 6245SOL     OW30370   2.704   1.589  15.416  0.6971  0.0237 -0.1956
 6245SOL    HW130371   2.746   1.608  15.500  0.7508  1.3062 -0.5187
 6245SOL    HW230372   2.779   1.560  15.365  0.7671  1.7285 -1.0528
 6246SOL     OW30373   1.931   2.296  15.923  0.4018  0.4449 -0.3198
 6246SOL    HW130374   2.000   2.273  15.986 -0.1434  0.1822  0.1833
 6246SOL    HW230375   1.927   2.391  15.925 -1.8290  0.3177  1.1724
 6247SOL     OW30376   3.180   4.153   4.757  0.4000  0.0331  0.2325
 6247SOL    HW130377   3.172   4.214   4.831  1.0901  1.3178 -0.7565
 6247SOL    HW230378   3.155   4.073   4.804  0.7536 -0.9248 -1.2302
 6248SOL     OW30379   4.319   4.181   8.861 -0.2975 -0.7696 -0.3130
 6248SOL    HW130380   4.247   4.200   8.922 -1.3547 -1.8005 -1.2295
 6248SOL    HW230381   4.279   4.194   8.775  1.9049  1.2998 -1.0040
 6249SOL     OW30382   1.014   1.674   2.310 -0.2812  0.2040 -0.2974
 6249SOL    HW130383   0.941   1.696   2.252 -0.1469  0.0884 -0.5107
 6249SOL    HW230384   0.981   1.607   2.369 -2.0842  0.0717 -1.4515
 6250SOL     OW30385   0.256   1.407   8.637  0.4941 -0.2609 -0.5147
 6250SOL    HW130386   0.233   1.462   8.712 -0.3705 -2.0520  0.5205
 6250SOL    HW230387   0.180   1.394   8.581  0.5836  1.0999 -0.9403
 6251SOL     OW30388   0.163   4.560   1.371  0.5538  0.4749  0.7222
 6251SOL    HW130389   0.129   4.643   1.405 -1.7062 -0.7111  1.3885
 6251SOL    HW230390   0.092   4.495   1.370 -0.4683  1.5977 -0.9499
 6252SOL     OW30391   0.857   1.470   7.492  0.5155 -0.1079  0.2524
 6252SOL    HW130392   0.856   1.376   7.510  0.9353  0.3890  2.8208
 6252SOL    HW230393   0.768   1.488   7.463  1.2440  0.8145 -1.4268
 6253SOL     OW30394   3.316   0.799  16.522  1.1275 -0.5054  0.0187
 6253SOL    HW130395   3.310   0.721  16.576 -0.2248  0.1764  0.8309
 6253SOL    HW230396   3.391   0.767  16.472 -0.3148  0.9635 -3.1188
 6254SOL     OW30397   1.609   1.597  13.149 -0.2092  0.1929 -0.9593
 6254SOL    HW130398   1.686   1.608  13.205 -0.4126  0.9859 -0.8353
 6254SOL    HW230399   1.622   1.506  13.122  2.7237  0.4204 -0.3277
 6255SOL     OW30400   1.914   0.490   2.405 -0.2467 -0.2069  0.2518
 6255SOL    HW130401   1.905   0.474   2.499  0.7308 -2.1757  0.0020
 6255SOL    HW230402   1.828   0.463   2.370 -0.4398  0.5164  0.1674
 6256SOL     OW30403   3.840   1.862   5.734  0.1224 -0.2162  0.5322
 6256SOL    HW130404   3.837   1.897   5.645  2.1451  1.7426  1.2271
 6256SOL    HW230405   3.927   1.823   5.724  0.3337  0.4464 -0.1822
 6257SOL     OW30406   2.833   1.883  17.210 -0.5086  0.5375 -0.3101
 6257SOL    HW130407   2.854   1.917  17.296 -1.5211  2.0756 -0.6646
 6257SOL    HW230408   2.810   1.791  17.224  1.6526  0.4347  2.4550
 6258SOL     OW30409   3.270   3.618  10.098  0.9388 -0.3937 -0.3056
 6258SOL    HW130410   3.230   3.617  10.185 -0.9878 -0.6527 -1.1747
 6258SOL    HW230411   3.363   3.624  10.119  0.7138 -1.0002  0.9012
 6259SOL     OW30412   1.563   4.316   5.321 -0.6986 -0.5890  0.0366
 6259SOL    HW130413   1.584   4.228   5.289 -0.9256 -0.0245 -1.6665
 6259SOL    HW230414   1.487   4.293   5.375 -0.8140 -0.3937 -0.0434
 6260SOL     OW30415   1.132   1.018   0.617 -0.3452  0.4866  0.1130
 6260SOL    HW130416   1.039   0.999   0.622 -0.0896 -0.7144  0.2610
 6260SOL    HW230417   1.122   1.112   0.601 -0.2567  0.3167 -0.9828
 6261SOL     OW30418   2.786   0.362   7.073 -0.0299  0.1628 -0.2599
 6261SOL    HW130419   2.782   0.401   7.161  0.8595 -1.0671  0.3185
 6261SOL    HW230420   2.718   0.295   7.082  0.6113 -0.1794  2.0138
 6262SOL     OW30421   0.342   2.238   6.074  0.1092  0.4116 -0.1967
 6262SOL    HW130422   0.425   2.276   6.046 -0.1578  0.3539 -1.0770
 6262SOL    HW230423   0.300   2.228   5.989 -0.3768  0.9010 -0.0183
 6263SOL     OW30424   3.719   3.314  14.147  0.3844 -0.5211  0.4125
 6263SOL    HW130425   3.757   3.323  14.234  0.2314  1.3050  0.2903
 6263SOL    HW230426   3.732   3.223  14.123 -0.7157 -0.9246  1.3475
 6264SOL     OW30427   2.523   0.814  14.845  0.2088 -0.5707 -0.1049
 6264SOL    HW130428   2.598   0.796  14.789 -0.4696  1.9752 -1.8268
 6264SOL    HW230429   2.552   0.771  14.926 -2.7174 -0.5533  0.9667
 6265SOL     OW30430   2.779   0.019  14.897 -0.2620  0.0505 -0.1282
 6265SOL    HW130431   2.808   4.666  14.924 -0.3979  0.1956  0.4766
 6265SOL    HW230432   2.859   0.061  14.866  0.8175 -2.5436 -0.8464
 6266SOL     OW30433   3.543   1.805   7.784 -0.7805  0.2862 -0.4000
 6266SOL    HW130434   3.517   1.790   7.875 -0.3469 -0.0332 -0.3279
 6266SOL    HW230435   3.595   1.729   7.758 -1.8601 -0.0852 -1.5248
 6267SOL     OW30436   1.315   0.323  13.219  0.6903  0.1751 -0.1028
 6267SOL    HW130437   1.379   0.298  13.152 -0.5802  0.7358 -1.5010
 6267SOL    HW230438   1.331   0.255  13.285 -0.5409  1.0617  1.1082
 6268SOL     OW30439   3.491   1.823   6.430 -0.5278 -0.4449  0.0207
 6268SOL    HW130440   3.416   1.875   6.400  0.6661  1.1133 -0.2700
 6268SOL    HW230441   3.565   1.854   6.378  0.4793 -1.9527  0.5594
 6269SOL     OW30442   3.556   0.685  15.867 -0.1314  0.2135  0.4327
 6269SOL    HW130443   3.572   0.758  15.927  0.2907  1.6981 -1.4994
 6269SOL    HW230444   3.511   0.735  15.799  1.1226  1.5956  0.6163
 6270SOL     OW30445   1.129   3.307   8.089  0.0471 -0.2740 -0.1957
 6270SOL    HW130446   1.158   3.245   8.156  1.0716 -2.7789 -2.9413
 6270SOL    HW230447   1.104   3.378   8.146 -1.2871 -0.9900  0.1036
 6271SOL     OW30448   1.456   3.925   3.856  0.1422 -0.2386  0.7884
 6271SOL    HW130449   1.473   3.835   3.828  1.7885  0.2067  0.3993
 6271SOL    HW230450   1.504   3.965   3.785  0.7875 -1.3498  0.5954
 6272SOL     OW30451   4.147   2.025   1.605  0.0722  0.5807  0.5609
 6272SOL    HW130452   4.242   2.018   1.601 -0.0208 -0.8839  0.6615
 6272SOL    HW230453   4.117   1.960   1.541  0.0266 -1.5064  2.6816
 6273SOL     OW30454   2.394   1.411   8.993 -0.1093  0.3426 -0.1577
 6273SOL    HW130455   2.423   1.322   9.014 -0.2723  0.8953  2.3695
 6273SOL    HW230456   2.337   1.393   8.918  1.4335 -1.2980 -0.9278
 6274SOL     OW30457   2.282   3.440  14.699 -0.3938  0.1407 -0.8242
 6274SOL    HW130458   2.264   3.360  14.650 -0.7162  0.2489 -0.8838
 6274SOL    HW230459   2.347   3.480  14.641  0.3000  1.1807  0.6399
 6275SOL     OW30460   3.055   3.753  17.181 -0.5012 -0.1053  0.8723
 6275SOL    HW130461   3.005   3.834  17.193  0.4265  0.5171  0.5678
 6275SOL    HW230462   3.069   3.719  17.270  0.4787 -4.5929 -1.0039
 6276SOL     OW30463   0.014   2.778  11.744 -0.1017  0.0049  0.4318
 6276SOL    HW130464   0.047   2.845  11.685  0.7079  1.0780  2.1164
 6276SOL    HW230465   0.063   2.704  11.707 -0.7117 -0.0753 -0.2226
 6277SOL     OW30466   3.387   2.642  12.251  0.0410 -0.3004  0.3211
 6277SOL    HW130467   3.454   2.589  12.295  0.5935  0.4260  0.3529
 6277SOL    HW230468   3.308   2.621  12.300 -0.1608 -1.1836 -0.3826
 6278SOL     OW30469   4.475   4.478   2.629  0.0623  0.1205  0.4088
 6278SOL    HW130470   4.472   4.469   2.724  0.1996 -0.8152  0.3189
 6278SOL    HW230471   4.498   4.387   2.610  0.4836  1.0358 -3.6469
 6279SOL     OW30472   0.070   4.436   5.957 -0.4135 -0.6242  0.1642
 6279SOL    HW130473   0.084   4.505   5.891  1.1216 -1.4588 -0.3719
 6279SOL    HW230474   0.061   4.362   5.897 -0.0533 -0.1070 -0.5436
 6280SOL     OW30475   0.741   4.319   8.371  0.0248 -0.4906  0.0946
 6280SOL    HW130476   0.669   4.268   8.334 -0.4497  0.2238  0.0379
 6280SOL    HW230477   0.719   4.406   8.338  0.3397  0.0822  1.3969
 6281SOL     OW30478   1.979   1.395   5.026  0.5581 -0.0731  0.9546
 6281SOL    HW130479   1.967   1.369   4.934 -1.2345 -1.0925  1.4883
 6281SOL    HW230480   1.890   1.420   5.051  0.3107  0.6655 -0.6448
 6282SOL     OW30481   3.724   0.793   5.587  0.6628 -0.2748 -0.3728
 6282SOL    HW130482   3.648   0.851   5.590 -0.1020 -1.5234  4.2964
 6282SOL    HW230483   3.696   0.715   5.635 -1.2319  1.0579  0.6885
 6283SOL     OW30484   0.579   3.129   4.430  0.5180  0.0762 -0.2264
 6283SOL    HW130485   0.619   3.210   4.461 -0.2013 -0.1457  1.2488
 6283SOL    HW230486   0.632   3.063   4.473 -2.1553 -0.5639  2.0574
 6284SOL     OW30487   2.834   0.743   5.202 -0.6648 -0.0500  0.0835
 6284SOL    HW130488   2.904   0.747   5.137 -0.2492  0.6282  0.5771
 6284SOL    HW230489   2.840   0.829   5.243  0.9611  1.5590 -3.4639
 6285SOL     OW30490   4.441   0.414   9.876 -0.5924  0.3460 -0.6436
 6285SOL    HW130491   4.431   0.492   9.930 -0.8211 -0.5948  0.6673
 6285SOL    HW230492   4.466   0.353   9.946  0.2317  0.0462 -1.1912
 6286SOL     OW30493   4.178   2.238   8.742  0.0127 -0.1984  0.2148
 6286SOL    HW130494   4.205   2.323   8.776  0.5187 -0.8677  1.4854
 6286SOL    HW230495   4.190   2.186   8.820  0.4730  1.8113  1.4850
 6287SOL     OW30496   4.415   1.893  15.015  0.3119  0.1068  0.1933
 6287SOL    HW130497   4.491   1.937  15.053  0.6679 -0.5227  0.1987
 6287SOL    HW230498   4.404   1.824  15.080 -1.8003  0.3846  0.1325
 6288SOL     OW30499   0.052   3.818   3.548 -0.3968  0.0135  0.3680
 6288SOL    HW130500   0.124   3.860   3.500 -0.4300  0.6495  0.8650
 6288SOL    HW230501   0.052   3.735   3.501 -2.0824  0.5950 -0.6741
 6289SOL     OW30502   1.964   1.224   9.787 -1.1048 -0.4343  0.0246
 6289SOL    HW130503   1.980   1.165   9.861 -0.1724 -0.8627 -0.5140
 6289SOL    HW230504   1.924   1.159   9.730  1.7987 -1.9224 -0.3712
 6290SOL     OW30505   3.686   1.781  13.582 -0.5047 -0.0829  0.1779
 6290SOL    HW130506   3.715   1.832  13.657 -3.8830  1.1091  0.6851
 6290SOL    HW230507   3.620   1.844  13.551 -0.6629 -0.5218 -0.3736
 6291SOL     OW30508   3.715   1.586   7.712  0.1055 -0.3903 -0.5870
 6291SOL    HW130509   3.789   1.562   7.767 -0.3303 -0.0558  0.1510
 6291SOL    HW230510   3.755   1.559   7.629  0.1179 -2.1005 -0.0207
 6292SOL     OW30511   4.569   4.443  15.389 -0.1959 -0.0985  0.3743
 6292SOL    HW130512   4.643   4.400  15.431  1.4027  0.4943 -1.8233
 6292SOL    HW230513   4.528   4.482  15.466 -0.0899 -1.1058  0.9372
 6293SOL     OW30514   0.396   0.630   2.565  0.1625  0.3951 -0.4564
 6293SOL    HW130515   0.487   0.602   2.568 -0.0248 -0.1401  0.3997
 6293SOL    HW230516   0.345   0.557   2.600 -0.8483  1.2595 -0.0988
 6294SOL     OW30517   2.072   1.306  13.106  0.1818  0.2388  0.0206
 6294SOL    HW130518   1.985   1.342  13.123  0.1863  0.1414  0.2589
 6294SOL    HW230519   2.059   1.266  13.020 -2.1367  0.6757  0.1592
 6295SOL     OW30520   1.728   3.603  16.754 -0.3948  0.7917 -0.3678
 6295SOL    HW130521   1.819   3.591  16.729 -0.7964 -0.1034 -1.4091
 6295SOL    HW230522   1.679   3.618  16.672  0.8096  1.1047 -1.0320
 6296SOL     OW30523   3.718   0.508  10.701 -0.4924  0.4171  0.0638
 6296SOL    HW130524   3.688   0.585  10.651 -2.1828  0.1598  0.7062
 6296SOL    HW230525   3.636   0.465  10.724 -1.8553  1.9747 -1.8359
 6297SOL     OW30526   0.308   4.356   4.120  0.5345  0.1027 -0.3312
 6297SOL    HW130527   0.306   4.452   4.113 -1.8189 -0.0467 -1.6102
 6297SOL    HW230528   0.308   4.322   4.030 -2.5038 -2.1199  0.4981
 6298SOL     OW30529   4.307   2.726  13.974  0.1059  0.2388  0.0153
 6298SOL    HW130530   4.252   2.658  13.937  0.0799  1.7402 -2.7055
 6298SOL    HW230531   4.390   2.680  13.978 -0.2171 -0.1193  2.8642
 6299SOL     OW30532   1.139   2.924  11.382  0.2032 -0.3554  0.3416
 6299SOL    HW130533   1.133   3.011  11.423  0.5187 -0.3449  0.3667
 6299SOL    HW230534   1.226   2.940  11.345  0.0921 -0.6903 -0.0601
 6300SOL     OW30535   3.379   4.632   5.333 -0.6371 -0.6214 -0.6644
 6300SOL    HW130536   3.334   4.579   5.267  0.8897 -0.2119 -2.0376
 6300SOL    HW230537   3.428   4.693   5.278  0.6404  2.3517  3.8609
 6301SOL     OW30538   1.341   1.351   8.424 -0.2286  0.0023  0.3346
 6301SOL    HW130539   1.433   1.358   8.397 -0.4655 -2.0070 -0.9607
 6301SOL    HW230540   1.301   1.341   8.338 -0.9810  0.6694  0.5996
 6302SOL     OW30541   4.238   2.279   8.116 -0.2795  0.1740  0.0986
 6302SOL    HW130542   4.228   2.299   8.022 -1.7125 -0.4844  0.1117
 6302SOL    HW230543   4.159   2.320   8.150  0.6306  0.7856  1.4965
 6303SOL     OW30544   0.252   3.939   7.563  0.2478 -0.3398  0.4734
 6303SOL    HW130545   0.164   3.920   7.530  0.4757 -0.7187  0.0793
 6303SOL    HW230546   0.297   3.996   7.501 -0.6161  1.1227  1.1996
 6304SOL     OW30547   0.210   1.511   3.683  0.1114 -0.1879 -0.4126
 6304SOL    HW130548   0.291   1.518   3.633 -0.0946 -2.3953 -1.0365
 6304SOL    HW230549   0.140   1.500   3.618  2.0712 -0.6449 -2.4067
 6305SOL     OW30550   4.602   0.986   4.184 -0.3310  0.1981  0.2224
 6305SOL    HW130551   4.561   1.026   4.261  0.3091 -1.5298  1.4700
 6305SOL    HW230552   4.655   1.060   4.155  1.7042 -1.1740  0.4027
 6306SOL     OW30553   2.907   3.850   6.457  0.2847 -0.2868 -0.6306
 6306SOL    HW130554   2.976   3.811   6.511  1.8736  1.7998 -1.1220
 6306SOL    HW230555   2.909   3.939   6.493 -0.6557 -0.4897 -0.0928
 6307SOL     OW30556   3.185   2.676   2.284  0.0467  0.2782  0.1699
 6307SOL    HW130557   3.191   2.764   2.320  0.7483  0.4993 -0.4903
 6307SOL    HW230558   3.194   2.691   2.190 -0.7598  1.1605  0.2324
 6308SOL     OW30559   2.477   4.084   2.312 -0.3077  0.2741 -0.2712
 6308SOL    HW130560   2.497   4.146   2.382 -1.7146  0.6987 -0.2491
 6308SOL    HW230561   2.555   4.029   2.316 -0.8837 -0.3378  2.6586
 6309SOL     OW30562   4.099   0.599  14.421  0.2773 -0.2148 -0.0920
 6309SOL    HW130563   4.150   0.680  14.422 -2.7099  1.6569  0.4427
 6309SOL    HW230564   4.108   0.586  14.326 -2.8604  1.3078 -0.6072
 6310SOL     OW30565   4.576   4.263   5.729 -0.7921  0.4516 -0.2655
 6310SOL    HW130566   4.500   4.215   5.696 -1.0741  1.4869 -1.1170
 6310SOL    HW230567   4.560   4.357   5.720 -3.6634 -0.0687 -0.6891
 6311SOL     OW30568   2.878   1.699   8.232 -0.0665  0.3452  0.2757
 6311SOL    HW130569   2.881   1.609   8.264 -1.4435 -0.2857 -1.3500
 6311SOL    HW230570   2.954   1.738   8.276  0.2151 -0.0051  0.1094
 6312SOL     OW30571   0.467   0.132   5.470 -0.3342 -0.1486 -0.6095
 6312SOL    HW130572   0.539   0.192   5.490 -0.7914  0.9633 -2.3408
 6312SOL    HW230573   0.511   0.049   5.451  0.0488 -0.0458 -0.1774
 6313SOL     OW30574   0.537   2.126   8.034  0.3473  0.7942  0.3515
 6313SOL    HW130575   0.576   2.101   8.118 -0.3498  1.3719  0.8535
 6313SOL    HW230576   0.609   2.134   7.972  0.0128 -3.8913 -0.6637
 6314SOL     OW30577   3.498   3.706  10.200 -0.3428  0.4215 -0.1993
 6314SOL    HW130578   3.549   3.626  10.203  0.2754  0.8823  1.7665
 6314SOL    HW230579   3.561   3.777  10.192 -1.2415  1.2449 -0.0709
 6315SOL     OW30580   4.123   1.780   5.727 -0.1907  0.2940 -0.3832
 6315SOL    HW130581   4.202   1.831   5.748  1.5470 -1.9926 -1.3633
 6315SOL    HW230582   4.130   1.701   5.780  0.5213  0.5223 -0.1332
 6316SOL     OW30583   1.994   0.959   3.782 -0.4736 -0.2131  0.0973
 6316SOL    HW130584   1.915   0.944   3.730  0.7307 -0.2510 -1.7541
 6316SOL    HW230585   1.990   1.054   3.790 -1.1128 -0.0511 -2.1587
 6317SOL     OW30586   1.140   1.110  11.498 -0.7119  0.2359 -0.2301
 6317SOL    HW130587   1.076   1.124  11.567  0.0601 -1.4299  0.8367
 6317SOL    HW230588   1.150   1.016  11.513 -0.0036  0.3319 -0.0824
 6318SOL     OW30589   3.856   2.482   2.702 -0.0867  0.8748 -0.4003
 6318SOL    HW130590   3.807   2.561   2.725 -1.6807  0.1705 -1.3436
 6318SOL    HW230591   3.826   2.473   2.611 -2.0510 -0.6297  0.3929
 6319SOL     OW30592   4.462   3.498   5.339  0.4556 -0.1218  0.2859
 6319SOL    HW130593   4.371   3.514   5.316 -0.0422  0.4995  2.6639
 6319SOL    HW230594   4.497   3.498   5.250 -0.1743  0.9959  0.0464
 6320SOL     OW30595   4.101   1.873  14.944 -0.6612 -0.3143 -0.0195
 6320SOL    HW130596   4.142   1.955  14.916  0.6482 -1.8533 -2.7242
 6320SOL    HW230597   4.166   1.837  15.004 -0.1088  2.5874  1.1360
 6321SOL     OW30598   0.710   2.152  11.845 -0.2447 -0.4461 -0.7318
 6321SOL    HW130599   0.682   2.097  11.772 -0.3291 -1.0343 -0.2619
 6321SOL    HW230600   0.696   2.091  11.918  3.9411 -1.7161 -0.9936
 6322SOL     OW30601   4.442   2.052   9.299 -0.1046 -0.4182 -0.0586
 6322SOL    HW130602   4.382   2.028   9.369 -0.5462 -1.6500 -0.8476
 6322SOL    HW230603   4.460   2.144   9.317  0.6643 -0.5909  0.0732
 6323SOL     OW30604   1.579   0.911   7.790  0.1154 -0.2536 -0.5481
 6323SOL    HW130605   1.574   1.004   7.770  1.4590 -0.2755 -1.0353
 6323SOL    HW230606   1.671   0.909   7.816  0.5698 -1.5210 -2.2006
 6324SOL     OW30607   3.902   4.684   2.044  0.7535 -0.0246 -0.1592
 6324SOL    HW130608   3.972   4.710   2.103  0.4260  0.4343  0.0286
 6324SOL    HW230609   3.941   4.609   2.000 -0.3788  0.7674 -2.5114
 6325SOL     OW30610   0.208   0.192   5.356  0.0544  0.7614 -0.2421
 6325SOL    HW130611   0.222   0.206   5.262  0.2893 -0.0293 -0.3247
 6325SOL    HW230612   0.295   0.175   5.391  0.6037  0.6829 -1.6627
 6326SOL     OW30613   4.036   1.773  14.578 -0.0028  0.4694  0.1097
 6326SOL    HW130614   4.085   1.853  14.597  0.2098  0.1418  0.9992
 6326SOL    HW230615   4.060   1.750  14.489  0.8331 -0.2377  0.5084
 6327SOL     OW30616   4.134   4.218   7.874  0.5011  0.0668  0.0520
 6327SOL    HW130617   4.142   4.282   7.803  0.3085  0.1181  0.0752
 6327SOL    HW230618   4.041   4.217   7.897  0.9183 -1.6824  1.6617
 6328SOL     OW30619   1.863   3.068   2.548 -0.4599  0.0469 -0.2977
 6328SOL    HW130620   1.836   3.159   2.558  1.3493  0.7550 -1.8624
 6328SOL    HW230621   1.796   3.014   2.590  1.4602 -2.2417 -0.2077
 6329SOL     OW30622   2.783   0.240   9.873  0.0683 -0.0159 -0.2223
 6329SOL    HW130623   2.822   0.153   9.877 -2.0661 -0.8914  1.4345
 6329SOL    HW230624   2.729   0.228   9.795 -0.5007 -0.7211  0.2893
 6330SOL     OW30625   2.848   1.651   9.182 -0.0135 -0.6099 -0.3050
 6330SOL    HW130626   2.934   1.658   9.141  0.5362  2.1792  1.3304
 6330SOL    HW230627   2.847   1.720   9.249  2.0681  0.4059 -1.3061
 6331SOL     OW30628   4.658   4.651   7.284  0.4344 -0.6828  0.0425
 6331SOL    HW130629   4.574   4.606   7.291 -0.2721  0.4964 -0.9243
 6331SOL    HW230630   4.674   4.646   7.189  1.4094  3.2758  0.0079
 6332SOL     OW30631   3.319   2.925  13.406 -0.0454 -0.4019  0.1577
 6332SOL    HW130632   3.390   2.963  13.457  0.4479 -3.0922  1.4679
 6332SOL    HW230633   3.377   2.903  13.332 -0.8475 -0.8278 -0.3401
 6333SOL     OW30634   1.915   1.468   4.076 -0.4768 -0.2493  0.1794
 6333SOL    HW130635   1.940   1.541   4.019 -0.9945  0.2770  0.6239
 6333SOL    HW230636   1.836   1.502   4.118 -0.4309 -2.3097  1.9646
 6334SOL     OW30637   1.869   3.580  12.389  0.2111 -0.1154  0.1650
 6334SOL    HW130638   1.781   3.588  12.353  0.6620 -3.0723 -1.6472
 6334SOL    HW230639   1.857   3.557  12.481 -0.0578 -0.7900 -0.0341
 6335SOL     OW30640   2.947   3.268   4.479  0.3910 -0.4279 -0.0329
 6335SOL    HW130641   3.011   3.337   4.493 -0.2939  0.0772  0.6044
 6335SOL    HW230642   3.001   3.221   4.415 -0.7770 -2.4399  0.4277
 6336SOL     OW30643   0.346   3.902   2.197 -0.3584 -0.6634 -0.4461
 6336SOL    HW130644   0.317   3.983   2.239 -1.1200 -0.9273 -0.4622
 6336SOL    HW230645   0.265   3.851   2.199  0.0423 -1.3257 -1.2676
 6337SOL     OW30646   1.839   4.431   7.993 -0.0581  0.7484 -0.1987
 6337SOL    HW130647   1.877   4.519   7.994 -2.3339  1.7293  0.3926
 6337SOL    HW230648   1.860   4.416   7.900  1.1958 -1.7288  0.5025
 6338SOL     OW30649   2.452   0.512   8.537  0.8277  0.4721  0.3850
 6338SOL    HW130650   2.384   0.504   8.604 -0.4172  0.2201 -0.9253
 6338SOL    HW230651   2.414   0.476   8.457 -0.0817 -1.3227  1.6153
 6339SOL     OW30652   3.838   3.616   5.008  0.1397 -0.5154  0.1099
 6339SOL    HW130653   3.750   3.651   4.991 -0.3421 -1.7339  0.0925
 6339SOL    HW230654   3.836   3.562   5.087  1.5054 -0.7623 -0.0334
 6340SOL     OW30655   0.078   3.467   1.070  0.8887  1.6055 -0.0482
 6340SOL    HW130656   0.097   3.384   1.026 -0.6403  0.7502  0.9048
 6340SOL    HW230657   0.162   3.496   1.105  0.5267 -0.0527  2.1753
 6341SOL     OW30658   0.487   1.415   9.924 -0.1243  0.8110  0.4359
 6341SOL    HW130659   0.511   1.507   9.932 -2.1965  1.3527  0.5445
 6341SOL    HW230660   0.428   1.401   9.998  1.1710 -0.9058  1.1216
 6342SOL     OW30661   0.552   0.486   9.315 -0.0243 -0.2910 -0.1162
 6342SOL    HW130662   0.468   0.445   9.295  0.2176 -0.8040 -0.0778
 6342SOL    HW230663   0.598   0.402   9.322  3.6623  1.8054  1.0998
 6343SOL     OW30664   0.659   4.256   4.554  0.0953  0.4258  0.4322
 6343SOL    HW130665   0.702   4.177   4.520 -2.0863 -0.0290 -1.2382
 6343SOL    HW230666   0.734   4.314   4.539 -0.3326  1.3115  1.7660
 6344SOL     OW30667   2.308   4.496   1.857  0.0756 -0.5305  0.2877
 6344SOL    HW130668   2.309   4.528   1.767 -1.4183  0.1116  0.4893
 6344SOL    HW230669   2.366   4.558   1.902  1.2004 -0.5039 -1.1937
 6345SOL     OW30670   0.254   2.054   1.917 -0.3016  0.7179  0.7571
 6345SOL    HW130671   0.316   2.110   1.870 -1.8176  1.1871 -0.6630
 6345SOL    HW230672   0.268   2.093   2.004  1.6860 -1.8757  1.6295
 6346SOL     OW30673   4.285   1.041   0.474 -0.0400  0.3425  0.1205
 6346SOL    HW130674   4.230   0.966   0.450 -0.1599 -0.0190  1.5349
 6346SOL    HW230675   4.326   1.003   0.552 -0.6903  0.0198  0.3031
 6347SOL     OW30676   2.496   3.616   3.488  0.5356  0.5765  0.2453
 6347SOL    HW130677   2.416   3.573   3.458 -1.1493  1.5988  3.2645
 6347SOL    HW230678   2.477   3.709   3.480  2.7837  0.9617 -0.5929
 6348SOL     OW30679   0.481   1.719   4.996 -0.6561 -0.0048 -0.5384
 6348SOL    HW130680   0.448   1.780   5.062  1.8290 -1.3172  1.9231
 6348SOL    HW230681   0.410   1.720   4.932  0.8463 -3.5067 -2.2722
 6349SOL     OW30682   0.027   1.494   2.452  0.3462  0.0482  0.1122
 6349SOL    HW130683   0.072   1.411   2.471  2.5482  0.9184 -1.3213
 6349SOL    HW230684   4.722   1.516   2.536 -0.2385 -1.5501  0.2639
 6350SOL     OW30685   1.635   1.250   5.753 -0.1312  0.3489  0.4471
 6350SOL    HW130686   1.706   1.206   5.707 -1.3188 -1.1022 -0.0024
 6350SOL    HW230687   1.675   1.260   5.840 -3.4309  0.6546  1.9271
 6351SOL     OW30688   1.164   4.702  15.193 -0.0103  0.3500  0.2267
 6351SOL    HW130689   1.112   0.002  15.266  0.5972  1.5773  0.0736
 6351SOL    HW230690   1.180   0.047  15.144  1.3861  0.7819  1.3981
 6352SOL     OW30691   1.934   4.410   7.273  0.3355  0.2278  0.1719
 6352SOL    HW130692   1.891   4.376   7.351 -1.1720  0.9650 -0.3280
 6352SOL    HW230693   2.025   4.390   7.295  0.1329  1.4741  2.1179
 6353SOL     OW30694   4.142   1.709   7.648 -0.3516  0.2563 -0.8571
 6353SOL    HW130695   4.159   1.672   7.735 -0.6407 -1.9150 -1.7206
 6353SOL    HW230696   4.091   1.788   7.665 -0.5778  0.2364 -1.4502
 6354SOL     OW30697   4.161   2.555   5.260 -0.0116 -0.1627  0.2716
 6354SOL    HW130698   4.208   2.636   5.237  1.3750 -0.9384  0.4039
 6354SOL    HW230699   4.237   2.498   5.262  2.4226  3.0810  0.9213
 6355SOL     OW30700   2.920   1.157   3.283 -0.1501  0.7010 -0.3011
 6355SOL    HW130701   2.836   1.188   3.249 -0.3838  1.5659  1.0516
 6355SOL    HW230702   2.914   1.062   3.270 -0.3670  0.7557 -0.5834
 6356SOL     OW30703   4.670   1.814   4.388 -0.1110  0.1109 -0.0789
 6356SOL    HW130704   4.665   1.893   4.335 -0.1827  0.5432  0.5684
 6356SOL    HW230705   4.716   1.854   4.462  1.6014  0.6299 -1.4339
 6357SOL     OW30706   2.961   2.133   8.442 -0.5889 -0.2693  0.0838
 6357SOL    HW130707   2.938   2.112   8.352 -0.9630  1.2912 -0.1770
 6357SOL    HW230708   2.950   2.228   8.437  1.2779 -0.1179 -1.2459
 6358SOL     OW30709   1.893   1.730   0.135  0.3632 -0.7539  0.0995
 6358SOL    HW130710   1.843   1.716   0.215 -0.3116  0.1326 -0.1720
 6358SOL    HW230711   1.848   1.667   0.079 -2.4805  1.4622 -0.0975
 6359SOL     OW30712   3.229   0.804   0.717 -0.0537  0.4781  0.1975
 6359SOL    HW130713   3.269   0.797   0.803 -1.2442  0.1849  0.7264
 6359SOL    HW230714   3.295   0.857   0.673  1.4776 -2.0052 -0.5182
 6360SOL     OW30715   4.570   4.251   7.802  0.3667 -0.4797  0.3271
 6360SOL    HW130716   4.636   4.246   7.733  0.3441 -0.2167  0.2872
 6360SOL    HW230717   4.623   4.246   7.881  0.4431 -1.2682  0.2237
 6361SOL     OW30718   4.615   2.013  12.443  0.0957  0.2021  0.4077
 6361SOL    HW130719   4.710   2.011  12.453  0.0266  0.3313  1.0628
 6361SOL    HW230720   4.583   2.100  12.418  1.8827  0.5775 -0.5590
 6362SOL     OW30721   1.688   0.139   3.810  0.4248  0.5102  0.3470
 6362SOL    HW130722   1.665   0.199   3.739  1.7993  1.2349  0.5186
 6362SOL    HW230723   1.630   0.173   3.877 -0.0427 -2.4182  1.4492
 6363SOL     OW30724   2.877   4.056  10.782 -0.1534 -0.4802 -0.1007
 6363SOL    HW130725   2.849   3.965  10.785 -0.4715 -0.3872 -0.2378
 6363SOL    HW230726   2.799   4.097  10.818 -2.9682 -2.4890 -4.0099
 6364SOL     OW30727   3.888   1.884   4.576 -0.3192 -0.2534  0.6772
 6364SOL    HW130728   3.873   1.933   4.495 -0.5582 -2.8756 -0.8694
 6364SOL    HW230729   3.912   1.803   4.531  1.8568  1.2272 -0.7978
 6365SOL     OW30730   3.772   4.170   5.512  0.0874 -0.4562 -0.3233
 6365SOL    HW130731   3.857   4.130   5.493 -0.3546 -1.6548  0.2132
 6365SOL    HW230732   3.777   4.191   5.605 -0.8832 -1.8837  0.0497
 6366SOL     OW30733   2.214   3.112   1.592  0.3744  0.1391  0.5187
 6366SOL    HW130734   2.289   3.148   1.638  0.1186  1.0906  0.1996
 6366SOL    HW230735   2.225   3.019   1.570  0.5816  0.1754  0.4731
 6367SOL     OW30736   1.083   3.981   1.928 -0.5720  0.4381  0.1163
 6367SOL    HW130737   1.105   3.908   1.869 -0.5593 -0.7400  1.5888
 6367SOL    HW230738   0.998   4.007   1.893 -1.3234 -2.2288 -0.0105
 6368SOL     OW30739   3.729   3.137   7.250 -0.3609  0.4379 -0.1469
 6368SOL    HW130740   3.671   3.196   7.299 -2.6181 -1.2306 -0.8474
 6368SOL    HW230741   3.676   3.124   7.171 -0.8930 -1.8768  0.5945
 6369SOL     OW30742   2.492   3.632  16.447 -0.4305 -0.9052  0.6833
 6369SOL    HW130743   2.419   3.675  16.490 -0.0279 -0.2487  0.7030
 6369SOL    HW230744   2.470   3.542  16.471  1.6563 -1.3912  0.7678
 6370SOL     OW30745   1.105   4.486  15.078 -0.8102  0.2099  0.7393
 6370SOL    HW130746   1.139   4.571  15.107 -0.9108 -0.4826  2.8561
 6370SOL    HW230747   1.065   4.518  14.997 -3.6244 -0.0221  2.0417
 6371SOL     OW30748   1.614   3.977   8.540  0.0351 -0.4899 -0.2457
 6371SOL    HW130749   1.662   4.060   8.536 -1.7468  0.6407  1.3723
 6371SOL    HW230750   1.535   4.003   8.588  0.2496 -0.9941  0.3779
 6372SOL     OW30751   3.375   1.160  11.368  0.1002  0.0087 -0.1244
 6372SOL    HW130752   3.443   1.123  11.424 -0.1940 -0.4161 -0.0465
 6372SOL    HW230753   3.338   1.229  11.423  1.1201  0.1651  0.3768
 6373SOL     OW30754   3.342   2.665  13.904  0.4093  0.2000 -0.2104
 6373SOL    HW130755   3.363   2.742  13.850  0.0644  0.1144 -0.4623
 6373SOL    HW230756   3.375   2.589  13.857  0.6419 -0.7787  1.5527
 6374SOL     OW30757   1.326   2.686   5.049  0.3991 -0.0702  0.3049
 6374SOL    HW130758   1.303   2.594   5.036  0.8405 -0.1478  0.0380
 6374SOL    HW230759   1.354   2.719   4.963 -1.6622  1.4018  0.1991
 6375SOL     OW30760   3.176   2.904  12.794  0.5432 -0.6337 -0.2143
 6375SOL    HW130761   3.172   2.845  12.719 -0.0826 -0.3331 -0.4096
 6375SOL    HW230762   3.151   2.987  12.754  3.4150  1.0022  1.3227
 6376SOL     OW30763   0.667   3.805   6.074 -0.1419  0.4079 -0.0590
 6376SOL    HW130764   0.706   3.815   6.160 -0.0343 -1.7648  0.1523
 6376SOL    HW230765   0.722   3.868   6.027  1.3751 -0.5053  0.5191
 6377SOL     OW30766   3.230   1.573  10.110 -0.1213 -0.2436 -0.2375
 6377SOL    HW130767   3.220   1.552  10.017 -0.6735  2.3266 -0.7492
 6377SOL    HW230768   3.287   1.649  10.122  0.0915 -0.3450 -0.5815
 6378SOL     OW30769   1.312   3.228   2.944  0.0042  0.6369  0.5649
 6378SOL    HW130770   1.223   3.206   2.973 -0.2996  1.0629 -0.0533
 6378SOL    HW230771   1.309   3.207   2.851  0.3840 -2.0649  1.1613
 6379SOL     OW30772   4.709   2.265   4.450  0.4328  0.0255 -0.2618
 6379SOL    HW130773   0.042   2.244   4.515 -0.1826  0.0467  0.3866
 6379SOL    HW230774   0.030   2.280   4.374  1.4553 -0.7060  0.3413
 6380SOL     OW30775   1.351   3.524   1.460  0.3025 -0.7577 -0.2728
 6380SOL    HW130776   1.383   3.457   1.399  0.0721  1.1753 -2.5422
 6380SOL    HW230777   1.428   3.576   1.482  0.2943 -0.4234 -1.0154
 6381SOL     OW30778   3.124   3.034   8.462  0.3643  0.6711  0.7433
 6381SOL    HW130779   3.107   3.121   8.499  0.0674  0.1300  1.8972
 6381SOL    HW230780   3.118   3.048   8.368  1.5685 -0.8221  0.4455
 6382SOL     OW30781   1.933   3.081  12.858  0.1077  0.0995 -0.5610
 6382SOL    HW130782   1.875   3.157  12.858  1.5906  1.2517 -1.4709
 6382SOL    HW230783   2.005   3.107  12.800  0.6543  0.3923  0.2628
 6383SOL     OW30784   3.056   2.499   4.880  0.6182 -0.6054 -0.5426
 6383SOL    HW130785   2.977   2.470   4.927  1.0453 -0.6522  0.1498
 6383SOL    HW230786   3.035   2.593   4.877 -1.0673 -0.9647 -0.3442
 6384SOL     OW30787   1.495   0.662   1.676 -0.1644 -0.1356  0.5140
 6384SOL    HW130788   1.570   0.698   1.724  1.0481 -1.7619 -0.1815
 6384SOL    HW230789   1.426   0.728   1.684  0.5934  0.5007  1.7014
 6385SOL     OW30790   4.420   3.996   1.500 -0.3577  0.0761  0.0969
 6385SOL    HW130791   4.419   3.925   1.436 -0.9825  1.0851 -1.0297
 6385SOL    HW230792   4.484   3.965   1.564 -1.8778 -1.5714  0.8245
 6386SOL     OW30793   1.878   0.133  13.091  0.5891 -0.1407 -0.0521
 6386SOL    HW130794   1.933   0.112  13.166 -1.0479  1.3703  1.5767
 6386SOL    HW230795   1.925   0.075  13.031 -1.6377 -1.7652 -0.2057
 6387SOL     OW30796   3.130   2.250   5.018  0.8618  0.3494  0.7363
 6387SOL    HW130797   3.100   2.286   4.935 -0.0532 -1.4490  0.3012
 6387SOL    HW230798   3.165   2.332   5.055  0.0026  0.2675  1.7516
 6388SOL     OW30799   0.203   3.498  15.524  0.4451 -0.4279  0.1311
 6388SOL    HW130800   0.205   3.417  15.474 -1.6429  0.0469 -0.7183
 6388SOL    HW230801   0.152   3.478  15.603 -1.5323  1.8927 -0.5714
 6389SOL     OW30802   2.165   4.631   0.559  0.0092 -0.3256  0.5261
 6389SOL    HW130803   2.144   4.674   0.641  2.8695 -0.7469  1.4978
 6389SOL    HW230804   2.218   4.555   0.586  0.7720 -0.3717 -1.0656
 6390SOL     OW30805   1.960   3.816   8.230  0.4338 -0.7541 -0.3903
 6390SOL    HW130806   1.893   3.880   8.257 -0.7306 -1.5339 -1.4222
 6390SOL    HW230807   2.035   3.874   8.234  1.7718 -2.2431 -4.4091
 6391SOL     OW30808   0.832   0.568   2.977 -0.5456  0.1807  0.1593
 6391SOL    HW130809   0.925   0.548   2.969 -0.5757  0.2151 -0.2603
 6391SOL    HW230810   0.825   0.649   2.926  0.7165 -0.4801 -1.0487
 6392SOL     OW30811   3.271   0.537  16.220  0.1987 -0.7408 -0.8134
 6392SOL    HW130812   3.321   0.618  16.208 -0.8639  0.3669  2.3093
 6392SOL    HW230813   3.190   0.571  16.258  2.7149  2.5171  1.6036
 6393SOL     OW30814   0.972   3.104   7.316 -0.2528 -0.4062 -0.6431
 6393SOL    HW130815   0.979   3.111   7.412 -0.3641  0.0909 -0.6698
 6393SOL    HW230816   0.932   3.189   7.300 -2.5192 -1.3962 -0.2179
 6394SOL     OW30817   0.710   3.733   8.493  0.3558 -0.4443 -0.2577
 6394SOL    HW130818   0.768   3.659   8.507  0.1128 -0.4523  0.6826
 6394SOL    HW230819   0.747   3.796   8.555  2.4010  0.4029 -2.3431
 6395SOL     OW30820   1.870   0.122   0.511  0.3372 -0.3495 -0.3942
 6395SOL    HW130821   1.878   0.212   0.477  6.4788 -1.0661 -0.8381
 6395SOL    HW230822   1.955   0.086   0.487  0.4958 -1.2056  1.4703
 6396SOL     OW30823   0.856   2.168   0.707 -0.2823  0.3411  0.0937
 6396SOL    HW130824   0.808   2.225   0.647 -2.4319  0.1781  1.6411
 6396SOL    HW230825   0.787   2.118   0.752  2.2956 -2.9776  0.3790
 6397SOL     OW30826   4.478   3.744   9.739  0.6059  0.5633 -0.2870
 6397SOL    HW130827   4.490   3.760   9.645 -0.3413 -0.4021 -0.5644
 6397SOL    HW230828   4.563   3.703   9.753  0.7711  0.6584 -1.0123
 6398SOL     OW30829   0.351   3.007   6.077 -0.3218  0.5358  0.2491
 6398SOL    HW130830   0.325   2.921   6.110 -1.1139 -0.4509 -2.9397
 6398SOL    HW230831   0.386   2.978   5.993 -1.7415  2.2578 -0.9495
 6399SOL     OW30832   2.870   4.228  14.039  0.1480  0.1415 -0.5972
 6399SOL    HW130833   2.780   4.212  14.014 -0.4179 -1.4086  2.3791
 6399SOL    HW230834   2.907   4.297  13.984 -1.0671  0.4457 -1.0115
 6400SOL     OW30835   3.768   4.474  12.396 -0.4339 -0.1112 -0.2171
 6400SOL    HW130836   3.846   4.478  12.340 -0.5023  1.0869 -0.2131
 6400SOL    HW230837   3.702   4.523  12.349  0.9558 -0.4213 -2.4878
 6401SOL     OW30838   4.400   1.694  17.652  0.2119 -0.3259  0.0553
 6401SOL    HW130839   4.419   1.688  17.558  3.2743  1.8988  0.5456
 6401SOL    HW230840   4.311   1.727  17.643  0.5151  0.7020  0.9576
 6402SOL     OW30841   0.307   2.437  12.667  0.6876  0.2599  0.7718
 6402SOL    HW130842   0.294   2.486  12.749 -0.9752  0.9123  0.1123
 6402SOL    HW230843   0.331   2.507  12.606  3.1500  1.0684  2.6306
 6403SOL     OW30844   3.877   0.332  16.268  0.3546  0.2167 -0.1969
 6403SOL    HW130845   3.870   0.241  16.238 -0.7134  0.6559 -1.2571
 6403SOL    HW230846   3.904   0.387  16.195  0.2068  1.7193  0.8884
 6404SOL     OW30847   0.217   4.605  14.394 -0.1516 -0.0535  0.1441
 6404SOL    HW130848   0.143   4.572  14.344  1.3090 -1.8049 -0.8706
 6404SOL    HW230849   0.214   4.696  14.364  0.4437 -0.1458 -0.1973
 6405SOL     OW30850   4.681   0.305  16.465  0.4878  0.0830  0.2122
 6405SOL    HW130851   4.716   0.262  16.387 -0.1472 -1.3734  0.7169
 6405SOL    HW230852   0.023   0.312  16.522  0.6208 -0.2452  0.0784
 6406SOL     OW30853   0.990   2.933   4.949 -0.3369  0.1325  0.6347
 6406SOL    HW130854   0.937   3.012   4.943  0.6028  0.8087  1.4317
 6406SOL    HW230855   1.049   2.937   4.874 -1.3832 -1.7227 -0.3128
 6407SOL     OW30856   2.461   2.303   5.594 -0.4175 -0.1310  0.1253
 6407SOL    HW130857   2.494   2.318   5.683  0.1770 -0.9544  0.0435
 6407SOL    HW230858   2.505   2.222   5.568  0.3552  0.8056 -1.5235
 6408SOL     OW30859   4.651   0.378   2.560 -0.2381 -0.4584 -0.6239
 6408SOL    HW130860   4.653   0.469   2.587  0.3723 -0.9685  1.0527
 6408SOL    HW230861   4.603   0.335   2.631 -1.4338 -1.1637 -1.8511
 6409SOL     OW30862   1.708   1.509   6.966  0.9280 -0.6627  0.1380
 6409SOL    HW130863   1.772   1.480   7.031  1.0768  1.1635  0.8059
 6409SOL    HW230864   1.734   1.478   6.879  1.4903  0.0730  0.0450
 6410SOL     OW30865   0.565   2.088   6.716  0.5869  0.0712  0.0741
 6410SOL    HW130866   0.484   2.114   6.673  0.2797 -1.7047 -0.4273
 6410SOL    HW230867   0.572   2.165   6.772 -0.5521 -0.2836  0.6986
 6411SOL     OW30868   4.192   0.289  11.285  0.3363 -0.3275 -0.0837
 6411SOL    HW130869   4.255   0.217  11.279 -1.0106 -1.6967  1.9289
 6411SOL    HW230870   4.108   0.244  11.301 -0.0401 -0.3627 -2.1596
 6412SOL     OW30871   0.447   0.887   2.605 -0.1434  0.0246 -0.1442
 6412SOL    HW130872   0.424   0.801   2.571 -0.2800  0.1382 -0.3400
 6412SOL    HW230873   0.489   0.857   2.686 -1.6280 -0.4069  0.4631
 6413SOL     OW30874   1.052   2.541   3.710 -0.2767 -0.5031 -0.2458
 6413SOL    HW130875   1.139   2.508   3.733 -1.4374 -1.9822  1.9966
 6413SOL    HW230876   1.043   2.486   3.633  1.4977  1.7106 -2.0648
 6414SOL     OW30877   3.831   3.849   4.605 -0.2653 -0.2194 -0.9243
 6414SOL    HW130878   3.816   3.923   4.547 -0.5266 -0.2193 -0.8552
 6414SOL    HW230879   3.782   3.863   4.686  0.6466  1.7839 -0.7115
 6415SOL     OW30880   3.340   0.490  15.789  0.1032 -0.2842  0.0031
 6415SOL    HW130881   3.404   0.423  15.814 -1.2240 -1.3216  0.6005
 6415SOL    HW230882   3.376   0.564  15.837 -0.0219  0.9266 -1.7724
 6416SOL     OW30883   4.562   1.427   6.524  0.7689  0.5342 -0.5231
 6416SOL    HW130884   4.641   1.373   6.520 -0.3286 -1.1946  0.9681
 6416SOL    HW230885   4.534   1.436   6.432  2.9082 -1.3094 -1.3656
 6417SOL     OW30886   3.021   4.421  13.912 -0.0427  0.1060 -0.1233
 6417SOL    HW130887   3.110   4.412  13.877 -0.3049 -1.9254 -0.2428
 6417SOL    HW230888   2.975   4.475  13.848 -2.3721 -1.9110 -0.1529
 6418SOL     OW30889   3.443   2.962   7.917  0.1870  0.0008  0.2188
 6418SOL    HW130890   3.458   2.932   7.827 -1.3794  0.5563 -0.2205
 6418SOL    HW230891   3.533   2.968   7.948 -0.3632 -0.1171  1.8464
 6419SOL     OW30892   0.083   1.057  15.466 -0.5556 -0.5907  0.7126
 6419SOL    HW130893   0.143   1.088  15.398 -0.4356  2.1584  2.0485
 6419SOL    HW230894   0.033   1.138  15.477  1.2162  0.1504  3.4489
 6420SOL     OW30895   2.570   1.409   8.766  0.1677  0.1464 -0.1945
 6420SOL    HW130896   2.660   1.438   8.749  0.2244  1.3417  2.1252
 6420SOL    HW230897   2.566   1.418   8.862 -1.3203 -2.8503  0.0006
 6421SOL     OW30898   2.746   2.657   2.750 -0.4172 -0.0516 -0.5207
 6421SOL    HW130899   2.823   2.608   2.724 -0.1694 -0.1051  0.3049
 6421SOL    HW230900   2.733   2.701   2.666  2.1540 -0.4989 -1.1531
 6422SOL     OW30901   1.973   4.664   8.919 -0.5636 -0.0216 -0.0406
 6422SOL    HW130902   2.055   4.651   8.872 -0.1074  0.5899  0.5917
 6422SOL    HW230903   1.926   4.592   8.877  1.4683 -0.9645 -0.6725
 6423SOL     OW30904   3.156   1.397   3.766  0.2755  0.2694  0.3636
 6423SOL    HW130905   3.243   1.358   3.760 -0.4854 -1.3478 -0.1497
 6423SOL    HW230906   3.165   1.461   3.695 -0.5924  0.4911  0.4466
 6424SOL     OW30907   3.152   2.572   8.602  0.2777 -0.3151  0.6065
 6424SOL    HW130908   3.231   2.624   8.612 -0.4873  0.4973  2.4148
 6424SOL    HW230909   3.114   2.613   8.525  1.4239  2.1389  1.3549
 6425SOL     OW30910   0.887   2.213   8.912  0.6734  0.2451  0.1301
 6425SOL    HW130911   0.824   2.260   8.966 -0.7967 -0.3827 -1.0421
 6425SOL    HW230912   0.857   2.124   8.926 -1.6673  1.2028  1.1860
 6426SOL     OW30913   3.155   0.346  16.732  0.3985 -0.8879 -0.0140
 6426SOL    HW130914   3.129   0.261  16.696  1.6816 -1.6230  0.7736
 6426SOL    HW230915   3.241   0.316  16.763  1.3875  2.2563  0.2293
 6427SOL     OW30916   2.394   3.718   6.479  0.5828 -0.7802 -0.3831
 6427SOL    HW130917   2.484   3.720   6.511  0.7278 -0.3890 -0.8142
 6427SOL    HW230918   2.371   3.811   6.471  0.1060 -0.7815  1.1216
 6428SOL     OW30919   4.547   1.163  16.272  0.1677  0.1201 -0.0969
 6428SOL    HW130920   4.595   1.140  16.193 -0.0054  0.4661 -0.3022
 6428SOL    HW230921   4.580   1.105  16.340  1.3176  0.7628 -0.1098
 6429SOL     OW30922   2.027   1.619   2.596  0.3573  0.5736  1.1169
 6429SOL    HW130923   2.101   1.561   2.612  1.2899  1.3221 -0.5066
 6429SOL    HW230924   1.969   1.615   2.672 -1.8836  0.8276 -0.5520
 6430SOL     OW30925   0.057   1.161  10.518 -0.1621 -0.0202 -0.4423
 6430SOL    HW130926   0.040   1.210  10.598 -0.1190 -0.7027 -0.0137
 6430SOL    HW230927   4.731   1.087  10.524 -0.2965  0.2408  1.5205
 6431SOL     OW30928   0.610   2.617  13.352  0.3779 -0.2991 -0.1368
 6431SOL    HW130929   0.556   2.553  13.304  0.6993  0.0199 -0.9200
 6431SOL    HW230930   0.657   2.565  13.417 -2.3079 -0.1600  1.9093
 6432SOL     OW30931   4.387   2.376   4.656  0.7512 -0.6643 -0.4309
 6432SOL    HW130932   4.427   2.462   4.646 -1.0709  0.0612 -1.3481
 6432SOL    HW230933   4.294   2.392   4.671 -0.0799 -2.0948 -4.0865
 6433SOL     OW30934   4.566   1.173   9.928  0.8756  0.5669  0.3880
 6433SOL    HW130935   4.513   1.096   9.946  1.9317 -1.0648 -3.5099
 6433SOL    HW230936   4.504   1.227   9.879  1.4748 -0.1187 -1.1167
 6434SOL     OW30937   3.741   4.150   8.043  0.1034  0.5764  0.0817
 6434SOL    HW130938   3.724   4.180   7.954 -0.8181  0.7241  0.3014
 6434SOL    HW230939   3.822   4.101   8.059 -0.0718  0.3278  0.2109
 6435SOL     OW30940   2.008   3.901   3.061  0.3092 -0.5884 -0.9674
 6435SOL    HW130941   2.066   3.837   3.020 -0.0548 -2.1862  1.0197
 6435SOL    HW230942   2.017   3.980   3.008  4.4585 -0.1072  0.4791
 6436SOL     OW30943   1.357   2.166   1.835  0.5290  0.3010 -0.1647
 6436SOL    HW130944   1.445   2.144   1.804  0.7586 -1.1146  1.5000
 6436SOL    HW230945   1.318   2.081   1.857 -0.6118  0.8965  0.1374
 6437SOL     OW30946   0.392   2.769   5.013 -0.0427  0.5854  0.4000
 6437SOL    HW130947   0.416   2.854   5.051 -2.1904  1.0132  0.7751
 6437SOL    HW230948   0.363   2.809   4.931  0.8921  0.6181  0.0799
 6438SOL     OW30949   0.140   4.577   3.733  0.4250 -0.0363  0.5374
 6438SOL    HW130950   0.235   4.569   3.733  0.5158  1.0311  1.1832
 6438SOL    HW230951   0.127   4.666   3.767  2.6430  0.6687 -0.4820
 6439SOL     OW30952   2.154   1.656   4.324  0.1239 -0.2557 -0.0243
 6439SOL    HW130953   2.179   1.630   4.236  1.9622 -2.3075  1.1097
 6439SOL    HW230954   2.172   1.573   4.368 -1.0790  0.2462  1.4447
 6440SOL     OW30955   0.794   4.255   1.095 -0.0383  0.2023 -0.1528
 6440SOL    HW130956   0.849   4.178   1.080 -1.9342 -1.5784  2.0276
 6440SOL    HW230957   0.796   4.272   1.189  1.8289 -2.2187  0.2254
 6441SOL     OW30958   3.132   3.678   5.917 -0.0813  0.6130  0.5710
 6441SOL    HW130959   3.127   3.736   5.841 -1.9157 -1.0852 -0.6092
 6441SOL    HW230960   3.156   3.595   5.876  0.5927  0.8962  0.3945
 6442SOL     OW30961   1.316   4.289  13.359  0.3830  0.6534  0.5736
 6442SOL    HW130962   1.406   4.300  13.328 -0.0263  0.0094 -0.8327
 6442SOL    HW230963   1.328   4.238  13.439 -4.1063  0.5880  1.1940
 6443SOL     OW30964   4.498   0.891   7.956  0.2267 -0.0477 -0.0006
 6443SOL    HW130965   4.517   0.797   7.956 -2.5113 -0.5916  1.6976
 6443SOL    HW230966   4.508   0.906   8.050 -0.0533  0.7448 -0.0995
 6444SOL     OW30967   3.928   3.004   6.155 -0.2162 -0.4894  0.5542
 6444SOL    HW130968   3.955   2.966   6.239  2.8397  1.7713  0.5675
 6444SOL    HW230969   4.011   3.035   6.119  0.0538  1.3695  2.7632
 6445SOL     OW30970   2.314   0.178   2.593 -0.0096  0.4972 -0.3550
 6445SOL    HW130971   2.401   0.214   2.612 -0.8238  1.7519  1.0354
 6445SOL    HW230972   2.278   0.240   2.530 -1.3019 -0.2681 -0.3482
 6446SOL     OW30973   2.957   4.533   3.880  0.0587 -0.2252  0.0451
 6446SOL    HW130974   2.933   4.624   3.896 -3.3474 -1.8481  4.1120
 6446SOL    HW230975   2.909   4.518   3.798  0.5432  0.7868 -0.4287
 6447SOL     OW30976   2.468   4.463  14.012  0.2533  0.1031 -0.1067
 6447SOL    HW130977   2.501   4.531  13.953  0.1831  2.4229  2.5310
 6447SOL    HW230978   2.388   4.498  14.050  1.6593  0.0302  2.9455
 6448SOL     OW30979   2.992   0.687   8.142 -0.0817  0.3913  0.3992
 6448SOL    HW130980   2.993   0.670   8.236 -0.4504 -2.4669 -0.1183
 6448SOL    HW230981   2.919   0.631   8.115 -0.1619  0.2435  0.9429
 6449SOL     OW30982   1.746   4.652   8.317 -0.2904 -0.1111 -0.4851
 6449SOL    HW130983   1.692   4.697   8.382  1.9835 -0.0929  1.4019
 6449SOL    HW230984   1.676   4.600   8.278 -1.9217  1.7591 -0.0393
 6450SOL     OW30985   2.399   1.800   7.838  0.1759 -0.0102 -0.2983
 6450SOL    HW130986   2.378   1.882   7.883  0.6172 -0.9761  1.6960
 6450SOL    HW230987   2.422   1.824   7.749 -2.4832  1.1042 -0.6966
 6451SOL     OW30988   1.038   1.521   6.308 -0.6035 -0.0754  0.1179
 6451SOL    HW130989   1.009   1.474   6.386 -2.6795 -2.1624 -1.9231
 6451SOL    HW230990   1.085   1.599   6.339 -0.0105 -0.2230 -0.4123
 6452SOL     OW30991   4.378   1.723   2.338 -0.2701  0.1868 -0.0466
 6452SOL    HW130992   4.471   1.708   2.354 -0.6466 -1.1060  0.8717
 6452SOL    HW230993   4.347   1.633   2.331  1.4527 -0.2182 -2.3793
 6453SOL     OW30994   0.911   1.672   7.700 -0.2163  0.3788 -0.0393
 6453SOL    HW130995   0.892   1.597   7.643 -2.0189  0.0010  1.0750
 6453SOL    HW230996   0.934   1.627   7.780 -2.0566  0.5442  0.5843
 6454SOL     OW30997   1.280   2.594   9.202 -0.3024 -0.5374 -0.0271
 6454SOL    HW130998   1.248   2.565   9.116 -0.8239 -1.8397  0.6050
 6454SOL    HW230999   1.354   2.541   9.232 -0.5348 -0.7962  0.0903
 6455SOL     OW31000   0.852   0.262  11.242  0.4381  0.5508  0.6503
 6455SOL    HW131001   0.877   0.203  11.170 -3.7629 -0.5422  0.0798
 6455SOL    HW231002   0.817   0.202  11.308 -0.5455 -0.0748 -0.4245
 6456SOL     OW31003   1.566   2.815   4.309  0.6207 -0.2284 -0.0106
 6456SOL    HW131004   1.587   2.855   4.225 -0.3296  0.6754  0.1752
 6456SOL    HW231005   1.598   2.874   4.377 -1.0388  1.0997 -0.3753
 6457SOL     OW31006   1.439   0.787   7.059  0.5655 -0.1397  0.0857
 6457SOL    HW131007   1.447   0.855   6.992  2.1498  0.2782  0.7152
 6457SOL    HW231008   1.345   0.787   7.080  0.3670  3.3068 -0.9126
 6458SOL     OW31009   1.067   3.294  11.905 -0.2278 -0.0293 -0.0896
 6458SOL    HW131010   1.162   3.304  11.903 -0.2698  0.6764  1.1366
 6458SOL    HW231011   1.053   3.312  11.998 -0.0053 -1.4723  0.2198
 6459SOL     OW31012   1.816   0.330  11.686  0.0208 -0.9002 -0.2067
 6459SOL    HW131013   1.909   0.341  11.663 -0.1835  2.9705  0.9046
 6459SOL    HW231014   1.804   0.366  11.773 -1.0687 -3.9400  0.9026
 6460SOL     OW31015   0.231   3.428   8.054  0.3514  0.0301 -0.3909
 6460SOL    HW131016   0.308   3.480   8.074  0.7536 -0.1568 -1.4466
 6460SOL    HW231017   0.258   3.400   7.966  1.4553  1.2361 -0.4367
 6461SOL     OW31018   3.870   1.437   3.797  0.0602  0.4262  0.5720
 6461SOL    HW131019   3.925   1.369   3.756  0.9323  2.1258 -1.0674
 6461SOL    HW231020   3.892   1.511   3.741 -1.2815  0.5524  0.2217
 6462SOL     OW31021   2.720   0.388  12.600  0.2164 -0.6741  0.0785
 6462SOL    HW131022   2.745   0.473  12.565  0.3044 -0.1958  1.3012
 6462SOL    HW231023   2.766   0.385  12.684 -0.4305 -1.3715  0.4071
 6463SOL     OW31024   4.016   1.884   4.072 -0.4590  0.2074  0.0649
 6463SOL    HW131025   4.072   1.823   4.025  0.8118  0.7242  0.9167
 6463SOL    HW231026   3.954   1.922   4.009 -2.4480 -0.5313  1.5629
 6464SOL     OW31027   0.137   2.790   7.006  0.2070 -0.6365  0.5128
 6464SOL    HW131028   0.060   2.776   7.062  0.1257  0.3998  0.6737
 6464SOL    HW231029   0.194   2.722   7.041 -0.0200 -1.4332 -0.6880
 6465SOL     OW31030   0.986   1.848  10.986 -0.3765  0.4591  1.4564
 6465SOL    HW131031   0.948   1.797  10.914  1.2446  1.7333 -0.3119
 6465SOL    HW231032   1.080   1.850  10.965 -0.5085 -0.9214  0.6997
 6466SOL     OW31033   3.399   3.663   8.942 -0.1208 -0.3751  0.1510
 6466SOL    HW131034   3.471   3.726   8.944 -0.5885  0.1663 -0.2603
 6466SOL    HW231035   3.337   3.708   8.885  2.6269  0.6643 -2.0580
 6467SOL     OW31036   4.308   3.432   1.769 -0.3530  0.4299 -0.3190
 6467SOL    HW131037   4.320   3.515   1.723  1.9056  0.0851 -0.3261
 6467SOL    HW231038   4.223   3.399   1.739 -1.1455  1.0640  1.2129
 6468SOL     OW31039   1.924   2.873   1.506  0.6853  0.4600  0.0037
 6468SOL    HW131040   1.932   2.906   1.595 -0.8407 -1.2509  0.7859
 6468SOL    HW231041   1.864   2.924   1.451  0.7055 -0.8064 -1.2119
 6469SOL     OW31042   3.390   0.768  16.146  0.4805 -0.1964 -0.1249
 6469SOL    HW131043   3.346   0.845  16.182  0.0817 -0.4104 -0.1516
 6469SOL    HW231044   3.463   0.814  16.105 -0.4945  2.2262  0.8082
 6470SOL     OW31045   4.707   2.833   8.906 -0.1546  0.0987 -0.1542
 6470SOL    HW131046   4.635   2.889   8.879 -1.2661 -0.7051  1.0879
 6470SOL    HW231047   0.030   2.844   8.831  0.3828 -2.9167 -0.2035
 6471SOL     OW31048   1.283   3.553   7.172 -0.1212 -0.2443 -0.4603
 6471SOL    HW131049   1.224   3.561   7.248  0.2474  0.5164 -0.2471
 6471SOL    HW231050   1.239   3.476   7.136  0.8950 -1.8125  1.6700
 6472SOL     OW31051   2.467   2.413   5.050  0.3635  0.4789  0.6547
 6472SOL    HW131052   2.493   2.379   5.136  0.6834  0.5959  0.6033
 6472SOL    HW231053   2.389   2.359   5.037  0.6416  0.5070 -1.0749
 6473SOL     OW31054   2.945   1.453   3.447  0.2029 -0.1740  0.5550
 6473SOL    HW131055   3.036   1.467   3.473  1.1462 -2.4263 -1.4924
 6473SOL    HW231056   2.905   1.413   3.523 -0.4406 -0.0391  0.2844
 6474SOL     OW31057   2.853   0.699   2.645 -0.0606 -0.4115 -0.1050
 6474SOL    HW131058   2.811   0.777   2.682 -1.4382 -1.2235  0.0443
 6474SOL    HW231059   2.941   0.731   2.628 -0.1880 -0.6222 -1.1751
 6475SOL     OW31060   2.390   1.006   0.190 -0.2371 -0.0403 -0.5936
 6475SOL    HW131061   2.360   0.996   0.281  0.7902 -0.0065 -0.2423
 6475SOL    HW231062   2.342   0.934   0.150 -0.4123 -1.3419  1.8867
 6476SOL     OW31063   4.578   1.637   3.670  0.3241  0.1425  0.4148
 6476SOL    HW131064   4.501   1.584   3.692 -0.7312  1.5407  0.1304
 6476SOL    HW231065   4.587   1.611   3.578  0.4967  1.2633  0.1206
 6477SOL     OW31066   1.723   2.252  17.616 -0.2831 -0.1013 -0.3041
 6477SOL    HW131067   1.737   2.308  17.540  1.1570  0.9262  0.7036
 6477SOL    HW231068   1.633   2.272  17.641  0.4621  1.3481  1.2825
 6478SOL     OW31069   1.919   1.218  15.908 -0.2318  0.6664  0.1494
 6478SOL    HW131070   1.849   1.277  15.881  1.4548  2.7169  0.2326
 6478SOL    HW231071   1.878   1.183  15.987 -0.2380 -0.0914 -0.1981
 6479SOL     OW31072   1.854   0.541   5.693  0.2968  0.2733 -0.2788
 6479SOL    HW131073   1.765   0.562   5.667  0.0503 -0.0502  0.3089
 6479SOL    HW231074   1.875   0.463   5.641  0.5144  1.4490 -1.9545
 6480SOL     OW31075   3.215   1.611   3.595 -0.4424  0.1088 -0.1478
 6480SOL    HW131076   3.165   1.693   3.591 -3.3171 -1.5770  0.8840
 6480SOL    HW231077   3.219   1.588   3.502 -1.7674 -2.0159  0.3091
 6481SOL     OW31078   3.203   3.480   3.006  0.2654  0.3552 -0.2790
 6481SOL    HW131079   3.208   3.388   3.034 -0.3647  0.7848  1.2100
 6481SOL    HW231080   3.154   3.520   3.077 -2.7478 -1.8540 -1.0839
 6482SOL     OW31081   3.279   0.708   5.595  0.3079  0.1644 -0.5820
 6482SOL    HW131082   3.294   0.734   5.686 -0.4492 -0.2787 -0.3317
 6482SOL    HW231083   3.199   0.753   5.569  1.0831  2.4264  0.9325
 6483SOL     OW31084   2.052   0.762   8.575 -0.7955 -0.2980 -0.3801
 6483SOL    HW131085   2.120   0.797   8.518 -1.5430  0.8254 -0.5802
 6483SOL    HW231086   1.972   0.794   8.532 -0.2169 -0.3679 -1.5037
 6484SOL     OW31087   3.671   2.226   9.007 -0.0283  0.1197  0.3341
 6484SOL    HW131088   3.745   2.188   8.959  0.5661  2.6178 -0.7467
 6484SOL    HW231089   3.618   2.251   8.931  1.4550 -1.3601 -1.1798
 6485SOL     OW31090   3.864   0.296   2.194  0.1738 -0.6960  0.3464
 6485SOL    HW131091   3.823   0.378   2.165  1.8205 -0.3791 -1.0321
 6485SOL    HW231092   3.804   0.267   2.263  0.1478 -0.9043  0.2362
 6486SOL     OW31093   1.783   4.688   2.208  0.2768  0.9955 -0.5200
 6486SOL    HW131094   1.695   4.714   2.234 -0.4017 -0.9455 -0.9240
 6486SOL    HW231095   1.785   0.019   2.138 -1.6792  2.3040  0.6647
 6487SOL     OW31096   3.329   1.809   3.013  0.6303 -0.2615 -0.1833
 6487SOL    HW131097   3.324   1.905   3.017  0.9327 -0.3204  1.6316
 6487SOL    HW231098   3.341   1.794   2.919  0.0361  2.2142 -0.6494
 6488SOL     OW31099   2.579   0.910  17.167  0.1451 -0.4454  0.4593
 6488SOL    HW131100   2.593   0.841  17.102 -1.7853 -2.1621  1.8644
 6488SOL    HW231101   2.617   0.879  17.249 -0.4833 -0.9156  0.5727
 6489SOL     OW31102   2.862   0.857   7.824 -0.6460 -0.2156  0.2095
 6489SOL    HW131103   2.825   0.907   7.751  1.5856 -0.1356 -0.8521
 6489SOL    HW231104   2.919   0.920   7.869 -0.3993  0.7393 -1.4361
 6490SOL     OW31105   4.529   3.428   2.365  0.4445  0.1092  0.7298
 6490SOL    HW131106   4.462   3.392   2.307  0.6841  1.4087 -0.3546
 6490SOL    HW231107   4.504   3.378   2.442 -2.0229  1.4122  0.7716
 6491SOL     OW31108   4.164   1.675   3.998  0.2745  0.0095 -0.4335
 6491SOL    HW131109   4.221   1.608   4.035  0.5116  0.0614 -0.7107
 6491SOL    HW231110   4.078   1.632   4.002  0.1537  0.3368  0.5986
 6492SOL     OW31111   0.325   1.068   2.438 -0.1984  0.4574  0.0755
 6492SOL    HW131112   0.332   1.022   2.354 -1.7719  0.3629 -0.0010
 6492SOL    HW231113   0.368   1.010   2.501 -2.4205  0.5980  1.7091
 6493SOL     OW31114   0.376   3.372   7.308  0.0649 -0.5511 -0.2493
 6493SOL    HW131115   0.437   3.358   7.235 -1.8555  2.0924 -2.3870
 6493SOL    HW231116   0.317   3.298   7.292 -0.4223 -0.4600  1.1330
 6494SOL     OW31117   0.017   1.411   7.503 -0.1219  0.0929  0.1114
 6494SOL    HW131118   4.657   1.411   7.490 -0.2852 -0.3670  1.3152
 6494SOL    HW231119   0.037   1.498   7.468 -0.9213  0.4102  0.4494
 6495SOL     OW31120   4.350   0.469   3.784  0.6720  0.1395 -0.1042
 6495SOL    HW131121   4.429   0.521   3.796 -0.3729  1.7296 -0.0296
 6495SOL    HW231122   4.342   0.467   3.688  0.0155 -0.3383 -0.0412
 6496SOL     OW31123   1.135   4.528   4.247  0.3948  0.1192 -0.2662
 6496SOL    HW131124   1.077   4.543   4.173 -0.0347  2.4282  0.5508
 6496SOL    HW231125   1.104   4.594   4.309  2.6368  0.8048  0.1456
 6497SOL     OW31126   4.379   1.664   1.622  0.5147 -0.1759 -0.4636
 6497SOL    HW131127   4.459   1.715   1.606  1.0589 -0.7816  0.3474
 6497SOL    HW231128   4.345   1.712   1.697 -0.9732 -3.1119  0.7075
 6498SOL     OW31129   0.853   1.429   0.390 -0.3672  0.0284  0.1639
 6498SOL    HW131130   0.813   1.460   0.308  0.5588  2.9352  0.8123
 6498SOL    HW231131   0.920   1.376   0.348 -0.6697  0.9614 -1.4930
 6499SOL     OW31132   1.386   3.130   3.241 -0.3236 -0.2181  0.1344
 6499SOL    HW131133   1.310   3.137   3.183  0.3959  0.5872 -0.6917
 6499SOL    HW231134   1.344   3.112   3.325 -1.4494  1.6317 -0.0178
 6500SOL     OW31135   1.928   1.407   7.091 -0.1204  0.0274 -0.4927
 6500SOL    HW131136   1.897   1.425   7.179 -3.6543 -0.5800 -1.6187
 6500SOL    HW231137   1.941   1.312   7.092  1.0267  0.1908  0.1447
 6501SOL     OW31138   1.616   1.986  13.736  0.1036  0.1801 -0.2032
 6501SOL    HW131139   1.692   2.001  13.794  1.3485  1.8275 -2.2849
 6501SOL    HW231140   1.540   1.997  13.793  0.2719 -2.6450  0.5555
 6502SOL     OW31141   3.537   1.981  14.638 -0.0214  0.1619 -0.4807
 6502SOL    HW131142   3.626   1.948  14.636  0.7086  2.1764 -1.3705
 6502SOL    HW231143   3.551   2.055  14.579 -2.2701  0.4638 -0.6449
 6503SOL     OW31144   0.561   0.408   4.234 -0.1292  0.7169 -0.2159
 6503SOL    HW131145   0.495   0.477   4.243  0.4220  1.0788  1.0936
 6503SOL    HW231146   0.630   0.432   4.297  0.1623  1.3131 -0.7596
 6504SOL     OW31147   2.921   0.578   5.855  0.1300 -0.1545 -0.3584
 6504SOL    HW131148   2.869   0.499   5.868 -0.1490 -0.2234 -1.9007
 6504SOL    HW231149   3.002   0.545   5.818  0.5704 -1.6211  1.9518
 6505SOL     OW31150   4.263   4.187  16.035 -0.7170  0.1730 -0.0217
 6505SOL    HW131151   4.184   4.172  16.087  0.1806  1.3228  1.6779
 6505SOL    HW231152   4.253   4.274  15.995  0.7121 -0.4967 -1.8587
 6506SOL     OW31153   2.006   3.967  10.736 -0.0858  0.0584 -0.7157
 6506SOL    HW131154   1.929   3.959  10.791  0.5114 -1.2094 -0.0696
 6506SOL    HW231155   2.056   4.028  10.790  0.7054  0.4060 -1.8311
 6507SOL     OW31156   3.335   2.300   7.553  0.2668  0.0924 -0.0592
 6507SOL    HW131157   3.320   2.245   7.629  1.3659  2.1648  1.6855
 6507SOL    HW231158   3.425   2.274   7.530  0.1109 -1.0454  0.6511
 6508SOL     OW31159   4.528   3.365  12.638  0.3523  0.1991 -1.0924
 6508SOL    HW131160   4.564   3.278  12.655  1.7955  1.6624  3.4266
 6508SOL    HW231161   4.506   3.352  12.546 -2.6018 -3.1713  0.0601
 6509SOL     OW31162   3.332   3.818   4.137 -0.1858 -0.8679  0.2233
 6509SOL    HW131163   3.335   3.909   4.107  0.2587 -1.0277 -0.2275
 6509SOL    HW231164   3.271   3.774   4.077 -0.3086  1.2958 -1.2265
 6510SOL     OW31165   2.357   0.448   9.402  0.1548 -0.3448  0.1257
 6510SOL    HW131166   2.446   0.473   9.428 -0.2103 -0.3281  1.3528
 6510SOL    HW231167   2.327   0.533   9.371 -0.9009 -1.1558 -1.0942
 6511SOL     OW31168   3.920   3.860   6.411  0.4978  0.0957  0.3500
 6511SOL    HW131169   3.928   3.802   6.335  1.2355  1.3517 -0.5299
 6511SOL    HW231170   3.985   3.928   6.397 -2.4521  2.7678 -0.3982
 6512SOL     OW31171   1.040   0.332  10.168 -0.1704 -0.2218 -0.3241
 6512SOL    HW131172   1.059   0.329  10.262  1.1065 -1.2108 -0.6081
 6512SOL    HW231173   1.108   0.268  10.146 -0.2083  0.1583 -1.5366
 6513SOL     OW31174   1.788   4.368  11.257  0.0131 -1.1365 -0.3999
 6513SOL    HW131175   1.791   4.463  11.244  1.4787 -1.1977 -0.4451
 6513SOL    HW231176   1.734   4.368  11.337 -0.2329  1.5433 -0.5680
 6514SOL     OW31177   1.063   1.792  15.971 -0.4556 -0.2295 -0.3838
 6514SOL    HW131178   1.027   1.834  15.893 -2.3565  0.0416  0.6373
 6514SOL    HW231179   1.082   1.868  16.026  2.0175 -2.3396  1.6720
 6515SOL     OW31180   3.564   3.433   9.865  0.1334 -0.1886 -0.0410
 6515SOL    HW131181   3.635   3.455   9.926 -0.7459  0.9176  0.5904
 6515SOL    HW231182   3.505   3.387   9.924  1.1782 -0.4651  0.7879
 6516SOL     OW31183   3.473   2.443  13.774  0.1377  0.0412  0.4587
 6516SOL    HW131184   3.491   2.357  13.811  0.8456  0.5981  1.4163
 6516SOL    HW231185   3.446   2.430  13.683 -1.8451 -2.2755  1.3704
 6517SOL     OW31186   0.533   2.283   4.712 -0.3300 -0.2926 -0.4321
 6517SOL    HW131187   0.627   2.277   4.727 -0.3347 -1.7295 -0.9712
 6517SOL    HW231188   0.494   2.238   4.787 -0.7697 -1.4119 -1.3307
 6518SOL     OW31189   1.372   1.502   0.683 -0.2926  0.2461  0.2667
 6518SOL    HW131190   1.387   1.477   0.592  1.2692 -1.6891  1.0486
 6518SOL    HW231191   1.375   1.419   0.731 -0.8347 -0.9545 -1.7817
 6519SOL     OW31192   2.827   0.540   7.328 -0.0251  0.0789 -0.5185
 6519SOL    HW131193   2.893   0.483   7.368 -0.7157  0.3609  1.0116
 6519SOL    HW231194   2.872   0.625   7.322 -0.1285  0.1518 -0.2780
 6520SOL     OW31195   2.395   2.402   9.146 -0.3965  0.1239 -0.1406
 6520SOL    HW131196   2.465   2.347   9.112 -2.6422 -2.4037 -0.6334
 6520SOL    HW231197   2.337   2.346   9.197  1.6608  0.0714  2.1774
 6521SOL     OW31198   1.508   1.945  17.449  0.2037  0.4362  0.4124
 6521SOL    HW131199   1.473   1.977  17.532  0.3957 -1.8391  1.3768
 6521SOL    HW231200   1.602   1.950  17.462  0.0273 -1.1227  2.4599
 6522SOL     OW31201   1.873   3.107   8.527  0.3827 -0.2224  0.8918
 6522SOL    HW131202   1.852   3.192   8.564  1.0605  0.8228 -1.1290
 6522SOL    HW231203   1.968   3.107   8.536  0.3376  1.3837  1.2183
 6523SOL     OW31204   4.585   0.756   1.875  0.0678 -0.1088 -0.4876
 6523SOL    HW131205   4.504   0.707   1.861  0.0693  0.1072 -1.2854
 6523SOL    HW231206   4.559   0.832   1.822 -1.6009  0.8639  1.7543
 6524SOL     OW31207   2.235   1.438   2.554 -0.0626 -0.2433 -0.4730
 6524SOL    HW131208   2.308   1.463   2.610  0.5112  0.6288 -1.6003
 6524SOL    HW231209   2.284   1.392   2.486  1.6979 -0.0822  0.6934
 6525SOL     OW31210   3.248   1.576  14.852  0.2447  0.0275  0.2036
 6525SOL    HW131211   3.165   1.611  14.819 -0.8513 -1.8058  1.0041
 6525SOL    HW231212   3.221   1.485  14.839 -2.1851  0.5175  1.8253
 6526SOL     OW31213   2.275   0.499   2.215  0.2584  0.0657  0.1518
 6526SOL    HW131214   2.362   0.525   2.186 -0.3824 -0.5729 -2.2994
 6526SOL    HW231215   2.239   0.587   2.206 -0.6730 -0.1804  1.4839
 6527SOL     OW31216   0.635   3.172  15.092 -0.5481 -0.0051  0.2252
 6527SOL    HW131217   0.714   3.159  15.144 -0.0049  1.0986 -0.3330
 6527SOL    HW231218   0.671   3.209  15.012 -0.8321  0.2287  0.2035
 6528SOL     OW31219   2.115   3.418   3.870 -0.2877  0.4739  0.5494
 6528SOL    HW131220   2.033   3.422   3.822  0.9375 -1.4485 -1.7063
 6528SOL    HW231221   2.096   3.470   3.948 -1.1584 -0.0137  0.6612
 6529SOL     OW31222   0.222   3.380   1.462 -0.4845  0.1300 -0.2436
 6529SOL    HW131223   0.203   3.471   1.441 -0.8107  0.3829  1.1890
 6529SOL    HW231224   0.140   3.365   1.510 -0.4267  2.6516  0.6058
 6530SOL     OW31225   4.505   1.681   2.029  0.0257 -0.2001  0.8501
 6530SOL    HW131226   4.568   1.609   2.037 -1.0435 -1.1136  0.9641
 6530SOL    HW231227   4.546   1.739   2.094 -0.1979  1.1967 -0.2370
 6531SOL     OW31228   4.214   1.736  17.010 -0.1851  0.3944  0.4209
 6531SOL    HW131229   4.234   1.828  17.032  1.2806  0.5795 -1.6299
 6531SOL    HW231230   4.296   1.692  17.032  0.0619  0.6534  0.0212
 6532SOL     OW31231   2.874   3.176   0.069 -0.1934 -0.1454  0.2312
 6532SOL    HW131232   2.936   3.248   0.053  1.4743 -2.0636 -1.9758
 6532SOL    HW231233   2.801   3.206   0.015  0.2128  1.1815  0.4093
 6533SOL     OW31234   0.423   4.574  16.727  0.2777 -0.3268  0.9496
 6533SOL    HW131235   0.490   4.629  16.765 -1.5751  2.4370  0.2081
 6533SOL    HW231236   0.466   4.490  16.708 -1.4724 -1.2318  0.9399
 6534SOL     OW31237   4.541   2.208   7.209 -0.2323 -0.1266 -0.3863
 6534SOL    HW131238   4.504   2.239   7.291 -0.7416 -0.1591 -0.6042
 6534SOL    HW231239   4.520   2.114   7.205  3.4200 -0.9012 -1.6438
 6535SOL     OW31240   0.342   3.226   5.379 -0.6061  0.2374 -0.0892
 6535SOL    HW131241   0.254   3.261   5.390 -1.4159 -0.6502 -3.6843
 6535SOL    HW231242   0.390   3.309   5.383 -0.7403  0.2393  1.6634
 6536SOL     OW31243   1.522   2.407  17.264  0.6420 -0.1766  0.2914
 6536SOL    HW131244   1.501   2.378  17.175 -0.5694 -1.3017  0.9408
 6536SOL    HW231245   1.502   2.500  17.255 -0.8599 -0.5635 -0.3611
 6537SOL     OW31246   0.458   3.714   2.628  0.2524 -1.3160 -0.0250
 6537SOL    HW131247   0.471   3.708   2.534  0.3557 -1.5777  0.0073
 6537SOL    HW231248   0.447   3.623   2.656  0.3609 -1.0756  0.8012
 6538SOL     OW31249   2.243   0.917   4.809  0.0856  0.4464  0.5067
 6538SOL    HW131250   2.187   0.949   4.880 -1.4193 -0.9535 -0.0315
 6538SOL    HW231251   2.324   0.889   4.850  1.0007 -1.0435 -2.3265
 6539SOL     OW31252   4.412   1.168   5.997 -0.6161  0.0642  0.1666
 6539SOL    HW131253   4.459   1.119   5.930  1.2020 -0.4303  1.8101
 6539SOL    HW231254   4.446   1.256   5.984 -0.5244  0.0410  0.2490
 6540SOL     OW31255   3.574   2.492   4.048  0.7345 -0.0335 -0.4849
 6540SOL    HW131256   3.581   2.443   3.966  2.1165 -0.1265 -0.3156
 6540SOL    HW231257   3.666   2.511   4.063  0.2088  0.5748  1.9634
 6541SOL     OW31258   0.207   1.956   2.343 -0.3311  0.0559 -0.1847
 6541SOL    HW131259   0.280   2.016   2.361 -1.5808  1.4438  0.2589
 6541SOL    HW231260   0.253   1.892   2.289  1.6446 -0.7876  2.5385
 6542SOL     OW31261   1.735   3.497   9.149 -0.0406  0.3730 -0.2806
 6542SOL    HW131262   1.815   3.477   9.101  0.8732 -0.9670  1.7731
 6542SOL    HW231263   1.685   3.415   9.148 -1.3496  1.1842 -1.6617
 6543SOL     OW31264   1.384   0.513   8.901  0.0622 -0.0965 -0.5099
 6543SOL    HW131265   1.333   0.558   8.968  0.4200 -0.4482 -0.0005
 6543SOL    HW231266   1.448   0.581   8.882 -1.0373  0.8182 -0.9167
 6544SOL     OW31267   0.731   2.711   3.450  0.3222 -0.3393  0.3021
 6544SOL    HW131268   0.697   2.800   3.455 -0.7029 -0.8151  1.6814
 6544SOL    HW231269   0.676   2.670   3.383 -0.5699  0.7909  0.3351
 6545SOL     OW31270   4.605   1.410  16.413  0.2386 -0.4853  0.1831
 6545SOL    HW131271   4.579   1.322  16.384 -0.4916  0.1706 -1.1499
 6545SOL    HW231272   4.558   1.466  16.350  2.3783 -2.2347 -2.9694
 6546SOL     OW31273   1.655   4.628   4.138 -0.1657  0.4785 -0.5376
 6546SOL    HW131274   1.735   4.677   4.160  0.2017  0.2426 -1.3494
 6546SOL    HW231275   1.586   4.655   4.199  0.0106  1.5018 -0.7986
 6547SOL     OW31276   2.326   3.560   4.521 -0.0764 -0.6172  0.4617
 6547SOL    HW131277   2.392   3.628   4.505  0.0464 -0.9955 -0.6479
 6547SOL    HW231278   2.261   3.594   4.583 -0.0568  0.2765 -0.0127
 6548SOL     OW31279   1.251   2.261   2.188 -0.1688  0.0947  0.8513
 6548SOL    HW131280   1.274   2.168   2.186  1.2764  0.5029 -1.3429
 6548SOL    HW231281   1.156   2.263   2.181 -0.0640 -0.6323 -0.8723
 6549SOL     OW31282   0.246   0.913   8.414 -0.1777  0.2217 -0.2202
 6549SOL    HW131283   0.320   0.871   8.459 -0.9082 -2.0641 -1.1783
 6549SOL    HW231284   0.277   1.003   8.423  0.9647 -0.1488 -0.5002
 6550SOL     OW31285   2.645   4.506   8.298  0.1123 -0.1055  0.1844
 6550SOL    HW131286   2.712   4.570   8.322  0.7750 -1.1356  1.1291
 6550SOL    HW231287   2.620   4.536   8.211 -0.5698  0.5657  0.6154
 6551SOL     OW31288   2.590   4.448   6.605  0.1685 -0.2206  0.3335
 6551SOL    HW131289   2.534   4.422   6.532 -0.8445 -1.7967  1.6813
 6551SOL    HW231290   2.674   4.462   6.561 -0.1574  2.8320  0.6844
 6552SOL     OW31291   3.440   1.429   0.669 -0.9891 -0.1140 -0.2141
 6552SOL    HW131292   3.490   1.350   0.690 -0.8583 -0.2545 -1.0755
 6552SOL    HW231293   3.354   1.419   0.710 -1.3501 -1.4288 -1.2629
 6553SOL     OW31294   3.393   1.893   5.570  0.4769  0.2002 -0.0492
 6553SOL    HW131295   3.431   1.841   5.641 -0.7616 -1.2551 -0.4477
 6553SOL    HW231296   3.303   1.862   5.580 -1.0154  4.3116 -0.3600
 6554SOL     OW31297   4.136   0.864   9.184 -0.0330 -0.0275  0.3754
 6554SOL    HW131298   4.197   0.806   9.139 -1.8840 -2.0499  0.4558
 6554SOL    HW231299   4.107   0.809   9.256 -1.0239  1.6926  1.2935
 6555SOL     OW31300   2.356   3.390  17.497 -0.0959  0.1442 -0.3609
 6555SOL    HW131301   2.358   3.390  17.401  2.0041 -0.5056 -0.3240
 6555SOL    HW231302   2.400   3.306  17.510 -0.2589 -0.1695 -1.8327
 6556SOL     OW31303   1.814   2.878   6.172 -0.1520  0.3755  0.0603
 6556SOL    HW131304   1.742   2.850   6.227 -0.6572  1.8879  0.1677
 6556SOL    HW231305   1.774   2.950   6.122  0.8824  0.5686 -0.4952
 6557SOL     OW31306   3.700   4.473   2.013 -0.8350  0.2849 -0.6265
 6557SOL    HW131307   3.741   4.556   1.989  0.8159 -0.0675  1.0402
 6557SOL    HW231308   3.605   4.483   2.005 -1.0829 -1.0953  0.7507
 6558SOL     OW31309   2.356   0.517   5.950 -0.5587  0.6472 -0.2944
 6558SOL    HW131310   2.286   0.538   6.012 -0.7915  1.6276 -0.8930
 6558SOL    HW231311   2.315   0.534   5.865 -0.1903 -1.0526 -0.8223
 6559SOL     OW31312   1.706   2.924   8.648  0.0463 -0.1032  0.5926
 6559SOL    HW131313   1.723   2.913   8.742  2.6668  0.8348  0.2270
 6559SOL    HW231314   1.790   2.952   8.611  0.0887 -0.3260  0.5242
 6560SOL     OW31315   2.956   1.536   6.317 -0.0961  0.5454  0.1203
 6560SOL    HW131316   3.049   1.529   6.295 -0.5506 -0.7104 -1.4016
 6560SOL    HW231317   2.930   1.557   6.227 -1.1548 -0.4605  0.2002
 6561SOL     OW31318   1.596   4.300   5.943  0.1148  0.1097  0.2723
 6561SOL    HW131319   1.636   4.382   5.971 -0.2684  0.2161  0.5113
 6561SOL    HW231320   1.614   4.292   5.849  1.0481 -1.4218  0.5886
 6562SOL     OW31321   1.972   4.257   8.166  0.6653 -0.3142 -0.2972
 6562SOL    HW131322   1.968   4.173   8.120 -0.3412  0.4504 -1.6271
 6562SOL    HW231323   1.914   4.311   8.112  0.5029  0.7096  0.8981
 6563SOL     OW31324   0.311   3.115   8.846 -0.1226 -0.1167  0.2025
 6563SOL    HW131325   0.318   3.207   8.822  1.7703 -0.6054 -1.1986
 6563SOL    HW231326   0.395   3.107   8.891  0.4881  1.9545 -0.5894
 6564SOL     OW31327   3.608   3.481   3.166  0.1821 -0.0568 -0.1629
 6564SOL    HW131328   3.693   3.484   3.122  0.3924 -1.2999  0.1458
 6564SOL    HW231329   3.607   3.528   3.249  0.7272  3.6516 -2.2676
 6565SOL     OW31330   0.351   0.328   9.254 -0.0825 -0.1443 -0.8967
 6565SOL    HW131331   0.346   0.236   9.281 -0.5644  0.4411  1.0473
 6565SOL    HW231332   0.276   0.367   9.299  1.9032  3.0123 -0.2880
 6566SOL     OW31333   3.605   0.229   1.317  0.1262 -0.2462 -0.2474
 6566SOL    HW131334   3.535   0.264   1.372 -1.6434 -0.6811 -2.2554
 6566SOL    HW231335   3.666   0.201   1.386 -0.0055  1.8851  0.7226
 6567SOL     OW31336   4.734   0.833   4.731 -0.1179 -0.2894 -0.1840
 6567SOL    HW131337   0.089   0.812   4.759  0.2971 -0.3399 -1.5672
 6567SOL    HW231338   4.690   0.754   4.761 -2.1287  1.8564  2.5087
 6568SOL     OW31339   0.416   1.883   0.583 -0.1651  0.3918 -0.3448
 6568SOL    HW131340   0.323   1.895   0.562 -0.7859  0.5169  2.5006
 6568SOL    HW231341   0.469   1.958   0.557 -0.3628  0.7878  0.3892
 6569SOL     OW31342   2.733   1.583   0.346 -0.3676 -0.0056 -0.3401
 6569SOL    HW131343   2.763   1.495   0.320  1.3174 -0.1990  2.3417
 6569SOL    HW231344   2.652   1.561   0.392  1.5181 -1.7868  2.1234
 6570SOL     OW31345   3.618   3.430  10.169 -0.4722 -0.2587 -0.2932
 6570SOL    HW131346   3.691   3.413  10.228 -0.9533  1.0984  0.6729
 6570SOL    HW231347   3.562   3.359  10.202  0.1858 -0.5278  0.2474
 6571SOL     OW31348   2.582   3.531   9.516 -0.0904  0.1215 -0.5204
 6571SOL    HW131349   2.640   3.607   9.524  0.5097 -0.2541 -1.2904
 6571SOL    HW231350   2.593   3.477   9.594  2.3544  0.9363 -0.2981
 6572SOL     OW31351   0.396   1.757  15.541 -0.1664 -0.5233  0.1552
 6572SOL    HW131352   0.357   1.772  15.627  0.9204  0.0677  0.5441
 6572SOL    HW231353   0.464   1.693  15.564  1.1198  0.9091  0.3278
 6573SOL     OW31354   2.300   1.339  11.163  0.4597 -0.6978 -0.0221
 6573SOL    HW131355   2.383   1.333  11.115  0.9194 -1.7367  0.9125
 6573SOL    HW231356   2.232   1.306  11.105 -0.1893  1.5468 -0.5511
 6574SOL     OW31357   2.596   1.102  10.004  0.2159 -0.7901 -0.6085
 6574SOL    HW131358   2.554   1.020   9.978 -1.9978 -0.1639  0.9215
 6574SOL    HW231359   2.620   1.138   9.919  1.8769 -1.1166 -0.2675
 6575SOL     OW31360   0.059   3.028   2.331  0.1360  0.2932  0.3271
 6575SOL    HW131361   0.109   2.947   2.338 -0.2832  0.0757  0.7997
 6575SOL    HW231362   4.722   2.994   2.384 -0.3462 -0.1045 -0.5897
 6576SOL     OW31363   4.183   1.791   5.002 -0.2109  0.2523 -0.0017
 6576SOL    HW131364   4.158   1.782   4.910 -0.7223  0.5893  0.1011
 6576SOL    HW231365   4.128   1.868   5.017 -2.4180 -0.9556 -1.8115
 6577SOL     OW31366   2.482   3.878   0.924 -0.0464 -0.2375 -0.0937
 6577SOL    HW131367   2.551   3.899   0.987  0.0383  2.3711 -1.0363
 6577SOL    HW231368   2.539   3.838   0.859  0.8659 -0.0160  0.5718
 6578SOL     OW31369   2.123   3.264   4.873 -0.2260 -0.4515 -0.4203
 6578SOL    HW131370   2.153   3.217   4.795  1.0433 -0.3727  0.0154
 6578SOL    HW231371   2.199   3.258   4.932 -2.0028 -1.5182  1.7802
 6579SOL     OW31372   3.760   1.755  13.860 -0.2219  0.4787  0.7855
 6579SOL    HW131373   3.711   1.677  13.835  3.6339 -1.1389 -1.7788
 6579SOL    HW231374   3.714   1.771  13.942 -1.9996  2.1139 -0.5198
 6580SOL     OW31375   2.554   0.896   8.172  0.0623  0.0826  0.2865
 6580SOL    HW131376   2.532   0.828   8.108 -0.2069  1.1824 -0.7844
 6580SOL    HW231377   2.496   0.970   8.155 -0.0439  0.1265  0.8565
 6581SOL     OW31378   0.638   1.904  13.702  0.4130 -0.0062 -0.2697
 6581SOL    HW131379   0.558   1.935  13.660 -0.8230 -1.4188  1.0584
 6581SOL    HW231380   0.687   1.986  13.706  0.3080  0.0551 -0.2558
 6582SOL     OW31381   3.101   1.804   5.601 -0.2782 -0.5667  0.0296
 6582SOL    HW131382   3.012   1.799   5.567 -0.4173  1.0301  0.1547
 6582SOL    HW231383   3.118   1.897   5.591 -0.8094 -0.5656 -0.8687
 6583SOL     OW31384   0.949   0.148   5.546  0.3549 -0.5347  0.2073
 6583SOL    HW131385   1.019   0.165   5.610 -0.0049  0.4258  0.3438
 6583SOL    HW231386   0.999   0.154   5.464  0.4700 -2.1752  0.1697
 6584SOL     OW31387   3.371   0.826  10.044 -0.2082  0.1834 -0.2169
 6584SOL    HW131388   3.351   0.790  10.130  1.7868 -1.8389 -0.6022
 6584SOL    HW231389   3.333   0.753   9.996  1.1593 -0.0340 -0.9558
 6585SOL     OW31390   3.671   2.013   4.360  0.4585 -0.0629 -0.3639
 6585SOL    HW131391   3.751   1.971   4.328  0.6584  1.7929 -2.3748
 6585SOL    HW231392   3.599   1.959   4.330 -0.9803  1.2326  0.7790
 6586SOL     OW31393   3.079   2.497   2.016 -0.1256 -0.7694 -0.0613
 6586SOL    HW131394   2.995   2.477   2.059 -1.0103  2.5451 -0.2296
 6586SOL    HW231395   3.049   2.469   1.929  1.2240  0.1363 -0.8128
 6587SOL     OW31396   1.123   4.310   2.207 -0.0878  0.4247  0.4033
 6587SOL    HW131397   1.128   4.240   2.141 -2.4741  2.4030 -1.8883
 6587SOL    HW231398   1.136   4.260   2.288 -1.8807 -1.2471 -0.3283
 6588SOL     OW31399   1.029   0.593   6.228  0.4640  0.6874 -0.0385
 6588SOL    HW131400   1.124   0.603   6.236  0.4032  2.1520 -0.9538
 6588SOL    HW231401   1.010   0.670   6.173 -3.9795 -0.8164 -0.6167
 6589SOL     OW31402   3.907   3.135  13.099  0.4828  0.3512  0.1905
 6589SOL    HW131403   3.873   3.219  13.069 -0.7065 -0.5597 -1.0357
 6589SOL    HW231404   3.832   3.086  13.132  0.5069  0.2817  0.1428
 6590SOL     OW31405   1.490   4.529   7.231 -0.4326 -0.5174 -0.1944
 6590SOL    HW131406   1.432   4.583   7.177  0.8298 -0.0703 -1.1409
 6590SOL    HW231407   1.449   4.548   7.315 -0.9480  1.7347 -0.9534
 6591SOL     OW31408   2.909   4.415   5.944 -0.2611  0.4364 -0.3122
 6591SOL    HW131409   2.981   4.438   5.885 -0.6676 -1.7616 -1.6399
 6591SOL    HW231410   2.930   4.328   5.976 -1.5407 -0.8373 -2.9897
 6592SOL     OW31411   3.435   4.512   4.086 -0.2422 -0.6754 -0.3933
 6592SOL    HW131412   3.379   4.506   4.163  0.9439 -0.4691  0.4912
 6592SOL    HW231413   3.376   4.483   4.017 -2.6508  1.9078  0.5455
 6593SOL     OW31414   2.124   3.079   4.648 -0.0329 -0.7806  0.5276
 6593SOL    HW131415   2.195   3.015   4.651  0.1882 -0.6213 -1.5668
 6593SOL    HW231416   2.089   3.053   4.564 -0.1115  0.2656  0.2296
 6594SOL     OW31417   1.652   4.643  16.182 -0.1501 -1.0786 -0.0940
 6594SOL    HW131418   1.574   4.593  16.156  0.0264 -0.4196 -1.8700
 6594SOL    HW231419   1.634   4.646  16.276 -1.7705  1.1705 -0.4889
 6595SOL     OW31420   3.822   0.933  15.008 -0.3851  0.5532 -0.2799
 6595SOL    HW131421   3.897   0.987  15.036 -0.2690  1.6737 -2.7541
 6595SOL    HW231422   3.752   0.993  15.035 -0.3010 -0.8567  3.0908
 6596SOL     OW31423   4.662   1.337   4.596 -0.4785  0.2204 -0.4578
 6596SOL    HW131424   4.690   1.255   4.557  1.4078  0.9799 -0.7138
 6596SOL    HW231425   4.665   1.317   4.690 -1.3612  1.3199 -0.1940
 6597SOL     OW31426   2.836   1.756   5.506  0.0931 -0.0889 -0.1607
 6597SOL    HW131427   2.833   1.665   5.475 -2.4306  0.3186 -1.0814
 6597SOL    HW231428   2.744   1.769   5.528 -0.3511 -0.7814 -1.5993
 6598SOL     OW31429   4.334   1.245   4.658  0.0600 -0.3715 -0.2299
 6598SOL    HW131430   4.415   1.194   4.651  1.1861  1.4146 -0.3906
 6598SOL    HW231431   4.372   1.302   4.725  2.1390 -1.3051 -0.5975
 6599SOL     OW31432   1.352   1.540   6.103  0.5764 -0.5072  0.4607
 6599SOL    HW131433   1.433   1.490   6.095  2.4828  2.4086  1.2742
 6599SOL    HW231434   1.363   1.596   6.180  0.6275  0.5607 -0.3038
 6600SOL     OW31435   4.181   4.036   4.365 -0.4571 -0.5703  0.2304
 6600SOL    HW131436   4.164   4.102   4.432  0.0503  0.2469 -0.4555
 6600SOL    HW231437   4.275   4.051   4.355 -0.7820  2.6126  2.0176
 6601SOL     OW31438   3.572   4.275   4.179 -0.0303 -0.6065  0.0385
 6601SOL    HW131439   3.656   4.320   4.185 -0.5155  0.6548 -2.9903
 6601SOL    HW231440   3.508   4.344   4.196 -0.1820 -0.5910 -0.5939
 6602SOL     OW31441   2.332   2.525   6.786  0.3849 -0.3123 -0.4837
 6602SOL    HW131442   2.299   2.461   6.723 -1.2028  0.5307 -0.5196
 6602SOL    HW231443   2.415   2.551   6.748  0.5194 -2.6164 -1.7842
 6603SOL     OW31444   3.240   0.616   4.970  0.0106  0.0410  0.1599
 6603SOL    HW131445   3.333   0.639   4.971  0.4500 -1.6312 -1.2161
 6603SOL    HW231446   3.237   0.550   4.901  0.1507  1.0580 -0.8303
 6604SOL     OW31447   3.432   0.652   6.929  0.3413  0.2645 -0.5631
 6604SOL    HW131448   3.365   0.679   6.866  1.4685  1.2609 -1.3310
 6604SOL    HW231449   3.490   0.600   6.872  1.7249  0.7507  0.3993
 6605SOL     OW31450   1.734   3.780   7.970  0.3844  0.2845 -0.1209
 6605SOL    HW131451   1.765   3.776   8.061 -2.0505  1.2737  0.7428
 6605SOL    HW231452   1.796   3.844   7.934  1.2094  0.4067  1.5066
 6606SOL     OW31453   1.020   0.558   8.857 -0.5476 -0.0442  0.2427
 6606SOL    HW131454   0.930   0.552   8.890 -0.4951 -1.4016  0.1344
 6606SOL    HW231455   1.074   0.550   8.936 -0.3248 -0.7844  0.0106
 6607SOL     OW31456   4.711   0.909  10.411  0.0147  0.0614  0.1728
 6607SOL    HW131457   4.670   0.839  10.360  1.3584 -1.4556  1.1494
 6607SOL    HW231458   0.061   0.872  10.439  0.0434 -0.1290 -0.1570
 6608SOL     OW31459   1.444   0.167   3.433 -0.0434  0.1546 -0.2209
 6608SOL    HW131460   1.530   0.159   3.392  0.7206  0.8001  1.2403
 6608SOL    HW231461   1.460   0.099   3.498 -2.8797 -0.3950 -0.0708
 6609SOL     OW31462   2.108   1.804   4.580 -0.2118 -0.2607  0.4584
 6609SOL    HW131463   2.108   1.898   4.567  0.5775 -0.7641 -3.1141
 6609SOL    HW231464   2.135   1.761   4.499 -1.0474 -1.4923  0.8342
 6610SOL     OW31465   2.255   4.586  14.133 -0.1684 -0.0911 -0.5721
 6610SOL    HW131466   2.176   4.533  14.149 -0.9555  1.7849  1.8142
 6610SOL    HW231467   2.287   4.618  14.217 -3.0411  0.0989  0.4536
 6611SOL     OW31468   4.486   3.162   4.397  0.1029 -0.7002 -0.5864
 6611SOL    HW131469   4.535   3.168   4.315 -0.8176 -1.7203 -1.2006
 6611SOL    HW231470   4.450   3.074   4.392 -1.2341 -0.3184  1.9695
 6612SOL     OW31471   2.188   1.129   7.802 -0.4977 -0.3928  0.0950
 6612SOL    HW131472   2.243   1.065   7.846 -1.0877  0.3023  1.8393
 6612SOL    HW231473   2.244   1.206   7.815 -0.6585 -0.6041  1.9498
 6613SOL     OW31474   0.373   4.629   0.625  0.4732  0.4883 -0.0853
 6613SOL    HW131475   0.395   4.667   0.540 -0.0825  0.4536 -0.2421
 6613SOL    HW231476   0.376   4.538   0.595 -0.8997 -0.1904  1.8173
 6614SOL     OW31477   2.132   0.772   3.593  0.7032 -0.0274 -0.0688
 6614SOL    HW131478   2.080   0.834   3.644 -1.0650 -1.8435  0.3346
 6614SOL    HW231479   2.153   0.702   3.655  1.9292  0.4919  0.0911
 6615SOL     OW31480   1.811   1.712   7.754 -0.3149  0.3400 -0.2592
 6615SOL    HW131481   1.753   1.655   7.803  0.6622 -0.9987 -0.6686
 6615SOL    HW231482   1.851   1.766   7.822 -1.6293 -0.5915  1.2597
 6616SOL     OW31483   1.730   4.298   4.915  0.7380  0.0906  0.1259
 6616SOL    HW131484   1.678   4.290   4.835  0.7528  0.0235  0.1226
 6616SOL    HW231485   1.806   4.341   4.876  2.0258 -1.7289  0.6136
 6617SOL     OW31486   1.347   4.333   5.507 -0.1903  0.5806 -0.9375
 6617SOL    HW131487   1.411   4.390   5.550 -1.0206 -0.4663  1.6785
 6617SOL    HW231488   1.269   4.387   5.496  0.1914  1.3258 -0.0268
 6618SOL     OW31489   3.136   3.943  10.094  0.2069 -1.3591  0.4707
 6618SOL    HW131490   3.160   3.964  10.185  0.4395  1.0514 -0.1284
 6618SOL    HW231491   3.196   3.869  10.087  0.6146 -1.0278  0.3878
 6619SOL     OW31492   3.751   1.163  17.095 -0.2796 -0.2975 -0.1999
 6619SOL    HW131493   3.777   1.235  17.038 -0.8695 -0.0744 -0.1809
 6619SOL    HW231494   3.709   1.203  17.171  0.3132 -2.1596  1.1274
 6620SOL     OW31495   2.176   1.762   7.218  0.1091 -0.1748  0.3774
 6620SOL    HW131496   2.219   1.677   7.234  1.3493  0.2048 -0.8686
 6620SOL    HW231497   2.097   1.755   7.271 -2.3589  0.9666 -3.1482
 6621SOL     OW31498   2.036   4.462   6.546  1.2100 -0.4827  0.1339
 6621SOL    HW131499   2.122   4.422   6.558  0.9083 -0.9803  0.6152
 6621SOL    HW231500   1.992   4.427   6.623 -0.3290  0.1240 -0.4520
 6622SOL     OW31501   3.408   0.550   3.896  0.0899 -0.2113 -0.4874
 6622SOL    HW131502   3.480   0.488   3.903  1.0916  0.9279 -0.6741
 6622SOL    HW231503   3.329   0.497   3.904  1.3711 -2.2611 -1.3522
 6623SOL     OW31504   3.596   2.392   8.218 -0.1628  0.1785 -0.4900
 6623SOL    HW131505   3.653   2.467   8.200 -0.1281  0.9341  2.7741
 6623SOL    HW231506   3.626   2.355   8.300  0.7213 -2.0606 -1.8266
 6624SOL     OW31507   3.252   3.582   5.205 -0.4607 -0.3609  0.2999
 6624SOL    HW131508   3.278   3.509   5.261  1.0140 -0.3685 -0.3792
 6624SOL    HW231509   3.234   3.531   5.126 -2.4247 -1.9707  1.7869
 6625SOL     OW31510   4.347   1.197   3.238  0.1462  0.1128  0.7298
 6625SOL    HW131511   4.355   1.120   3.295 -1.8822 -1.3940 -1.0064
 6625SOL    HW231512   4.253   1.215   3.247  0.3340  0.8260  1.2097
 6626SOL     OW31513   2.095   2.747   5.656 -0.5430  0.6081  0.0695
 6626SOL    HW131514   2.026   2.814   5.649  0.0787  1.1652 -0.6433
 6626SOL    HW231515   2.173   2.802   5.652 -0.3830  0.4245  0.5976
 6627SOL     OW31516   4.310   1.865   7.007 -0.4149 -0.1338 -0.3665
 6627SOL    HW131517   4.352   1.780   6.996  1.4665  0.9551 -1.7474
 6627SOL    HW231518   4.227   1.851   6.961 -0.7646 -0.0377  0.2440
 6628SOL     OW31519   1.043   0.250  12.673 -0.2349  0.1133 -0.1821
 6628SOL    HW131520   1.047   0.308  12.749 -0.1914 -1.7551  1.2580
 6628SOL    HW231521   1.122   0.288  12.636 -1.0253  0.3363 -1.6311
 6629SOL     OW31522   3.588   2.170  14.471 -0.4928  0.1870  0.5533
 6629SOL    HW131523   3.581   2.257  14.433 -1.4375  0.0684  0.4718
 6629SOL    HW231524   3.631   2.124  14.399  1.8348 -1.3202  2.9011
 6630SOL     OW31525   1.888   2.668   2.767 -0.6041  0.5903 -0.7626
 6630SOL    HW131526   1.796   2.671   2.742 -0.7706 -2.7054 -0.6177
 6630SOL    HW231527   1.921   2.714   2.690  1.3681  1.2986  0.5135
 6631SOL     OW31528   1.180   4.202   1.175 -0.2405 -0.1361  0.3578
 6631SOL    HW131529   1.228   4.237   1.100  0.7098  0.3799  1.1949
 6631SOL    HW231530   1.187   4.280   1.231 -1.0263  0.1672  0.0190
 6632SOL     OW31531   0.959   0.298   1.865 -0.2521 -0.1384 -0.4554
 6632SOL    HW131532   0.986   0.207   1.855 -0.0924 -0.0297 -0.9758
 6632SOL    HW231533   0.872   0.302   1.824 -0.5308  2.5099  0.4190
 6633SOL     OW31534   1.583   3.651  16.136  0.7572  0.0792  0.1402
 6633SOL    HW131535   1.649   3.692  16.080  0.4606 -0.0862 -0.3301
 6633SOL    HW231536   1.638   3.586  16.178 -0.9993 -0.9126  0.9028
 6634SOL     OW31537   3.408   2.444   5.686 -0.2372  0.2007  0.0940
 6634SOL    HW131538   3.379   2.379   5.622  1.2568 -1.5907  1.2243
 6634SOL    HW231539   3.482   2.488   5.644 -0.7842  1.6545  0.6823
 6635SOL     OW31540   0.792   4.244   8.795 -0.3538  0.0212 -0.0215
 6635SOL    HW131541   0.853   4.251   8.869 -0.7545 -0.6945  0.3801
 6635SOL    HW231542   0.745   4.162   8.812 -0.3703  0.0558  0.1030
 6636SOL     OW31543   3.545   4.601  11.318  0.3420  0.1948 -0.5350
 6636SOL    HW131544   3.452   4.620  11.305  0.2496  1.4236  1.8504
 6636SOL    HW231545   3.567   4.563  11.234  1.4666 -0.7974  0.2150
 6637SOL     OW31546   3.139   3.947  14.997  0.5825  0.7299  0.2194
 6637SOL    HW131547   3.143   3.982  14.908  0.6700  3.5020  1.3181
 6637SOL    HW231548   3.171   3.859  14.980  1.4887  1.2297 -0.6501
 6638SOL     OW31549   1.599   0.805   9.808 -0.1172 -0.1484 -0.0613
 6638SOL    HW131550   1.580   0.891   9.772 -2.2150  0.1350  1.7075
 6638SOL    HW231551   1.614   0.824   9.900 -0.2039  0.7421 -0.2328
 6639SOL     OW31552   0.692   4.552   6.557 -0.1395 -0.3654 -0.3041
 6639SOL    HW131553   0.754   4.499   6.508 -2.6681 -1.6696 -2.0352
 6639SOL    HW231554   0.696   4.632   6.505  2.8344 -0.4199 -0.1885
 6640SOL     OW31555   0.934   1.697  10.770 -0.5090  0.2969 -0.0077
 6640SOL    HW131556   0.941   1.698  10.674 -0.5094  2.3759  0.0181
 6640SOL    HW231557   0.874   1.623  10.784  2.0403 -1.3325  2.2608
 6641SOL     OW31558   2.442   3.416   4.861 -0.7224  0.0967  0.4914
 6641SOL    HW131559   2.534   3.402   4.882 -0.6980  1.0191  0.9909
 6641SOL    HW231560   2.439   3.423   4.765 -0.8266  0.2590  0.5069
 6642SOL     OW31561   3.676   1.582   0.078 -0.1802  0.5939 -0.3360
 6642SOL    HW131562   3.702   1.533  17.737 -0.7993 -2.7172  1.5186
 6642SOL    HW231563   3.694   1.673   0.057  0.5639  1.0183  2.2326
 6643SOL     OW31564   3.554   3.510   8.295 -0.4294 -0.0532  0.6467
 6643SOL    HW131565   3.511   3.441   8.244 -1.6167  1.2481 -0.0890
 6643SOL    HW231566   3.612   3.461   8.353  0.5333 -1.5242 -1.5269
 6644SOL     OW31567   2.166   1.376   6.522  0.1982 -0.5752  0.1521
 6644SOL    HW131568   2.248   1.426   6.520 -0.5756  0.7506  1.5540
 6644SOL    HW231569   2.191   1.310   6.457  0.1645 -0.7985  0.3710
 6645SOL     OW31570   3.435   3.379   6.818  0.6435  0.2500 -0.0351
 6645SOL    HW131571   3.427   3.361   6.724 -1.2072  0.6643  0.0562
 6645SOL    HW231572   3.371   3.445   6.842  1.0373  1.1532 -1.4980
 6646SOL     OW31573   3.851   4.082   6.053 -0.2418  0.0367 -0.3194
 6646SOL    HW131574   3.883   3.992   6.042  1.7165  0.6993  0.0173
 6646SOL    HW231575   3.759   4.071   6.030 -0.0580  1.9682 -1.9983
 6647SOL     OW31576   0.383   3.163   2.602 -0.0976 -0.3854 -0.4443
 6647SOL    HW131577   0.346   3.078   2.626 -3.2028 -0.0913 -4.3900
 6647SOL    HW231578   0.359   3.170   2.510 -0.3647  3.2794 -0.0797
 6648SOL     OW31579   2.405   2.844   2.025  0.4693 -0.0782  0.3010
 6648SOL    HW131580   2.360   2.783   2.084 -0.6038 -1.3067 -1.8005
 6648SOL    HW231581   2.491   2.808   2.050  0.9481  1.5956  1.0645
 6649SOL     OW31582   1.864   4.044   7.986  0.2055  0.0806  0.5534
 6649SOL    HW131583   1.826   4.075   7.904  0.5410 -0.9612 -0.0046
 6649SOL    HW231584   1.785   4.038   8.040  0.7415 -3.8453  0.9008
 6650SOL     OW31585   1.002   1.651   0.133  0.2899  0.2670 -0.2752
 6650SOL    HW131586   0.998   1.652   0.037  3.6690  0.3832 -0.4194
 6650SOL    HW231587   0.945   1.725   0.152 -0.5458  0.1278 -2.1414
 6651SOL     OW31588   2.332   0.455   4.351 -0.2048  0.5608  0.8077
 6651SOL    HW131589   2.297   0.378   4.395 -2.4179  0.4868 -1.0543
 6651SOL    HW231590   2.377   0.500   4.423  0.4175  1.9284 -0.4372
 6652SOL     OW31591   2.240   4.221   8.038  0.6102 -0.2075 -0.0010
 6652SOL    HW131592   2.293   4.153   7.996 -0.1690 -1.2388  0.6596
 6652SOL    HW231593   2.276   4.211   8.126 -0.4714  1.6086  0.6403
 6653SOL     OW31594   1.769   1.750   4.601 -0.4355 -0.5658 -0.3619
 6653SOL    HW131595   1.824   1.688   4.649 -0.8071 -1.7646 -1.4615
 6653SOL    HW231596   1.687   1.701   4.590 -1.1175  0.3958  0.4499
 6654SOL     OW31597   2.705   1.860  11.903  0.5267  0.2014 -0.2024
 6654SOL    HW131598   2.620   1.892  11.933  0.4079  0.6558 -1.0333
 6654SOL    HW231599   2.684   1.826  11.816 -3.4877 -0.1136  0.8871
 6655SOL     OW31600   4.026   4.699   5.440  0.2039  0.2460  0.1107
 6655SOL    HW131601   4.045   0.035   5.379  1.4583 -1.0595 -1.0007
 6655SOL    HW231602   4.108   4.721   5.485  0.4456  0.2634 -0.3419
 6656SOL     OW31603   1.993   2.753  15.358  0.1338  0.2767 -0.3236
 6656SOL    HW131604   2.088   2.770  15.357  0.2045 -0.2082 -1.6120
 6656SOL    HW231605   1.998   2.670  15.310 -1.1321 -1.4373  2.4881
 6657SOL     OW31606   1.955   2.907   5.028 -0.2624 -0.4119 -0.2329
 6657SOL    HW131607   1.992   2.948   5.106  1.4485 -1.0389 -0.7076
 6657SOL    HW231608   2.018   2.838   5.006 -0.4021 -0.1959 -1.3162
 6658SOL     OW31609   4.674   2.056   9.725 -0.0634 -0.2594 -0.1714
 6658SOL    HW131610   4.708   2.052   9.814 -0.0388 -0.2366 -0.1795
 6658SOL    HW231611   0.002   1.997   9.683  0.9646  2.4880 -2.5917
 6659SOL     OW31612   3.140   1.017  16.483  0.4636  0.1176 -0.4637
 6659SOL    HW131613   3.185   0.938  16.515  1.1360  0.8921  0.5184
 6659SOL    HW231614   3.119   1.058  16.567 -1.6493 -0.0990 -0.8823
 6660SOL     OW31615   4.167   1.628   3.341 -0.5535 -0.3623  0.0365
 6660SOL    HW131616   4.077   1.609   3.314  1.1442 -1.9074 -4.5558
 6660SOL    HW231617   4.190   1.560   3.405  1.7284 -0.6607 -1.1061
 6661SOL     OW31618   4.117   1.891   8.728 -0.6240 -0.1313  0.4648
 6661SOL    HW131619   4.104   1.945   8.806 -0.8661  3.5021 -2.0471
 6661SOL    HW231620   4.054   1.820   8.733 -1.0621  0.2484  0.2787
 6662SOL     OW31621   0.512   3.322   7.078 -0.5529  0.1136 -0.2486
 6662SOL    HW131622   0.591   3.375   7.063  1.7723 -3.0725  0.8839
 6662SOL    HW231623   0.458   3.363   7.009 -2.2192 -2.6404 -0.5707
 6663SOL     OW31624   3.147   3.622   8.471  0.2504  0.5545 -0.2649
 6663SOL    HW131625   3.229   3.671   8.480  0.6919 -0.1487 -0.3717
 6663SOL    HW231626   3.078   3.688   8.468  1.4838  1.8636  0.4086
 6664SOL     OW31627   3.029   2.571   5.363  0.1293  0.2655  0.1004
 6664SOL    HW131628   3.124   2.560   5.374  0.6735  2.6105 -2.2675
 6664SOL    HW231629   2.990   2.484   5.366 -0.1970  0.3406 -1.7550
 6665SOL     OW31630   1.146   3.538   1.295 -0.2817  0.2027 -0.3017
 6665SOL    HW131631   1.232   3.568   1.323 -0.6751  0.7413  0.3094
 6665SOL    HW231632   1.095   3.537   1.376  1.0557  0.9968  0.5422
 6666SOL     OW31633   0.041   3.285   2.509 -0.0230  0.1062  0.0568
 6666SOL    HW131634   0.100   3.221   2.468  0.9495  1.2305 -0.3145
 6666SOL    HW231635   4.694   3.237   2.499 -1.4531  2.8747 -1.4813
 6667SOL     OW31636   3.859   4.624   6.110 -0.3688  0.1373 -0.2112
 6667SOL    HW131637   3.926   4.641   6.044  0.4389 -1.0840  0.2930
 6667SOL    HW231638   3.845   4.532   6.088  1.3168 -0.3277  0.6535
 6668SOL     OW31639   2.227   1.348   4.413 -0.4973  0.1071 -0.2791
 6668SOL    HW131640   2.313   1.346   4.372 -0.1349 -1.1564  0.5559
 6668SOL    HW231641   2.188   1.266   4.383  1.8330 -0.8150 -0.7496
 6669SOL     OW31642   0.572   2.419   8.721 -0.4226  0.4159 -0.0452
 6669SOL    HW131643   0.641   2.457   8.667  1.4029 -2.2061  0.4629
 6669SOL    HW231644   0.612   2.340   8.758  0.4317  0.5127 -0.7814
 6670SOL     OW31645   4.135   3.544   7.117  0.2756  0.0391 -0.4279
 6670SOL    HW131646   4.104   3.634   7.121  0.6928  0.1593  0.0117
 6670SOL    HW231647   4.068   3.503   7.062  0.9165 -1.8955  0.2472
 6671SOL     OW31648   4.378   3.973  10.321 -0.0943 -0.8165  0.4105
 6671SOL    HW131649   4.352   4.063  10.303  0.6989 -0.2291  2.1230
 6671SOL    HW231650   4.367   3.972  10.416  1.7013 -0.3068  0.6149
 6672SOL     OW31651   1.738   4.301   3.814  0.5576 -0.7614 -0.2071
 6672SOL    HW131652   1.780   4.277   3.896 -1.6961  0.2943  1.2453
 6672SOL    HW231653   1.795   4.366   3.772 -0.0051  0.4774  0.9894
 6673SOL     OW31654   1.007   2.675   3.376  0.1819 -0.0778 -0.3785
 6673SOL    HW131655   1.018   2.606   3.310 -0.2055  0.0306 -0.5566
 6673SOL    HW231656   0.912   2.678   3.386  0.1628  1.4983 -1.0307
 6674SOL     OW31657   4.691   1.084   9.242  0.0397  0.5034 -0.2655
 6674SOL    HW131658   0.022   1.145   9.209  1.5980 -1.0472 -0.0274
 6674SOL    HW231659   4.702   1.007   9.186  0.0805  1.5998 -1.7580
 6675SOL     OW31660   4.655   3.103  15.087 -0.7800  0.4494 -0.4563
 6675SOL    HW131661   4.631   3.065  15.172 -0.2670  2.6325  0.6654
 6675SOL    HW231662   4.690   3.026  15.042  0.6851  0.7280  0.1819
 6676SOL     OW31663   2.974   0.254   7.392  0.2040  0.2906  0.0859
 6676SOL    HW131664   3.028   0.314   7.339 -0.7864  1.6867  0.6634
 6676SOL    HW231665   2.993   0.280   7.482 -0.6691  3.1562 -0.5558
 6677SOL     OW31666   3.768   0.485   5.995 -0.3111  0.4673  0.2473
 6677SOL    HW131667   3.776   0.390   5.993 -0.6034  0.4583 -0.7206
 6677SOL    HW231668   3.832   0.511   6.061 -1.0304 -1.1588  1.5840
 6678SOL     OW31669   4.181   2.067   8.399 -0.7836  0.0610 -0.3615
 6678SOL    HW131670   4.163   2.153   8.436  1.3117 -0.1147  1.1181
 6678SOL    HW231671   4.245   2.085   8.331  0.9769 -1.0359  0.9761
 6679SOL     OW31672   2.825   4.160   8.120 -0.6522 -0.2474  0.4286
 6679SOL    HW131673   2.906   4.173   8.169  0.6233 -1.9441 -1.2363
 6679SOL    HW231674   2.855   4.182   8.031  0.4941 -0.4251  0.7659
 6680SOL     OW31675   1.856   1.064   9.614 -0.6693  0.1561 -0.1973
 6680SOL    HW131676   1.768   1.045   9.582 -0.6733 -0.9117  0.4428
 6680SOL    HW231677   1.912   1.017   9.553  0.0834 -1.1059  1.4829
 6681SOL     OW31678   1.602   3.263  16.454 -0.0540 -0.1606 -0.0893
 6681SOL    HW131679   1.659   3.190  16.429 -0.8280  0.2525 -3.0636
 6681SOL    HW231680   1.516   3.224  16.468 -0.9612  1.8392 -0.1655
 6682SOL     OW31681   4.399   1.546  17.142  0.0704  0.1693  0.7213
 6682SOL    HW131682   4.366   1.463  17.175 -0.5487  0.3168  0.4684
 6682SOL    HW231683   4.460   1.516  17.075 -2.5843  2.5063 -2.7752
 6683SOL     OW31684   0.510   0.042   5.163  0.2780  0.4671 -0.1969
 6683SOL    HW131685   0.565   0.036   5.085  0.5599 -0.3000  0.0609
 6683SOL    HW231686   0.574   0.060   5.232 -2.9738  1.7299  2.4774
 6684SOL     OW31687   0.064   1.979   8.414 -0.3329 -0.4284 -0.0287
 6684SOL    HW131688   0.149   2.015   8.391 -0.5351 -0.8872 -1.4476
 6684SOL    HW231689   0.017   1.970   8.332  1.1746  0.7239 -1.0060
 6685SOL     OW31690   1.326   2.798   8.563  0.1538 -0.4749  0.2969
 6685SOL    HW131691   1.240   2.808   8.604 -0.2789 -0.2212 -0.6752
 6685SOL    HW231692   1.328   2.708   8.532  0.7905 -0.1631 -0.5647
 6686SOL     OW31693   3.836   3.031   1.148  0.4110  0.5072  0.3284
 6686SOL    HW131694   3.892   2.953   1.140 -0.6399 -0.1132 -1.0485
 6686SOL    HW231695   3.835   3.044   1.242  1.6460  1.7659  0.1691
 6687SOL     OW31696   1.770   2.607   7.750  0.2625 -0.6231 -0.4219
 6687SOL    HW131697   1.814   2.688   7.776  1.8637 -1.7152  0.2420
 6687SOL    HW231698   1.703   2.652   7.698 -0.0690 -0.0093  0.5410
 6688SOL     OW31699   2.689   0.025   4.366 -0.3442 -0.2395 -0.6924
 6688SOL    HW131700   2.714   0.042   4.276  0.7139 -1.3743 -0.6149
 6688SOL    HW231701   2.648   4.674   4.355 -0.3418 -0.5549  1.7526
 6689SOL     OW31702   2.186   0.812   4.270  0.3851 -0.1305 -0.6057
 6689SOL    HW131703   2.280   0.797   4.260  1.0079  3.1675  0.4216
 6689SOL    HW231704   2.168   0.811   4.176 -0.9335  0.3168 -0.3621
 6690SOL     OW31705   3.762   0.338   6.467  0.0125 -0.0870 -0.2192
 6690SOL    HW131706   3.830   0.302   6.524  0.3657  0.5286 -0.2575
 6690SOL    HW231707   3.811   0.343   6.384  0.6363  0.6527  0.1984
 6691SOL     OW31708   2.425   0.057   7.009 -0.1083 -0.3094 -0.0656
 6691SOL    HW131709   2.406   4.732   7.082 -0.1770  1.0382  1.0217
 6691SOL    HW231710   2.496   0.007   6.968 -0.7552 -0.4888 -0.9584
 6692SOL     OW31711   1.566   0.296  16.225 -0.1582  0.2939 -0.0319
 6692SOL    HW131712   1.531   0.220  16.272 -1.9118  2.2808  1.9035
 6692SOL    HW231713   1.492   0.340  16.183 -0.7715  1.1998  2.0163
 6693SOL     OW31714   1.015   3.858   5.690  0.5483 -0.0595 -0.0395
 6693SOL    HW131715   1.071   3.916   5.742 -1.6094  0.4784  1.6885
 6693SOL    HW231716   1.040   3.891   5.604 -0.1201 -1.5307 -0.8144
 6694SOL     OW31717   2.956   2.397   1.801 -0.3823 -0.1582 -0.1451
 6694SOL    HW131718   2.946   2.472   1.742 -3.0327  0.0944  0.5901
 6694SOL    HW231719   2.996   2.326   1.750  0.1640  0.2748 -0.3145
 6695SOL     OW31720   0.481   0.078   6.416  0.1387 -0.1323 -0.6250
 6695SOL    HW131721   0.512   0.157   6.370 -4.6023  1.9131 -0.3990
 6695SOL    HW231722   0.539   0.081   6.492  0.7677 -1.0555 -1.0716
 6696SOL     OW31723   4.507   3.763   0.516 -0.1447 -0.0387  0.0544
 6696SOL    HW131724   4.574   3.697   0.533 -0.8919 -0.6817  0.5257
 6696SOL    HW231725   4.523   3.785   0.425  0.0624 -0.6132 -0.0478
 6697SOL     OW31726   3.423   0.882   9.774 -0.4191  0.2388 -0.5236
 6697SOL    HW131727   3.392   0.838   9.853 -0.4624 -1.8447 -1.7018
 6697SOL    HW231728   3.387   0.835   9.699  0.3962 -0.0689 -0.7135
 6698SOL     OW31729   3.215   1.799  16.490  0.2994  0.0216 -0.1330
 6698SOL    HW131730   3.201   1.856  16.565  1.9023  1.3483 -0.8460
 6698SOL    HW231731   3.201   1.852  16.412 -0.3174 -0.8191 -0.5991
 6699SOL     OW31732   0.383   0.069   1.799 -0.8825  0.3683  0.2956
 6699SOL    HW131733   0.431   0.020   1.865 -1.2430  1.2677  1.2434
 6699SOL    HW231734   0.333   4.731   1.761 -0.7772  0.5252 -0.1455
 6700SOL     OW31735   4.504   2.794  12.212  0.1163  0.0143 -0.6435
 6700SOL    HW131736   4.566   2.786  12.139  1.2398 -2.1895  0.5658
 6700SOL    HW231737   4.560   2.760  12.281  0.2332 -2.1239 -1.7710
 6701SOL     OW31738   0.715   3.848   4.132  0.2943  0.8680  0.0505
 6701SOL    HW131739   0.783   3.899   4.176  1.5506  1.0548 -2.0926
 6701SOL    HW231740   0.632   3.872   4.173  1.1111 -1.2537  2.9402
 6702SOL     OW31741   0.480   2.169   1.856  0.3899  0.1074  0.3962
 6702SOL    HW131742   0.514   2.088   1.894 -1.8478 -0.8087  0.4341
 6702SOL    HW231743   0.550   2.193   1.795  0.2431 -1.1494 -0.2711
 6703SOL     OW31744   3.509   2.848   3.927 -0.3268 -0.2803  0.4516
 6703SOL    HW131745   3.457   2.858   4.007 -0.7891 -0.7321  0.2050
 6703SOL    HW231746   3.475   2.763   3.901 -0.8011  0.0749 -0.1020
 6704SOL     OW31747   4.065   1.292  11.990  0.6327 -0.3302  0.0064
 6704SOL    HW131748   4.056   1.208  12.034 -0.5421  0.5919  1.5498
 6704SOL    HW231749   3.982   1.310  11.945  0.0386 -2.4054  0.2985
 6705SOL     OW31750   0.364   2.093   6.408 -0.1898 -0.4766  0.6034
 6705SOL    HW131751   0.277   2.087   6.447 -0.3848 -1.2460  0.0605
 6705SOL    HW231752   0.346   2.068   6.317  0.0024  1.7492 -0.0434
 6706SOL     OW31753   4.355   2.624  14.509 -0.1807  0.4137  0.4418
 6706SOL    HW131754   4.322   2.557  14.449 -0.5328 -0.4664  1.6032
 6706SOL    HW231755   4.396   2.688  14.451 -0.2541 -1.6190 -1.8543
 6707SOL     OW31756   4.153   2.269   0.079  0.3995 -0.0876  0.2274
 6707SOL    HW131757   4.106   2.274  17.733  0.0480 -1.5973  0.3471
 6707SOL    HW231758   4.204   2.350   0.069  1.1354 -0.6451 -0.5730
 6708SOL     OW31759   2.860   2.757   5.481 -0.2083  0.2164  0.8237
 6708SOL    HW131760   2.927   2.723   5.421 -0.1864  0.3034  0.7991
 6708SOL    HW231761   2.845   2.848   5.455  2.5916  0.2992 -0.5717
 6709SOL     OW31762   0.490   2.052  14.539 -0.1961 -0.0039  0.4512
 6709SOL    HW131763   0.508   2.070  14.631  2.5035 -0.3244 -0.0348
 6709SOL    HW231764   0.443   2.131  14.510 -0.4054 -0.8159 -1.4488
 6710SOL     OW31765   4.270   3.911  11.437  0.3553  0.1970 -0.4061
 6710SOL    HW131766   4.269   4.006  11.452  2.1561 -0.1107  1.5999
 6710SOL    HW231767   4.365   3.901  11.429  0.4086 -2.1113  3.1966
 6711SOL     OW31768   3.732   4.044  16.767  0.2561 -0.0701  0.7819
 6711SOL    HW131769   3.665   4.097  16.809 -1.0013 -0.0585 -1.2440
 6711SOL    HW231770   3.795   4.103  16.724 -0.6802  0.0029 -0.4710
 6712SOL     OW31771   4.407   4.732   5.054 -0.7864  0.5249  0.5037
 6712SOL    HW131772   4.386   4.678   5.130 -2.7065  2.5543  1.4427
 6712SOL    HW231773   4.499   0.019   5.068 -0.9926 -0.4998  3.4472
 6713SOL     OW31774   3.993   4.618   9.456 -0.1069  0.3760  0.0318
 6713SOL    HW131775   4.044   4.537   9.455 -1.0027 -0.1697 -1.0238
 6713SOL    HW231776   3.901   4.593   9.445  0.0667 -0.4012  0.3828
 6714SOL     OW31777   1.891   1.351   6.455  0.5060 -0.1404 -0.1626
 6714SOL    HW131778   1.982   1.365   6.481  0.6144  2.0866 -1.6921
 6714SOL    HW231779   1.877   1.415   6.385  1.6674  0.3190  0.0220
 6715SOL     OW31780   0.863   4.623   7.226 -0.4191  0.8692 -0.4837
 6715SOL    HW131781   0.810   4.665   7.293  1.7649  2.5623  0.1860
 6715SOL    HW231782   0.866   4.685   7.153  1.0396 -1.4052 -2.3849
 6716SOL     OW31783   0.358   1.888  11.418  0.1403  0.3051  0.1343
 6716SOL    HW131784   0.340   1.962  11.476  1.0100  1.2507 -0.7760
 6716SOL    HW231785   0.449   1.874  11.443 -0.0218  0.5407  0.8379
 6717SOL     OW31786   0.596   4.047   2.372 -0.2536  0.1195  0.3264
 6717SOL    HW131787   0.502   4.032   2.381 -0.5029  1.8205  0.5888
 6717SOL    HW231788   0.630   4.024   2.459 -0.8519  2.1887  1.1180
 6718SOL     OW31789   4.306   2.742   0.678  0.1746  0.4611 -0.4369
 6718SOL    HW131790   4.330   2.753   0.770  2.6974  1.2781 -1.1969
 6718SOL    HW231791   4.320   2.647   0.674  2.3761  0.7889 -0.0324
 6719SOL     OW31792   3.300   2.621   7.313  0.1527  0.3137 -0.2866
 6719SOL    HW131793   3.235   2.602   7.245  0.5134 -0.5582 -0.3885
 6719SOL    HW231794   3.284   2.546   7.370 -1.1509 -0.7739 -2.0420
 6720SOL     OW31795   4.107   0.862   0.371  0.1335 -0.4167 -0.1858
 6720SOL    HW131796   4.059   0.785   0.402 -0.6966 -0.7729 -2.3738
 6720SOL    HW231797   4.049   0.903   0.307  1.4305  1.6978 -0.0104
 6721SOL     OW31798   4.522   2.020   3.163  0.1728  0.5915  0.9308
 6721SOL    HW131799   4.464   1.966   3.109  0.7281  1.3152 -0.3902
 6721SOL    HW231800   4.562   2.080   3.100  2.0779 -1.7557 -0.1044
 6722SOL     OW31801   0.019   3.853   4.959 -0.0544 -0.8614  0.6233
 6722SOL    HW131802   0.068   3.933   4.976 -1.0522 -0.5269  1.9156
 6722SOL    HW231803   0.005   3.862   4.865  1.1339  2.0954  0.7226
 6723SOL     OW31804   1.571   2.718  11.662 -0.3099  0.6581  0.7540
 6723SOL    HW131805   1.505   2.649  11.658 -0.7839  1.1951 -0.6175
 6723SOL    HW231806   1.590   2.736  11.570 -0.3668  0.8328  0.7762
 6724SOL     OW31807   2.182   2.237   5.518 -0.6933 -0.0766 -0.4266
 6724SOL    HW131808   2.207   2.177   5.447  2.2729  0.5535  0.0750
 6724SOL    HW231809   2.258   2.295   5.513 -0.0959 -0.9544 -1.5267
 6725SOL     OW31810   2.534   3.591   5.595 -0.2837  0.1799 -0.4015
 6725SOL    HW131811   2.478   3.521   5.629  2.8884 -1.4176  1.4622
 6725SOL    HW231812   2.593   3.607   5.668 -0.6895 -2.0053  0.3954
 6726SOL     OW31813   2.365   0.962   7.911 -0.1565 -0.3874 -0.7890
 6726SOL    HW131814   2.309   0.941   7.986 -0.9760 -1.2337 -1.6394
 6726SOL    HW231815   2.419   0.883   7.901 -0.8804 -0.9586 -0.1581
 6727SOL     OW31816   0.715   3.959   2.014  0.0252  0.4503 -0.0859
 6727SOL    HW131817   0.643   4.023   2.021  0.5092  0.8749  0.9646
 6727SOL    HW231818   0.748   3.967   1.924 -2.2608 -0.8110 -1.0332
 6728SOL     OW31819   4.042   2.431  13.091  0.0255 -0.1335  0.2862
 6728SOL    HW131820   3.982   2.361  13.065  0.9579 -1.2831  1.2601
 6728SOL    HW231821   4.116   2.380  13.059  0.5040  0.2122  0.8376
 6729SOL     OW31822   4.257   2.118  14.953  0.0317 -0.2840  0.2143
 6729SOL    HW131823   4.305   2.165  14.886 -1.2812  0.8720  0.0815
 6729SOL    HW231824   4.312   2.041  14.969  0.1746 -0.4897 -1.3075
 6730SOL     OW31825   4.503   3.256   0.877 -0.0985 -0.5348 -0.0993
 6730SOL    HW131826   4.473   3.307   0.801  0.4389  0.7491  0.5450
 6730SOL    HW231827   4.580   3.217   0.836  0.7458  0.7711  0.2521
 6731SOL     OW31828   1.669   0.311   3.612  0.4683  0.3661 -0.4783
 6731SOL    HW131829   1.679   0.394   3.658  0.4632  0.4452 -0.6201
 6731SOL    HW231830   1.603   0.338   3.547  0.2298  0.1713 -0.3168
 6732SOL     OW31831   1.493   0.280  11.096 -0.2234 -0.2547  0.0381
 6732SOL    HW131832   1.502   0.244  11.185  0.0029  0.2916  0.2318
 6732SOL    HW231833   1.449   0.362  11.114 -2.9301 -1.6021 -0.4065
 6733SOL     OW31834   1.689   2.841   7.133  0.0434  0.1132  0.1015
 6733SOL    HW131835   1.732   2.816   7.215 -1.2288 -0.3079  0.6379
 6733SOL    HW231836   1.760   2.866   7.074 -0.4079  1.0221 -0.0636
 6734SOL     OW31837   4.202   0.246   4.291  0.0245 -0.1873  0.3537
 6734SOL    HW131838   4.244   0.303   4.226 -0.4970 -1.1801 -0.8572
 6734SOL    HW231839   4.270   0.233   4.357 -0.0818 -3.1000 -0.1268
 6735SOL     OW31840   1.397   4.026  12.430  0.2052  0.3134 -0.4646
 6735SOL    HW131841   1.331   3.962  12.458  1.4513 -0.2666  1.1153
 6735SOL    HW231842   1.355   4.096  12.480  0.2359 -0.7129  0.9702
 6736SOL     OW31843   2.707   2.124   2.251 -0.4455  0.0305  0.3632
 6736SOL    HW131844   2.751   2.085   2.327  0.1494  0.0282  0.0230
 6736SOL    HW231845   2.705   2.049   2.192 -1.3597  0.0666  0.3477
 6737SOL     OW31846   1.529   0.988   8.341 -0.2139  0.2755 -0.4787
 6737SOL    HW131847   1.593   0.933   8.387 -2.3711 -1.2990  0.6418
 6737SOL    HW231848   1.575   1.002   8.258 -1.5084  1.3061 -1.0107
 6738SOL     OW31849   2.986   0.502   4.324  0.0773 -0.3807  0.2798
 6738SOL    HW131850   3.035   0.551   4.258  0.6607 -1.3850 -0.0442
 6738SOL    HW231851   3.034   0.514   4.406  3.0796 -0.4504 -1.4623
 6739SOL     OW31852   1.081   1.661   0.852  0.1045 -0.0741 -0.0136
 6739SOL    HW131853   1.132   1.591   0.812 -1.4777 -1.6874  0.7903
 6739SOL    HW231854   0.993   1.640   0.823 -0.7361  2.2946  0.7897
 6740SOL     OW31855   0.553   1.233  16.981  0.0617 -0.0832 -0.0054
 6740SOL    HW131856   0.634   1.230  17.033 -0.4089 -0.4454  0.7123
 6740SOL    HW231857   0.489   1.219  17.051  0.1066  2.2637  0.5208
 6741SOL     OW31858   4.213   0.618   9.050  0.0222 -0.1228 -0.3651
 6741SOL    HW131859   4.121   0.596   9.042 -0.4033  1.5980 -0.1824
 6741SOL    HW231860   4.243   0.554   9.115 -0.0626  0.2299  0.0179
 6742SOL     OW31861   0.212   4.422   9.160 -0.0116 -0.0302 -0.3801
 6742SOL    HW131862   0.167   4.340   9.180 -0.4188  0.8630  2.2791
 6742SOL    HW231863   0.178   4.483   9.225  0.4322  1.9468 -2.0014
 6743SOL     OW31864   3.434   3.890   0.104 -0.2867 -0.0290 -0.4384
 6743SOL    HW131865   3.437   3.897   0.008  0.7668  1.2409 -0.3159
 6743SOL    HW231866   3.457   3.975   0.142  1.3253 -1.3291  1.4801
 6744SOL     OW31867   2.429   0.651   3.000  0.0235 -0.0620 -0.2012
 6744SOL    HW131868   2.524   0.645   3.012 -0.3925 -2.5136  1.7521
 6744SOL    HW231869   2.410   0.726   3.057 -0.8856 -0.2793 -0.2338
 6745SOL     OW31870   2.741   4.414   3.703 -0.5499  0.5022 -0.1456
 6745SOL    HW131871   2.758   4.338   3.648  0.6400 -1.2900  2.6777
 6745SOL    HW231872   2.670   4.376   3.756  0.9325 -1.3988  0.4729
 6746SOL     OW31873   1.128   0.279   5.825 -0.1103  0.4341 -0.7793
 6746SOL    HW131874   1.129   0.202   5.881  0.3671  0.3543 -0.8980
 6746SOL    HW231875   1.183   0.329   5.885 -0.0636  1.0667 -1.3506
 6747SOL     OW31876   3.298   0.776   9.551 -0.3657  0.7433 -0.2810
 6747SOL    HW131877   3.209   0.805   9.528 -1.7025 -0.8824  2.7739
 6747SOL    HW231878   3.301   0.694   9.501  1.9612  0.4622  0.3187
 6748SOL     OW31879   3.087   0.368   6.410  0.0242 -0.4624  0.2644
 6748SOL    HW131880   3.083   0.462   6.391  1.7131 -0.3144  0.6477
 6748SOL    HW231881   3.066   0.343   6.320  3.5182  1.0045 -0.9468
 6749SOL     OW31882   2.093   4.070   1.604 -0.2596 -0.3788 -0.0535
 6749SOL    HW131883   2.090   3.977   1.581  0.1237  0.1580 -2.2542
 6749SOL    HW231884   2.053   4.074   1.691  0.7796  2.5693  0.3009
 6750SOL     OW31885   1.372   3.597  13.869  0.6243 -0.5631  0.1408
 6750SOL    HW131886   1.323   3.679  13.861 -0.8393 -1.3869  0.5251
 6750SOL    HW231887   1.417   3.590  13.784 -1.7669  0.0517 -1.1878
 6751SOL     OW31888   2.928   4.032  15.473  0.0074  0.0620 -0.4878
 6751SOL    HW131889   2.844   3.988  15.476 -1.8101  3.4995 -0.5952
 6751SOL    HW231890   2.934   4.037  15.378  0.5236 -1.0941 -0.5056
 6752SOL     OW31891   0.096   2.442   8.939  0.0666 -0.6893 -0.1439
 6752SOL    HW131892   0.025   2.492   8.898 -1.7286 -4.6284 -1.8216
 6752SOL    HW231893   0.160   2.428   8.870  0.0967  0.3619 -0.3322
 6753SOL     OW31894   3.532   1.383  13.989  0.2370  0.0476 -0.5526
 6753SOL    HW131895   3.582   1.449  13.942  0.1902  0.5496  0.0977
 6753SOL    HW231896   3.451   1.383  13.938 -0.1416  2.0686  0.0609
 6754SOL     OW31897   4.344   0.227   1.554 -0.0003 -0.0968  1.0369
 6754SOL    HW131898   4.370   0.136   1.571 -0.2093 -0.8458 -2.5408
 6754SOL    HW231899   4.273   0.205   1.493  1.8222  1.7001 -1.7361
 6755SOL     OW31900   4.114   2.963   4.478  0.0186  0.2659 -0.6471
 6755SOL    HW131901   4.070   2.937   4.559  3.0860 -2.5196  0.1478
 6755SOL    HW231902   4.038   2.987   4.424 -1.9589 -0.8532  1.6163
 6756SOL     OW31903   1.034   3.117   7.580 -0.4945  0.2753 -0.1969
 6756SOL    HW131904   1.106   3.180   7.590  0.4328 -0.6225 -1.0582
 6756SOL    HW231905   1.024   3.085   7.669  0.5061  0.8208  0.1230
 6757SOL     OW31906   1.438   4.102   4.337  0.0775  0.3349  0.3860
 6757SOL    HW131907   1.348   4.125   4.312  0.5893 -0.8706 -2.5016
 6757SOL    HW231908   1.465   4.121   4.247  1.0494 -2.3233  0.1341
 6758SOL     OW31909   3.973   2.034   2.853  0.2044  0.1423 -0.0027
 6758SOL    HW131910   4.015   1.995   2.777  1.3804  1.4108  0.0054
 6758SOL    HW231911   3.991   2.126   2.833  0.7254 -0.4051 -2.0186
 6759SOL     OW31912   4.031   3.569   3.147  0.3806 -0.2886 -0.3767
 6759SOL    HW131913   3.979   3.554   3.226  0.2852  2.3238  0.0564
 6759SOL    HW231914   3.977   3.524   3.082 -0.7972  0.5523  0.0295
 6760SOL     OW31915   0.351   3.681   2.926 -0.2205 -0.4734  0.0280
 6760SOL    HW131916   0.412   3.638   2.986 -0.1436 -2.0927 -1.1983
 6760SOL    HW231917   0.410   3.712   2.858 -1.3981  0.6852 -0.4659
 6761SOL     OW31918   2.672   3.405  16.640  0.2351  0.2427 -0.0064
 6761SOL    HW131919   2.725   3.475  16.678  1.6417 -0.3517 -0.8766
 6761SOL    HW231920   2.737   3.379  16.575  0.0268 -2.1605  0.7644
 6762SOL     OW31921   3.283   1.738   1.800  0.0628 -0.1398 -0.3874
 6762SOL    HW131922   3.350   1.670   1.792 -0.1512 -0.5790  1.5755
 6762SOL    HW231923   3.335   1.802   1.850  0.0533 -0.7703  0.4332
 6763SOL     OW31924   4.359   1.507   8.724  0.0998 -0.2310 -0.0927
 6763SOL    HW131925   4.405   1.587   8.746 -2.8930  2.2557 -2.7749
 6763SOL    HW231926   4.278   1.512   8.774 -0.0168  0.6739 -0.3775
 6764SOL     OW31927   2.365   4.515   3.724 -0.3949 -0.2839  0.0283
 6764SOL    HW131928   2.304   4.576   3.682 -2.3863 -1.5373  1.1009
 6764SOL    HW231929   2.437   4.525   3.661 -1.0991  0.2179 -0.7041
 6765SOL     OW31930   0.941   1.820   9.439 -0.2398  0.3082  0.2637
 6765SOL    HW131931   0.875   1.889   9.445 -2.6711 -1.9432 -0.4527
 6765SOL    HW231932   1.025   1.865   9.447  0.9184 -1.9025  0.4303
 6766SOL     OW31933   1.229   1.871   5.581  0.7223 -0.0526  0.0716
 6766SOL    HW131934   1.147   1.899   5.621  1.3098 -0.4715  1.5617
 6766SOL    HW231935   1.183   1.813   5.519  0.2998  0.5824 -0.2111
 6767SOL     OW31936   4.186   3.544   3.454  0.3894 -0.0421 -0.3638
 6767SOL    HW131937   4.109   3.496   3.424 -1.2256  1.9483  0.6490
 6767SOL    HW231938   4.236   3.467   3.483 -0.9161 -1.5092 -1.9898
 6768SOL     OW31939   3.572   0.901   6.698  0.2187 -0.2750 -0.9870
 6768SOL    HW131940   3.587   0.828   6.758  0.8769 -1.7152 -2.9157
 6768SOL    HW231941   3.555   0.968   6.764  0.4804 -1.6096  0.4216
 6769SOL     OW31942   0.377   2.387  13.948  0.4161  0.4797 -0.3386
 6769SOL    HW131943   0.288   2.413  13.924 -0.0436  0.0005  0.8418
 6769SOL    HW231944   0.414   2.386  13.860 -0.2076 -0.9194 -0.5841
 6770SOL     OW31945   1.842   1.013   5.333  0.3709 -0.2052  0.1901
 6770SOL    HW131946   1.805   1.010   5.245 -0.5645 -1.2593  0.6134
 6770SOL    HW231947   1.859   0.921   5.354 -1.5858 -0.6658 -0.2271
 6771SOL     OW31948   3.205   2.752   1.682 -0.7526 -0.3413  0.5418
 6771SOL    HW131949   3.208   2.764   1.588  1.5266 -1.2526  0.4695
 6771SOL    HW231950   3.113   2.775   1.687 -0.6825 -0.1986  1.2517
 6772SOL     OW31951   2.438   3.873   3.522 -0.7232  0.9282  0.0080
 6772SOL    HW131952   2.344   3.889   3.516 -0.7597  0.9855  0.8015
 6772SOL    HW231953   2.446   3.887   3.616  1.1205 -0.1368  0.0093
 6773SOL     OW31954   0.919   1.686   8.866  0.1331  0.2737 -0.1048
 6773SOL    HW131955   0.987   1.736   8.911  0.2547 -1.6952  1.8756
 6773SOL    HW231956   0.859   1.669   8.938 -0.3818  0.4185 -0.4978
 6774SOL     OW31957   1.574   3.299   3.387  1.2851  0.3330 -0.6302
 6774SOL    HW131958   1.491   3.306   3.339  0.9424  0.4946 -0.0070
 6774SOL    HW231959   1.629   3.304   3.308  2.3958 -2.8347 -0.0595
 6775SOL     OW31960   2.041   1.756  10.501  0.0376 -0.2907  0.3306
 6775SOL    HW131961   2.076   1.770  10.413 -0.6877  1.0251  0.2550
 6775SOL    HW231962   1.979   1.829  10.507  0.9516  0.6714 -1.8298
 6776SOL     OW31963   1.693   3.496  16.320  0.0129  0.6946 -0.4965
 6776SOL    HW131964   1.703   3.556  16.394 -0.4768  0.5245 -0.2890
 6776SOL    HW231965   1.651   3.426  16.370  1.6027  0.2483  0.2088
 6777SOL     OW31966   2.908   4.249   7.862 -0.0350 -0.5644  0.4665
 6777SOL    HW131967   2.966   4.186   7.819  0.4281  1.4551 -1.8255
 6777SOL    HW231968   2.961   4.328   7.853 -0.0085 -0.7903 -1.3146
 6778SOL     OW31969   2.104   3.567   2.526  0.2384  0.3382 -0.6250
 6778SOL    HW131970   2.098   3.579   2.621 -2.3484  0.3239 -0.8080
 6778SOL    HW231971   2.027   3.515   2.504  0.8284  0.7400 -3.5571
 6779SOL     OW31972   0.749   1.346   5.143  0.0486  0.5167  0.7493
 6779SOL    HW131973   0.796   1.391   5.073 -0.7232  0.1223 -0.0333
 6779SOL    HW231974   0.663   1.389   5.142  0.6550  1.7340  0.5198
 6780SOL     OW31975   2.031   4.366  12.535 -0.4841 -0.3435 -0.1052
 6780SOL    HW131976   1.987   4.284  12.513  1.4784 -1.3052 -0.4332
 6780SOL    HW231977   2.037   4.362  12.631  0.9384  1.0719 -0.1394
 6781SOL     OW31978   2.436   0.811   2.395 -0.4950  0.4854 -0.1789
 6781SOL    HW131979   2.367   0.788   2.333 -1.0033  1.8138 -0.1047
 6781SOL    HW231980   2.463   0.728   2.434  0.3558  0.4920 -0.7400
 6782SOL     OW31981   1.748   0.400   2.643  0.9526  0.1059 -0.5271
 6782SOL    HW131982   1.724   0.313   2.610 -0.4552 -0.1090  1.0661
 6782SOL    HW231983   1.668   0.451   2.630 -0.1970 -1.2319  1.2864
 6783SOL     OW31984   4.389   2.579   7.018 -0.0729  0.4794 -0.8563
 6783SOL    HW131985   4.465   2.526   7.043 -1.1660 -1.1698 -1.0477
 6783SOL    HW231986   4.401   2.584   6.923  0.4876  0.0189 -0.8168
 6784SOL     OW31987   3.471   2.548   3.690 -0.3310  0.2290  0.3534
 6784SOL    HW131988   3.448   2.622   3.634  1.0496 -0.3655 -1.0100
 6784SOL    HW231989   3.391   2.544   3.742 -0.0139 -0.7998  0.7819
 6785SOL     OW31990   3.723   2.481  17.278  0.3310  0.0783  0.4759
 6785SOL    HW131991   3.752   2.444  17.361  0.3648  0.8987  0.8339
 6785SOL    HW231992   3.750   2.572  17.294 -1.4862  0.7505 -0.2562
 6786SOL     OW31993   0.847   4.731   3.837 -0.0930  0.2773 -0.3765
 6786SOL    HW131994   0.810   0.084   3.847  1.7072  1.0899 -0.7658
 6786SOL    HW231995   0.797   4.696   3.763 -2.9653 -1.4311  2.3811
 6787SOL     OW31996   0.054   4.430  17.665 -0.3982  0.1798  0.2926
 6787SOL    HW131997   0.055   4.416   0.022  3.0383 -1.8967 -0.0881
 6787SOL    HW231998   0.087   4.518  17.648 -0.6543 -0.0481 -1.4154
 6788SOL     OW31999   3.393   2.323  17.528 -0.7385  0.5414 -0.0343
 6788SOL    HW132000   3.313   2.272  17.538 -0.9022  0.8349  0.1722
 6788SOL    HW232001   3.450   2.266  17.580 -0.3325  0.9591 -0.0213
 6789SOL     OW32002   2.069   3.744  12.435 -0.3975 -0.6821 -0.5955
 6789SOL    HW132003   2.150   3.715  12.393  0.1034  0.8316 -0.6622
 6789SOL    HW232004   2.006   3.678  12.405  0.3560 -1.0141 -1.4452
 6790SOL     OW32005   4.294   3.920   2.672  0.2114  0.1881  0.1351
 6790SOL    HW132006   4.227   3.956   2.730  1.3694  0.8177  1.0988
 6790SOL    HW232007   4.334   4.001   2.638  3.3486 -1.3085  0.2717
 6791SOL     OW32008   0.891   1.407   8.504 -0.2761  0.2678  0.5769
 6791SOL    HW132009   0.936   1.325   8.479 -1.7379  0.8673 -3.9979
 6791SOL    HW232010   0.954   1.446   8.565 -2.6089  2.4026  1.6090
 6792SOL     OW32011   1.870   2.497   2.403  0.2051  0.4629 -0.1670
 6792SOL    HW132012   1.790   2.522   2.450 -1.4515  0.2511 -2.8649
 6792SOL    HW232013   1.911   2.574   2.365  0.0395  0.1764 -0.9310
 6793SOL     OW32014   2.346   4.275   6.100  0.3703 -0.0073  0.2019
 6793SOL    HW132015   2.381   4.296   6.187  0.5508  1.0250 -0.1213
 6793SOL    HW232016   2.412   4.305   6.038  1.9984  0.7947  2.2994
 6794SOL     OW32017   4.259   4.304   3.659 -0.2908 -0.2728  0.1992
 6794SOL    HW132018   4.354   4.304   3.647 -0.1883 -2.9891  0.8917
 6794SOL    HW232019   4.254   4.231   3.722 -0.7320 -1.6515 -1.4477
 6795SOL     OW32020   4.384   0.676  15.827  0.3233  0.3336  0.3908
 6795SOL    HW132021   4.294   0.650  15.845  0.7204 -0.6709  0.9577
 6795SOL    HW232022   4.406   0.706  15.915  2.1436  0.3316 -0.0684
 6796SOL     OW32023   1.918   3.578   0.658  0.2121  0.5822 -0.3372
 6796SOL    HW132024   1.962   3.495   0.638 -2.5084 -1.1299  0.8443
 6796SOL    HW232025   1.851   3.554   0.722 -1.1688  1.0380 -1.6233
 6797SOL     OW32026   2.800   3.225   3.568  0.4875  0.6529 -0.2258
 6797SOL    HW132027   2.792   3.308   3.520  3.9581  2.4555  2.2731
 6797SOL    HW232028   2.780   3.227   3.662 -1.2568  2.6286 -0.6317
 6798SOL     OW32029   1.607   3.337  12.331  0.3650  0.3413 -0.3048
 6798SOL    HW132030   1.514   3.315  12.337  1.2207 -3.0300  0.6767
 6798SOL    HW232031   1.614   3.432  12.325  1.7293  0.1477 -1.8685
 6799SOL     OW32032   2.698   2.156  13.955  0.3117  0.0796 -0.2068
 6799SOL    HW132033   2.686   2.248  13.978 -3.2916 -0.3772 -0.1978
 6799SOL    HW232034   2.621   2.112  13.994 -0.4365 -0.4720 -2.3203
 6800SOL     OW32035   3.101   4.443   7.833  0.1284  0.8560 -0.3202
 6800SOL    HW132036   3.193   4.442   7.860  0.2160 -1.7587 -0.6487
 6800SOL    HW232037   3.100   4.463   7.740 -0.9751 -0.1067 -0.5235
 6801SOL     OW32038   1.081   3.882   2.552  0.0093 -0.3593 -0.8317
 6801SOL    HW132039   1.150   3.919   2.606 -0.5798  0.6830 -0.7913
 6801SOL    HW232040   1.086   3.949   2.483  1.6259  1.7519  1.3507
 6802SOL     OW32041   1.608   1.601   6.383 -0.3018  0.1714 -0.9634
 6802SOL    HW132042   1.588   1.597   6.476 -0.0667  2.6632 -0.8143
 6802SOL    HW232043   1.551   1.667   6.344 -3.6871 -1.7591  0.7366
 6803SOL     OW32044   0.765   0.629   6.062  0.5170  0.1350 -0.0297
 6803SOL    HW132045   0.820   0.697   6.100 -0.7426  0.6265  0.9154
 6803SOL    HW232046   0.797   0.611   5.973 -0.1829  0.2926 -0.3144
 6804SOL     OW32047   0.333   1.059   8.761  0.2413 -0.5228  0.5080
 6804SOL    HW132048   0.291   1.125   8.816 -0.0462 -1.3584  1.2873
 6804SOL    HW232049   0.355   1.000   8.833  0.9970 -1.5210 -0.5399
 6805SOL     OW32050   2.392   2.479   3.563 -0.0569 -0.0593 -0.0737
 6805SOL    HW132051   2.383   2.541   3.491  1.2523  0.4704  0.2332
 6805SOL    HW232052   2.390   2.396   3.516  1.0582 -1.1236  1.7809
 6806SOL     OW32053   2.823   1.896   6.886 -0.0586 -0.1140  0.6411
 6806SOL    HW132054   2.754   1.830   6.883  0.1807 -0.2573 -1.2219
 6806SOL    HW232055   2.789   1.967   6.832 -1.1827 -1.5436 -0.5342
 6807SOL     OW32056   0.398   4.191   3.311  0.3065  0.0400 -0.0210
 6807SOL    HW132057   0.487   4.158   3.300  0.5812  0.8890 -0.3571
 6807SOL    HW232058   0.375   4.207   3.220  1.8223 -2.2067 -0.8010
 6808SOL     OW32059   3.753   1.662   9.191  0.0116 -0.2547  0.4888
 6808SOL    HW132060   3.729   1.666   9.284 -0.2504  3.8535  0.2532
 6808SOL    HW232061   3.801   1.743   9.174 -0.7858  0.0666 -0.2215
 6809SOL     OW32062   4.284   4.140   2.472  0.2080  0.2817 -0.2046
 6809SOL    HW132063   4.240   4.190   2.540 -0.8729 -0.0607 -0.6475
 6809SOL    HW232064   4.288   4.204   2.401  1.3536  2.5261  1.9025
 6810SOL     OW32065   3.380   1.148   9.803 -0.7406  0.2211 -0.4827
 6810SOL    HW132066   3.411   1.060   9.783 -1.4219 -0.6856  2.3939
 6810SOL    HW232067   3.409   1.155   9.894  0.9224  0.5606 -1.0413
 6811SOL     OW32068   0.633   1.649   2.801 -0.3385  0.2476 -0.2049
 6811SOL    HW132069   0.607   1.557   2.813  1.1216 -0.0358  0.8539
 6811SOL    HW232070   0.627   1.658   2.706 -0.0091  0.9291 -0.1570
 6812SOL     OW32071   0.035   4.351   2.274 -0.0077  0.4305 -0.0837
 6812SOL    HW132072   0.005   4.427   2.224  0.9637  0.3983 -0.7242
 6812SOL    HW232073   0.063   4.398   2.353  1.7550  0.8698 -0.9771
 6813SOL     OW32074   2.251   0.232  16.129 -0.4358  0.3130 -0.3986
 6813SOL    HW132075   2.304   0.222  16.208 -0.1935  1.2490 -0.4431
 6813SOL    HW232076   2.302   0.209  16.051 -2.2155 -0.1540 -1.4550
 6814SOL     OW32077   3.804   2.079   1.246  0.1009 -0.8977 -0.5566
 6814SOL    HW132078   3.711   2.072   1.224 -0.0469 -0.9275  0.0817
 6814SOL    HW232079   3.816   2.002   1.301  0.3633  0.4440  1.2603
 6815SOL     OW32080   2.867   1.412   6.722 -0.2171  0.5322  0.4835
 6815SOL    HW132081   2.865   1.364   6.639  2.3736  1.1596  0.0757
 6815SOL    HW232082   2.776   1.437   6.739 -0.3302  1.4509 -1.4617
 6816SOL     OW32083   1.414   1.057  11.482 -0.3760 -0.1982 -0.4513
 6816SOL    HW132084   1.323   1.086  11.476 -0.0845  0.4041 -2.1543
 6816SOL    HW232085   1.462   1.134  11.453 -0.6799  1.5359  3.6250
 6817SOL     OW32086   2.636   2.846   9.336  0.2040 -0.0073  0.0589
 6817SOL    HW132087   2.670   2.780   9.276  0.3267  0.8518 -0.8201
 6817SOL    HW232088   2.546   2.859   9.306  0.0844 -0.1153  0.3658
 6818SOL     OW32089   0.794   0.022  11.951 -0.2214  0.0728  0.1841
 6818SOL    HW132090   0.768   0.077  11.877  0.4362  1.4427  0.9724
 6818SOL    HW232091   0.870   4.715  11.910  0.4829  2.4595 -0.9280
 6819SOL     OW32092   2.874   3.315   1.516  0.5746 -0.0622  0.2248
 6819SOL    HW132093   2.930   3.244   1.548  1.1080 -0.5890 -1.8879
 6819SOL    HW232094   2.937   3.377   1.481 -0.8761  1.4795  0.3735
 6820SOL     OW32095   1.376   1.292   3.765 -0.5476  0.1787  0.0037
 6820SOL    HW132096   1.469   1.311   3.756 -0.5529  0.8831  1.5047
 6820SOL    HW232097   1.369   1.255   3.677  1.9487  0.7099 -0.4199
 6821SOL     OW32098   4.586   2.489   2.866 -0.1736 -0.2075 -0.3046
 6821SOL    HW132099   4.527   2.413   2.861 -1.5342  0.8341 -0.1681
 6821SOL    HW232100   4.560   2.524   2.951  4.1489  2.1001  0.0523
 6822SOL     OW32101   1.420   0.301   5.229  0.4978 -0.2102  0.2474
 6822SOL    HW132102   1.479   0.229   5.249  1.0266  0.1189 -0.1333
 6822SOL    HW232103   1.363   0.272   5.157  1.2453 -1.3003  0.1026
 6823SOL     OW32104   3.486   3.221   8.517  0.1010 -0.2411 -0.0480
 6823SOL    HW132105   3.439   3.224   8.434 -1.2975 -1.3088  0.6963
 6823SOL    HW232106   3.442   3.290   8.567 -1.0800  0.1545 -1.6365
 6824SOL     OW32107   1.450   1.800   5.723 -0.4119 -0.1657  0.2754
 6824SOL    HW132108   1.405   1.732   5.772 -0.9713  0.0744  0.0896
 6824SOL    HW232109   1.377   1.820   5.665  0.3745  0.3885 -0.5192
 6825SOL     OW32110   4.203   2.882   7.427  0.0703 -0.0828 -0.0287
 6825SOL    HW132111   4.164   2.953   7.375  0.1216 -0.3007 -0.3651
 6825SOL    HW232112   4.216   2.814   7.361  1.4394 -1.6003  1.8187
 6826SOL     OW32113   3.116   2.844   2.981 -0.2221  0.2465 -0.0613
 6826SOL    HW132114   3.129   2.934   2.953  0.4581 -0.3265 -1.5767
 6826SOL    HW232115   3.024   2.837   2.956 -0.0812 -0.1761 -0.4829
 6827SOL     OW32116   2.837   1.242   8.988  0.3895 -0.1066  0.1962
 6827SOL    HW132117   2.849   1.209   8.899 -1.0732  0.0204 -0.0614
 6827SOL    HW232118   2.843   1.157   9.032  1.5697  1.6349  3.3690
 6828SOL     OW32119   2.939   3.026  11.471  0.2278 -0.2190  0.0367
 6828SOL    HW132120   2.969   3.083  11.400 -1.9982 -1.6855 -2.1140
 6828SOL    HW232121   3.011   3.026  11.534 -0.5093  1.2986  0.8739
 6829SOL     OW32122   1.647   1.049   2.417  0.4227 -0.5434  0.9156
 6829SOL    HW132123   1.731   1.095   2.422  0.5841 -0.7237 -0.1202
 6829SOL    HW232124   1.615   1.111   2.351  3.9850  1.2860  0.8792
 6830SOL     OW32125   4.217   3.800  16.986 -0.1591 -0.1221  0.1180
 6830SOL    HW132126   4.271   3.764  17.057  0.4360  0.1279 -0.2031
 6830SOL    HW232127   4.190   3.724  16.935  0.3612  0.7345 -1.4302
 6831SOL     OW32128   3.992   3.476   2.711  0.3122 -0.4262 -0.9259
 6831SOL    HW132129   3.946   3.398   2.742  0.5922 -0.0594  0.3949
 6831SOL    HW232130   4.082   3.448   2.696  0.9007  1.0180 -0.0125
 6832SOL     OW32131   3.843   0.598   3.255  0.1231 -0.2720 -0.8145
 6832SOL    HW132132   3.922   0.543   3.253  1.9664  2.2864  2.0067
 6832SOL    HW232133   3.820   0.606   3.347  0.0857 -0.7521 -0.7818
 6833SOL     OW32134   0.717   2.798   9.207  0.5284  0.2571  0.1433
 6833SOL    HW132135   0.685   2.887   9.219  1.9502  0.5679  1.5734
 6833SOL    HW232136   0.645   2.755   9.160  1.2146 -1.3015  0.5228
 6834SOL     OW32137   1.150   3.184   8.554 -0.4285 -0.2932 -0.1758
 6834SOL    HW132138   1.153   3.237   8.475  1.1861 -0.4645 -0.2339
 6834SOL    HW232139   1.161   3.259   8.613  1.5012  0.5511 -1.6250
 6835SOL     OW32140   0.607   2.319   6.040 -0.4240  0.1446  1.1226
 6835SOL    HW132141   0.690   2.284   6.072 -0.3069 -0.5923  0.0438
 6835SOL    HW232142   0.617   2.322   5.945  0.7851  1.5148  1.2878
 6836SOL     OW32143   2.381   0.886   5.161  0.5217 -0.2566 -0.9497
 6836SOL    HW132144   2.464   0.875   5.208 -0.1127  3.1082  0.9580
 6836SOL    HW232145   2.365   0.979   5.177  0.4818 -0.4639  0.2245
 6837SOL     OW32146   1.554   2.177   1.505 -0.4828  0.0851  0.4870
 6837SOL    HW132147   1.568   2.105   1.567 -1.2146 -0.1360  0.3881
 6837SOL    HW232148   1.500   2.135   1.437  1.2357  0.0846 -0.8919
 6838SOL     OW32149   4.065   3.345   1.683 -0.6571  0.0841  0.2549
 6838SOL    HW132150   4.015   3.263   1.689  0.7780 -0.8846 -0.8417
 6838SOL    HW232151   4.000   3.415   1.694 -1.0730 -0.6013  2.2019
 6839SOL     OW32152   4.079   3.513   4.839  0.3232 -0.2247 -0.5796
 6839SOL    HW132153   4.009   3.568   4.874  0.6517 -1.3950  1.9457
 6839SOL    HW232154   4.042   3.501   4.751  0.3911 -0.5192 -0.5697
 6840SOL     OW32155   3.503   0.862   4.895 -0.1466 -0.3011  0.4653
 6840SOL    HW132156   3.474   0.823   4.977  0.0012  0.2693  0.7893
 6840SOL    HW232157   3.594   0.832   4.893 -0.2166 -0.4129 -0.9283
 6841SOL     OW32158   1.927   2.078   8.407 -0.0623 -0.2007  0.2358
 6841SOL    HW132159   1.868   2.146   8.441 -0.5680  0.1497 -1.3327
 6841SOL    HW232160   1.987   2.073   8.482 -1.0745 -2.0291  0.9220
 6842SOL     OW32161   3.312   0.038   5.943  0.6273  1.0427 -0.1517
 6842SOL    HW132162   3.224   0.070   5.923  0.5203  1.1288  0.4797
 6842SOL    HW232163   3.312   0.035   6.038 -2.5619  2.5229 -0.1148
 6843SOL     OW32164   4.544   1.877  16.552 -0.0916 -0.1008 -0.3512
 6843SOL    HW132165   4.458   1.910  16.580 -0.2367 -1.0419  0.2993
 6843SOL    HW232166   4.560   1.808  16.617  0.8829  1.8474  1.5094
 6844SOL     OW32167   0.464   4.057   2.004 -0.3170 -0.0728  0.0119
 6844SOL    HW132168   0.421   4.139   2.027 -2.7277 -0.8626 -1.6153
 6844SOL    HW232169   0.421   3.988   2.054  0.5600  0.2064  1.1346
 6845SOL     OW32170   0.086   0.344   9.049 -0.4174  0.4001  0.1768
 6845SOL    HW132171   0.099   0.305   8.962 -0.0316  3.8263 -1.3002
 6845SOL    HW232172   0.118   0.275   9.106  0.3543  0.2602 -0.4259
 6846SOL     OW32173   1.165   3.361   6.565  0.0518 -0.0888 -0.2916
 6846SOL    HW132174   1.174   3.268   6.543 -1.4076 -0.2172 -0.3544
 6846SOL    HW232175   1.141   3.391   6.477 -0.2443  1.6898  0.3889
 6847SOL     OW32176   0.747   4.459   4.041  0.1735  0.1295 -0.3032
 6847SOL    HW132177   0.744   4.536   4.098  1.4820  0.0739 -0.1604
 6847SOL    HW232178   0.779   4.503   3.962  1.7980 -1.7871 -0.6976
 6848SOL     OW32179   2.413   1.276  16.057  0.1127  0.9871  0.1111
 6848SOL    HW132180   2.443   1.293  16.146 -0.0412  0.4103  0.2688
 6848SOL    HW232181   2.321   1.255  16.074 -0.1455  0.4147 -2.0245
 6849SOL     OW32182   3.892   0.443   8.517  0.3026  0.2573  0.1447
 6849SOL    HW132183   3.887   0.347   8.510  2.9754  0.1656 -0.3382
 6849SOL    HW232184   3.925   0.468   8.603 -2.3576  0.4035  1.1283
 6850SOL     OW32185   2.542   1.801   3.711 -0.5221 -0.0070 -0.3356
 6850SOL    HW132186   2.554   1.812   3.617 -0.2249  2.6805  0.0044
 6850SOL    HW232187   2.463   1.748   3.711 -1.0120  0.7168 -2.2706
 6851SOL     OW32188   1.256   4.341   7.970 -0.3017 -0.9288 -0.0375
 6851SOL    HW132189   1.298   4.259   7.945 -2.4520 -1.1516 -2.9493
 6851SOL    HW232190   1.184   4.314   8.027 -0.4413  1.4420  0.9336
 6852SOL     OW32191   0.972   0.881   3.672 -0.3059 -0.0186  0.0336
 6852SOL    HW132192   0.890   0.861   3.626  0.4385  0.2875 -1.4320
 6852SOL    HW232193   0.959   0.848   3.761  0.9766  0.4275  0.3851
 6853SOL     OW32194   2.375   0.939   3.959 -0.2307  0.3806 -0.1596
 6853SOL    HW132195   2.339   0.870   4.014  1.4632 -0.3131  0.0642
 6853SOL    HW232196   2.381   1.008   4.025  1.7570 -0.3586  0.4133
 6854SOL     OW32197   0.367   3.455   1.949 -0.6613  0.1378 -0.1535
 6854SOL    HW132198   0.274   3.475   1.939 -0.8482  0.6332  2.4885
 6854SOL    HW232199   0.394   3.469   1.858  1.5651 -1.3788  0.2528
 6855SOL     OW32200   1.215   2.665   9.448 -0.2107  0.0214 -0.8080
 6855SOL    HW132201   1.253   2.663   9.360 -0.0965 -0.7462 -0.7404
 6855SOL    HW232202   1.278   2.601   9.481 -0.8562  0.4616  1.2861
 6856SOL     OW32203   3.390   1.566   3.118 -0.4453 -0.2049  0.2754
 6856SOL    HW132204   3.346   1.633   3.065  2.4199  1.0298 -0.5657
 6856SOL    HW232205   3.371   1.505   3.047 -3.0592  1.4323 -0.4486
 6857SOL     OW32206   2.513   2.695   6.600 -0.0043  0.3023 -0.8393
 6857SOL    HW132207   2.533   2.789   6.594 -1.7290  0.5064 -3.6157
 6857SOL    HW232208   2.421   2.691   6.574 -0.2650 -0.2836  0.2283
 6858SOL     OW32209   2.482   2.889  13.978 -0.7001  0.0960 -0.3729
 6858SOL    HW132210   2.520   2.816  13.929 -0.5039  0.0926 -0.2138
 6858SOL    HW232211   2.481   2.957  13.910 -0.3456  0.8899  0.4168
 6859SOL     OW32212   0.110   2.255  11.556  0.4308  0.2842 -0.0659
 6859SOL    HW132213   0.141   2.340  11.586 -0.1631  0.3759  0.2883
 6859SOL    HW232214   0.034   2.232  11.610  0.7342  2.6897  1.3823
 6860SOL     OW32215   0.145   0.639   0.171 -0.1505  0.2806 -0.2128
 6860SOL    HW132216   0.080   0.633   0.102  0.3370 -3.9599 -0.3017
 6860SOL    HW232217   0.221   0.645   0.114  0.9401  0.5137  1.2638
 6861SOL     OW32218   4.187   1.924   2.344  0.4981 -0.1621 -0.1348
 6861SOL    HW132219   4.163   1.938   2.252 -1.5038  0.6266  0.5051
 6861SOL    HW232220   4.241   1.846   2.336  1.8376  0.5979  1.5707
 6862SOL     OW32221   0.981   3.253   3.769  0.2498  0.6153  0.7233
 6862SOL    HW132222   1.014   3.305   3.842  0.5327  1.5897 -0.1026
 6862SOL    HW232223   0.896   3.225   3.803 -1.1784  2.3767 -1.3916
 6863SOL     OW32224   4.124   3.293   9.526  0.1650 -0.0224  0.0258
 6863SOL    HW132225   4.089   3.263   9.610  2.6411  0.5945  1.2975
 6863SOL    HW232226   4.127   3.206   9.487  0.2172 -1.2449  2.7836
 6864SOL     OW32227   2.544   2.791   8.852 -0.2679  0.3632 -0.1221
 6864SOL    HW132228   2.484   2.716   8.861  0.3568 -0.1547 -0.2986
 6864SOL    HW232229   2.508   2.848   8.920 -2.2437 -1.6610  0.5487
 6865SOL     OW32230   4.222   1.422   1.015  0.2291 -0.4362 -0.0913
 6865SOL    HW132231   4.184   1.361   0.951 -1.0431  1.1665 -0.8477
 6865SOL    HW232232   4.163   1.495   0.996  1.0790  0.6427  1.4824
 6866SOL     OW32233   0.066   0.016   4.163  0.3811  0.1282  0.3581
 6866SOL    HW132234   0.002   0.078   4.131  0.5930  1.1333  1.8647
 6866SOL    HW232235   0.040   4.715   4.249  0.0827  1.7050  0.9181
 6867SOL     OW32236   2.269   1.213   7.513  0.6277  0.2562  0.5595
 6867SOL    HW132237   2.206   1.223   7.442  3.0414 -0.2989 -1.6746
 6867SOL    HW232238   2.217   1.204   7.593 -1.5579 -3.3308 -1.2756
 6868SOL     OW32239   2.792   2.980   6.170 -0.2055 -0.1889  0.2703
 6868SOL    HW132240   2.698   2.998   6.171 -0.2251 -0.1571 -1.4019
 6868SOL    HW232241   2.835   3.063   6.153 -1.6426  0.3838 -0.5878
 6869SOL     OW32242   1.984   0.573   5.124  0.3904  0.2082 -0.1160
 6869SOL    HW132243   2.044   0.567   5.050 -1.7453 -0.2721 -1.7752
 6869SOL    HW232244   2.045   0.603   5.192  0.5799 -1.3842  0.4388
 6870SOL     OW32245   0.147   4.150   9.236 -0.7366  0.3345  0.5346
 6870SOL    HW132246   0.156   4.092   9.161  0.0113 -0.0378  0.9149
 6870SOL    HW232247   0.239   4.166   9.255 -0.5193  1.3831 -1.4411
 6871SOL     OW32248   0.834   3.336   3.076  0.5923 -0.0452 -0.6289
 6871SOL    HW132249   0.783   3.380   3.008 -0.7026 -1.9316 -0.8620
 6871SOL    HW232250   0.760   3.291   3.115  1.9578 -1.3494  0.4627
 6872SOL     OW32251   0.353   3.500   7.559  0.0844  0.0484  0.8517
 6872SOL    HW132252   0.393   3.441   7.496 -0.0167 -0.9824  1.7472
 6872SOL    HW232253   0.416   3.572   7.557  0.5577 -0.3701  0.7644
 6873SOL     OW32254   1.518   1.972   2.123  0.5049  0.1021  0.2850
 6873SOL    HW132255   1.552   2.050   2.078 -0.2796  0.6473  0.6464
 6873SOL    HW232256   1.568   1.966   2.204  2.4485 -2.0517 -1.0420
 6874SOL     OW32257   1.363   3.437  13.455  0.1496  0.2029  0.0355
 6874SOL    HW132258   1.307   3.431  13.531  0.7134  2.5053  0.6093
 6874SOL    HW232259   1.314   3.412  13.376 -2.3822 -2.2809  2.4035
 6875SOL     OW32260   0.266   3.581  15.247  0.6215  0.1900 -0.4222
 6875SOL    HW132261   0.218   3.643  15.302  3.2229  1.7421  0.1215
 6875SOL    HW232262   0.265   3.498  15.295 -3.0407  0.2540 -0.3446
 6876SOL     OW32263   0.072   2.600  14.644 -0.3768 -0.2452  0.4053
 6876SOL    HW132264   0.117   2.684  14.651 -1.1823  0.2112  0.1035
 6876SOL    HW232265   0.145   2.538  14.640 -1.6062 -1.7710  1.6212
 6877SOL     OW32266   0.919   3.425   9.294 -0.1156  0.0356  0.0682
 6877SOL    HW132267   0.888   3.357   9.353  1.4885 -1.2816 -0.5778
 6877SOL    HW232268   1.011   3.404   9.273 -0.4078  0.5726 -1.7634
 6878SOL     OW32269   3.675   4.513   2.275  0.1798 -0.6662  0.3969
 6878SOL    HW132270   3.628   4.593   2.250  1.5628  0.3521  1.0987
 6878SOL    HW232271   3.730   4.498   2.198  1.1053  0.9280  0.7436
 6879SOL     OW32272   2.846   0.683  13.165  0.1636  0.6476  0.1343
 6879SOL    HW132273   2.926   0.697  13.113  1.3208 -0.3605  1.6223
 6879SOL    HW232274   2.865   0.742  13.238 -1.7230  0.5423  0.6901
 6880SOL     OW32275   4.671   2.408   6.676  0.5142  0.0648  0.4700
 6880SOL    HW132276   4.652   2.409   6.770 -1.2755 -2.2669  0.1283
 6880SOL    HW232277   0.002   2.338   6.682  0.8424  0.1864 -1.6843
 6881SOL     OW32278   2.809   0.921   8.176 -0.2324  0.3830  0.5981
 6881SOL    HW132279   2.714   0.927   8.164  0.0187  2.2000 -0.7103
 6881SOL    HW232280   2.835   0.839   8.135  0.5205  0.4784  0.8960
 6882SOL     OW32281   4.403   1.811   8.766  0.4043  0.0958 -0.0372
 6882SOL    HW132282   4.308   1.803   8.759  0.5245 -0.2745 -1.2268
 6882SOL    HW232283   4.407   1.906   8.781  1.6384  0.0896 -0.3360
 6883SOL     OW32284   2.674   1.899   3.510 -0.0291 -0.0902  0.0675
 6883SOL    HW132285   2.709   1.903   3.599  1.4588 -0.9893 -0.4637
 6883SOL    HW232286   2.702   1.986   3.480  0.5823 -0.1511  0.4575
 6884SOL     OW32287   1.322   3.119  13.059  0.5170  0.3568 -0.2065
 6884SOL    HW132288   1.345   3.135  13.150  0.7209  2.7832 -0.6861
 6884SOL    HW232289   1.258   3.184  13.032  2.3303  0.8490 -3.4138
 6885SOL     OW32290   1.676   4.244   9.630 -0.1479  0.2532 -0.1477
 6885SOL    HW132291   1.644   4.156   9.649  1.5824 -0.4085 -0.3588
 6885SOL    HW232292   1.630   4.293   9.698  0.4009  0.1511  0.2934
 6886SOL     OW32293   4.580   1.736   0.868  0.2628  0.0086  0.1773
 6886SOL    HW132294   4.669   1.726   0.902 -0.3216 -1.5255  1.2585
 6886SOL    HW232295   4.552   1.818   0.909 -0.7630 -1.5661  2.6240
 6887SOL     OW32296   4.471   1.780   4.574 -0.2407  0.4240 -0.0111
 6887SOL    HW132297   4.529   1.776   4.498  0.0471  4.4177 -0.0232
 6887SOL    HW232298   4.525   1.806   4.649 -0.6703  2.4438 -0.3989
 6888SOL     OW32299   3.168   4.458   3.101 -0.9563 -0.8065  0.0753
 6888SOL    HW132300   3.154   4.470   3.195 -2.2757 -1.0076 -0.0957
 6888SOL    HW232301   3.170   4.550   3.076 -3.4998 -0.3632  1.4369
 6889SOL     OW32302   0.907   4.526   5.946 -0.0309 -0.2191  0.5236
 6889SOL    HW132303   0.928   4.619   5.937 -2.1678  0.2712  0.5479
 6889SOL    HW232304   0.889   4.528   6.040 -0.4413  1.6705  0.4124
 6890SOL     OW32305   0.172   1.006   7.162  0.3020  0.4405  0.2037
 6890SOL    HW132306   0.171   1.094   7.200 -0.4755  0.2184  0.7016
 6890SOL    HW232307   0.143   0.950   7.234 -0.6322  1.7875  0.8651
 6891SOL     OW32308   3.943   3.946  15.614  0.3076 -0.5734 -0.2451
 6891SOL    HW132309   3.878   3.980  15.552  2.4923  0.0018 -2.2167
 6891SOL    HW232310   4.021   3.993  15.585  0.9272 -0.7396  1.1761
 6892SOL     OW32311   2.803   1.335   6.454  0.6650 -0.2028  0.6704
 6892SOL    HW132312   2.841   1.258   6.411 -1.3404 -0.3855 -0.7633
 6892SOL    HW232313   2.836   1.405   6.398  0.3577  1.0354  2.0573
 6893SOL     OW32314   2.160   2.595   1.991  0.5313 -0.2475  0.2773
 6893SOL    HW132315   2.115   2.616   1.910  1.5249  0.0135 -0.2016
 6893SOL    HW232316   2.186   2.503   1.981 -1.3660 -0.7265 -0.1696
 6894SOL     OW32317   0.277   4.154   9.894 -0.4348 -0.1502 -0.7118
 6894SOL    HW132318   0.281   4.078   9.835 -1.4654  0.0550 -1.0333
 6894SOL    HW232319   0.360   4.195   9.869  1.1229 -1.8793  1.5941
 6895SOL     OW32320   1.408   4.351   2.799  0.1953 -0.0187 -0.1370
 6895SOL    HW132321   1.319   4.377   2.825  0.4094  0.3379  0.2345
 6895SOL    HW232322   1.463   4.413   2.846 -0.0675 -1.4212  1.9920
 6896SOL     OW32323   1.422   0.104  10.886 -0.1549  0.1839 -0.1904
 6896SOL    HW132324   1.492   0.106  10.821 -0.0986 -0.3638 -0.1472
 6896SOL    HW232325   1.441   0.186  10.931  0.1532  0.2865 -0.5117
 6897SOL     OW32326   1.510   3.728   7.169  0.1258  0.3926  0.1597
 6897SOL    HW132327   1.462   3.645   7.169  1.7116 -0.5292 -1.2141
 6897SOL    HW232328   1.529   3.750   7.260  0.6390 -1.3763  0.4767
 6898SOL     OW32329   1.831   2.545  12.653 -0.1920 -0.3413  1.0041
 6898SOL    HW132330   1.838   2.615  12.718 -0.6592  0.7720 -0.1335
 6898SOL    HW232331   1.811   2.599  12.576  1.0301 -1.3165 -0.0158
 6899SOL     OW32332   3.952   0.283  12.400  0.0609  0.3085 -0.1363
 6899SOL    HW132333   3.876   0.260  12.347 -0.5674 -0.3285  1.0557
 6899SOL    HW232334   3.918   0.352  12.457 -2.8755  0.1601 -1.7264
 6900SOL     OW32335   1.959   2.768   2.513  0.4866 -0.1734  0.0143
 6900SOL    HW132336   2.050   2.798   2.506  1.0327 -1.7994  0.0254
 6900SOL    HW232337   1.903   2.830   2.467  2.3876  0.3268 -1.6342
 6901SOL     OW32338   3.784   3.754  11.857  0.2660 -0.1616  0.5216
 6901SOL    HW132339   3.755   3.748  11.767 -0.4071  1.0016  0.6573
 6901SOL    HW232340   3.871   3.716  11.850  0.3249  0.1769 -0.5949
 6902SOL     OW32341   3.762   2.709   8.929  0.0978 -0.1681 -0.0600
 6902SOL    HW132342   3.812   2.636   8.893 -2.3422 -1.2458 -1.2631
 6902SOL    HW232343   3.695   2.728   8.863 -0.0751  2.2238  0.7852
 6903SOL     OW32344   4.104   2.534   1.815 -0.2051 -0.1904 -0.1851
 6903SOL    HW132345   4.027   2.521   1.759 -0.4115 -0.6146  0.1965
 6903SOL    HW232346   4.072   2.608   1.866  0.3897 -0.7368  0.9807
 6904SOL     OW32347   4.339   1.534  16.591 -0.0297 -0.2992  0.4386
 6904SOL    HW132348   4.366   1.562  16.503 -1.3893 -1.5932 -0.3831
 6904SOL    HW232349   4.266   1.595  16.606 -1.8227 -2.4528  0.4183
 6905SOL     OW32350   1.422   2.825   2.015 -0.4937 -0.0898  0.5400
 6905SOL    HW132351   1.465   2.757   1.963  0.2736  0.5111  0.3825
 6905SOL    HW232352   1.385   2.874   1.942  1.3839  0.8824  0.2407
 6906SOL     OW32353   4.574   3.100   4.711 -0.4965 -0.2881  0.5198
 6906SOL    HW132354   4.628   3.063   4.642 -0.6065  3.7773 -1.7674
 6906SOL    HW232355   4.486   3.068   4.692 -0.6064 -0.1943  0.8596
 6907SOL     OW32356   3.526   1.158  14.167  0.2286  0.0917 -0.0393
 6907SOL    HW132357   3.435   1.189  14.176 -0.2186 -1.6539  1.5338
 6907SOL    HW232358   3.570   1.230  14.122  0.0743  0.9908  1.2471
 6908SOL     OW32359   2.045   1.929  11.847 -0.0635  0.0433  0.7611
 6908SOL    HW132360   2.104   1.919  11.772 -0.3045  0.8169  0.4604
 6908SOL    HW232361   1.973   1.867  11.836  0.1089 -0.3023  1.5398
 6909SOL     OW32362   0.612   1.106   8.949 -0.6700 -0.7031 -0.0177
 6909SOL    HW132363   0.544   1.157   8.904  0.0397  1.5826  1.5112
 6909SOL    HW232364   0.686   1.167   8.940  0.1108 -1.4654  1.2604
 6910SOL     OW32365   3.029   2.595   3.016  0.4317  0.1308  0.0122
 6910SOL    HW132366   2.979   2.675   3.030  0.8802  0.6269 -1.2319
 6910SOL    HW232367   3.064   2.616   2.929  1.6640 -1.4953  0.1051
 6911SOL     OW32368   1.445   2.045  13.525 -0.4551  0.3395 -0.3633
 6911SOL    HW132369   1.490   2.014  13.604  0.0092  1.1205 -0.3192
 6911SOL    HW232370   1.463   2.138  13.536  1.0857 -0.0954  0.7973
 6912SOL     OW32371   1.758   4.422  14.073  0.7306  0.3472 -0.0983
 6912SOL    HW132372   1.678   4.422  14.125 -0.8997 -2.5216 -2.6380
 6912SOL    HW232373   1.741   4.352  14.010  4.2375 -0.4110 -0.1865
 6913SOL     OW32374   0.837   0.788   8.068  0.6152 -0.1710  0.2123
 6913SOL    HW132375   0.789   0.758   8.145 -2.4583 -0.5983 -1.8840
 6913SOL    HW232376   0.895   0.859   8.094  0.6860  0.1057 -0.6878
 6914SOL     OW32377   1.154   4.047   7.263  0.4790 -0.3191  0.1047
 6914SOL    HW132378   1.125   4.135   7.241  0.5316  0.1411  1.8930
 6914SOL    HW232379   1.159   4.021   7.171 -1.3174  0.5496 -0.2328
 6915SOL     OW32380   0.800   0.820   7.797 -0.1925 -0.0176 -0.4520
 6915SOL    HW132381   0.834   0.820   7.886 -0.1155  0.3106 -0.4835
 6915SOL    HW232382   0.750   0.901   7.806  1.6569  1.1905 -1.1383
 6916SOL     OW32383   0.586   2.494   7.488  0.2549  0.1741 -0.2018
 6916SOL    HW132384   0.560   2.563   7.549 -0.6521  1.0988 -1.6256
 6916SOL    HW232385   0.680   2.505   7.498  0.0593  1.4379  0.2751
 6917SOL     OW32386   3.222   3.430   5.830 -0.1799 -0.4038  0.1474
 6917SOL    HW132387   3.279   3.362   5.794 -0.1518  0.7093 -1.8802
 6917SOL    HW232388   3.229   3.485   5.752  0.6869 -0.4366  0.1942
 6918SOL     OW32389   3.444   1.143   8.214  0.1297 -0.0906  0.0856
 6918SOL    HW132390   3.535   1.167   8.233 -0.3215  1.6628  0.1207
 6918SOL    HW232391   3.461   1.089   8.137  0.3303  0.5141 -0.2953
 6919SOL     OW32392   4.143   3.975   1.919  0.0138  0.0845 -0.0127
 6919SOL    HW132393   4.073   3.928   1.963  0.4606 -0.9322 -0.3884
 6919SOL    HW232394   4.174   3.908   1.859  0.0969  0.6588 -0.6149
 6920SOL     OW32395   1.926   2.337   8.776 -0.1582 -0.7755  0.1728
 6920SOL    HW132396   2.022   2.340   8.772 -0.2610  1.9399 -0.3562
 6920SOL    HW232397   1.909   2.392   8.852  2.1560  0.6238 -0.3105
 6921SOL     OW32398   0.047   1.189   8.100  0.5403  0.1517  0.1095
 6921SOL    HW132399   0.063   1.275   8.140 -0.1540  0.1676  0.3478
 6921SOL    HW232400   0.124   1.142   8.133  0.4251  0.5888  0.9958
 6922SOL     OW32401   2.462   4.043  15.383 -0.2198  0.7479 -0.1049
 6922SOL    HW132402   2.385   4.002  15.423  0.1281 -0.2700 -0.4735
 6922SOL    HW232403   2.424   4.119  15.339 -1.7963  0.8622  1.4393
 6923SOL     OW32404   4.660   3.922   3.177  0.0172  0.3432 -0.4850
 6923SOL    HW132405   0.012   3.956   3.201  0.1825  0.7231 -1.6228
 6923SOL    HW232406   4.595   3.988   3.200  2.5148  2.2767  1.1176
 6924SOL     OW32407   3.948   2.228   2.273  0.3322 -0.4702 -0.3808
 6924SOL    HW132408   3.949   2.187   2.359 -0.7272 -0.7563 -0.5121
 6924SOL    HW232409   4.021   2.185   2.228  1.5449  1.7816 -0.5593
 6925SOL     OW32410   3.219   1.507   6.197  0.9792  0.3066  0.4985
 6925SOL    HW132411   3.216   1.442   6.126 -1.7959 -0.3584  1.2472
 6925SOL    HW232412   3.248   1.448   6.267  0.4856  1.9640  2.0869
 6926SOL     OW32413   3.278   0.589  16.688  0.5228 -0.3914 -0.0327
 6926SOL    HW132414   3.227   0.658  16.731 -1.2915 -0.7406 -1.5848
 6926SOL    HW232415   3.218   0.515  16.700 -0.9058  0.4463 -1.9505
 6927SOL     OW32416   4.612   0.219   1.919  0.2799  0.1276  0.6999
 6927SOL    HW132417   4.692   0.165   1.923 -0.5324 -1.0507  1.1564
 6927SOL    HW232418   4.617   0.247   1.827 -2.9688 -0.3621  0.3937
 6928SOL     OW32419   4.216   4.289   6.039 -0.1526  0.1890  0.1423
 6928SOL    HW132420   4.181   4.208   6.002 -2.2889  1.7391 -1.1724
 6928SOL    HW232421   4.302   4.260   6.071 -0.2307  0.2837  0.4352
 6929SOL     OW32422   0.418   1.596  15.091  0.3209  0.2218 -0.1752
 6929SOL    HW132423   0.477   1.522  15.102 -1.1024 -0.7414  0.8119
 6929SOL    HW232424   0.471   1.668  15.056  1.1871  0.4345  1.5678
 6930SOL     OW32425   1.536   3.143   6.957  0.2038  0.1665 -0.5616
 6930SOL    HW132426   1.463   3.122   7.014  0.7048  1.5860  0.6012
 6930SOL    HW232427   1.568   3.214   7.012  2.5265 -0.6988 -0.7696
 6931SOL     OW32428   1.561   4.722  15.635 -0.0469  0.0350  0.5629
 6931SOL    HW132429   1.486   4.706  15.691 -0.6037  0.8930  0.0561
 6931SOL    HW232430   1.525   0.026  15.556 -0.7615  0.2203  0.9779
 6932SOL     OW32431   3.294   2.114   4.253  0.9186 -0.3586  0.3978
 6932SOL    HW132432   3.373   2.168   4.251  1.3030 -1.0153 -1.9119
 6932SOL    HW232433   3.337   2.031   4.233 -3.7841 -2.9288  0.8880
 6933SOL     OW32434   2.854   0.151   4.126 -0.2777 -0.1207 -0.5612
 6933SOL    HW132435   2.867   0.209   4.051 -1.0473 -0.3490 -0.8786
 6933SOL    HW232436   2.794   0.088   4.086 -3.4294  1.5233  1.5552
 6934SOL     OW32437   1.851   0.910   4.732 -0.0838  0.0617  0.1476
 6934SOL    HW132438   1.906   0.863   4.794  0.1941 -0.1459 -0.2575
 6934SOL    HW232439   1.871   0.862   4.652  1.3526 -1.3566  1.3535
 6935SOL     OW32440   2.941   0.836   6.396  0.1537 -0.5915 -0.4047
 6935SOL    HW132441   2.994   0.756   6.394 -0.4257 -1.0113  0.9270
 6935SOL    HW232442   2.997   0.893   6.448 -0.6674 -1.9313  1.9741
 6936SOL     OW32443   0.880   3.499   8.512  0.4380 -0.1052 -0.0019
 6936SOL    HW132444   0.905   3.438   8.581  1.2772 -0.7150 -0.8525
 6936SOL    HW232445   0.813   3.452   8.462  0.1724 -0.1648  0.4087
 6937SOL     OW32446   2.653   2.541   5.474 -0.2078 -0.4537  0.3370
 6937SOL    HW132447   2.703   2.498   5.544  1.5368  0.4747 -0.3557
 6937SOL    HW232448   2.704   2.622   5.470  1.1227 -1.2214  1.6840
 6938SOL     OW32449   3.302   3.301   7.278  0.2535  0.8538 -0.5399
 6938SOL    HW132450   3.251   3.380   7.261  0.0699  1.2042  1.6121
 6938SOL    HW232451   3.223   3.247   7.289  0.6081  0.0413 -2.0807
 6939SOL     OW32452   4.635   3.582   3.809  0.6901 -0.1887  0.6146
 6939SOL    HW132453   4.602   3.589   3.719  0.2897  1.9738  0.9317
 6939SOL    HW232454   4.558   3.611   3.857 -1.0135  0.1126 -2.3011
 6940SOL     OW32455   4.365   4.338  11.317  0.4276 -0.6457  0.3793
 6940SOL    HW132456   4.293   4.358  11.258 -0.6795  1.2323  2.3816
 6940SOL    HW232457   4.435   4.394  11.284 -0.2036 -0.1356 -0.0766
 6941SOL     OW32458   1.026   1.181   8.399  0.5213 -0.2636 -0.2816
 6941SOL    HW132459   1.119   1.162   8.406  0.3316 -0.3119  2.4069
 6941SOL    HW232460   1.003   1.090   8.418 -0.7633  0.4517  1.5772
 6942SOL     OW32461   1.058   0.148   9.121 -0.8197 -0.5509  0.0665
 6942SOL    HW132462   1.090   0.178   9.207 -1.9276  0.3090  0.1760
 6942SOL    HW232463   1.139   0.152   9.070 -1.0866 -0.0169 -0.3111
 6943SOL     OW32464   4.206   3.578   7.377 -0.3433  0.2840  0.0982
 6943SOL    HW132465   4.208   3.544   7.288 -0.1069  0.6331 -0.0254
 6943SOL    HW232466   4.111   3.583   7.373 -0.5507 -1.9726  1.9479
 6944SOL     OW32467   1.320   1.192  11.931 -0.2072  0.4453 -0.0474
 6944SOL    HW132468   1.353   1.103  11.919 -1.9564 -0.3255  0.6768
 6944SOL    HW232469   1.395   1.244  11.905 -1.1522  2.3231  1.0067
 6945SOL     OW32470   4.608   2.953   3.067 -0.6215 -0.0442  0.2181
 6945SOL    HW132471   4.542   3.018   3.089  2.1722  2.2432  1.8836
 6945SOL    HW232472   4.587   2.951   2.974  0.4765 -0.3809 -0.0290
 6946SOL     OW32473   3.553   1.244   5.689  0.1544 -0.5148 -0.2328
 6946SOL    HW132474   3.488   1.233   5.759 -1.0100 -1.5101 -1.4480
 6946SOL    HW232475   3.619   1.296   5.735  0.5242 -2.9761  2.0143
 6947SOL     OW32476   3.656   0.796  11.691  0.1570 -0.3388 -0.2847
 6947SOL    HW132477   3.740   0.786  11.647  0.1619 -0.8588 -0.1597
 6947SOL    HW232478   3.675   0.854  11.765 -0.3411 -3.2412  2.1221
 6948SOL     OW32479   0.256   0.531   7.367  0.2761 -0.0088  0.1783
 6948SOL    HW132480   0.276   0.534   7.273  0.3810  1.8414  0.2432
 6948SOL    HW232481   0.211   0.447   7.372  0.2605 -0.0810 -1.1851
 6949SOL     OW32482   3.756   1.922   5.990 -0.4343 -0.5463 -0.7269
 6949SOL    HW132483   3.753   1.925   5.894  1.3770 -1.0343 -0.7985
 6949SOL    HW232484   3.711   1.840   6.010  2.3434 -1.9187 -0.1136
 6950SOL     OW32485   0.851   0.038   6.446  0.1060  0.4113 -0.2292
 6950SOL    HW132486   0.876   0.102   6.513 -1.1707 -0.0278  0.6639
 6950SOL    HW232487   0.846   0.092   6.368 -0.1823  0.1869 -0.3644
 6951SOL     OW32488   1.312   3.855   1.243 -0.1612  0.2679 -0.1713
 6951SOL    HW132489   1.403   3.873   1.218 -0.5906 -0.2022 -2.0336
 6951SOL    HW232490   1.283   3.933   1.291 -0.6510 -1.3231  2.1067
 6952SOL     OW32491   2.696   4.626   7.792 -0.1410 -0.6861 -0.0793
 6952SOL    HW132492   2.623   4.644   7.733 -1.6228  1.5845  2.4262
 6952SOL    HW232493   2.654   4.623   7.878 -0.7954 -0.2147 -0.3829
 6953SOL     OW32494   1.581   3.221   0.741  0.6204  0.2038  0.0242
 6953SOL    HW132495   1.584   3.130   0.771 -1.9845  0.6912  1.7584
 6953SOL    HW232496   1.673   3.246   0.737  0.5397  0.1938 -2.1859
 6954SOL     OW32497   0.683   1.348   2.063 -0.2405  0.4481  0.4887
 6954SOL    HW132498   0.596   1.310   2.055 -0.0940  0.1450  0.3484
 6954SOL    HW232499   0.729   1.312   1.987 -1.7963 -0.4569 -0.0040
 6955SOL     OW32500   1.030   0.923   0.265 -0.0658  0.4568  0.5313
 6955SOL    HW132501   0.980   0.863   0.320 -0.9573  0.2442 -0.5084
 6955SOL    HW232502   0.963   0.967   0.212  1.0095 -1.2475 -2.2087
 6956SOL     OW32503   3.993   4.230   1.897  0.0911 -0.1732  0.3620
 6956SOL    HW132504   3.962   4.200   1.982 -0.0533 -0.1121  0.3302
 6956SOL    HW232505   4.067   4.169   1.904 -0.6792 -0.9878  1.3768
 6957SOL     OW32506   1.350   0.163   4.996 -0.1852 -0.2764  0.5463
 6957SOL    HW132507   1.261   0.156   4.961  0.2273  0.5152 -0.6402
 6957SOL    HW232508   1.375   0.071   4.993 -0.7087 -0.4469  1.3709
 6958SOL     OW32509   1.722   1.840  11.708 -0.4592  0.2258 -0.2147
 6958SOL    HW132510   1.744   1.828  11.800 -0.5929 -1.8740 -0.4411
 6958SOL    HW232511   1.646   1.783  11.693 -1.3669  1.4052 -0.1348
 6959SOL     OW32512   3.098   3.524   6.338  0.6752  0.3365 -0.3360
 6959SOL    HW132513   3.112   3.603   6.390  0.5854  0.1036  0.0449
 6959SOL    HW232514   3.087   3.465   6.413 -0.6757  1.4695  0.3588
 6960SOL     OW32515   3.169   2.282   7.036 -0.3407 -0.1479  0.8582
 6960SOL    HW132516   3.094   2.339   7.019  0.5750  1.2736  1.6268
 6960SOL    HW232517   3.125   2.197   7.034  3.5487 -2.1402 -0.1123
 6961SOL     OW32518   0.021   4.174   8.869  0.1536  0.1616 -0.2082
 6961SOL    HW132519   4.689   4.135   8.927 -0.8402  1.9100 -0.1804
 6961SOL    HW232520   4.690   4.191   8.801  0.0817  2.0130  0.3435
 6962SOL     OW32521   1.350   4.566   8.622 -0.1447  0.3623 -0.7622
 6962SOL    HW132522   1.388   4.644   8.583  0.8623  0.2871  0.0406
 6962SOL    HW232523   1.308   4.516   8.553  0.9878 -1.5071 -0.1195
 6963SOL     OW32524   3.271   0.753   6.124 -0.7058 -0.4728  0.1471
 6963SOL    HW132525   3.251   0.668   6.085 -0.4778 -0.3579 -0.2134
 6963SOL    HW232526   3.217   0.810   6.069 -1.1429 -1.2649 -0.2361
 6964SOL     OW32527   4.190   1.311   6.161  0.0109  0.3162 -0.0012
 6964SOL    HW132528   4.168   1.219   6.173 -0.5461  0.7847  2.4862
 6964SOL    HW232529   4.267   1.300   6.104  1.2796 -0.3503  1.8463
 6965SOL     OW32530   0.776   2.162   4.346 -0.4919 -0.6894 -0.0612
 6965SOL    HW132531   0.729   2.227   4.398  1.7585 -1.0397  2.3949
 6965SOL    HW232532   0.712   2.149   4.276 -2.5917  1.0858  1.5394
 6966SOL     OW32533   0.598   3.238   3.204 -0.0478  0.2950  0.8989
 6966SOL    HW132534   0.579   3.150   3.170 -1.6263 -0.0535  2.6593
 6966SOL    HW232535   0.589   3.231   3.299 -0.8873 -0.8311  0.7347
 6967SOL     OW32536   4.294   2.809  13.171  0.0417  0.5179  0.0711
 6967SOL    HW132537   4.243   2.757  13.234 -1.3287 -2.0207 -3.1021
 6967SOL    HW232538   4.239   2.887  13.164  1.1449  1.2126 -0.6616
 6968SOL     OW32539   0.607   0.017   4.898 -0.6255 -0.0074  0.1964
 6968SOL    HW132540   0.583   4.686   4.832 -0.4401 -0.3525  0.4716
 6968SOL    HW232541   0.690   4.710   4.923 -0.0933 -0.1322 -1.7590
 6969SOL     OW32542   4.304   0.949   0.192  0.8688 -0.0350  0.2011
 6969SOL    HW132543   4.233   0.909   0.242  1.9026 -1.6618  0.3828
 6969SOL    HW232544   4.321   1.021   0.253 -2.2200 -0.8375  2.0125
 6970SOL     OW32545   0.652   1.851  12.397  0.1293 -0.0913 -0.2312
 6970SOL    HW132546   0.667   1.896  12.480 -0.2027 -1.3776  0.5247
 6970SOL    HW232547   0.731   1.798  12.383  0.6659  0.4240  0.8486
 6971SOL     OW32548   0.275   2.157  16.817 -0.1854  0.1299 -0.2337
 6971SOL    HW132549   0.204   2.114  16.770 -1.0641  0.9180  0.3660
 6971SOL    HW232550   0.277   2.234  16.760  0.0673  1.6634  1.8321
 6972SOL     OW32551   1.544   3.835   4.922 -0.4788  0.0927 -0.6779
 6972SOL    HW132552   1.527   3.834   5.016 -1.2129 -0.4549 -0.8129
 6972SOL    HW232553   1.501   3.919   4.907  0.0724  0.6905  1.0301
 6973SOL     OW32554   1.281   4.083  15.122 -0.1078 -0.6522  0.1288
 6973SOL    HW132555   1.274   4.141  15.046 -1.1694 -2.3273 -1.0590
 6973SOL    HW232556   1.227   4.137  15.180 -0.3916  2.3180 -2.9006
 6974SOL     OW32557   0.959   1.069  11.696 -0.4311  0.1327  0.0236
 6974SOL    HW132558   1.001   1.132  11.753  1.9747 -1.2077 -0.2744
 6974SOL    HW232559   0.950   0.993  11.753  0.6651  0.2779  0.3752
 6975SOL     OW32560   4.528   3.695   9.260 -0.1278 -0.1019  0.2288
 6975SOL    HW132561   4.604   3.733   9.303  0.8486 -0.5735 -1.1038
 6975SOL    HW232562   4.562   3.679   9.172 -1.5477  2.2111 -0.7756
 6976SOL     OW32563   3.934   3.919   2.611 -0.2483 -0.0270  0.5042
 6976SOL    HW132564   3.940   4.009   2.645  1.6441 -0.0560  0.2579
 6976SOL    HW232565   3.850   3.935   2.569  0.7580  2.1118 -0.7427
 6977SOL     OW32566   3.172   4.274  15.293 -0.2987  0.3600 -0.2946
 6977SOL    HW132567   3.091   4.239  15.256  0.8031 -1.0486 -1.3584
 6977SOL    HW232568   3.211   4.312  15.214  0.3951 -3.9120 -1.9919
 6978SOL     OW32569   1.117   2.804   5.760  0.0992  0.1889 -0.2858
 6978SOL    HW132570   1.134   2.772   5.849 -0.3798  1.1081  0.1391
 6978SOL    HW232571   1.177   2.759   5.701 -0.0835  1.1214 -1.1902
 6979SOL     OW32572   2.506   2.862  17.637  0.0040  0.2098 -0.7418
 6979SOL    HW132573   2.473   2.942  17.596  0.2585 -0.2290 -1.8010
 6979SOL    HW232574   2.435   2.801  17.617  0.3184 -0.5549  0.4756
 6980SOL     OW32575   0.263   3.369   7.803 -0.6802 -0.4428  0.3871
 6980SOL    HW132576   0.300   3.290   7.764  1.9744  0.8953  0.1745
 6980SOL    HW232577   0.281   3.441   7.742  2.7097 -0.9995  0.7053
 6981SOL     OW32578   1.357   3.490  11.193  0.7399 -0.5026  0.3706
 6981SOL    HW132579   1.363   3.575  11.151 -3.7340 -0.0340  0.6803
 6981SOL    HW232580   1.438   3.478  11.242  1.7444  1.5654 -0.7948
 6982SOL     OW32581   0.266   1.600   5.252  0.6202 -0.2871  0.5102
 6982SOL    HW132582   0.316   1.681   5.239 -0.3225  0.3841  1.0204
 6982SOL    HW232583   0.191   1.611   5.193  0.8418 -2.0671 -0.0783
 6983SOL     OW32584   4.093   4.657   4.305  0.1440 -0.0674 -0.0377
 6983SOL    HW132585   4.044   4.575   4.312 -0.0763  0.1882  1.3179
 6983SOL    HW232586   4.026   4.722   4.288  0.3383  0.7064  2.1976
 6984SOL     OW32587   2.624   2.007   6.702  0.4263  0.2388 -0.4985
 6984SOL    HW132588   2.543   2.013   6.753  0.3266 -0.2354 -0.6023
 6984SOL    HW232589   2.608   1.934   6.642 -0.6500 -0.8164  1.0874
 6985SOL     OW32590   3.866   4.157   6.609  0.2517 -0.3924  0.2318
 6985SOL    HW132591   3.845   4.188   6.521  1.2171 -2.3125 -0.6659
 6985SOL    HW232592   3.783   4.119   6.639 -0.7383  0.1553 -1.8112
 6986SOL     OW32593   0.562   2.844   7.126  0.0892  0.2264 -0.8475
 6986SOL    HW132594   0.529   2.912   7.067 -0.1043  1.8446  1.1223
 6986SOL    HW232595   0.482   2.804   7.159  0.8170 -0.2207  0.3960
 6987SOL     OW32596   3.294   3.166  15.131 -0.1487  0.0261 -0.4474
 6987SOL    HW132597   3.289   3.246  15.078 -0.8886  0.4873  0.3314
 6987SOL    HW232598   3.305   3.105  15.058  0.1134 -1.5256  0.8914
 6988SOL     OW32599   2.047   2.109   4.670  0.0146 -0.7651 -0.2318
 6988SOL    HW132600   2.093   2.174   4.618 -0.7337 -0.0443  0.0023
 6988SOL    HW232601   2.060   2.139   4.760 -2.3681 -1.8470  0.4747
 6989SOL     OW32602   3.227   4.678   2.602  0.2592  0.2642 -0.6744
 6989SOL    HW132603   3.305   4.626   2.619 -0.6349 -1.5860 -2.1611
 6989SOL    HW232604   3.179   4.604   2.565  1.8324 -0.1919 -1.8238
 6990SOL     OW32605   4.199   1.327   0.492 -0.0300 -0.0676  0.1559
 6990SOL    HW132606   4.216   1.233   0.478 -0.5560  0.0530 -1.3351
 6990SOL    HW232607   4.277   1.373   0.460 -0.8540  1.4981  0.4460
 6991SOL     OW32608   4.490   1.750   8.444  0.2785  0.0738  1.0552
 6991SOL    HW132609   4.464   1.800   8.367  0.9289  1.4948  1.7430
 6991SOL    HW232610   4.424   1.776   8.508 -1.2291  2.4446 -1.4844
 6992SOL     OW32611   0.227   1.924   8.773 -0.1643  0.0039  0.3431
 6992SOL    HW132612   0.155   1.884   8.724 -1.6654 -1.1344  3.4022
 6992SOL    HW232613   0.294   1.924   8.705 -0.6050  2.8302 -0.0847
 6993SOL     OW32614   1.305   3.824   4.440  0.1874  0.2303  0.0615
 6993SOL    HW132615   1.340   3.822   4.351  0.3991  2.2910  0.1045
 6993SOL    HW232616   1.224   3.774   4.434  1.1256 -1.1739 -0.9450
 6994SOL     OW32617   3.183   4.163  10.437  0.1753  0.3380  0.2220
 6994SOL    HW132618   3.120   4.173  10.508 -0.3220 -0.5549 -0.0882
 6994SOL    HW232619   3.169   4.069  10.424 -0.8654  0.8028 -1.9810
 6995SOL     OW32620   3.548   1.617   2.287  0.2922 -0.2140  0.6288
 6995SOL    HW132621   3.610   1.686   2.264 -0.5465  0.8848  1.6657
 6995SOL    HW232622   3.530   1.636   2.378  2.5616  0.1147  1.0017
 6996SOL     OW32623   1.336   2.586  11.737 -0.0986  0.0858 -0.1465
 6996SOL    HW132624   1.343   2.682  11.741  2.4785 -0.1099  0.3272
 6996SOL    HW232625   1.257   2.580  11.684  0.3118  0.6527 -0.8334
 6997SOL     OW32626   0.038   4.719  12.646 -0.2410  0.4245 -0.3448
 6997SOL    HW132627   0.117   4.675  12.615 -1.2603 -1.9164  0.3632
 6997SOL    HW232628   0.084   0.064  12.671  1.6828 -1.0556  0.8299
 6998SOL     OW32629   3.254   1.903   5.148 -0.4540  0.2562  0.2511
 6998SOL    HW132630   3.230   1.988   5.185 -0.5530  0.0948  0.5561
 6998SOL    HW232631   3.342   1.914   5.112 -0.2438 -0.7734  0.4631
 6999SOL     OW32632   1.564   2.799   7.653 -0.1220 -0.0370 -0.0324
 6999SOL    HW132633   1.524   2.815   7.567 -0.4777  2.1168  0.5183
 6999SOL    HW232634   1.606   2.884   7.664  2.4971 -1.4419  0.7089
 7000SOL     OW32635   1.220   4.438   5.156  0.0377  0.2044  0.0687
 7000SOL    HW132636   1.243   4.350   5.186  1.5018  0.8556  0.7866
 7000SOL    HW232637   1.134   4.424   5.114  0.5749 -2.4406 -0.1661
 7001SOL     OW32638   3.485   2.199  13.851  0.3800 -0.0782 -0.5215
 7001SOL    HW132639   3.476   2.151  13.769  0.7032 -2.5360  0.8612
 7001SOL    HW232640   3.402   2.172  13.891  1.2378 -1.7812  0.1247
 7002SOL     OW32641   2.450   3.429   5.275 -0.7293  0.3393  0.3119
 7002SOL    HW132642   2.417   3.406   5.188 -0.4912 -2.2053  0.8925
 7002SOL    HW232643   2.471   3.521   5.258  3.2210 -0.9177 -1.5880
 7003SOL     OW32644   1.236   3.927   7.497  0.0895  0.2029 -2.0081
 7003SOL    HW132645   1.173   3.884   7.555 -1.9877  2.5605 -2.5274
 7003SOL    HW232646   1.180   3.944   7.421 -1.1507  2.4059 -0.6079
 7004SOL     OW32647   2.943   0.854  10.337  0.2703 -0.1191  0.2244
 7004SOL    HW132648   2.955   0.781  10.277 -1.7087 -0.2381 -0.0166
 7004SOL    HW232649   3.027   0.901  10.337 -1.0982  2.3583  1.3732
 7005SOL     OW32650   1.239   1.697   7.063 -0.1930 -0.2908  0.1850
 7005SOL    HW132651   1.324   1.729   7.034 -1.2393  1.7184 -0.6621
 7005SOL    HW232652   1.207   1.772   7.112  2.0319  2.0883 -1.9923
 7006SOL     OW32653   4.496   3.330   8.548  0.3224 -0.5457  0.8965
 7006SOL    HW132654   4.544   3.392   8.602  1.0155  0.8692 -1.3482
 7006SOL    HW232655   4.524   3.347   8.458 -1.9125  3.9838  1.0607
 7007SOL     OW32656   1.964   2.133  15.718  0.1902  0.1259 -0.7719
 7007SOL    HW132657   1.947   2.190  15.793  0.9775  0.5191 -0.8956
 7007SOL    HW232658   2.056   2.144  15.694  0.3790 -1.2257 -0.6938
 7008SOL     OW32659   2.134   1.191   8.163 -0.2950 -0.4603  0.0994
 7008SOL    HW132660   2.089   1.274   8.145 -1.0762 -0.8295  0.3664
 7008SOL    HW232661   2.131   1.198   8.259  0.2905 -0.2897  0.1026
 7009SOL     OW32662   2.947   4.023   5.219  0.2533  0.2558  0.1384
 7009SOL    HW132663   3.041   4.007   5.212  0.3981 -0.1352  3.3115
 7009SOL    HW232664   2.916   3.977   5.140 -1.9789 -2.0704  2.3606
 7010SOL     OW32665   0.425   3.675   4.175 -0.2752  0.1669  0.4577
 7010SOL    HW132666   0.435   3.580   4.180 -0.2394  0.1436 -0.0217
 7010SOL    HW232667   0.331   3.690   4.183 -0.5807  0.3755 -3.3808
 7011SOL     OW32668   2.655   0.381   5.562 -0.1497 -0.3844  0.1616
 7011SOL    HW132669   2.662   0.465   5.607 -0.2841 -0.8673  1.0830
 7011SOL    HW232670   2.577   0.346   5.605 -1.0149  2.5942  1.0166
 7012SOL     OW32671   3.397   1.511   0.382 -0.2822  0.5792  0.0233
 7012SOL    HW132672   3.366   1.596   0.351  0.5660  0.5136 -0.9997
 7012SOL    HW232673   3.413   1.519   0.476  1.3432  1.1361 -0.3023
 7013SOL     OW32674   2.250   3.750   2.940 -0.3305 -0.1576  0.0623
 7013SOL    HW132675   2.301   3.831   2.938 -0.3494 -0.1474 -0.0256
 7013SOL    HW232676   2.330   3.707   2.968 -0.5943 -0.1298  0.8698
 7014SOL     OW32677   3.218   1.605   5.729  0.6698 -0.3790  0.0500
 7014SOL    HW132678   3.308   1.636   5.714 -0.0570  1.5755 -0.1940
 7014SOL    HW232679   3.164   1.666   5.679 -0.0844 -3.7770 -3.3817
 7015SOL     OW32680   1.267   0.071   7.662 -0.6418 -0.5852 -0.2826
 7015SOL    HW132681   1.177   0.038   7.667 -1.1356  0.9899  0.9541
 7015SOL    HW232682   1.296   0.065   7.753 -0.3419 -3.1114 -0.5490
 7016SOL     OW32683   0.093   3.344   5.388 -0.0536 -0.4536  0.4166
 7016SOL    HW132684   0.094   3.429   5.431  1.6614 -0.5141  0.4826
 7016SOL    HW232685   0.007   3.305   5.406  0.1180 -0.4740  1.1877
 7017SOL     OW32686   2.061   4.561   5.341 -0.3157 -0.3648  0.0219
 7017SOL    HW132687   2.089   4.652   5.344  1.5928 -1.0580  2.5621
 7017SOL    HW232688   2.039   4.547   5.248 -0.0002  1.8512 -0.3791
 7018SOL     OW32689   3.219   3.038  17.146 -0.3951 -0.1823 -0.2999
 7018SOL    HW132690   3.147   3.067  17.090 -0.6393  1.0930  0.6678
 7018SOL    HW232691   3.183   2.964  17.194 -0.9156  2.7024  3.7357
 7019SOL     OW32692   3.972   3.948   8.939  0.2402 -0.1833 -0.0966
 7019SOL    HW132693   3.896   4.004   8.926  1.5304  1.3017 -1.3889
 7019SOL    HW232694   3.954   3.868   8.890 -2.5495  1.6242 -2.0204
 7020SOL     OW32695   1.484   4.548   2.961  0.1390  0.1745 -0.3690
 7020SOL    HW132696   1.471   4.522   3.052 -2.6650  1.8633 -0.2732
 7020SOL    HW232697   1.473   4.643   2.966 -1.3080  0.1526 -2.9433
 7021SOL     OW32698   3.862   1.923   2.194  0.0960  0.3022  0.3432
 7021SOL    HW132699   3.932   1.860   2.180  0.5059  0.4403  1.7718
 7021SOL    HW232700   3.889   1.958   2.278  1.0480  0.4538 -0.0299
 7022SOL     OW32701   1.922   3.288   4.594  0.9266 -0.2070  0.5734
 7022SOL    HW132702   1.862   3.301   4.667 -1.4069 -2.0259 -1.0357
 7022SOL    HW232703   1.982   3.222   4.628 -0.7888 -1.4274  1.2398
 7023SOL     OW32704   1.082   1.828  14.878 -0.4891 -0.3085 -0.1071
 7023SOL    HW132705   1.062   1.735  14.886 -1.8776 -0.1596 -1.8067
 7023SOL    HW232706   1.124   1.828  14.964 -2.1571 -0.2070  0.6926
 7024SOL     OW32707   3.701   4.383   7.217 -0.3207 -0.5421 -0.0182
 7024SOL    HW132708   3.681   4.326   7.144  1.2745  0.0647 -0.9159
 7024SOL    HW232709   3.625   4.442   7.217 -0.1576 -0.3365  3.9931
 7025SOL     OW32710   2.835   1.489   5.382 -0.5592  0.3649 -0.4499
 7025SOL    HW132711   2.918   1.475   5.427 -0.7739 -1.1914 -0.5504
 7025SOL    HW232712   2.818   1.410   5.331  0.2349  0.6203 -1.1100
 7026SOL     OW32713   1.020   4.400   3.744  0.2040  0.6145  0.5776
 7026SOL    HW132714   0.929   4.376   3.725  0.5391 -0.5547  0.4021
 7026SOL    HW232715   1.064   4.339   3.684  0.4546  2.2769 -0.9448
 7027SOL     OW32716   1.003   0.700  14.375 -0.4500 -0.6361 -0.1936
 7027SOL    HW132717   1.095   0.696  14.350 -0.2676 -1.1423  0.5640
 7027SOL    HW232718   0.957   0.700  14.291 -1.6323  1.5048  0.4400
 7028SOL     OW32719   3.630   2.785   1.393  0.4916  0.2655 -0.1693
 7028SOL    HW132720   3.608   2.722   1.462 -1.2714 -0.1582 -1.1314
 7028SOL    HW232721   3.670   2.724   1.332  0.8934  0.8877 -0.5247
 7029SOL     OW32722   4.664   4.674   5.241  0.2857 -0.1069 -0.3952
 7029SOL    HW132723   4.638   4.591   5.281 -2.2699  2.6367  3.6854
 7029SOL    HW232724   4.724   4.650   5.170  0.1144  2.4915 -1.4419
 7030SOL     OW32725   1.210   3.411  13.669 -0.6840 -0.5167 -0.3056
 7030SOL    HW132726   1.204   3.427  13.763 -0.8914  1.7512 -0.6975
 7030SOL    HW232727   1.183   3.320  13.669  1.2000 -1.0661  0.3195
 7031SOL     OW32728   0.110   0.414   9.348  0.3206 -0.3561 -0.1389
 7031SOL    HW132729   0.125   0.425   9.442 -0.1731  0.2600 -0.1304
 7031SOL    HW232730   0.047   0.482   9.325  0.3766 -0.4970 -0.7098
 7032SOL     OW32731   3.062   2.140   5.268 -0.1054  1.1718  0.1504
 7032SOL    HW132732   3.095   2.177   5.186 -0.0671  1.5401  0.3313
 7032SOL    HW232733   2.968   2.148   5.252 -0.6695  0.2651  3.0641
 7033SOL     OW32734   2.305   4.453   7.634 -0.0242 -0.3118  0.7462
 7033SOL    HW132735   2.263   4.467   7.549 -1.9901 -2.9651  1.2849
 7033SOL    HW232736   2.280   4.535   7.677  1.0284  0.0641  0.6354
 7034SOL     OW32737   3.924   1.556   9.493 -0.0231 -0.1308  0.2366
 7034SOL    HW132738   3.916   1.462   9.478 -0.0576  0.4153 -3.2137
 7034SOL    HW232739   3.861   1.577   9.424 -1.8310 -1.0043  1.6176
 7035SOL     OW32740   3.853   1.310   9.668 -0.5294 -0.3010 -0.0973
 7035SOL    HW132741   3.826   1.251   9.597 -0.4396 -2.3688  1.5668
 7035SOL    HW232742   3.778   1.364   9.692  2.0534  2.9931  0.5189
 7036SOL     OW32743   1.999   0.712   6.653 -0.5367 -0.4776  0.0835
 7036SOL    HW132744   2.025   0.804   6.658 -0.2616 -0.4727 -1.5736
 7036SOL    HW232745   1.907   0.709   6.680  0.0463 -1.9860  1.9121
 7037SOL     OW32746   0.951   0.550   5.396  0.1010  0.3049  0.0666
 7037SOL    HW132747   1.002   0.522   5.471  1.7019  1.7037 -0.5064
 7037SOL    HW232748   1.004   0.626   5.371 -0.0790  0.9477  1.6388
 7038SOL     OW32749   3.294   4.593   4.702 -0.1992  0.0241  0.4165
 7038SOL    HW132750   3.211   4.555   4.674 -0.1699  1.3381 -1.4512
 7038SOL    HW232751   3.349   4.515   4.705 -2.1056 -1.3694 -1.2843
 7039SOL     OW32752   3.944   4.398   3.692 -0.2862  0.8312 -0.1622
 7039SOL    HW132753   3.872   4.460   3.700 -0.5949  0.6257 -1.4297
 7039SOL    HW232754   3.924   4.347   3.771  1.4292  0.7704  0.2446
 7040SOL     OW32755   0.078   1.690  13.154 -0.5673  1.3548 -0.6091
 7040SOL    HW132756   0.134   1.649  13.088 -0.9338 -1.0693  0.5881
 7040SOL    HW232757   0.138   1.689  13.229 -1.3841 -1.7894  0.0073
 7041SOL     OW32758   4.025   1.513   5.159 -0.3561 -0.3254 -0.0728
 7041SOL    HW132759   4.114   1.526   5.193  0.0214 -2.6899 -0.1907
 7041SOL    HW232760   4.036   1.476   5.071  1.8820 -0.8806  0.4532
 7042SOL     OW32761   4.483   1.863   9.124 -0.0685 -0.1921  0.3987
 7042SOL    HW132762   4.467   1.939   9.179 -1.2136 -0.3753  0.3048
 7042SOL    HW232763   4.489   1.800   9.195  1.9248  0.4648  0.8143
 7043SOL     OW32764   3.803   4.627   8.800  0.2122 -0.5535 -0.2031
 7043SOL    HW132765   3.790   4.719   8.777  0.8990 -0.8091 -1.6447
 7043SOL    HW232766   3.827   4.641   8.891 -1.0619 -0.7736  0.1656
 7044SOL     OW32767   3.098   1.656   9.052 -0.3938  0.4297  0.0041
 7044SOL    HW132768   3.183   1.675   9.093 -2.3077  1.1463  3.6034
 7044SOL    HW232769   3.104   1.560   9.046  3.2843  0.5043  2.7229
 7045SOL     OW32770   3.402   3.215   5.710  0.1286 -0.4371  0.1558
 7045SOL    HW132771   3.449   3.159   5.771 -0.8916 -0.3308  1.0310
 7045SOL    HW232772   3.392   3.141   5.650  1.9186  1.2626 -2.2847
 7046SOL     OW32773   0.530   0.175   7.856 -0.3114  0.0629  0.7529
 7046SOL    HW132774   0.470   0.102   7.870 -0.7033  0.4020  0.8219
 7046SOL    HW232775   0.494   0.213   7.776  0.1048 -0.1402  0.4689
 7047SOL     OW32776   0.421   0.939   7.755 -0.7469 -0.1509 -0.1608
 7047SOL    HW132777   0.512   0.944   7.786 -0.0712 -2.3953 -1.7912
 7047SOL    HW232778   0.375   1.014   7.792  1.2156  1.4023 -0.8810
 7048SOL     OW32779   2.150   4.436   8.273 -0.6169  0.4155  0.1593
 7048SOL    HW132780   2.130   4.428   8.366 -1.2278 -0.1482 -0.0168
 7048SOL    HW232781   2.103   4.364   8.231 -0.3880  2.2321 -3.2039
 7049SOL     OW32782   2.503   2.572   4.041  0.4065 -0.3027 -0.4470
 7049SOL    HW132783   2.464   2.649   4.083 -0.9341 -1.4486  0.4054
 7049SOL    HW232784   2.529   2.600   3.954 -0.1327  3.5488  0.6050
 7050SOL     OW32785   0.020   1.843   8.634 -0.4521 -0.4841  0.7504
 7050SOL    HW132786   0.028   1.905   8.562 -2.0590  0.1902  1.1558
 7050SOL    HW232787   4.675   1.797   8.606  0.7134 -3.5992  2.4678
 7051SOL     OW32788   4.509   4.345   3.600  0.6159  0.7784  0.2252
 7051SOL    HW132789   4.585   4.385   3.558  0.0911  1.4484 -0.0969
 7051SOL    HW232790   4.527   4.253   3.580  3.9655  1.5536 -0.3874
 7052SOL     OW32791   1.865   1.359  16.812 -0.2141 -0.1969  0.0858
 7052SOL    HW132792   1.777   1.350  16.849 -0.5590 -0.0518 -0.6778
 7052SOL    HW232793   1.847   1.336  16.721  0.9641  0.6849 -0.3753
 7053SOL     OW32794   2.604   1.377   7.682 -0.0828  0.3654 -0.5901
 7053SOL    HW132795   2.558   1.302   7.720 -3.1873  1.8644 -1.3998
 7053SOL    HW232796   2.665   1.402   7.752 -1.3557 -2.6552  1.6003
 7054SOL     OW32797   2.910   1.537   0.677  0.5471  0.2825 -0.5725
 7054SOL    HW132798   2.885   1.492   0.758 -0.4513  0.5508 -0.7341
 7054SOL    HW232799   2.929   1.455   0.633  0.9095  0.1497 -0.1612
 7055SOL     OW32800   2.197   3.403   6.108  0.1074  0.0813  0.0528
 7055SOL    HW132801   2.281   3.422   6.150 -0.6978  1.0380  1.2590
 7055SOL    HW232802   2.217   3.440   6.022  0.5093  2.2174  1.0503
 7056SOL     OW32803   1.585   0.910   6.549  0.2401  0.2537  0.3244
 7056SOL    HW132804   1.506   0.937   6.502  0.2575 -1.3294 -0.6005
 7056SOL    HW232805   1.647   0.971   6.507 -1.3093  1.7968  0.2591
 7057SOL     OW32806   3.398   0.477   7.860 -0.3365 -0.6032  0.2091
 7057SOL    HW132807   3.383   0.388   7.829 -2.9509 -0.6751  1.6780
 7057SOL    HW232808   3.348   0.474   7.942  0.7211  0.7155  0.9002
 7058SOL     OW32809   4.286   1.176  16.261  0.3661 -0.3934  0.0203
 7058SOL    HW132810   4.381   1.169  16.253  0.6637  1.1946  2.0846
 7058SOL    HW232811   4.276   1.221  16.345 -0.6398 -0.9057  0.1856
 7059SOL     OW32812   2.935   1.493   1.542 -0.1339  0.3051 -0.4220
 7059SOL    HW132813   2.851   1.486   1.497 -0.6869  1.2119  0.4700
 7059SOL    HW232814   2.970   1.407   1.517  1.7768  0.9563 -0.0115
 7060SOL     OW32815   3.711   4.093   3.124  0.1118 -0.4612 -0.1127
 7060SOL    HW132816   3.707   3.999   3.146 -2.6190 -0.3633 -0.1982
 7060SOL    HW232817   3.799   4.097   3.088  1.0806  2.9612  2.6894
 7061SOL     OW32818   1.209   3.940  16.499  0.3141  0.0547  1.1732
 7061SOL    HW132819   1.275   3.926  16.566  0.3414 -0.9786  0.9254
 7061SOL    HW232820   1.247   3.883  16.432 -0.4017  0.8562  0.0684
 7062SOL     OW32821   2.077   1.194  12.861  0.0550  0.0733 -0.0823
 7062SOL    HW132822   2.112   1.249  12.791  0.5641 -2.5942 -1.9437
 7062SOL    HW232823   1.984   1.219  12.861 -0.2861 -1.1921 -0.9215
 7063SOL     OW32824   4.468   3.947   6.498 -0.1794  0.2424  0.2024
 7063SOL    HW132825   4.467   3.851   6.504  0.2412  0.2373  0.1727
 7063SOL    HW232826   4.391   3.975   6.448 -0.3613  2.4243  1.7174
 7064SOL     OW32827   2.108   3.230   6.800 -0.3196 -0.2645 -0.1977
 7064SOL    HW132828   2.019   3.196   6.804 -0.6622  0.5293 -1.4221
 7064SOL    HW232829   2.159   3.154   6.832  0.6571  0.2528 -0.5174
 7065SOL     OW32830   0.554   2.449  11.311 -0.2216  0.1571 -0.4149
 7065SOL    HW132831   0.564   2.355  11.325 -0.2340  0.2113 -0.0326
 7065SOL    HW232832   0.532   2.482  11.398 -1.2318  2.0896 -1.3940
 7066SOL     OW32833   2.744   4.026   5.412  0.6056  0.5428  0.2328
 7066SOL    HW132834   2.744   3.933   5.434  0.6000  0.2179 -1.1916
 7066SOL    HW232835   2.823   4.024   5.359  0.0987  1.3428 -0.5562
 7067SOL     OW32836   3.569   2.749   8.721 -0.1262 -0.2222  0.0484
 7067SOL    HW132837   3.505   2.814   8.692 -1.2028 -1.5164 -0.5114
 7067SOL    HW232838   3.511   2.680   8.753  0.6472 -0.9259 -0.0578
 7068SOL     OW32839   1.035   1.260   0.281 -0.3408  0.1511  0.0545
 7068SOL    HW132840   1.090   1.187   0.311  0.0227  0.0884 -0.7408
 7068SOL    HW232841   0.959   1.217   0.242 -1.8208 -0.5842  3.8198
 7069SOL     OW32842   2.954   1.305   0.253 -0.1395  0.3542 -0.0111
 7069SOL    HW132843   2.940   1.212   0.271  1.9514  0.3404  1.4979
 7069SOL    HW232844   2.964   1.307   0.158 -3.9352  1.6371 -0.3959
 7070SOL     OW32845   0.382   2.767  17.540 -0.0381  0.4759  0.0843
 7070SOL    HW132846   0.422   2.797  17.458  1.0761 -0.4109  0.2863
 7070SOL    HW232847   0.363   2.849  17.585  1.2164  0.9810 -0.3077
 7071SOL     OW32848   2.040   2.621   2.988 -0.1095  0.5400 -0.2113
 7071SOL    HW132849   2.004   2.592   2.905 -0.3278  0.0346  0.0618
 7071SOL    HW232850   2.059   2.714   2.979 -0.9189  0.9750  2.5699
 7072SOL     OW32851   2.442   3.847  16.702 -0.9409 -0.0846 -0.1186
 7072SOL    HW132852   2.372   3.785  16.684  2.4052 -3.7052 -0.5476
 7072SOL    HW232853   2.445   3.890  16.616 -0.4901  0.3189  0.0995
 7073SOL     OW32854   1.644   0.463   2.318  0.8516 -0.6091 -0.5489
 7073SOL    HW132855   1.649   0.540   2.263 -0.7904 -0.7087 -0.8373
 7073SOL    HW232856   1.562   0.422   2.290 -0.0725 -1.5890  3.4880
 7074SOL     OW32857   3.617   2.022   9.810  0.3033  0.0214  0.2250
 7074SOL    HW132858   3.689   2.001   9.869  0.8799 -2.0424 -1.2098
 7074SOL    HW232859   3.655   2.008   9.724  1.1273 -3.0264  1.1057
 7075SOL     OW32860   3.115   0.944   6.015  0.2139 -0.0631  0.2921
 7075SOL    HW132861   3.076   1.030   6.006 -1.9145 -0.9682  0.8680
 7075SOL    HW232862   3.031   0.900   6.029  0.7257 -0.3660  2.3129
 7076SOL     OW32863   3.817   1.034   9.217  0.1422 -0.0406 -0.1967
 7076SOL    HW132864   3.888   0.997   9.270  1.9863  2.9412 -0.5632
 7076SOL    HW232865   3.759   1.066   9.287  1.3786 -1.5171  1.5033
 7077SOL     OW32866   3.088   0.244   3.335 -0.4295 -0.0638  0.4304
 7077SOL    HW132867   3.047   0.158   3.331 -0.1271 -0.1426 -1.1305
 7077SOL    HW232868   3.088   0.264   3.428  2.8805  1.5879  0.0768
 7078SOL     OW32869   2.929   3.693   7.072 -0.3356 -0.3800  0.1271
 7078SOL    HW132870   2.899   3.662   6.986 -2.7834  0.5889  0.6395
 7078SOL    HW232871   2.973   3.776   7.050  0.8576 -1.3094 -0.9971
 7079SOL     OW32872   3.621   2.070   4.627  0.4847  0.1640  0.0004
 7079SOL    HW132873   3.621   1.985   4.672 -1.8987 -0.0659 -0.4281
 7079SOL    HW232874   3.661   2.050   4.543 -0.4546  0.4143 -0.5125
 7080SOL     OW32875   2.435   2.402   7.669 -0.6856 -0.4342  0.1007
 7080SOL    HW132876   2.516   2.356   7.693 -0.5991  0.0575  0.7479
 7080SOL    HW232877   2.465   2.440   7.586  1.5967 -2.2351  0.0847
 7081SOL     OW32878   3.105   0.068   8.678  0.1768 -0.5718  0.1620
 7081SOL    HW132879   3.112   4.717   8.636  0.7894  0.1733 -1.2589
 7081SOL    HW232880   3.152   0.038   8.756 -1.5973  1.1153  1.8451
 7082SOL     OW32881   0.399   0.813  15.132 -0.7701  0.2433 -0.0385
 7082SOL    HW132882   0.401   0.890  15.190 -2.8508  0.3689 -0.1194
 7082SOL    HW232883   0.449   0.841  15.056 -3.1345  0.0656 -1.6611
 7083SOL     OW32884   0.920   2.464   3.944  0.2926 -0.5929  0.5285
 7083SOL    HW132885   0.949   2.542   3.992 -1.7144  0.5827 -0.1748
 7083SOL    HW232886   0.958   2.491   3.861  1.7109  0.3026  1.4617
 7084SOL     OW32887   0.331   1.440   7.776  0.2322 -0.9823  0.0800
 7084SOL    HW132888   0.318   1.492   7.697  0.9980 -0.2630  0.4384
 7084SOL    HW232889   0.293   1.503   7.838  1.5898  0.1970 -0.3042
 7085SOL     OW32890   3.056   3.764   7.723  0.3979  0.1527 -0.3442
 7085SOL    HW132891   3.091   3.751   7.811 -0.4091  1.3615  0.1649
 7085SOL    HW232892   3.111   3.839   7.700  1.5997 -0.1420  1.6039
 7086SOL     OW32893   4.132   1.050  16.073 -0.7796  0.3244 -0.0291
 7086SOL    HW132894   4.191   1.097  16.132  0.5398 -0.4808 -0.7014
 7086SOL    HW232895   4.198   1.012  16.015 -2.1516 -0.5945 -0.9935
 7087SOL     OW32896   4.112   1.724   6.004  0.0825  0.4899  0.2340
 7087SOL    HW132897   4.123   1.812   6.040  1.9327 -0.1976  1.3568
 7087SOL    HW232898   4.087   1.687   6.089  1.2034  1.4383  0.9733
 7088SOL     OW32899   3.400   3.613   2.626 -0.4924 -0.2566  0.3940
 7088SOL    HW132900   3.418   3.598   2.719  0.2320 -1.0485  0.1283
 7088SOL    HW232901   3.321   3.666   2.617 -1.2565 -1.8474 -2.2665
 7089SOL     OW32902   1.364   1.707   6.361  0.8569 -0.2495 -0.2257
 7089SOL    HW132903   1.305   1.781   6.349  3.5572  1.7410 -1.1269
 7089SOL    HW232904   1.337   1.679   6.448  1.0672 -1.7193 -0.6391
 7090SOL     OW32905   1.339   2.157   8.770 -0.6264 -0.2115 -0.3224
 7090SOL    HW132906   1.273   2.161   8.701  0.8874  1.2788 -1.7133
 7090SOL    HW232907   1.418   2.137   8.719  0.7582  0.8689  1.4080
 7091SOL     OW32908   4.671   2.032   2.870 -0.1530 -0.2067  0.1845
 7091SOL    HW132909   4.705   1.999   2.787 -1.7475 -0.2458 -0.4389
 7091SOL    HW232910   0.000   1.995   2.932 -0.3454 -0.3884  0.2731
 7092SOL     OW32911   0.206   4.695   7.117 -0.0115 -0.2124  0.5035
 7092SOL    HW132912   0.288   0.007   7.103  0.0614 -0.8782 -1.1950
 7092SOL    HW232913   0.144   0.031   7.097 -0.5744 -0.2195  2.2038
 7093SOL     OW32914   1.139   2.078   6.004 -0.4881  0.4000 -0.3946
 7093SOL    HW132915   1.203   2.099   6.073 -2.9089  1.3354  1.5510
 7093SOL    HW232916   1.170   1.997   5.963  0.6323  0.8702 -0.4852
 7094SOL     OW32917   2.652   1.069  14.834  0.0900 -0.1951  0.4164
 7094SOL    HW132918   2.557   1.058  14.831 -0.0390  0.4736  2.1253
 7094SOL    HW232919   2.684   0.993  14.882 -1.8096 -0.2446  1.6015
 7095SOL     OW32920   0.600   4.479   8.189  0.5118  0.0013 -0.5493
 7095SOL    HW132921   0.625   4.415   8.122 -1.2113 -0.8523 -0.3716
 7095SOL    HW232922   0.557   4.540   8.129 -0.7360  0.4628  0.8402
 7096SOL     OW32923   0.685   3.426   2.021  0.5482  0.7522  0.0647
 7096SOL    HW132924   0.749   3.464   1.961  1.3689  1.3677  1.3485
 7096SOL    HW232925   0.678   3.505   2.074  1.2029 -0.0238  1.3082
 7097SOL     OW32926   4.170   4.032  16.842  0.4393  0.4653 -0.6650
 7097SOL    HW132927   4.093   3.976  16.827 -0.2433  1.6831 -1.6169
 7097SOL    HW232928   4.198   3.974  16.913  1.3777  3.1516  1.1500
 7098SOL     OW32929   2.520   0.985   6.094  0.0089  0.0005 -0.0109
 7098SOL    HW132930   2.506   0.898   6.133 -0.6354  0.9280  1.8292
 7098SOL    HW232931   2.592   0.995   6.156 -0.6170 -0.4783  0.7906
 7099SOL     OW32932   4.322   0.069   9.448 -0.7185  0.4557  0.2016
 7099SOL    HW132933   4.264   0.015   9.393  3.1325 -1.0387 -2.4391
 7099SOL    HW232934   4.271   0.083   9.528 -1.8598  0.1029 -0.4480
 7100SOL     OW32935   4.351   3.680   4.479 -0.3326 -0.3218  0.3122
 7100SOL    HW132936   4.345   3.740   4.553 -0.1845 -1.6157  1.3690
 7100SOL    HW232937   4.380   3.604   4.530  0.9742  0.0780  0.1565
 7101SOL     OW32938   1.236   0.268  10.828  0.2467 -0.3896 -0.7794
 7101SOL    HW132939   1.159   0.228  10.788 -0.0285 -0.9782  0.3411
 7101SOL    HW232940   1.283   0.192  10.862  1.4787  0.4211 -0.6588
 7102SOL     OW32941   2.810   2.143  12.208  0.4063 -0.1779 -0.0966
 7102SOL    HW132942   2.906   2.143  12.209  0.4135  0.5182 -0.6797
 7102SOL    HW232943   2.804   2.054  12.242  1.8247  0.2883  1.4143
 7103SOL     OW32944   2.747   1.498   2.464  0.7724  0.2022 -0.3908
 7103SOL    HW132945   2.842   1.485   2.455  0.7478 -0.4371  0.2226
 7103SOL    HW232946   2.714   1.472   2.378 -3.2151  0.0054  1.2174
 7104SOL     OW32947   0.624   2.359   5.533 -0.0206 -0.1932 -0.0346
 7104SOL    HW132948   0.654   2.306   5.459  3.1021  0.7280  0.5885
 7104SOL    HW232949   0.557   2.414   5.493  0.1439  0.9944  1.3172
 7105SOL     OW32950   2.860   4.676   8.365  0.1909  0.0797  0.0108
 7105SOL    HW132951   2.935   4.618   8.353  1.8606  2.5641 -1.3005
 7105SOL    HW232952   2.885   4.723   8.444 -1.5769 -2.2215  1.9645
 7106SOL     OW32953   0.072   1.145   4.035  0.7651  0.2985  0.0874
 7106SOL    HW132954   0.055   1.094   3.957  0.4980 -0.2133  0.4808
 7106SOL    HW232955   0.073   1.236   4.004  0.9671  0.5649  0.8736
 7107SOL     OW32956   2.590   3.083   6.793 -0.1449 -0.2984  0.6520
 7107SOL    HW132957   2.532   3.033   6.849  0.0420 -0.2091  0.9267
 7107SOL    HW232958   2.576   3.176   6.809  0.7514  0.2067 -1.4797
 7108SOL     OW32959   0.559   4.083   6.130 -0.4491 -0.4659 -0.0212
 7108SOL    HW132960   0.623   4.099   6.060  1.5165  1.9986  2.3517
 7108SOL    HW232961   0.554   4.171   6.167 -0.6144 -0.6377  0.3683
 7109SOL     OW32962   3.134   4.035   9.846 -0.3403 -0.5216 -0.5925
 7109SOL    HW132963   3.216   3.988   9.833  0.0758  0.5343 -1.7159
 7109SOL    HW232964   3.122   4.025   9.941 -1.3423 -0.4456 -0.7066
 7110SOL     OW32965   1.385   1.904   4.165  0.0560 -0.0786  0.3059
 7110SOL    HW132966   1.349   1.992   4.179  0.5667  0.6346 -2.7061
 7110SOL    HW232967   1.461   1.926   4.111 -0.6684 -0.9445 -1.0742
 7111SOL     OW32968   3.170   3.783   7.971 -0.4397 -0.4888 -0.0077
 7111SOL    HW132969   3.166   3.873   8.003  0.5625  0.0122 -1.3250
 7111SOL    HW232970   3.264   3.765   7.962  0.0137  2.1678 -0.4013
 7112SOL     OW32971   1.996   0.398  10.845 -0.6063 -0.2909  0.1983
 7112SOL    HW132972   1.923   0.431  10.793 -0.5318  0.8439  0.8205
 7112SOL    HW232973   1.958   0.336  10.908  0.9545  2.0257  3.3996
 7113SOL     OW32974   1.580   3.657   4.072  0.0778 -0.5696  0.1960
 7113SOL    HW132975   1.563   3.563   4.071 -1.3482 -0.3004  0.7399
 7113SOL    HW232976   1.665   3.648   4.028  0.1914 -0.0521  0.3085
 7114SOL     OW32977   1.761   4.215   8.674  0.1532  0.3025  0.9212
 7114SOL    HW132978   1.788   4.299   8.637 -0.8020 -0.1602 -0.8298
 7114SOL    HW232979   1.674   4.234   8.707  0.6381  0.9752  1.8104
 7115SOL     OW32980   4.275   4.042  16.580 -0.6278 -0.2352  0.2092
 7115SOL    HW132981   4.295   4.041  16.674 -3.2685 -2.3463  0.7621
 7115SOL    HW232982   4.239   3.953  16.577 -0.1479 -0.4506  0.9239
 7116SOL     OW32983   0.864   4.078   1.482  0.0279  0.2409  0.0540
 7116SOL    HW132984   0.853   4.173   1.480  0.4162  0.2835  0.0106
 7116SOL    HW232985   0.810   4.052   1.408 -0.1303 -1.5923  0.8154
 7117SOL     OW32986   3.216   3.193  13.254  0.1686 -0.1226 -0.0534
 7117SOL    HW132987   3.208   3.098  13.249 -0.8911 -0.0228 -0.2884
 7117SOL    HW232988   3.297   3.207  13.303  0.5844  1.2034 -1.1316
 7118SOL     OW32989   1.341   0.513  15.846 -0.3552  0.4542 -0.4395
 7118SOL    HW132990   1.351   0.561  15.764  0.4717 -1.6736 -1.5657
 7118SOL    HW232991   1.265   0.460  15.822  1.8333 -1.2285 -3.6046
 7119SOL     OW32992   1.677   2.582   1.577  0.5055 -0.3658  0.3329
 7119SOL    HW132993   1.681   2.604   1.484 -1.9070 -0.7734  0.1443
 7119SOL    HW232994   1.731   2.646   1.623 -0.1466 -1.6988  2.9805
 7120SOL     OW32995   0.047   2.488  14.903 -0.3394 -0.0463  0.3274
 7120SOL    HW132996   0.047   2.531  14.817  1.4575 -0.2087  0.2627
 7120SOL    HW232997   0.061   2.551  14.973  0.3305  0.6370 -0.4298
 7121SOL     OW32998   2.117   3.717   6.571  0.2113  0.0113 -0.2367
 7121SOL    HW132999   2.148   3.673   6.650 -1.3539 -2.5799 -1.0832
 7121SOL    HW233000   2.174   3.683   6.502  1.4393  0.3887  0.5923
 7122SOL     OW33001   1.232   0.898   3.277  0.0300 -0.4729 -0.1283
 7122SOL    HW133002   1.234   0.804   3.295  4.8755 -0.2077  0.7240
 7122SOL    HW233003   1.324   0.906   3.251  0.1122  2.5876  1.0651
 7123SOL     OW33004   3.538   0.721   0.064 -0.1043 -0.0926  0.0286
 7123SOL    HW133005   3.506   0.733   0.153  2.1799  0.3949  0.7767
 7123SOL    HW233006   3.548   0.813   0.043 -1.4153  0.5520  2.1964
 7124SOL     OW33007   1.621   3.535   1.426  0.1892  0.6122 -0.2389
 7124SOL    HW133008   1.685   3.602   1.402 -3.6058  3.5539 -2.1517
 7124SOL    HW233009   1.676   3.495   1.494 -2.4626 -0.8516  1.0372
 7125SOL     OW33010   2.579   4.388   7.581  0.0377 -0.1917 -0.0937
 7125SOL    HW133011   2.503   4.437   7.614 -0.4041  0.1035 -1.5544
 7125SOL    HW233012   2.624   4.456   7.531  0.9441  0.0286  0.9976
 7126SOL     OW33013   2.987   0.754   6.891 -0.6647 -0.2983  0.0302
 7126SOL    HW133014   3.025   0.811   6.958  0.5322 -0.1016 -0.8278
 7126SOL    HW233015   2.901   0.735   6.930  0.7170 -3.6923  1.4438
 7127SOL     OW33016   0.971   0.462   4.312 -0.1432  0.2457  0.5350
 7127SOL    HW133017   0.992   0.555   4.317  0.2654  0.2521 -1.2423
 7127SOL    HW233018   1.042   0.405   4.339  0.9759  0.6890 -1.4742
 7128SOL     OW33019   2.246   2.689  12.473  0.2627  0.0522 -0.4647
 7128SOL    HW133020   2.190   2.625  12.429  0.6498  0.6817 -1.8735
 7128SOL    HW233021   2.317   2.629  12.496 -0.0678 -0.0705  0.2340
 7129SOL     OW33022   1.640   4.170  16.796  0.2914 -0.3652  0.1686
 7129SOL    HW133023   1.655   4.263  16.776 -0.0473 -0.4468 -0.4446
 7129SOL    HW233024   1.728   4.153  16.832 -0.2814 -2.0758  0.7574
 7130SOL     OW33025   1.263   0.609   5.139 -0.3617 -0.1862  0.3821
 7130SOL    HW133026   1.265   0.542   5.071  2.7644  0.1015  0.1931
 7130SOL    HW233027   1.344   0.652   5.112 -0.0309 -0.7374  0.4866
 7131SOL     OW33028   3.784   3.501   0.303  0.3582  0.1452  0.3029
 7131SOL    HW133029   3.705   3.554   0.310 -0.6363 -1.4634  1.4129
 7131SOL    HW233030   3.796   3.508   0.208  0.2325 -2.2259  0.1150
 7132SOL     OW33031   3.526   2.988   5.794  0.5608 -0.0821 -0.0265
 7132SOL    HW133032   3.543   2.895   5.781  1.8245  0.1930 -0.2614
 7132SOL    HW233033   3.595   3.016   5.853  0.2831 -0.8275  0.6636
 7133SOL     OW33034   0.461   2.379   2.078 -0.2126 -0.1634  0.2606
 7133SOL    HW133035   0.502   2.305   2.032  0.0548 -2.3804  4.0401
 7133SOL    HW233036   0.516   2.456   2.063 -0.3953  0.3091  2.0226
 7134SOL     OW33037   1.572   0.046   8.476 -0.1907 -0.0951 -0.3324
 7134SOL    HW133038   1.541   0.076   8.562 -0.3303 -1.0472 -0.0508
 7134SOL    HW233039   1.507   0.093   8.423 -0.5592 -0.9551 -0.6346
 7135SOL     OW33040   3.750   0.187  15.686 -0.1095 -0.1105 -0.5775
 7135SOL    HW133041   3.815   0.124  15.655 -2.9816 -1.6416 -3.4162
 7135SOL    HW233042   3.781   0.202  15.775 -2.0688 -1.7007  0.3842
 7136SOL     OW33043   2.186   4.550   7.415  0.0062  0.3608 -0.0574
 7136SOL    HW133044   2.115   4.605   7.448  1.0631  1.1579  0.8650
 7136SOL    HW233045   2.198   4.603   7.336 -2.0326 -2.1215 -2.0687
 7137SOL     OW33046   0.071   4.238   7.955  0.3423 -0.1444 -0.1636
 7137SOL    HW133047   0.107   4.168   8.009 -1.1006 -0.1937  0.7370
 7137SOL    HW233048   0.089   4.316   8.007  0.8856 -0.2467 -0.1999
 7138SOL     OW33049   3.578   0.315   8.950 -0.2064 -0.1217 -0.2018
 7138SOL    HW133050   3.568   0.376   8.877 -0.9958 -1.0767 -0.8916
 7138SOL    HW233051   3.525   0.241   8.919 -3.9550  3.0899 -1.3561
 7139SOL     OW33052   3.227   0.490   6.008  0.0654  0.2078 -0.6794
 7139SOL    HW133053   3.196   0.506   5.919  0.1291  0.9143 -0.5767
 7139SOL    HW233054   3.184   0.407   6.027 -0.0076  0.6712  1.2468
 7140SOL     OW33055   1.854   2.066   2.102  0.2057 -0.4125  0.3637
 7140SOL    HW133056   1.905   2.129   2.051 -1.3388 -1.0364 -1.9395
 7140SOL    HW233057   1.912   2.050   2.177  0.4984 -0.7281  0.0645
 7141SOL     OW33058   4.277   4.161  10.771 -0.2471 -0.6374  0.1386
 7141SOL    HW133059   4.291   4.112  10.853 -1.5978 -1.1249  0.0823
 7141SOL    HW233060   4.186   4.136  10.754 -0.4874  1.1240 -1.0868
 7142SOL     OW33061   2.934   3.232   4.957 -0.5994  0.0542 -0.2667
 7142SOL    HW133062   2.923   3.196   4.869 -2.5070 -0.5712  0.2182
 7142SOL    HW233063   2.911   3.152   5.004  2.2299 -1.2808 -1.1490
 7143SOL     OW33064   4.230   4.648  11.300  0.0040 -0.8225 -0.0492
 7143SOL    HW133065   4.309   4.664  11.352 -0.7439 -3.0057  1.7312
 7143SOL    HW233066   4.166   4.617  11.363  1.1790 -2.3116  0.4256
 7144SOL     OW33067   2.029   2.750   6.049 -0.0824  0.0963  0.1038
 7144SOL    HW133068   2.033   2.788   5.962 -2.1264  1.3386  0.5538
 7144SOL    HW233069   1.959   2.802   6.087 -0.0834 -0.7837  1.3236
 7145SOL     OW33070   2.526   4.341  15.686  0.4496 -0.1169 -0.3476
 7145SOL    HW133071   2.530   4.253  15.723  0.5991  0.0434  0.0217
 7145SOL    HW233072   2.568   4.319  15.603  0.8971 -1.5137  0.2638
 7146SOL     OW33073   1.570   4.280  13.251  0.8047 -0.6608 -0.2212
 7146SOL    HW133074   1.586   4.373  13.236 -0.6591 -0.1185  1.5768
 7146SOL    HW233075   1.653   4.235  13.238  0.9475  0.1540 -2.0916
 7147SOL     OW33076   1.953   3.987  15.487 -0.3612 -0.2857  0.1983
 7147SOL    HW133077   1.992   4.025  15.408  2.9587 -2.9359  0.5399
 7147SOL    HW233078   1.892   4.048  15.528 -0.1200 -1.4014  2.2621
 7148SOL     OW33079   3.417   0.807   2.666 -0.2193 -0.1286 -0.0159
 7148SOL    HW133080   3.324   0.814   2.644 -0.3089  0.2883  0.4888
 7148SOL    HW233081   3.410   0.835   2.757 -2.1351 -2.0428  0.4151
 7149SOL     OW33082   2.745   3.057   2.361  0.8884 -0.4903  0.2557
 7149SOL    HW133083   2.770   3.071   2.269 -0.6776 -0.8627 -0.2231
 7149SOL    HW233084   2.657   3.024   2.346 -0.2480  1.4665  2.7055
 7150SOL     OW33085   3.395   0.848   7.348 -0.2347  0.0220  0.1018
 7150SOL    HW133086   3.317   0.889   7.383 -1.2227 -1.0040 -0.9023
 7150SOL    HW233087   3.443   0.827   7.428  0.3203  2.2964  0.3615
 7151SOL     OW33088   2.587   1.133   5.531 -0.1171  0.3942  0.0278
 7151SOL    HW133089   2.586   1.208   5.472 -0.2615  0.7245  0.4491
 7151SOL    HW233090   2.600   1.183   5.611  1.6613 -0.7262  0.4327
 7152SOL     OW33091   0.501   3.802   8.727  0.5237  0.5183 -0.2541
 7152SOL    HW133092   0.546   3.878   8.690  1.5543 -1.8613 -3.8169
 7152SOL    HW233093   0.499   3.730   8.664 -2.9605 -1.0341  1.6206
 7153SOL     OW33094   2.161   3.739   7.163  0.2624 -0.0918  0.2139
 7153SOL    HW133095   2.240   3.729   7.111  0.8384 -2.4278  1.5214
 7153SOL    HW233096   2.182   3.809   7.226  0.1397  1.0722 -1.0322
 7154SOL     OW33097   4.248   4.624   6.255  0.4546 -0.1077 -0.1629
 7154SOL    HW133098   4.338   4.658   6.256  1.1753 -2.0324 -0.0957
 7154SOL    HW233099   4.206   4.654   6.174  1.2198  0.7245 -0.2612
 7155SOL     OW33100   1.729   2.028   0.151  0.2582  0.1664 -0.6172
 7155SOL    HW133101   1.777   1.952   0.118  0.3097  0.4610 -1.2254
 7155SOL    HW233102   1.799   2.094   0.147 -0.1424  0.5996 -0.5631
 7156SOL     OW33103   1.766   1.433   3.412 -0.0969  0.3826  0.2142
 7156SOL    HW133104   1.807   1.440   3.325 -1.5908  0.2225 -0.5093
 7156SOL    HW233105   1.760   1.339   3.425  2.7578  0.1703 -0.1090
 7157SOL     OW33106   3.866   2.138  14.557 -0.2356 -0.6989  0.5657
 7157SOL    HW133107   3.866   2.166  14.648  1.2321  0.9412  0.0531
 7157SOL    HW233108   3.771   2.136  14.545 -0.3173 -1.6032  1.3694
 7158SOL     OW33109   4.480   4.379   3.193  0.6001 -0.3939  0.2358
 7158SOL    HW133110   4.476   4.444   3.264  0.5869 -1.5898  1.3161
 7158SOL    HW233111   4.399   4.331   3.210 -0.0652  0.6047 -0.0992
 7159SOL     OW33112   2.801   1.688  15.654 -0.6822 -0.0899 -0.2436
 7159SOL    HW133113   2.766   1.643  15.731 -3.1143  2.3840  0.0792
 7159SOL    HW233114   2.799   1.779  15.683 -0.2701  0.5795 -2.3078
 7160SOL     OW33115   2.155   4.315   3.702  0.4349 -0.2637  0.1612
 7160SOL    HW133116   2.081   4.369   3.729 -0.3123 -1.6111  0.8027
 7160SOL    HW233117   2.225   4.379   3.709 -4.2522  4.7539  1.0692
 7161SOL     OW33118   1.304   3.165   5.083  0.6964 -0.5876  0.2831
 7161SOL    HW133119   1.256   3.180   5.002  1.2179 -1.1474 -0.1345
 7161SOL    HW233120   1.237   3.187   5.148  0.9560  0.8624  0.0679
 7162SOL     OW33121   2.363   1.947   7.363  0.2495 -0.0778 -0.1379
 7162SOL    HW133122   2.301   1.894   7.314  1.2349 -0.1486 -1.3251
 7162SOL    HW233123   2.373   1.893   7.441  1.0244 -0.9335 -0.8344
 7163SOL     OW33124   3.927   4.559   6.819  0.0295 -0.7474  0.4033
 7163SOL    HW133125   3.884   4.568   6.904 -2.3314  0.5848 -0.9324
 7163SOL    HW233126   3.993   4.628   6.817 -1.4052  0.6811  1.8466
 7164SOL     OW33127   1.185   4.172   5.252  0.2931 -0.0892 -0.0532
 7164SOL    HW133128   1.257   4.121   5.291 -0.8897 -1.6842  0.0596
 7164SOL    HW233129   1.174   4.121   5.171  0.1652  0.0106 -0.0981
 7165SOL     OW33130   2.316   1.084   6.873  0.2441 -0.1497  0.5478
 7165SOL    HW133131   2.350   1.125   6.952 -1.0413  0.1080  0.9775
 7165SOL    HW233132   2.305   0.990   6.890  0.4523 -0.8256 -2.9897
 7166SOL     OW33133   1.922   4.004  16.900 -0.0208  0.4452 -0.5733
 7166SOL    HW133134   1.905   3.936  16.965 -0.0871  1.4218  0.4200
 7166SOL    HW233135   2.013   3.983  16.878  0.7470  0.5116  2.4957
 7167SOL     OW33136   1.212   3.186  11.178  0.5493  0.0157  0.2648
 7167SOL    HW133137   1.274   3.258  11.172  3.7411 -3.0836 -3.7857
 7167SOL    HW233138   1.136   3.238  11.151  0.4788 -1.1165 -1.7471
 7168SOL     OW33139   3.509   2.075   1.832 -0.3408 -0.4555  0.1749
 7168SOL    HW133140   3.517   1.979   1.832  0.1107 -0.4126 -1.1189
 7168SOL    HW233141   3.426   2.091   1.879  1.0925 -0.0255  2.5718
 7169SOL     OW33142   4.498   3.979   2.086 -0.2098 -0.0451 -0.1150
 7169SOL    HW133143   4.504   3.905   2.026  0.4329 -1.0147  1.1271
 7169SOL    HW233144   4.586   4.011   2.066 -0.1633  0.3344  0.6635
 7170SOL     OW33145   4.267   2.601   4.036 -0.2821  0.6656  0.3358
 7170SOL    HW133146   4.337   2.570   4.095 -2.1995 -1.2886  1.6024
 7170SOL    HW233147   4.328   2.634   3.970 -1.8189  0.9315 -0.9454
 7171SOL     OW33148   0.532   3.572  15.181  0.0707 -0.0872  0.0009
 7171SOL    HW133149   0.437   3.571  15.172 -0.1042 -1.9985  2.1588
 7171SOL    HW233150   0.551   3.657  15.222 -0.8630  0.7419 -1.2820
 7172SOL     OW33151   0.219   4.135  17.523  0.1183  0.2350  0.0199
 7172SOL    HW133152   0.140   4.183  17.547 -0.1346  0.3706 -1.0798
 7172SOL    HW233153   0.190   4.083  17.447  0.7931 -1.4756  0.9176
 7173SOL     OW33154   1.183   0.029   5.966 -0.0719  0.4304  0.8346
 7173SOL    HW133155   1.242   0.033   6.042 -1.3112 -1.4631  1.8885
 7173SOL    HW233156   1.095   0.032   6.002 -1.2571 -1.7692 -1.9240
 7174SOL     OW33157   3.587   0.557   4.132 -0.2778  0.1081  0.1034
 7174SOL    HW133158   3.660   0.515   4.177  1.6459  2.9848 -0.3067
 7174SOL    HW233159   3.533   0.486   4.099 -0.6458  0.4452 -0.0211
 7175SOL     OW33160   1.646   3.977   5.502  0.0977 -0.5007 -0.2207
 7175SOL    HW133161   1.737   4.002   5.489 -0.0927  0.0802 -0.4463
 7175SOL    HW233162   1.605   4.056   5.538  0.5365  0.1695 -1.1776
 7176SOL     OW33163   0.457   0.396  13.862 -0.0302 -0.1072  0.0219
 7176SOL    HW133164   0.397   0.419  13.933 -0.7677 -3.8022  0.5715
 7176SOL    HW233165   0.410   0.377  13.781 -2.0362 -1.3889  1.4995
 7177SOL     OW33166   3.061   4.436  17.581 -0.0647  0.6394 -0.0591
 7177SOL    HW133167   3.118   4.393  17.645  0.2391  0.9523 -0.1178
 7177SOL    HW233168   2.972   4.427  17.614 -0.1733  1.5390 -0.0964
 7178SOL     OW33169   0.377   3.831   7.209  0.6349 -0.2282 -0.0924
 7178SOL    HW133170   0.352   3.811   7.118 -0.0199 -1.6762  0.4056
 7178SOL    HW233171   0.431   3.910   7.206 -0.0699  0.3676  2.8854
 7179SOL     OW33172   3.698   3.393   8.705  0.5928 -0.5050  0.0230
 7179SOL    HW133173   3.788   3.390   8.672  1.1939  0.1083  1.6182
 7179SOL    HW233174   3.699   3.344   8.786  1.9765  0.5501  0.6479
 7180SOL     OW33175   1.357   1.553   1.942 -0.1296  0.1831 -0.1001
 7180SOL    HW133176   1.360   1.638   1.987 -0.5160  1.2049 -2.0293
 7180SOL    HW233177   1.282   1.516   1.987  0.7124 -0.8128  0.4936
 7181SOL     OW33178   1.300   2.834   6.730 -0.1255  0.0332  0.1655
 7181SOL    HW133179   1.260   2.787   6.803  0.9275  1.9037  1.9446
 7181SOL    HW233180   1.322   2.912   6.781 -0.2234 -0.0538  0.3417
 7182SOL     OW33181   4.179   4.471  16.550  0.2156  0.4973  0.5548
 7182SOL    HW133182   4.180   4.386  16.506 -0.1888  2.4685 -3.2364
 7182SOL    HW233183   4.198   4.448  16.641  1.7919 -0.0378  0.0893
 7183SOL     OW33184   1.302   1.299  11.109 -0.5210 -0.1639  0.0092
 7183SOL    HW133185   1.370   1.365  11.117 -0.0109 -0.7782  0.7504
 7183SOL    HW233186   1.344   1.225  11.065  1.1612  1.1795 -0.6292
 7184SOL     OW33187   2.934   0.653  10.140 -0.0488 -0.3517  0.3774
 7184SOL    HW133188   2.916   0.563  10.110  0.7604 -0.4328  0.1301
 7184SOL    HW233189   2.925   0.699  10.056  0.3574 -1.1506 -0.1021
 7185SOL     OW33190   0.219   1.567   9.453  0.0072 -0.1316  0.2039
 7185SOL    HW133191   0.229   1.507   9.527  2.3933 -0.2402 -0.1895
 7185SOL    HW233192   0.307   1.573   9.416 -0.3111 -0.0222 -0.5337
 7186SOL     OW33193   2.232   0.399   3.741 -0.3583  0.1657 -0.2406
 7186SOL    HW133194   2.181   0.330   3.784  0.2193 -1.2114 -1.7482
 7186SOL    HW233195   2.185   0.480   3.758 -1.3851 -0.6613  0.8557
 7187SOL     OW33196   2.880   2.902  16.651  0.1865 -0.0819  0.4080
 7187SOL    HW133197   2.851   2.930  16.564  0.8459  1.6708  0.7436
 7187SOL    HW233198   2.913   2.814  16.635  1.3060  0.3455  0.3698
 7188SOL     OW33199   1.087   1.418  11.159 -0.2665 -0.5956  0.3370
 7188SOL    HW133200   1.167   1.366  11.153 -0.2993 -0.9291  2.9044
 7188SOL    HW233201   1.037   1.353  11.208  1.0902 -1.0343  1.1056
 7189SOL     OW33202   1.619   4.158   2.646  0.7731  0.1543 -0.1171
 7189SOL    HW133203   1.600   4.247   2.616  0.4221 -0.0630 -0.5352
 7189SOL    HW233204   1.548   4.154   2.710  0.4821  0.1505 -0.4391
 7190SOL     OW33205   3.175   1.997   9.182  0.2907 -0.0242  0.4137
 7190SOL    HW133206   3.224   1.925   9.222 -0.4711 -1.2677 -0.9189
 7190SOL    HW233207   3.214   2.025   9.100 -0.1053 -0.2329  0.1527
 7191SOL     OW33208   4.692   2.146   1.960 -0.0608 -0.4539  0.3319
 7191SOL    HW133209   0.020   2.106   1.899  1.0080  1.5530  0.1262
 7191SOL    HW233210   0.014   2.141   2.037  0.4224  2.0408  0.1146
 7192SOL     OW33211   0.783   1.259   8.747  0.1552  0.4525  0.0570
 7192SOL    HW133212   0.873   1.288   8.759  1.4152 -3.0451 -0.8371
 7192SOL    HW233213   0.762   1.298   8.662  1.9539  2.7067  0.6453
 7193SOL     OW33214   2.222   4.306   7.308  0.2165 -0.0651  0.0614
 7193SOL    HW133215   2.315   4.286   7.299 -0.5374 -2.8197 -1.6783
 7193SOL    HW233216   2.225   4.391   7.351  1.2032 -0.1434  0.1584
 7194SOL     OW33217   2.554   3.873   4.998 -0.4290 -0.2840 -0.7765
 7194SOL    HW133218   2.647   3.880   5.018 -0.5617  0.8507 -0.5811
 7194SOL    HW233219   2.567   3.869   4.903 -1.8029 -0.0918 -0.9816
 7195SOL     OW33220   1.418   2.574   4.032 -0.1308 -0.1792  0.6529
 7195SOL    HW133221   1.491   2.548   4.088  0.4891  0.4637  0.1403
 7195SOL    HW233222   1.448   2.662   4.012 -0.0021 -0.0955  1.2299
 7196SOL     OW33223   4.327   2.125   3.942 -0.3026 -0.2484 -0.1156
 7196SOL    HW133224   4.336   2.156   4.032  1.3004 -0.9485 -0.0375
 7196SOL    HW233225   4.235   2.143   3.922 -0.0796 -0.4810 -1.3431
 7197SOL     OW33226   1.589   3.202   8.594  0.0717  0.1645 -0.4367
 7197SOL    HW133227   1.534   3.128   8.568 -0.8306  0.9399 -0.7159
 7197SOL    HW233228   1.672   3.155   8.586 -0.1898 -0.5080  0.8244
 7198SOL     OW33229   0.063   3.332  17.736  0.1560  0.3679 -0.4382
 7198SOL    HW133230   0.144   3.380   0.018  0.2051  0.3709 -0.6572
 7198SOL    HW233231   0.017   3.347   0.081 -0.9138  1.9019 -1.3315
 7199SOL     OW33232   3.577   1.088  11.524 -0.5081  0.3137  0.7628
 7199SOL    HW133233   3.593   1.036  11.603  1.2018 -1.5916 -0.8395
 7199SOL    HW233234   3.649   1.151  11.530  0.9696 -1.3657  0.6009
 7200SOL     OW33235   4.193   1.740   8.139  0.6125  0.0975 -0.2291
 7200SOL    HW133236   4.272   1.784   8.171  0.1690  0.6820  0.0576
 7200SOL    HW233237   4.193   1.666   8.200 -0.0379 -0.2204 -0.6062
 7201SOL     OW33238   0.801   0.279   0.120  0.1246 -0.2164  0.3860
 7201SOL    HW133239   0.716   0.241   0.143 -0.2216 -0.0391 -0.5848
 7201SOL    HW233240   0.858   0.225   0.174  1.0490 -0.9471 -1.3022
 7202SOL     OW33241   4.205   2.525   5.925  0.1096 -0.5347 -0.4885
 7202SOL    HW133242   4.272   2.477   5.877  2.4090 -0.1453  2.3702
 7202SOL    HW233243   4.122   2.477   5.915 -0.0629 -0.6165  1.2795
 7203SOL     OW33244   4.097   4.668   1.721  0.2923 -0.1969 -0.1507
 7203SOL    HW133245   4.049   4.721   1.784  2.3989  0.3991  0.9529
 7203SOL    HW233246   4.085   4.716   1.639 -0.6236 -1.0355 -0.5052
 7204SOL     OW33247   4.194   3.143   6.545 -0.7935 -0.3078  0.3348
 7204SOL    HW133248   4.236   3.060   6.567 -0.6293 -0.2196  0.3504
 7204SOL    HW233249   4.268   3.202   6.557 -1.5716  0.2803  2.1138
 7205SOL     OW33250   0.052   2.264   2.741 -0.3892  0.4023  0.1938
 7205SOL    HW133251   0.010   2.197   2.795  0.4750 -1.2961 -1.2386
 7205SOL    HW233252   4.712   2.294   2.689 -0.5461 -1.0260 -0.4095
 7206SOL     OW33253   0.345   3.868   8.383 -0.0052  0.1010  0.2607
 7206SOL    HW133254   0.274   3.930   8.401  1.0158  1.3914 -0.0724
 7206SOL    HW233255   0.378   3.880   8.294  1.0602  0.3944  0.6938
 7207SOL     OW33256   0.530   1.639  16.096  0.7497 -0.0194  0.2799
 7207SOL    HW133257   0.497   1.617  16.183 -2.4376  2.5156 -0.2766
 7207SOL    HW233258   0.470   1.594  16.037  0.0904  1.8393 -0.4988
 7208SOL     OW33259   4.465   2.017   5.155 -0.3494  0.4455  0.2865
 7208SOL    HW133260   4.510   1.980   5.231 -0.5076 -1.0917 -0.3627
 7208SOL    HW233261   4.392   2.058   5.202  0.9270  1.8455  1.0161
 7209SOL     OW33262   0.181   4.613   2.840 -0.0086 -0.3850 -0.4351
 7209SOL    HW133263   0.163   4.536   2.785 -1.4869 -0.5308  0.2526
 7209SOL    HW233264   0.095   4.654   2.841  1.0282  1.7948 -2.2677
 7210SOL     OW33265   2.450   0.510   5.304 -0.5715  0.0310  0.1619
 7210SOL    HW133266   2.482   0.429   5.343 -1.4001 -0.0274  0.7298
 7210SOL    HW233267   2.356   0.492   5.296 -0.7940  1.2756  0.0072
 7211SOL     OW33268   3.638   3.331   2.645  0.2245  0.4479  0.6235
 7211SOL    HW133269   3.717   3.286   2.676  0.2137  1.4057  2.0285
 7211SOL    HW233270   3.627   3.411   2.697  0.2089 -0.5115  2.1124
 7212SOL     OW33271   1.994   3.430  15.955  0.3436 -0.0821  0.2095
 7212SOL    HW133272   1.921   3.393  16.003  0.6096 -0.8738  0.0112
 7212SOL    HW233273   1.967   3.429  15.863 -0.1555  3.2624  0.3177
 7213SOL     OW33274   4.495   0.797   6.905  0.5701  0.2319 -0.3723
 7213SOL    HW133275   4.531   0.831   6.987  2.3656  0.0943 -1.1039
 7213SOL    HW233276   4.403   0.779   6.926 -0.0514  4.4969  0.6030
 7214SOL     OW33277   0.941   2.474  17.445  0.4365 -0.6134 -0.5468
 7214SOL    HW133278   0.924   2.443  17.355 -0.5829  2.6222 -1.4640
 7214SOL    HW233279   1.012   2.531  17.415  0.1794  0.4504  0.8627
 7215SOL     OW33280   4.251   3.422   2.788  0.6703 -0.0174 -0.3292
 7215SOL    HW133281   4.337   3.463   2.779  0.8906 -0.3107  0.4211
 7215SOL    HW233282   4.249   3.396   2.880  1.6067  0.9798 -0.0306
 7216SOL     OW33283   0.540   3.473   7.846  0.1881  0.7578  0.1895
 7216SOL    HW133284   0.447   3.454   7.838  0.0366  0.5114  2.5969
 7216SOL    HW233285   0.536   3.566   7.865  0.3011  0.4992  1.5100
 7217SOL     OW33286   2.432   0.459  11.668  0.6470  0.2140 -0.6358
 7217SOL    HW133287   2.429   0.388  11.732  0.1007 -0.9823 -1.9954
 7217SOL    HW233288   2.415   0.531  11.729  0.0445 -1.8689  1.6721
 7218SOL     OW33289   0.024   2.184  17.011  0.0711  0.1978  0.7509
 7218SOL    HW133290   4.717   2.243  16.948 -0.3646  0.5449  1.3640
 7218SOL    HW233291   0.024   2.101  16.962 -0.3321  1.7255 -1.8178
 7219SOL     OW33292   0.807   2.691   3.709  0.1386 -0.2265  0.1768
 7219SOL    HW133293   0.789   2.685   3.615  1.3320 -1.7701  0.0525
 7219SOL    HW233294   0.891   2.646   3.718  1.3465  2.1983  1.0359
 7220SOL     OW33295   0.981   4.029  10.141  0.3090  0.3260  0.0326
 7220SOL    HW133296   0.998   3.945  10.099 -0.5840  1.9820 -3.6392
 7220SOL    HW233297   0.890   4.021  10.171  0.5055 -0.0915  0.5217
 7221SOL     OW33298   0.753   1.167   9.240 -0.0424 -0.2899 -0.1716
 7221SOL    HW133299   0.814   1.180   9.312 -2.0499 -0.4748  1.5610
 7221SOL    HW233300   0.704   1.094   9.279 -1.0826  0.2273 -0.5137
 7222SOL     OW33301   4.505   2.106   8.358  0.3289 -0.2278 -0.1468
 7222SOL    HW133302   4.534   2.193   8.384 -0.9030  0.1066  0.0919
 7222SOL    HW233303   4.557   2.049   8.414 -1.1712 -1.3462  0.1224
 7223SOL     OW33304   0.177   0.528   1.998 -0.0634  0.0879 -0.6452
 7223SOL    HW133305   0.112   0.541   2.068  0.1683 -0.7800 -0.2649
 7223SOL    HW233306   0.194   0.435   2.015 -0.8115  0.0337 -0.1530
 7224SOL     OW33307   2.661   1.066   0.813 -0.0668 -0.2695  0.0258
 7224SOL    HW133308   2.620   0.982   0.791 -0.4284  0.2484 -1.2716
 7224SOL    HW233309   2.689   1.050   0.903  2.0969 -1.5943 -0.8676
 7225SOL     OW33310   0.009   0.058   3.832 -0.5214  0.2453  0.4617
 7225SOL    HW133311   4.704   0.050   3.919  1.1523  1.8440  1.3710
 7225SOL    HW233312   4.706   0.141   3.804  0.0590  0.2860 -0.1825
 7226SOL     OW33313   4.608   1.382   6.872 -0.1067 -0.2303  0.8138
 7226SOL    HW133314   4.566   1.406   6.954 -1.1105 -3.0537  1.1081
 7226SOL    HW233315   4.662   1.457   6.848 -2.0340  1.1040  0.6433
 7227SOL     OW33316   1.580   0.204  15.851  0.3151 -0.1136 -0.1448
 7227SOL    HW133317   1.623   0.192  15.935  1.5298 -0.2138 -0.7771
 7227SOL    HW233318   1.649   0.178  15.789  0.4437  1.9796 -0.8867
 7228SOL     OW33319   0.159   1.274   9.200  0.3717 -0.1158 -0.0060
 7228SOL    HW133320   0.128   1.344   9.257  0.7983  1.1836 -1.3772
 7228SOL    HW233321   0.232   1.244   9.255  0.0327  1.5159  1.3547
 7229SOL     OW33322   1.377   0.964   2.432  0.5146 -0.0431 -0.0628
 7229SOL    HW133323   1.466   0.996   2.447  0.2304  1.5443 -1.7953
 7229SOL    HW233324   1.390   0.871   2.417  1.2964 -0.0564  0.6852
 7230SOL     OW33325   3.437   2.271   8.028  0.2045  0.4038  0.3493
 7230SOL    HW133326   3.345   2.297   8.031  0.0204 -0.3796  1.5412
 7230SOL    HW233327   3.486   2.320   8.093  0.9243  1.3109 -0.8819
 7231SOL     OW33328   0.828   2.058   2.310  0.1705 -0.0538  0.0372
 7231SOL    HW133329   0.771   2.135   2.316 -0.9490 -0.9649  1.2762
 7231SOL    HW233330   0.760   1.998   2.343  1.3745 -0.1444  2.2910
 7232SOL     OW33331   1.594   0.977   1.501  0.0478  0.0285  0.4785
 7232SOL    HW133332   1.555   1.031   1.433  4.2782 -1.4002 -3.1688
 7232SOL    HW233333   1.685   1.008   1.509  0.0603 -0.2958  1.5816
 7233SOL     OW33334   0.588   0.950   8.351  0.1344 -0.4686 -0.0812
 7233SOL    HW133335   0.556   0.935   8.440 -3.8647  1.0520 -1.2739
 7233SOL    HW233336   0.537   0.883   8.306 -1.6465  0.9536 -0.2027
 7234SOL     OW33337   0.801   1.291   7.792 -0.3503  0.0546 -0.0302
 7234SOL    HW133338   0.736   1.359   7.810  1.5279  1.1898  2.3733
 7234SOL    HW233339   0.885   1.337   7.786  0.2661 -1.1314 -0.4108
 7235SOL     OW33340   2.579   1.267  14.665  0.0688 -0.0830  0.7119
 7235SOL    HW133341   2.605   1.221  14.585  2.5545  0.7033  1.0591
 7235SOL    HW233342   2.625   1.225  14.738  0.9219  0.8712  0.7270
 7236SOL     OW33343   1.299   3.697   6.636  0.2463 -0.0706 -0.0449
 7236SOL    HW133344   1.307   3.722   6.728  1.4694  0.1055 -0.2016
 7236SOL    HW233345   1.220   3.643   6.639 -0.7081  1.1440 -2.5757
 7237SOL     OW33346   0.003   4.214   4.082 -0.7059  0.3406 -0.5956
 7237SOL    HW133347   0.085   4.237   4.125 -1.3266 -0.8534  1.2260
 7237SOL    HW233348   4.732   4.282   4.015 -0.0129  0.3966 -0.6029
 7238SOL     OW33349   1.260   2.125   3.854 -0.2915  0.1102  0.0581
 7238SOL    HW133350   1.222   2.179   3.924  0.5349 -0.2563  0.7986
 7238SOL    HW233351   1.208   2.166   3.785 -1.8139  0.1670  1.2262
 7239SOL     OW33352   1.306   1.804   7.780  0.3306  0.2035  0.1505
 7239SOL    HW133353   1.326   1.856   7.858  0.9802 -1.9362  1.4204
 7239SOL    HW233354   1.251   1.869   7.738 -1.6970 -2.3135 -1.0878
 7240SOL     OW33355   0.574   1.813  11.584  0.2585 -0.1318  0.3174
 7240SOL    HW133356   0.615   1.731  11.558  0.7000  0.7524 -1.8266
 7240SOL    HW233357   0.643   1.859  11.633 -0.6612  1.4653  0.1354
 7241SOL     OW33358   1.874   3.991   3.756 -0.0774  0.5543 -0.1271
 7241SOL    HW133359   1.883   3.936   3.679 -0.5799 -1.5953  1.3420
 7241SOL    HW233360   1.783   4.018   3.740 -0.2508  0.4528  0.6715
 7242SOL     OW33361   2.682   2.702  14.182 -0.4717  0.4787 -0.4404
 7242SOL    HW133362   2.726   2.710  14.267 -0.2617 -0.3649 -0.4767
 7242SOL    HW233363   2.618   2.773  14.186  0.8763  1.6081  1.1667
 7243SOL     OW33364   2.385   0.553   7.903 -0.0145  0.2012  0.6516
 7243SOL    HW133365   2.324   0.494   7.858 -1.1221 -0.5565  3.1537
 7243SOL    HW233366   2.462   0.511   7.865 -0.4222  2.0034 -2.1145
 7244SOL     OW33367   1.807   3.697   1.368  0.0729 -0.0448  0.3310
 7244SOL    HW133368   1.813   3.793   1.368  0.5607 -0.0783  0.0045
 7244SOL    HW233369   1.869   3.666   1.302 -0.2209  0.3279 -0.1190
 7245SOL     OW33370   1.908   0.343   1.837  0.2832 -0.6601 -0.0198
 7245SOL    HW133371   1.979   0.336   1.773 -0.8907  0.0669 -1.4041
 7245SOL    HW233372   1.947   0.394   1.908  0.9915 -0.0155 -0.8670
 7246SOL     OW33373   2.207   2.144   2.557  0.2109  0.2330 -0.1523
 7246SOL    HW133374   2.135   2.085   2.533  0.3598  0.7226 -1.7888
 7246SOL    HW233375   2.200   2.204   2.482  1.5910  2.6398  1.6468
 7247SOL     OW33376   3.028   2.620  16.625  0.5392  0.2113 -0.4078
 7247SOL    HW133377   3.069   2.619  16.538  2.4122  1.6990  0.4624
 7247SOL    HW233378   3.107   2.634  16.678 -0.6066  1.0107  1.0696
 7248SOL     OW33379   3.912   0.260   7.394 -0.3414  0.0653  0.3453
 7248SOL    HW133380   3.989   0.261   7.450  0.8737 -0.5237 -1.3091
 7248SOL    HW233381   3.862   0.338   7.419  1.0779  1.0476  0.1358
 7249SOL     OW33382   4.626   2.045  17.278  0.2691 -0.0480  0.1944
 7249SOL    HW133383   4.597   1.983  17.211 -1.0339  1.6760 -0.8375
 7249SOL    HW233384   4.630   1.990  17.356  0.9363  0.0041  0.1942
 7250SOL     OW33385   3.521   0.816   7.582  0.3104 -0.3365 -0.1838
 7250SOL    HW133386   3.570   0.891   7.615  2.3954 -0.9512 -1.8754
 7250SOL    HW233387   3.473   0.792   7.661  1.6408  2.4774  1.4875
 7251SOL     OW33388   1.441   2.751   8.129 -0.1266  0.3350  0.3475
 7251SOL    HW133389   1.455   2.676   8.072  0.0146  0.9711 -0.4397
 7251SOL    HW233390   1.350   2.777   8.114 -0.5476 -0.8104  0.8751
 7252SOL     OW33391   1.331   0.424   4.952 -0.0477 -0.0997 -0.2262
 7252SOL    HW133392   1.367   0.335   4.962 -2.8337 -1.3165 -1.0256
 7252SOL    HW233393   1.369   0.445   4.867  1.0196 -0.0610  0.2664
 7253SOL     OW33394   3.337   0.939   3.323 -0.1342  0.0948 -0.2005
 7253SOL    HW133395   3.306   0.926   3.413  1.0476 -0.3959  0.1465
 7253SOL    HW233396   3.408   1.002   3.337 -0.3835  0.2913  0.1577
 7254SOL     OW33397   3.523   2.040   3.312 -0.2283  0.1149  0.6310
 7254SOL    HW133398   3.439   2.002   3.337  0.7056 -1.3684  1.4497
 7254SOL    HW233399   3.506   2.114   3.253 -0.0776  1.1205  1.8613
 7255SOL     OW33400   1.339   2.153  17.318 -0.4703 -0.2524 -0.7215
 7255SOL    HW133401   1.399   2.104  17.375 -0.0893  1.3132  0.2261
 7255SOL    HW233402   1.401   2.223  17.297  0.8378 -0.6138  1.9214
 7256SOL     OW33403   0.275   2.120   9.352 -0.1136 -0.2360 -0.2053
 7256SOL    HW133404   0.242   2.095   9.266  0.4553 -0.1330 -0.4533
 7256SOL    HW233405   0.197   2.115   9.407 -0.5449 -0.5658 -0.8497
 7257SOL     OW33406   4.578   3.974   0.787 -0.6282  0.0789 -0.3388
 7257SOL    HW133407   4.511   3.954   0.853 -1.6954 -0.0008 -1.4519
 7257SOL    HW233408   4.528   4.044   0.744 -2.3279 -1.1287 -0.2996
 7258SOL     OW33409   2.896   4.470  16.537 -0.4096  0.4123  0.4467
 7258SOL    HW133410   2.804   4.496  16.533 -0.2116  0.8681 -1.5857
 7258SOL    HW233411   2.904   4.435  16.448 -1.0227 -0.7522  0.8567
 7259SOL     OW33412   0.761   4.388  13.828  0.4375 -0.1282 -0.0093
 7259SOL    HW133413   0.739   4.462  13.771 -2.0332  0.1544  1.3116
 7259SOL    HW233414   0.695   4.330  13.790 -0.0338  0.0226  0.5903
 7260SOL     OW33415   2.077   1.098   2.491  0.3609  0.6973 -0.6731
 7260SOL    HW133416   2.118   1.031   2.436  0.2244 -1.5882  1.9698
 7260SOL    HW233417   2.055   1.145   2.410  1.3953  1.1557 -0.6875
 7261SOL     OW33418   1.533   2.897   2.244 -0.4347 -0.7245  0.5864
 7261SOL    HW133419   1.611   2.844   2.228  0.3384  1.0299 -1.4704
 7261SOL    HW233420   1.487   2.871   2.164  0.1602  1.3575 -0.4380
 7262SOL     OW33421   0.672   4.107   0.375  0.7691  0.3817 -0.3147
 7262SOL    HW133422   0.657   4.090   0.282 -1.1267 -0.6594  0.1765
 7262SOL    HW233423   0.731   4.182   0.373 -0.3953  1.2458 -2.0745
 7263SOL     OW33424   2.187   1.615   1.865  0.5830  0.0249  1.0503
 7263SOL    HW133425   2.131   1.579   1.796 -0.2759 -1.7950  2.7209
 7263SOL    HW233426   2.248   1.670   1.816  0.1468 -1.3448 -1.0435
 7264SOL     OW33427   4.101   0.827   6.663  0.0700 -0.0980 -0.2808
 7264SOL    HW133428   4.161   0.817   6.589 -0.7222  3.8656 -1.4757
 7264SOL    HW233429   4.156   0.886   6.714  1.9369 -1.7825 -0.3207
 7265SOL     OW33430   3.412   3.917   7.739  0.1415 -0.0735  0.4802
 7265SOL    HW133431   3.412   3.858   7.814 -1.6392 -0.1737  0.4074
 7265SOL    HW233432   3.448   3.860   7.671 -0.8303  0.3155 -0.3522
 7266SOL     OW33433   3.815   0.491  15.325  0.0564  0.0065 -0.5050
 7266SOL    HW133434   3.825   0.540  15.407 -0.4791  0.3004 -0.6162
 7266SOL    HW233435   3.863   0.410  15.343  0.0921  0.1014 -0.1731
 7267SOL     OW33436   0.592   0.734   2.253 -0.3031 -0.0064  0.0246
 7267SOL    HW133437   0.539   0.813   2.264  0.2809  0.1274  1.8690
 7267SOL    HW233438   0.586   0.716   2.159  0.1757  0.1474 -0.0346
 7268SOL     OW33439   3.287   3.980  17.381 -0.1635 -0.0644  0.2786
 7268SOL    HW133440   3.264   3.894  17.346  2.6052 -0.5032 -0.4530
 7268SOL    HW233441   3.248   4.033  17.310  0.2631  0.6333  0.5726
 7269SOL     OW33442   4.326   2.021   7.949 -0.1867  0.1953 -0.1606
 7269SOL    HW133443   4.305   2.114   7.948  0.5681  0.3656 -0.0462
 7269SOL    HW233444   4.238   1.993   7.974  0.2203 -0.9044  0.0488
 7270SOL     OW33445   4.615   3.352   1.249 -0.2390  0.3480 -0.4053
 7270SOL    HW133446   4.683   3.333   1.313 -1.3533 -1.8477  0.1474
 7270SOL    HW233447   4.655   3.382   1.167  0.2523  1.3954  0.2201
 7271SOL     OW33448   4.056   0.032  13.128  0.0113  0.5145 -0.1377
 7271SOL    HW133449   4.020   0.088  13.059 -1.6869 -0.6530 -0.1897
 7271SOL    HW233450   4.132   4.730  13.083 -0.3640  1.2009 -1.3686
 7272SOL     OW33451   2.672   4.247   8.391 -0.0512 -0.4967 -0.6593
 7272SOL    HW133452   2.599   4.234   8.452  1.2228 -1.6906  0.6246
 7272SOL    HW233453   2.656   4.329   8.344 -2.6566  0.3246  1.6624
 7273SOL     OW33454   3.556   3.038   9.362 -0.0917 -0.8616 -0.2456
 7273SOL    HW133455   3.508   3.111   9.325 -0.2178 -1.1830 -0.7162
 7273SOL    HW233456   3.543   2.972   9.294  2.0235 -0.9564 -0.5615
 7274SOL     OW33457   4.665   0.023   2.187  0.5437  0.1128 -0.0542
 7274SOL    HW133458   4.670   4.680   2.243 -2.1153 -2.2530 -3.0732
 7274SOL    HW233459   0.002   0.011   2.124 -1.1603  0.9764 -2.1413
 7275SOL     OW33460   1.110   0.558   7.112  0.1346 -0.3670 -0.4798
 7275SOL    HW133461   1.127   0.470   7.143 -3.2343 -0.3874  1.3042
 7275SOL    HW233462   1.014   0.553   7.111  0.0532  0.9823  0.9747
 7276SOL     OW33463   1.889   4.530  16.801 -0.2288  0.1109  0.0826
 7276SOL    HW133464   1.884   4.520  16.896  1.2056  0.2080  0.1633
 7276SOL    HW233465   1.842   4.613  16.797  0.4028  0.4180 -1.0104
 7277SOL     OW33466   3.410   1.134   4.990  0.0259 -0.2938  0.0250
 7277SOL    HW133467   3.458   1.051   4.993  0.0822 -0.3035 -1.1542
 7277SOL    HW233468   3.477   1.197   5.018 -1.4398  1.0101  0.6277
 7278SOL     OW33469   1.748   2.987   0.705 -0.1342  0.2047 -0.0399
 7278SOL    HW133470   1.701   2.924   0.649  0.9670  0.9144 -1.7434
 7278SOL    HW233471   1.838   2.961   0.685  1.2281  3.8245  1.5240
 7279SOL     OW33472   1.118   0.849  15.233  0.6753 -0.0793 -0.2618
 7279SOL    HW133473   1.071   0.812  15.158  1.0110 -2.7465  0.8209
 7279SOL    HW233474   1.061   0.822  15.306  1.7065  1.0471  0.9469
 7280SOL     OW33475   1.050   3.014  16.971 -0.3370  0.0041  0.4539
 7280SOL    HW133476   0.966   3.031  17.013 -2.0272 -1.7665 -2.2769
 7280SOL    HW233477   1.087   3.101  16.953 -0.5018  0.1254  0.7078
 7281SOL     OW33478   2.839   3.895   3.065 -0.4301 -0.1360 -0.4618
 7281SOL    HW133479   2.808   3.831   3.131  1.9043 -0.4127  0.3683
 7281SOL    HW233480   2.857   3.969   3.123 -0.2568  0.6124 -1.4966
 7282SOL     OW33481   2.167   3.451   8.370 -0.1300  0.3963  0.0342
 7282SOL    HW133482   2.204   3.363   8.366  3.0014  1.6537  1.0275
 7282SOL    HW233483   2.239   3.490   8.322 -1.0920  0.6808 -1.1786
 7283SOL     OW33484   3.362   0.514   9.447  0.2776 -0.3310  0.2989
 7283SOL    HW133485   3.406   0.486   9.367  1.2982  2.2765 -0.0637
 7283SOL    HW233486   3.327   0.434   9.487 -3.0689  0.9091 -0.1818
 7284SOL     OW33487   0.285   1.605   2.118  0.1623 -0.1212 -0.3719
 7284SOL    HW133488   0.218   1.537   2.124  1.5297 -1.5814 -1.4116
 7284SOL    HW233489   0.239   1.676   2.074 -0.5732 -0.2971  0.1141
 7285SOL     OW33490   1.768   1.260   4.018  0.4392  0.0195  0.3849
 7285SOL    HW133491   1.701   1.329   4.022 -0.9279 -1.2345 -1.0673
 7285SOL    HW233492   1.845   1.305   4.053  1.9029 -1.3256 -1.1573
 7286SOL     OW33493   0.542   0.280  11.824  0.5962  0.6168 -0.5062
 7286SOL    HW133494   0.523   0.190  11.796 -0.5050  0.5589  0.4191
 7286SOL    HW233495   0.514   0.275  11.915  0.7188  1.7457 -0.4139
 7287SOL     OW33496   0.315   0.856   5.108  0.0419  0.4988  0.0263
 7287SOL    HW133497   0.306   0.881   5.200  1.8397 -2.8706  1.1045
 7287SOL    HW233498   0.386   0.914   5.081  0.5068  0.5042  1.2857
 7288SOL     OW33499   1.652   0.749   1.373  0.6659  0.1799  0.2128
 7288SOL    HW133500   1.627   0.810   1.443  2.5340  1.5552 -0.3165
 7288SOL    HW233501   1.577   0.690   1.366  0.6283  0.3814 -1.1672
 7289SOL     OW33502   3.326   0.321   3.184 -0.3497 -0.0063 -0.9693
 7289SOL    HW133503   3.243   0.293   3.222  0.8955  1.2170  2.5906
 7289SOL    HW233504   3.326   0.415   3.204 -0.7507 -0.4497  1.1544
 7290SOL     OW33505   1.844   4.346  10.301 -0.1524 -0.3803  0.0014
 7290SOL    HW133506   1.907   4.308  10.362 -0.3123  1.3561  1.2762
 7290SOL    HW233507   1.849   4.277  10.235  0.5964 -0.4253  0.1147
 7291SOL     OW33508   2.788   1.360   6.078 -0.2100 -0.0799  0.2617
 7291SOL    HW133509   2.822   1.448   6.063  2.1362 -1.0511 -0.0574
 7291SOL    HW233510   2.694   1.378   6.075 -0.4312 -1.3284 -0.1124
 7292SOL     OW33511   1.815   4.680  15.552  0.3118  0.8681  0.6870
 7292SOL    HW133512   1.730   4.666  15.591  0.1237 -0.7385 -0.2867
 7292SOL    HW233513   1.874   4.708  15.621  1.1728  0.5521  0.0901
 7293SOL     OW33514   0.480   0.400   5.216 -0.2612 -0.1701  0.1791
 7293SOL    HW133515   0.465   0.465   5.284 -0.6982  0.1353 -0.2093
 7293SOL    HW233516   0.568   0.375   5.243  0.0502  0.6032 -0.1425
 7294SOL     OW33517   1.488   2.493   5.670 -0.5133  0.4713 -0.1682
 7294SOL    HW133518   1.570   2.533   5.640 -0.7456 -0.2909 -1.8351
 7294SOL    HW233519   1.443   2.451   5.597 -0.7118 -0.4793  0.5027
 7295SOL     OW33520   4.546   2.671   4.318 -0.0430  0.6992 -0.0304
 7295SOL    HW133521   4.524   2.594   4.265 -0.6097  0.5920  0.3528
 7295SOL    HW233522   4.624   2.695   4.268  1.2764 -0.2902  1.5859
 7296SOL     OW33523   3.676   0.484   7.161  0.2474  0.2631 -0.6567
 7296SOL    HW133524   3.750   0.543   7.173  0.0531  0.5477 -0.8661
 7296SOL    HW233525   3.618   0.501   7.235 -2.4735  0.8933 -2.9269
 7297SOL     OW33526   0.432   2.491   4.335 -0.2768  0.6495 -0.8485
 7297SOL    HW133527   0.433   2.508   4.429 -1.2177 -2.1232 -0.3102
 7297SOL    HW233528   0.523   2.504   4.310  0.1466 -1.8553 -0.5880
 7298SOL     OW33529   2.989   2.539   2.660 -0.2974  0.0752 -0.2205
 7298SOL    HW133530   3.021   2.463   2.708  0.6649  1.6565  1.6410
 7298SOL    HW233531   3.036   2.528   2.577  0.4786 -0.3218  0.2643
 7299SOL     OW33532   2.345   1.302  12.073 -0.4051 -0.1017 -0.1083
 7299SOL    HW133533   2.346   1.389  12.114  0.9852  1.2299 -2.9477
 7299SOL    HW233534   2.304   1.255  12.145  0.5783 -1.4504 -0.4197
 7300SOL     OW33535   1.691   4.452   2.621 -0.2911 -0.0840  0.3115
 7300SOL    HW133536   1.726   4.489   2.541  1.9777  0.3075  1.4729
 7300SOL    HW233537   1.722   4.517   2.685 -1.7771  0.3164  0.6288
 7301SOL     OW33538   4.556   2.650  12.679 -0.4372  0.7543 -0.2498
 7301SOL    HW133539   4.498   2.600  12.622  0.0490  0.9774 -0.9431
 7301SOL    HW233540   4.606   2.580  12.721 -0.7157  1.3870  1.1331
 7302SOL     OW33541   0.142   2.317   6.235  0.0361  0.3147 -0.2840
 7302SOL    HW133542   0.178   2.391   6.283 -2.7975  1.3303  0.3013
 7302SOL    HW233543   0.210   2.281   6.179  0.9703  2.0235 -0.2384
 7303SOL     OW33544   4.653   3.798  10.695  0.1417 -0.0663  0.1002
 7303SOL    HW133545   4.558   3.803  10.700  0.2165 -0.5029  1.9592
 7303SOL    HW233546   4.674   3.873  10.640  0.2452  1.4418  2.2012
 7304SOL     OW33547   1.344   4.052   5.608  0.2985  0.2378 -0.8342
 7304SOL    HW133548   1.322   4.145   5.608 -2.0108 -0.3122 -1.5801
 7304SOL    HW233549   1.310   4.023   5.524 -0.9402 -0.6521 -0.0235
 7305SOL     OW33550   3.987   2.842  14.189 -0.1446  0.7884 -0.2191
 7305SOL    HW133551   3.961   2.855  14.280  1.7200  0.0435  0.4313
 7305SOL    HW233552   3.998   2.747  14.184 -1.0671  0.5893  1.4345
 7306SOL     OW33553   4.019   2.241  14.264 -0.3980  0.1643  0.6948
 7306SOL    HW133554   4.003   2.147  14.272 -2.5731  0.4007 -0.9110
 7306SOL    HW233555   3.963   2.262  14.189  1.2531 -0.8596 -0.8238
 7307SOL     OW33556   1.331   0.348   6.932  0.4368 -0.0135 -0.2079
 7307SOL    HW133557   1.264   0.415   6.919  1.4279  0.6940 -1.5751
 7307SOL    HW233558   1.303   0.309   7.015  0.6188  0.6934  0.1858
 7308SOL     OW33559   2.189   3.308   0.826  0.2118  0.6541 -0.1671
 7308SOL    HW133560   2.285   3.313   0.829  0.0248  2.7359  2.5845
 7308SOL    HW233561   2.179   3.343   0.738 -0.7268 -0.7754 -0.6139
 7309SOL     OW33562   4.037   3.872   3.060  0.3162  0.2699  0.2532
 7309SOL    HW133563   3.975   3.942   3.039  0.0766 -0.1386 -0.4382
 7309SOL    HW233564   4.036   3.823   2.977 -0.5473  1.5984 -0.5214
 7310SOL     OW33565   0.608   3.045   1.721 -0.1196  0.5333 -0.1415
 7310SOL    HW133566   0.525   3.083   1.691 -0.1515  1.0308  0.5837
 7310SOL    HW233567   0.605   3.079   1.810  4.0950  2.1078 -0.6299
 7311SOL     OW33568   4.170   1.165   9.270 -0.5314  0.2924  0.0183
 7311SOL    HW133569   4.251   1.186   9.222 -1.0141  0.5807 -0.6713
 7311SOL    HW233570   4.145   1.079   9.237  3.2942 -0.7588 -0.1037
 7312SOL     OW33571   1.500   0.292   3.930 -0.1800  0.0593  0.0293
 7312SOL    HW133572   1.495   0.386   3.915 -0.2641  0.1335  0.5272
 7312SOL    HW233573   1.408   0.267   3.926 -0.6281  1.5107  1.2151
 7313SOL     OW33574   4.085   1.362   6.529 -0.5669  0.7835  0.8450
 7313SOL    HW133575   4.061   1.283   6.480 -1.4830  0.3086  2.0676
 7313SOL    HW233576   4.176   1.339   6.548 -0.9329 -1.9619 -0.7947
 7314SOL     OW33577   4.302   3.780   9.396  0.1194  0.1494  0.4922
 7314SOL    HW133578   4.221   3.733   9.376  0.0921  0.9837 -1.2769
 7314SOL    HW233579   4.360   3.752   9.325  0.1982 -0.2901  0.7283
 7315SOL     OW33580   1.962   4.257   2.522  0.1824  0.1648  0.3436
 7315SOL    HW133581   1.942   4.347   2.497 -0.6406  0.0767  0.7072
 7315SOL    HW233582   2.044   4.252   2.472 -0.1137 -1.8300  0.0486
 7316SOL     OW33583   3.946   0.152   1.851 -0.0766  0.2182 -0.4010
 7316SOL    HW133584   3.857   0.132   1.823 -0.5813  1.4630  0.3201
 7316SOL    HW233585   3.938   0.116   1.939  1.0960  1.7139  0.3204
 7317SOL     OW33586   2.386   4.511   4.836  0.3190  0.4903  0.2685
 7317SOL    HW133587   2.352   4.587   4.883 -0.0931  0.8316 -0.5863
 7317SOL    HW233588   2.341   4.446   4.890 -0.3027  1.6086  1.0959
 7318SOL     OW33589   3.109   2.104   7.800  0.3501  0.0612  0.5876
 7318SOL    HW133590   3.199   2.132   7.784  0.4889 -0.2496  0.8277
 7318SOL    HW233591   3.112   2.064   7.886 -0.9027 -0.0476  0.5841
 7319SOL     OW33592   2.623   2.238   9.138  0.7246 -0.2598  0.1317
 7319SOL    HW133593   2.650   2.261   9.226  3.1743 -2.0080 -0.1828
 7319SOL    HW233594   2.681   2.166   9.115 -0.4075 -1.6164  1.4801
 7320SOL     OW33595   2.815   0.096   4.849 -0.1871  0.3104 -0.3413
 7320SOL    HW133596   2.812   0.083   4.754 -0.0676  2.7605 -0.6897
 7320SOL    HW233597   2.825   0.006   4.880  1.8634  1.4398  2.2449
 7321SOL     OW33598   3.334   2.392   6.056 -0.3163 -0.5135  0.0291
 7321SOL    HW133599   3.282   2.471   6.064 -0.8962 -0.7301 -1.4853
 7321SOL    HW233600   3.413   2.426   6.013  0.0262  1.5051  2.3117
 7322SOL     OW33601   2.596   4.019   6.554  0.6697 -0.5729  0.0486
 7322SOL    HW133602   2.576   4.002   6.646  3.1600 -0.4889  0.6031
 7322SOL    HW233603   2.519   4.074   6.543  1.0098 -0.3181 -1.0523
 7323SOL     OW33604   0.682   3.849   1.519 -0.0007 -0.0171  0.3095
 7323SOL    HW133605   0.678   3.789   1.594  1.1991  0.2507  0.5779
 7323SOL    HW233606   0.729   3.916   1.568  2.4324 -0.7452 -1.0593
 7324SOL     OW33607   0.193   2.270  12.882 -0.1220  0.4731  0.2142
 7324SOL    HW133608   0.228   2.322  12.810 -0.0354  0.5240  0.2915
 7324SOL    HW233609   0.150   2.341  12.930  0.4553  1.6825 -1.0668
 7325SOL     OW33610   1.426   0.421   2.177 -0.9401  0.2896 -0.6764
 7325SOL    HW133611   1.347   0.427   2.230 -0.9190 -0.7617 -0.5353
 7325SOL    HW233612   1.393   0.417   2.087 -1.6362 -1.0403 -0.3439
 7326SOL     OW33613   4.493   2.195   0.809 -0.1816 -0.5760 -0.4967
 7326SOL    HW133614   4.418   2.148   0.771 -2.2975  1.6951  0.9394
 7326SOL    HW233615   4.514   2.133   0.879 -2.6767  1.1403  1.7652
 7327SOL     OW33616   1.296   2.849   1.499 -0.0432 -0.1611  0.5261
 7327SOL    HW133617   1.250   2.797   1.565  0.6168 -0.9880  0.3213
 7327SOL    HW233618   1.265   2.935   1.530 -0.0022 -0.6259  1.8644
 7328SOL     OW33619   1.257   4.398   9.277  0.2236  0.0772  0.3066
 7328SOL    HW133620   1.334   4.448   9.248  0.3524 -0.9667 -1.1397
 7328SOL    HW233621   1.293   4.321   9.321 -0.4847  0.4150  1.4640
 7329SOL     OW33622   0.941   1.234  11.330  0.4286  0.1617 -0.5170
 7329SOL    HW133623   1.008   1.171  11.355  0.7818 -0.0284 -1.9520
 7329SOL    HW233624   0.873   1.207  11.392  1.9934 -3.1977 -0.3027
 7330SOL     OW33625   3.407   2.453   3.421  0.3548  0.0926  0.0941
 7330SOL    HW133626   3.324   2.410   3.442  1.2455 -1.4036  0.5296
 7330SOL    HW233627   3.451   2.433   3.504  1.4521  0.8952 -0.3026
 7331SOL     OW33628   0.323   3.519   3.519  0.1314 -0.2712 -1.0207
 7331SOL    HW133629   0.247   3.461   3.524  0.3744 -0.4458  0.8310
 7331SOL    HW233630   0.355   3.505   3.430 -1.4011  2.2618 -1.9838
 7332SOL     OW33631   2.109   3.470   7.753 -0.0925 -0.4146 -0.1466
 7332SOL    HW133632   2.199   3.460   7.722  0.6540  0.7546  1.6615
 7332SOL    HW233633   2.066   3.421   7.682 -0.7238 -0.4518  0.2627
 7333SOL     OW33634   1.320   2.825   6.450  0.7225  0.2708  0.5811
 7333SOL    HW133635   1.312   2.825   6.545 -2.4938  1.7925  0.3209
 7333SOL    HW233636   1.380   2.751   6.434 -0.5306 -0.2513 -1.7500
 7334SOL     OW33637   3.597   0.422  12.529 -0.1014 -0.3138 -0.2453
 7334SOL    HW133638   3.514   0.403  12.484 -0.5169 -2.4386  1.4188
 7334SOL    HW233639   3.618   0.333  12.557 -1.5067 -0.2218  1.1260
 7335SOL     OW33640   0.032   1.884   3.295 -0.3202 -0.4491  0.2012
 7335SOL    HW133641   0.024   1.797   3.334  0.6778  0.2227  1.9267
 7335SOL    HW233642   4.681   1.922   3.312  0.4781  1.3323  0.2080
 7336SOL     OW33643   1.613   4.640   4.643  0.3031 -0.1272 -0.6053
 7336SOL    HW133644   1.609   4.546   4.624 -1.2622 -0.4656  1.3733
 7336SOL    HW233645   1.576   4.645   4.731  0.9159  0.2287 -0.3667
 7337SOL     OW33646   2.804   0.873  14.982 -0.3185 -0.4413  0.5052
 7337SOL    HW133647   2.850   0.910  15.057  0.0215  3.0555 -1.4008
 7337SOL    HW233648   2.777   0.789  15.018  2.0385 -0.8310  1.3601
 7338SOL     OW33649   2.763   1.315  17.682 -0.1118 -0.4164  0.1933
 7338SOL    HW133650   2.726   1.374   0.011 -0.1146 -1.2490  0.9261
 7338SOL    HW233651   2.740   1.348  17.596 -1.2414  0.6829  0.9151
 7339SOL     OW33652   1.827   3.986   4.858 -0.1810 -0.3312 -0.1732
 7339SOL    HW133653   1.791   3.929   4.925  0.1638  1.7277  1.7490
 7339SOL    HW233654   1.867   4.060   4.904  1.2539 -0.7736 -0.7066
 7340SOL     OW33655   4.143   2.712   0.445 -0.2528 -0.5006  0.0378
 7340SOL    HW133656   4.199   2.659   0.387 -2.1075 -0.6724 -1.6265
 7340SOL    HW233657   4.185   2.696   0.529 -0.2325  0.8969  0.2866
 7341SOL     OW33658   1.681   0.372   3.014  0.4243 -0.3686  0.0700
 7341SOL    HW133659   1.706   0.463   3.030  0.6372 -0.6684  1.4800
 7341SOL    HW233660   1.758   0.333   2.973  0.0834 -1.1356  0.1484
 7342SOL     OW33661   4.591   0.966  16.886 -0.0124 -0.5786  0.0492
 7342SOL    HW133662   4.621   0.916  16.962 -1.7237 -0.6120  0.7070
 7342SOL    HW233663   4.601   0.908  16.811  0.2460 -2.2073  1.3423
 7343SOL     OW33664   3.972   0.240   6.612  0.4552 -0.1098 -0.1212
 7343SOL    HW133665   4.033   0.313   6.605 -2.2322  2.0092 -1.5369
 7343SOL    HW233666   3.945   0.236   6.704  0.9689 -0.8557 -0.0020
 7344SOL     OW33667   0.406   0.940  17.123 -0.6110  0.5200  0.5856
 7344SOL    HW133668   0.394   1.020  17.174 -2.5324  0.4234  0.2530
 7344SOL    HW233669   0.321   0.941  17.080  1.0659 -0.9861 -2.7842
 7345SOL     OW33670   0.901   0.039   2.350 -0.3672 -0.4756 -0.7086
 7345SOL    HW133671   0.931   0.130   2.350 -0.4667 -0.4401  0.3373
 7345SOL    HW233672   0.984   4.731   2.374 -0.4652 -0.0074  0.4655
 7346SOL     OW33673   1.065   4.512   4.767  0.6544 -0.1292 -0.2982
 7346SOL    HW133674   1.057   4.493   4.674  0.7860 -1.5263 -0.0190
 7346SOL    HW233675   1.102   4.600   4.755 -0.6609  0.4873  0.1368
 7347SOL     OW33676   2.316   0.652   9.215 -0.3089  0.3095 -0.0968
 7347SOL    HW133677   2.365   0.690   9.143  0.8597 -0.4724  0.2711
 7347SOL    HW233678   2.227   0.681   9.198 -0.9551 -1.5864 -0.0201
 7348SOL     OW33679   0.550   4.012   4.241  0.0821 -0.1675  0.0919
 7348SOL    HW133680   0.549   4.095   4.193  0.0744  0.1250  0.5997
 7348SOL    HW233681   0.473   4.018   4.297 -0.6769  1.1369 -1.1002
 7349SOL     OW33682   3.851   1.554  14.062  0.2563 -0.4593 -0.6594
 7349SOL    HW133683   3.882   1.613  13.993  0.0778 -1.9261 -1.9991
 7349SOL    HW233684   3.793   1.609  14.115  0.5594  1.1580 -1.9811
 7350SOL     OW33685   2.644   0.820   8.421 -0.0635  0.1453 -0.1736
 7350SOL    HW133686   2.735   0.838   8.444 -0.5291  2.1729  0.0743
 7350SOL    HW233687   2.622   0.865   8.339 -0.5966  1.0561  0.4747
 7351SOL     OW33688   0.589   1.310   9.686  0.2071 -0.6043 -0.2133
 7351SOL    HW133689   0.542   1.359   9.754 -1.2155 -2.5711  0.2104
 7351SOL    HW233690   0.682   1.318   9.707  0.2406  2.8547 -1.6763
 7352SOL     OW33691   2.682   4.359   8.975 -0.6794  0.1786  0.0399
 7352SOL    HW133692   2.721   4.399   9.052  1.3928  0.9456 -1.3960
 7352SOL    HW233693   2.610   4.305   9.008  1.5065 -2.2145  0.8898
 7353SOL     OW33694   3.251   0.643   7.175  0.0839 -0.1860  0.4219
 7353SOL    HW133695   3.322   0.659   7.113  0.5326 -2.9719  0.2306
 7353SOL    HW233696   3.236   0.732   7.207 -0.6330 -0.1403 -0.0443
 7354SOL     OW33697   3.704   1.258  10.050 -0.5348 -0.5798  0.2356
 7354SOL    HW133698   3.721   1.262   9.956  0.6698  0.3029  0.4925
 7354SOL    HW233699   3.638   1.190  10.063 -0.7035  0.0049  2.4000
 7355SOL     OW33700   0.313   4.216   3.894 -0.2082  0.1607 -0.5130
 7355SOL    HW133701   0.239   4.206   3.835  0.5254 -1.0734 -1.2257
 7355SOL    HW233702   0.332   4.128   3.926  1.7462  1.0993  0.9010
 7356SOL     OW33703   0.557   0.102   1.590 -0.2837 -0.3810  0.5065
 7356SOL    HW133704   0.486   0.100   1.654  0.0278  1.0074  0.8847
 7356SOL    HW233705   0.504   0.098   1.510  3.6997 -0.8544 -2.1085
 7357SOL     OW33706   4.016   0.762   2.636 -0.0810  0.2235 -0.0550
 7357SOL    HW133707   4.048   0.683   2.679  0.8381  0.0563 -1.0839
 7357SOL    HW233708   3.936   0.793   2.679  0.8203  0.1406  1.7039
 7358SOL     OW33709   1.011   4.035   5.455 -0.4155 -0.0531 -0.2931
 7358SOL    HW133710   0.965   4.093   5.394  1.2040  0.3517 -1.1221
 7358SOL    HW233711   1.056   3.979   5.392 -1.6351 -2.9113  1.3945
 7359SOL     OW33712   2.895   1.696   4.859 -0.2451 -0.0030  0.2110
 7359SOL    HW133713   2.960   1.712   4.791  0.9283 -1.5909  0.9545
 7359SOL    HW233714   2.937   1.627   4.909 -1.3009 -0.3355  0.6508
 7360SOL     OW33715   4.042   2.756   8.336  0.2073 -0.0398 -0.2320
 7360SOL    HW133716   3.962   2.808   8.327 -1.0096 -1.6216  1.5295
 7360SOL    HW233717   4.080   2.789   8.416 -0.1251  2.2640 -1.0326
 7361SOL     OW33718   0.954   3.811   6.961  0.1865 -0.5030 -0.2754
 7361SOL    HW133719   0.966   3.726   6.919 -0.9802  0.0623 -1.7160
 7361SOL    HW233720   0.890   3.787   7.028  0.5143  0.1257  0.2677
 7362SOL     OW33721   2.724   1.403   4.782  0.6511  0.1734 -0.3132
 7362SOL    HW133722   2.681   1.318   4.782  1.3806 -0.2033 -1.4455
 7362SOL    HW233723   2.786   1.390   4.711  1.4998  0.2300  0.4086
 7363SOL     OW33724   0.686   3.340   8.407  0.1415 -0.1944  0.3486
 7363SOL    HW133725   0.592   3.350   8.421  0.1301  4.0498 -2.5577
 7363SOL    HW233726   0.686   3.302   8.319  0.8077  0.9165 -0.1360
 7364SOL     OW33727   1.507   1.688   6.930  0.4454  0.3981  0.3172
 7364SOL    HW133728   1.553   1.772   6.922 -1.7478  1.5885  0.1749
 7364SOL    HW233729   1.577   1.637   6.969 -1.3999 -1.6117  1.0117
 7365SOL     OW33730   1.781   3.242   2.924 -0.1847 -0.0874 -0.2536
 7365SOL    HW133731   1.738   3.301   2.862  0.3947 -0.4578 -1.0109
 7365SOL    HW233732   1.754   3.269   3.012  1.3549 -0.4096  0.3179
 7366SOL     OW33733   3.162   3.490   8.236  0.5678 -0.7839  0.2663
 7366SOL    HW133734   3.161   3.547   8.313  2.0509 -2.8490  1.7968
 7366SOL    HW233735   3.077   3.509   8.195  0.1390  0.6092  1.7760
 7367SOL     OW33736   3.222   3.167  12.691  0.4662  0.4879  0.4255
 7367SOL    HW133737   3.305   3.144  12.733  0.2331 -1.7488 -0.3307
 7367SOL    HW233738   3.240   3.200  12.603 -1.0271 -1.0160 -0.4443
 7368SOL     OW33739   3.608   0.583   7.431 -0.0013 -0.3896 -0.3057
 7368SOL    HW133740   3.521   0.542   7.426 -1.2232  2.2210 -0.6822
 7368SOL    HW233741   3.599   0.654   7.494 -1.2058 -1.5738  0.8483
 7369SOL     OW33742   4.447   1.521   3.218 -0.4025 -0.3577 -0.1747
 7369SOL    HW133743   4.394   1.526   3.139 -2.6698  0.9927  1.4450
 7369SOL    HW233744   4.378   1.543   3.281  0.0587  0.2339  0.1355
 7370SOL     OW33745   3.291   3.020   1.075  0.3577 -0.3277  0.0074
 7370SOL    HW133746   3.367   3.076   1.061 -0.5143  0.5325 -1.3063
 7370SOL    HW233747   3.312   2.964   1.150  0.6085 -0.4601 -0.1642
 7371SOL     OW33748   3.791   2.196   0.072 -0.4723 -0.1307  0.0172
 7371SOL    HW133749   3.801   2.291   0.077 -0.8211 -0.2638  3.2187
 7371SOL    HW233750   3.870   2.167   0.028 -0.3828  1.1966 -0.7087
 7372SOL     OW33751   0.987   3.809   8.438  0.1661  0.2618  0.2701
 7372SOL    HW133752   0.974   3.714   8.446 -0.7279  0.2564 -1.2901
 7372SOL    HW233753   0.954   3.842   8.522  2.9504  2.1313  0.6004
 7373SOL     OW33754   0.909   3.245   4.307 -0.2688 -0.3854 -0.0581
 7373SOL    HW133755   0.841   3.282   4.250  0.6637  0.8442 -0.3712
 7373SOL    HW233756   0.863   3.265   4.389  1.4278 -0.0110  0.8057
 7374SOL     OW33757   2.587   1.327  17.244  0.2112  0.4253  0.4142
 7374SOL    HW133758   2.523   1.398  17.243  3.8076  3.7251 -0.3545
 7374SOL    HW233759   2.597   1.331  17.339 -1.7796 -1.1879  0.6935
 7375SOL     OW33760   2.646   3.707   6.576 -0.1170  0.2605  0.3776
 7375SOL    HW133761   2.725   3.660   6.549  0.0821 -0.6039  2.4937
 7375SOL    HW233762   2.686   3.793   6.588 -0.3362  0.2856  0.9614
 7376SOL     OW33763   1.393   2.523   8.568  0.4880 -0.4586  0.0003
 7376SOL    HW133764   1.475   2.485   8.599 -0.1688 -0.2440  2.0127
 7376SOL    HW233765   1.361   2.451   8.514 -0.9154 -0.3219  0.6353
 7377SOL     OW33766   1.949   1.010  15.229  0.5818 -0.0358  0.3674
 7377SOL    HW133767   1.874   1.028  15.286 -0.0446  0.9380 -0.7612
 7377SOL    HW233768   2.016   1.057  15.279  0.5881 -0.1117  0.4312
 7378SOL     OW33769   0.237   1.253  16.068 -0.0147 -0.1224 -0.3076
 7378SOL    HW133770   0.186   1.313  16.122 -0.9546 -0.3082 -0.9816
 7378SOL    HW233771   0.280   1.197  16.133 -1.5976  0.1865  0.9955
 7379SOL     OW33772   3.926   3.430   3.373 -0.0922  0.2232  0.0676
 7379SOL    HW133773   3.854   3.421   3.435 -0.5901  0.6262 -0.4632
 7379SOL    HW233774   3.909   3.357   3.313 -2.1528  0.5009  0.3199
 7380SOL     OW33775   3.143   4.691   0.035 -0.0135 -0.0600  0.5274
 7380SOL    HW133776   3.198   0.035   0.043 -0.0355  0.3993 -3.6408
 7380SOL    HW233777   3.103   4.717  17.689  0.9924  0.0610  0.0834
 7381SOL     OW33778   0.356   2.646   3.405 -0.2131 -0.2271  0.3566
 7381SOL    HW133779   0.352   2.601   3.490  0.3367 -1.2282 -0.1436
 7381SOL    HW233780   0.447   2.629   3.379  0.2611  2.7382  0.0266
 7382SOL     OW33781   3.380   0.058   3.078 -0.0756  0.0130 -0.1528
 7382SOL    HW133782   3.286   0.051   3.060  0.2159  0.1743 -1.8144
 7382SOL    HW233783   3.386   0.141   3.125  1.6112  0.7553 -1.6292
 7383SOL     OW33784   3.203   4.244   4.039  0.3803  0.3319  0.0105
 7383SOL    HW133785   3.272   4.180   4.053  0.4702  0.5939  0.7856
 7383SOL    HW233786   3.176   4.273   4.126 -1.1341  1.0140 -0.6826
 7384SOL     OW33787   2.565   2.507   7.420  0.0835 -0.1090  0.1925
 7384SOL    HW133788   2.624   2.573   7.457  0.3091 -1.1142  1.6216
 7384SOL    HW233789   2.613   2.426   7.434  0.5565 -0.2089 -2.1182
 7385SOL     OW33790   2.686   3.922  15.461 -0.2617  0.1730  0.3650
 7385SOL    HW133791   2.644   3.837  15.452  0.7032 -0.1038 -1.5394
 7385SOL    HW233792   2.620   3.978  15.419  2.1191  0.5423 -2.8292
 7386SOL     OW33793   2.315   1.508   6.908 -0.3108  0.0344  0.0113
 7386SOL    HW133794   2.314   1.604   6.903  0.1743  0.0558  0.4008
 7386SOL    HW233795   2.238   1.482   6.858  0.8460 -2.2030 -0.6180
 7387SOL     OW33796   1.199   3.532   5.513  0.3192 -0.0607  0.4500
 7387SOL    HW133797   1.280   3.578   5.534  0.9690 -0.6714 -0.7136
 7387SOL    HW233798   1.173   3.505   5.601 -0.3951  0.6239  0.4535
 7388SOL     OW33799   0.073   3.020   7.632 -0.3254  0.3837 -0.0950
 7388SOL    HW133800   4.717   2.989   7.622  0.4377 -1.8510 -0.1873
 7388SOL    HW233801   0.077   3.100   7.580 -2.0431 -0.1788 -1.1140
 7389SOL     OW33802   0.680   2.659   4.005 -0.2805  0.1851 -0.0546
 7389SOL    HW133803   0.664   2.598   3.933 -0.7370  0.2489 -0.0058
 7389SOL    HW233804   0.724   2.735   3.966  0.7220 -0.7337 -0.6963
 7390SOL     OW33805   1.258   0.724   4.822  0.7059  0.1154 -0.5270
 7390SOL    HW133806   1.349   0.746   4.838  1.3238 -0.3258 -3.4145
 7390SOL    HW233807   1.229   0.656   4.883 -1.1388 -0.2232 -1.7642
 7391SOL     OW33808   2.948   4.536   6.195  0.4478 -0.1820 -0.2463
 7391SOL    HW133809   2.949   4.508   6.104  0.3377  0.9854 -0.5955
 7391SOL    HW233810   2.986   4.623   6.188  1.3983 -0.5202  0.7557
 7392SOL     OW33811   0.087   3.103   4.013 -0.2189  0.5525 -0.5097
 7392SOL    HW133812   0.028   3.105   3.938  0.8637  2.9349 -1.2685
 7392SOL    HW233813   0.132   3.019   4.000 -0.2980  0.4276 -0.0091
 7393SOL     OW33814   3.367   2.520   9.095  0.0493  0.4672 -0.1553
 7393SOL    HW133815   3.433   2.556   9.154 -0.6244  0.8258  0.3838
 7393SOL    HW233816   3.373   2.425   9.110 -1.0248  0.4669  0.3049
 7394SOL     OW33817   0.444   2.407   8.070  0.1295  0.0995  0.6629
 7394SOL    HW133818   0.505   2.422   8.142  1.6711 -2.1918 -0.1762
 7394SOL    HW233819   0.434   2.313   8.087  0.0908 -0.4486 -2.3160
 7395SOL     OW33820   1.815   0.277   8.024  0.4543 -0.8009 -0.4611
 7395SOL    HW133821   1.789   0.185   8.035 -1.5218 -0.1559  0.2679
 7395SOL    HW233822   1.813   0.282   7.928  0.3046  2.8572 -0.2722
 7396SOL     OW33823   1.812   0.880   8.396 -0.1698 -0.0244 -0.5480
 7396SOL    HW133824   1.849   0.967   8.407  1.9845 -0.6505 -2.7662
 7396SOL    HW233825   1.868   0.835   8.332  1.2832  0.0295  0.7033
 7397SOL     OW33826   3.017   0.296  15.365  0.3263 -0.1758  0.0140
 7397SOL    HW133827   3.040   0.236  15.436 -2.0271 -0.8539  0.2051
 7397SOL    HW233828   2.928   0.263  15.356  0.6774 -1.3764  0.9463
 7398SOL     OW33829   4.218   0.377  17.596 -0.3298 -0.5387 -0.0908
 7398SOL    HW133830   4.277   0.436  17.550  1.1574 -1.3986  0.7233
 7398SOL    HW233831   4.286   0.338  17.651 -0.9749 -1.2866  0.1781
 7399SOL     OW33832   4.198   4.298  12.980 -0.0637 -0.1437 -0.0989
 7399SOL    HW133833   4.254   4.336  13.048 -1.3441  0.9229  0.3460
 7399SOL    HW233834   4.191   4.204  12.995 -0.3766 -0.3360 -1.4170
 7400SOL     OW33835   2.023   4.527   6.200 -0.0987  0.3679  0.6278
 7400SOL    HW133836   2.067   4.443   6.208  2.3757  1.3491 -2.7289
 7400SOL    HW233837   2.076   4.576   6.137 -0.3887  1.0600  0.9163
 7401SOL     OW33838   1.071   0.434   1.559  0.0982  0.4520 -0.7210
 7401SOL    HW133839   1.121   0.457   1.638 -0.5697  0.6698 -0.3652
 7401SOL    HW233840   1.095   0.504   1.498 -0.1893 -1.6179 -3.2211
 7402SOL     OW33841   4.340   3.307   1.497 -0.1800  0.8939 -0.1172
 7402SOL    HW133842   4.298   3.298   1.582 -2.2236  0.6025 -1.1554
 7402SOL    HW233843   4.342   3.402   1.493  0.5938  0.9110  0.7668
 7403SOL     OW33844   0.222   4.402  17.414 -0.1235 -0.1208 -0.1038
 7403SOL    HW133845   0.243   4.318  17.454 -2.4898  0.6813  2.8223
 7403SOL    HW233846   0.203   4.454  17.492  0.7814  1.6420 -1.0544
 7404SOL     OW33847   3.341   2.521  11.910  0.8635 -0.1266  0.3524
 7404SOL    HW133848   3.421   2.552  11.954  0.1028  0.4482  1.3145
 7404SOL    HW233849   3.273   2.579  11.943  0.3063  1.2738 -3.2738
 7405SOL     OW33850   1.750   2.753   3.056  0.2375  0.8330  0.2120
 7405SOL    HW133851   1.795   2.799   2.986  3.0681 -1.8034  0.2809
 7405SOL    HW233852   1.683   2.819   3.073 -1.6243 -0.7679 -0.8419
 7406SOL     OW33853   1.908   0.931  13.429  0.9627  0.2879  0.5099
 7406SOL    HW133854   1.968   0.859  13.449 -0.8421 -1.2528  0.3138
 7406SOL    HW233855   1.825   0.901  13.465  0.2223  1.1303 -0.5283
 7407SOL     OW33856   0.410   0.690   7.917  0.3665  0.2257  0.7707
 7407SOL    HW133857   0.345   0.668   7.850  0.3177 -0.0471  0.9064
 7407SOL    HW233858   0.425   0.779   7.885  2.9594  0.1148  1.6646
 7408SOL     OW33859   2.454   3.901  12.101  0.3467 -0.1299 -0.2564
 7408SOL    HW133860   2.468   3.807  12.112  0.5034  0.1641  1.9592
 7408SOL    HW233861   2.366   3.922  12.133  0.6873 -0.1827  0.6891
 7409SOL     OW33862   3.182   1.911  14.826 -0.0495  0.3289 -0.1468
 7409SOL    HW133863   3.257   1.856  14.845  0.8843  0.4526 -3.3934
 7409SOL    HW233864   3.180   1.902  14.730 -0.3889 -1.3280  0.0154
 7410SOL     OW33865   3.750   4.356   8.215  0.3840 -0.6047  0.3319
 7410SOL    HW133866   3.756   4.276   8.163  1.9471  0.7946 -1.6585
 7410SOL    HW233867   3.805   4.413   8.161  1.8611 -3.1219 -0.7996
 7411SOL     OW33868   4.304   1.117   0.912  0.1197  0.2144 -0.2046
 7411SOL    HW133869   4.389   1.106   0.870  0.6256  1.0892  0.5744
 7411SOL    HW233870   4.276   1.193   0.862 -1.8198 -0.6629 -0.4638
 7412SOL     OW33871   1.001   3.870   9.196 -0.2436  0.2074  0.4943
 7412SOL    HW133872   1.072   3.895   9.138  0.1989 -4.0008 -0.8031
 7412SOL    HW233873   1.049   3.843   9.274  0.3088 -0.1918  0.0190
 7413SOL     OW33874   0.100   1.696   7.455 -0.1071 -0.4225 -0.3010
 7413SOL    HW133875   0.013   1.692   7.416  0.0036 -1.7856 -0.4158
 7413SOL    HW233876   0.156   1.738   7.389 -0.4986 -0.1378 -0.4500
 7414SOL     OW33877   2.447   0.993  11.698 -0.5000  0.3070 -0.1761
 7414SOL    HW133878   2.435   0.944  11.617  0.1676 -0.7485  0.3589
 7414SOL    HW233879   2.358   0.999  11.732 -0.6561  1.1547 -0.7432
 7415SOL     OW33880   1.895   3.439   8.936  0.2157  0.9734  0.0420
 7415SOL    HW133881   1.858   3.510   8.883 -2.7138 -0.7627 -0.2418
 7415SOL    HW233882   1.886   3.360   8.882  0.0954 -0.0303  1.5466
 7416SOL     OW33883   2.432   4.240  10.039  0.1489  0.4106 -0.0947
 7416SOL    HW133884   2.452   4.220  10.131 -0.4567  1.9449  0.3609
 7416SOL    HW233885   2.452   4.161   9.989 -0.3552 -1.3478  2.4652
 7417SOL     OW33886   3.117   4.534  16.811  0.5828 -0.4409 -0.1785
 7417SOL    HW133887   3.209   4.550  16.790  1.0105 -2.0958  0.4307
 7417SOL    HW233888   3.097   4.493  16.728 -0.1085  2.4431 -1.4487
 7418SOL     OW33889   3.604   3.303   3.978 -0.1046 -0.3377  0.2312
 7418SOL    HW133890   3.587   3.373   3.915 -1.5376 -0.9001  0.0008
 7418SOL    HW233891   3.568   3.332   4.062 -2.0314  2.7397 -1.6796
 7419SOL     OW33892   1.034   2.736   6.378  0.4655 -0.2411  0.0828
 7419SOL    HW133893   1.024   2.676   6.452 -0.8186 -2.3840 -1.8117
 7419SOL    HW233894   1.117   2.780   6.395 -0.5399  2.0874 -1.0764
 7420SOL     OW33895   4.411   4.525   7.338 -0.3800  0.6044 -0.6157
 7420SOL    HW133896   4.412   4.434   7.366 -0.0422  1.0372  0.7692
 7420SOL    HW233897   4.353   4.517   7.262  0.5060 -1.3777 -1.0770
 7421SOL     OW33898   3.506   4.420   9.086 -0.0264  0.2048 -0.2400
 7421SOL    HW133899   3.501   4.326   9.068  0.4941  0.0723  0.3157
 7421SOL    HW233900   3.601   4.429   9.094 -0.0459  0.3192 -0.1421
 7422SOL     OW33901   3.054   4.245   8.232 -0.7938  0.7960 -0.1607
 7422SOL    HW133902   3.127   4.305   8.215 -1.7874  1.7778 -0.9479
 7422SOL    HW233903   3.000   4.297   8.292 -1.4401 -1.6091  1.3455
 7423SOL     OW33904   2.846   4.077  16.978  0.0787  1.0032 -0.3249
 7423SOL    HW133905   2.903   4.141  16.936 -0.5679  1.6623 -0.1942
 7423SOL    HW233906   2.766   4.078  16.925  0.3718  0.3836 -0.7784
 7424SOL     OW33907   2.995   0.004  15.436  0.3756  0.0389 -0.7567
 7424SOL    HW133908   2.909   0.024  15.401  0.5977  2.9578  0.3070
 7424SOL    HW233909   2.990   0.048  15.521  2.5295 -0.3239 -0.4365
 7425SOL     OW33910   4.630   0.758   7.647  0.2173 -0.3909  0.5670
 7425SOL    HW133911   4.628   0.776   7.741  0.5896 -0.5447  0.6027
 7425SOL    HW233912   4.702   0.696   7.646  0.6063  0.0716 -0.6045
 7426SOL     OW33913   3.448   4.029   4.883  0.1408 -0.1081  0.4610
 7426SOL    HW133914   3.430   4.120   4.860 -0.5905 -0.4624 -0.3925
 7426SOL    HW233915   3.439   3.983   4.800  2.6671  1.3992 -0.6608
 7427SOL     OW33916   2.397   1.602   6.632  0.5437  0.1726  0.1394
 7427SOL    HW133917   2.423   1.523   6.585  2.8170  2.4930 -2.5464
 7427SOL    HW233918   2.476   1.657   6.631  0.4419  0.3089 -0.2991
 7428SOL     OW33919   0.283   4.101   2.366 -0.2737  0.0328 -0.0686
 7428SOL    HW133920   0.194   4.110   2.399  0.3040 -0.0063  1.4762
 7428SOL    HW233921   0.312   4.053   2.443 -0.2967 -0.2052 -0.2104
 7429SOL     OW33922   0.162   0.927   1.472 -0.1942  0.2328  0.5300
 7429SOL    HW133923   0.099   0.953   1.404 -0.1441 -0.4294  0.2328
 7429SOL    HW233924   0.127   0.964   1.553  1.2713  0.9894  0.8179
 7430SOL     OW33925   0.798   3.334   6.757  0.0490  0.2803  0.1773
 7430SOL    HW133926   0.833   3.321   6.669 -0.6708 -1.1857  0.1113
 7430SOL    HW233927   0.783   3.247   6.793  0.4296 -0.0236 -0.3956
 7431SOL     OW33928   0.546   4.590   4.679  0.0358 -0.4319 -0.3838
 7431SOL    HW133929   0.539   4.500   4.710  0.9340 -0.9133 -1.5539
 7431SOL    HW233930   0.460   4.597   4.637  0.2236 -0.0309 -0.6978
 7432SOL     OW33931   2.016   0.468   2.138 -0.0768 -0.1013 -0.2772
 7432SOL    HW133932   2.102   0.426   2.148 -0.3480 -0.8587 -1.1593
 7432SOL    HW233933   1.998   0.475   2.232 -1.7820  0.1244 -0.6320
 7433SOL     OW33934   4.384   3.919   7.186  0.2152  0.0250  0.0835
 7433SOL    HW133935   4.378   3.947   7.095 -0.5667 -1.2020 -0.2461
 7433SOL    HW233936   4.464   3.867   7.175  1.4201  1.6308  1.3089
 7434SOL     OW33937   2.193   2.233  16.007 -0.1322  0.3385  0.5983
 7434SOL    HW133938   2.195   2.142  16.038  0.7609  0.0598 -0.3024
 7434SOL    HW233939   2.264   2.270  16.058 -0.2812 -2.6677  3.0202
 7435SOL     OW33940   1.394   1.635   2.674  0.2699 -0.1213  0.0790
 7435SOL    HW133941   1.340   1.583   2.735  0.7643 -0.6693  0.0585
 7435SOL    HW233942   1.398   1.707   2.737 -0.9381 -1.1822  1.3749
 7436SOL     OW33943   2.908   2.583   1.611  0.4376 -0.2912 -0.2668
 7436SOL    HW133944   2.991   2.594   1.565 -0.8163 -0.3524 -2.5817
 7436SOL    HW233945   2.898   2.670   1.649  0.1929 -0.8015  0.8213
 7437SOL     OW33946   2.509   1.376  15.000 -0.1036  0.0140 -0.2497
 7437SOL    HW133947   2.600   1.362  15.027  0.2054 -1.0928 -1.8535
 7437SOL    HW233948   2.470   1.289  15.006  0.6874 -0.4194 -1.3817
 7438SOL     OW33949   4.447   3.863   2.346  0.4845  0.2478  0.0837
 7438SOL    HW133950   4.356   3.862   2.319  0.8469 -0.1550 -1.1151
 7438SOL    HW233951   4.473   3.912   2.268  3.4154 -2.6460 -0.7472
 7439SOL     OW33952   0.441   3.688  15.577  0.7322 -0.0134  0.2866
 7439SOL    HW133953   0.359   3.699  15.529 -0.2734  0.0993  2.0163
 7439SOL    HW233954   0.431   3.597  15.603 -0.8023  0.9975  3.2105
 7440SOL     OW33955   4.674   1.552   0.520 -0.2490  0.1852  0.3044
 7440SOL    HW133956   4.704   1.541   0.430 -1.3591 -1.9686  0.1942
 7440SOL    HW233957   4.625   1.634   0.511 -1.0816 -0.7443 -3.8831
 7441SOL     OW33958   3.663   0.975   0.093  0.1273  0.2188 -0.3946
 7441SOL    HW133959   3.734   0.947   0.151 -0.6692 -0.1556  0.3921
 7441SOL    HW233960   3.718   1.029   0.036  0.5752 -1.8655 -1.9364
 7442SOL     OW33961   1.264   2.668   6.935 -0.4381  0.3524 -0.2180
 7442SOL    HW133962   1.181   2.649   6.979  0.1961  0.3001  0.9330
 7442SOL    HW233963   1.316   2.706   7.005 -0.0546 -0.9622  0.2254
 7443SOL     OW33964   1.608   4.131   8.064 -0.1075 -0.3660  0.1380
 7443SOL    HW133965   1.614   4.205   8.003 -0.0685 -0.5385 -0.0656
 7443SOL    HW233966   1.523   4.098   8.037 -1.0307  2.4833 -0.4816
 7444SOL     OW33967   1.372   3.300  11.952  0.5056 -0.2179 -0.0499
 7444SOL    HW133968   1.454   3.267  11.914  0.8287 -1.0640  1.4041
 7444SOL    HW233969   1.359   3.384  11.908 -0.3294 -0.3307 -0.0188
 7445SOL     OW33970   3.398   3.201   2.642  0.1078  0.0826 -0.1015
 7445SOL    HW133971   3.473   3.260   2.638 -2.1540  2.8206 -2.5817
 7445SOL    HW233972   3.321   3.250   2.613  0.1986  1.0212  1.2577
 7446SOL     OW33973   2.623   0.510  15.299  0.4718 -0.0415  0.1264
 7446SOL    HW133974   2.594   0.442  15.360  0.6110  0.2929  0.5691
 7446SOL    HW233975   2.593   0.477  15.215  2.4831  1.9575 -1.4093
 7447SOL     OW33976   3.462   1.943  14.052 -0.3625  0.0707  0.4419
 7447SOL    HW133977   3.511   2.005  13.998  0.3659 -0.6255  0.2969
 7447SOL    HW233978   3.371   1.971  14.044 -0.4780 -0.1398  0.9865
 7448SOL     OW33979   0.767   0.805   1.456 -0.2885  0.3281 -0.0089
 7448SOL    HW133980   0.723   0.768   1.532 -0.7815  0.3300 -0.2948
 7448SOL    HW233981   0.727   0.744   1.394 -0.2952  1.0779 -0.7505
 7449SOL     OW33982   4.587   1.568  15.368  1.8265  0.0216 -0.7768
 7449SOL    HW133983   4.531   1.597  15.440 -0.0282 -0.5786 -1.9657
 7449SOL    HW233984   4.671   1.582  15.411  0.9438 -0.5373  1.0992
 7450SOL     OW33985   1.137   1.428  17.725 -0.0656  0.4312 -0.5680
 7450SOL    HW133986   1.086   1.443   0.067 -0.8779  2.1399 -1.4260
 7450SOL    HW233987   1.124   1.506  17.672  1.8506 -0.5266 -2.4692
 7451SOL     OW33988   2.631   3.737   0.757  0.4771  0.2739 -0.4521
 7451SOL    HW133989   2.716   3.697   0.740  0.2324 -0.2493 -0.4256
 7451SOL    HW233990   2.576   3.670   0.716 -0.4002 -0.2911  1.6839
 7452SOL     OW33991   1.403   4.669   2.534 -0.2086  0.2243 -0.2235
 7452SOL    HW133992   1.445   4.682   2.448  1.0059 -0.7244  0.2225
 7452SOL    HW233993   1.383   4.576   2.531 -1.8919  0.5860  0.2767
 7453SOL     OW33994   3.430   0.733   8.492  0.6029  0.2604 -0.1087
 7453SOL    HW133995   3.517   0.693   8.504  0.6737 -0.3657 -2.7110
 7453SOL    HW233996   3.390   0.679   8.561  1.0855  2.1001  1.6173
 7454SOL     OW33997   4.713   3.205   6.820  0.0595 -0.0462 -0.4224
 7454SOL    HW133998   4.717   3.222   6.726  0.3602 -0.7835 -0.5467
 7454SOL    HW233999   4.671   3.120   6.834  0.5719  0.0584  1.6775
 7455SOL     OW34000   2.871   0.001  15.724 -0.2162  0.1061 -0.2547
 7455SOL    HW134001   2.879   4.652  15.679 -2.0111 -1.1763  1.8107
 7455SOL    HW234002   2.962   0.018  15.750 -0.1745  1.1791 -1.1317
 7456SOL     OW34003   2.632   1.046   8.790 -0.3387 -0.1854 -0.2472
 7456SOL    HW134004   2.582   1.030   8.710 -1.8546 -1.4043  0.9454
 7456SOL    HW234005   2.719   1.011   8.769 -1.5032 -3.0225 -0.2747
 7457SOL     OW34006   0.083   4.556   2.093 -0.7903  0.5193  0.2932
 7457SOL    HW134007   0.157   4.501   2.067  0.1619  2.6808 -1.5929
 7457SOL    HW234008   0.119   4.640   2.064  3.2038 -1.9785 -1.9969
 7458SOL     OW34009   1.239   2.697   2.882 -0.0628 -0.4155 -0.1161
 7458SOL    HW134010   1.238   2.656   2.795  1.2706  2.3423 -1.4396
 7458SOL    HW234011   1.198   2.783   2.866  2.1495  0.7081  0.3436
 7459SOL     OW34012   1.473   0.902   4.793  0.2991 -0.0687 -0.1176
 7459SOL    HW134013   1.489   0.993   4.819  0.9291  0.0140 -0.7740
 7459SOL    HW234014   1.473   0.915   4.698  1.9338 -0.6437 -0.1980
 7460SOL     OW34015   4.385   4.093  16.327  0.0471  0.1358  0.1014
 7460SOL    HW134016   4.374   4.063  16.417  1.8815 -0.9103 -0.0237
 7460SOL    HW234017   4.341   4.025  16.276  2.6699 -1.7125  0.3014
 7461SOL     OW34018   0.880   3.162  15.244  0.3122  0.5799  0.2877
 7461SOL    HW134019   0.927   3.084  15.272  1.1533  1.2855  0.8643
 7461SOL    HW234020   0.914   3.229  15.304  0.1765  2.0730 -1.2942
 7462SOL     OW34021   0.781   2.542   0.304 -0.0788 -0.3134  0.2973
 7462SOL    HW134022   0.793   2.633   0.275 -0.0568  0.5715  3.0749
 7462SOL    HW234023   0.856   2.524   0.360 -0.1420 -2.2744 -0.2370
 7463SOL     OW34024   1.242   2.753   6.035 -0.0531 -0.4850  0.0846
 7463SOL    HW134025   1.328   2.770   5.996  0.8540 -0.1973  2.1848
 7463SOL    HW234026   1.236   2.818   6.105 -0.6707 -1.7090  1.1769
 7464SOL     OW34027   1.666   1.673   2.562  0.4101 -0.4755  0.1434
 7464SOL    HW134028   1.739   1.651   2.619  0.4995 -0.8929 -0.1384
 7464SOL    HW234029   1.594   1.618   2.591  0.7674 -0.5740  0.8207
 7465SOL     OW34030   1.291   1.491   8.904 -0.2095  0.4242  0.4850
 7465SOL    HW134031   1.297   1.420   8.840  2.5038 -1.9794  3.4489
 7465SOL    HW234032   1.272   1.442   8.984 -0.3919  0.0926  0.2436
 7466SOL     OW34033   0.422   3.362   6.452 -0.3127 -0.2902  0.0504
 7466SOL    HW134034   0.351   3.305   6.480 -1.3153 -0.2034 -2.3461
 7466SOL    HW234035   0.470   3.296   6.402 -0.5896  0.2712 -0.9368
 7467SOL     OW34036   2.248   2.307   6.216 -0.0329  0.0114 -0.1444
 7467SOL    HW134037   2.314   2.308   6.286 -0.3320 -1.6337  0.1815
 7467SOL    HW234038   2.200   2.381   6.253  1.3772  1.7240 -1.7735
 7468SOL     OW34039   1.443   4.574   5.262  0.5700 -0.3172  0.1497
 7468SOL    HW134040   1.359   4.538   5.234  1.8563 -1.5672 -2.0984
 7468SOL    HW234041   1.483   4.490   5.282  0.0779 -0.7511 -0.7158
 7469SOL     OW34042   3.248   4.518   7.257  0.5643  0.1950  0.1170
 7469SOL    HW134043   3.231   4.608   7.284 -2.1608 -0.2188 -0.1625
 7469SOL    HW234044   3.177   4.469   7.300 -0.0024  1.5717  0.7639
 7470SOL     OW34045   3.847   1.765   4.946 -0.4064  0.4906  0.0914
 7470SOL    HW134046   3.800   1.711   5.010  0.9450 -1.6179 -0.6854
 7470SOL    HW234047   3.923   1.791   4.998 -0.7533 -0.5979  1.1528
 7471SOL     OW34048   2.168   4.314  10.045 -0.0913  0.7236 -0.0677
 7471SOL    HW134049   2.128   4.285   9.963 -1.8616  2.7640  0.0647
 7471SOL    HW234050   2.257   4.284  10.025  0.5436  2.6782 -0.2650
 7472SOL     OW34051   1.463   3.754   7.435 -0.5195  0.2142 -0.5103
 7472SOL    HW134052   1.374   3.784   7.414 -0.8070 -0.8032 -0.7599
 7472SOL    HW234053   1.492   3.786   7.520 -0.6472 -4.2098  1.2000
 7473SOL     OW34054   4.193   3.291   4.553  0.2721  0.1060  0.5495
 7473SOL    HW134055   4.288   3.301   4.545  0.2058  0.5632  0.3195
 7473SOL    HW234056   4.158   3.378   4.534  1.6433  0.0741 -2.1919
 7474SOL     OW34057   2.738   0.106  15.372  0.0521 -0.0489 -0.3109
 7474SOL    HW134058   2.709   0.086  15.283 -1.8442 -0.7388  0.4729
 7474SOL    HW234059   2.670   0.167  15.400  2.1899  1.6674  1.1227
 7475SOL     OW34060   1.208   1.978  16.632 -0.0573 -0.4163 -0.0898
 7475SOL    HW134061   1.276   1.973  16.565  0.1596  1.3862 -0.0147
 7475SOL    HW234062   1.155   2.049  16.596  0.8344  0.3422  0.0578
 7476SOL     OW34063   0.996   0.265   6.936  0.5595 -0.0121 -0.2278
 7476SOL    HW134064   1.028   0.174   6.930 -0.7843 -0.4650 -0.3936
 7476SOL    HW234065   0.961   0.263   7.026  2.2952  0.3098  0.4576
 7477SOL     OW34066   2.166   1.000   3.174 -0.0354  0.1953 -0.4554
 7477SOL    HW134067   2.118   1.071   3.215  0.2266  0.9127 -1.3985
 7477SOL    HW234068   2.097   0.937   3.155  2.1414 -1.5811 -2.4177
 7478SOL     OW34069   1.747   3.295   2.271 -0.4108 -0.3444  0.6830
 7478SOL    HW134070   1.833   3.257   2.288 -0.2225 -0.0991  0.2881
 7478SOL    HW234071   1.773   3.379   2.232 -2.9669  2.0794  4.2262
 7479SOL     OW34072   2.747   2.143  17.666 -0.4879 -0.4680  0.3212
 7479SOL    HW134073   2.716   2.231  17.648 -0.7248 -1.1646 -2.7035
 7479SOL    HW234074   2.659   2.111  17.683 -0.0792 -1.4080  0.7282
 7480SOL     OW34075   3.450   2.240   2.464 -0.1883  0.9071  0.2842
 7480SOL    HW134076   3.430   2.309   2.528 -0.7248  2.3675 -1.4441
 7480SOL    HW234077   3.528   2.207   2.508 -2.0269 -0.4796  2.5342
 7481SOL     OW34078   2.058   4.029   2.255  0.1356 -0.9071  0.6230
 7481SOL    HW134079   2.144   3.992   2.274 -0.5368 -2.6413  0.2991
 7481SOL    HW234080   2.067   4.040   2.160 -2.0017 -0.5397  0.4691
 7482SOL     OW34081   4.391   0.351   2.218  0.1197 -0.1536  0.7032
 7482SOL    HW134082   4.455   0.391   2.159 -0.4014  1.3629  1.1596
 7482SOL    HW234083   4.393   0.257   2.202 -0.0449  0.2556 -1.7888
 7483SOL     OW34084   3.366   3.896   9.833 -0.0935  0.1905 -0.2298
 7483SOL    HW134085   3.462   3.898   9.838 -0.0260 -0.9732 -1.0847
 7483SOL    HW234086   3.363   3.802   9.816  1.0732  0.4297 -1.7722
 7484SOL     OW34087   1.568   0.786  13.333  0.3082  0.2701  0.2885
 7484SOL    HW134088   1.602   0.809  13.419 -0.3534  0.4089  0.5152
 7484SOL    HW234089   1.577   0.691  13.344 -0.2154 -0.0388 -1.8778
 7485SOL     OW34090   3.575   1.691   2.573 -0.1581  0.0801 -0.3460
 7485SOL    HW134091   3.605   1.725   2.657  1.8326  0.2741 -1.1478
 7485SOL    HW234092   3.493   1.646   2.597  0.8442 -0.9206  1.1653
 7486SOL     OW34093   3.027   3.893  14.659 -0.5843 -0.8622  0.5236
 7486SOL    HW134094   3.116   3.921  14.682 -0.7836  0.8745 -0.7929
 7486SOL    HW234095   3.020   3.928  14.570  0.2191  1.4974  1.3984
 7487SOL     OW34096   0.897   2.707   4.531  0.0563 -0.0128 -0.0990
 7487SOL    HW134097   0.963   2.720   4.600 -0.7726  1.1423  0.4805
 7487SOL    HW234098   0.944   2.682   4.452 -0.5741  0.9514 -0.7812
 7488SOL     OW34099   3.086   2.067  12.487 -0.4497  0.5840  0.3659
 7488SOL    HW134100   3.121   1.990  12.533  1.7312  1.1520 -0.3167
 7488SOL    HW234101   3.018   2.022  12.437  0.4267 -3.3597  2.6737
 7489SOL     OW34102   3.673   2.425   4.435 -0.3435 -0.3675  0.0480
 7489SOL    HW134103   3.767   2.410   4.424 -0.5369  0.2780 -2.4203
 7489SOL    HW234104   3.654   2.497   4.375 -0.4705 -2.2805 -2.2052
 7490SOL     OW34105   3.179   1.314   8.086  0.3292 -0.1824 -0.7170
 7490SOL    HW134106   3.137   1.349   8.008 -3.0909 -0.8539  0.8018
 7490SOL    HW234107   3.259   1.275   8.050  0.0696 -1.5781  0.2065
 7491SOL     OW34108   0.537   1.576   8.777 -0.5633  0.7397 -1.1208
 7491SOL    HW134109   0.515   1.497   8.828  1.8468  1.7783  1.5435
 7491SOL    HW234110   0.519   1.641   8.845  0.8912  0.9798 -0.9678
 7492SOL     OW34111   3.266   2.498  15.871  0.1345  0.6040 -0.8257
 7492SOL    HW134112   3.209   2.521  15.798  1.8833 -1.5756 -2.9030
 7492SOL    HW234113   3.318   2.428  15.832 -0.8937  0.2764 -1.6011
 7493SOL     OW34114   4.672   1.545   8.357  0.3231 -0.2800  0.0582
 7493SOL    HW134115   4.732   1.610   8.321  0.6990 -1.5927 -1.6387
 7493SOL    HW234116   4.609   1.593   8.411 -0.8773 -2.6173  0.7232
 7494SOL     OW34117   4.309   2.956  12.276 -0.0823  0.6987  0.0100
 7494SOL    HW134118   4.349   2.985  12.359  1.1163  1.4857 -0.8381
 7494SOL    HW234119   4.374   2.893  12.245 -0.7772 -0.7640  1.5066
 7495SOL     OW34120   1.494   2.516   8.002  0.5174 -0.0969 -0.5011
 7495SOL    HW134121   1.479   2.459   7.927  1.9873 -0.9809 -0.1246
 7495SOL    HW234122   1.494   2.455   8.076 -1.1294  0.0457 -0.3997
 7496SOL     OW34123   0.228   0.397   4.397  0.3976  0.4581 -0.0028
 7496SOL    HW134124   0.166   0.470   4.406  3.5740  2.6565  3.7943
 7496SOL    HW234125   0.306   0.427   4.443  2.0106  0.0229 -2.4966
 7497SOL     OW34126   0.671   4.173  16.147  0.5071 -0.0786  0.0165
 7497SOL    HW134127   0.729   4.224  16.090 -1.4865  0.1390 -1.7779
 7497SOL    HW234128   0.593   4.226  16.160 -0.5472 -1.5151 -0.4256
 7498SOL     OW34129   4.577   2.396   8.739  0.2497  0.4340 -0.2290
 7498SOL    HW134130   4.601   2.466   8.679 -0.3792  0.4758 -0.4387
 7498SOL    HW234131   4.549   2.325   8.681 -0.4893  0.3968  0.1752
 7499SOL     OW34132   4.298   3.533   7.642  0.1369 -0.4616 -0.2762
 7499SOL    HW134133   4.265   3.560   7.556  2.1388  0.2187 -0.8355
 7499SOL    HW234134   4.294   3.439   7.625 -0.8713 -0.4449 -0.1478
 7500SOL     OW34135   3.148   2.978   6.614  0.1871 -0.0774  0.0151
 7500SOL    HW134136   3.177   3.008   6.528 -0.5518 -0.2258 -0.2795
 7500SOL    HW234137   3.056   2.953   6.604  0.9356 -3.6576  1.8131
 7501SOL     OW34138   1.200   0.785   7.472 -0.2426  0.4201  0.5276
 7501SOL    HW134139   1.247   0.867   7.457  0.6310 -0.1762  0.0081
 7501SOL    HW234140   1.136   0.819   7.534 -0.1589  0.3472  0.6545
 7502SOL     OW34141   3.623   2.203  13.466  0.8115  0.7379 -0.2532
 7502SOL    HW134142   3.646   2.258  13.391 -1.2157 -0.6847 -1.9109
 7502SOL    HW234143   3.554   2.263  13.496 -1.3663 -0.6314 -2.5507
 7503SOL     OW34144   2.832   3.663   4.482 -0.0161  0.2186 -0.2412
 7503SOL    HW134145   2.824   3.573   4.514  0.8005  0.4105  0.4946
 7503SOL    HW234146   2.863   3.697   4.565 -0.0506  0.1380 -0.1949
 7504SOL     OW34147   3.535   2.026   1.186  0.0271  0.5164 -0.0869
 7504SOL    HW134148   3.524   1.932   1.173 -0.1154  0.5612 -0.3021
 7504SOL    HW234149   3.526   2.045   1.092 -2.3643 -0.9326 -0.1415
 7505SOL     OW34150   3.547   0.245   3.534 -0.2340 -0.0792  0.1866
 7505SOL    HW134151   3.521   0.287   3.452  1.1294  1.2309  0.4209
 7505SOL    HW234152   3.599   0.314   3.577 -1.5146  1.1356 -0.2178
 7506SOL     OW34153   2.315   0.502   8.766 -0.3999  0.1584  0.3694
 7506SOL    HW134154   2.231   0.493   8.811  1.0565 -3.3601  2.4055
 7506SOL    HW234155   2.365   0.560   8.823  0.7332 -1.0721  0.6222
 7507SOL     OW34156   2.409   0.667  10.928 -0.6775  0.2140  0.4668
 7507SOL    HW134157   2.320   0.699  10.942 -0.6995  0.4043 -0.0929
 7507SOL    HW234158   2.383   0.614  10.852 -1.0646  3.2174 -1.4998
 7508SOL     OW34159   4.198   0.762   7.415  0.1622  0.2987 -0.0822
 7508SOL    HW134160   4.172   0.795   7.501 -5.7267  1.4194 -2.2701
 7508SOL    HW234161   4.282   0.727   7.443 -0.5938 -1.7601 -0.3507
 7509SOL     OW34162   3.399   0.290  12.384 -0.5724 -0.3187 -0.4991
 7509SOL    HW134163   3.372   0.223  12.322  1.5457 -0.3404 -1.3906
 7509SOL    HW234164   3.397   0.248  12.470 -2.7756 -0.9610 -0.8585
 7510SOL     OW34165   1.155   2.598   1.940  0.1721  0.3180  0.5781
 7510SOL    HW134166   1.167   2.635   1.853 -1.7948 -1.3390 -0.4011
 7510SOL    HW234167   1.193   2.511   1.927  0.8172  0.7870 -0.6539
 7511SOL     OW34168   1.710   2.243   6.684 -0.8896 -0.0783 -0.4275
 7511SOL    HW134169   1.664   2.187   6.621 -0.0531  0.1042 -1.1966
 7511SOL    HW234170   1.782   2.276   6.631 -1.0797 -0.0009 -0.6385
 7512SOL     OW34171   3.762   0.943  17.243 -0.3709 -0.1611 -0.5561
 7512SOL    HW134172   3.689   0.889  17.213 -0.1210 -0.9800  0.2784
 7512SOL    HW234173   3.763   1.011  17.176 -0.5027  0.2491 -0.1339
 7513SOL     OW34174   2.594   1.837   4.001  0.2970 -0.1871  0.0618
 7513SOL    HW134175   2.548   1.897   4.059  0.9211  0.4563 -0.1149
 7513SOL    HW234176   2.566   1.869   3.916  1.6552 -1.7245 -0.9646
 7514SOL     OW34177   4.179   2.257  16.608 -0.2934  0.0706  0.5337
 7514SOL    HW134178   4.158   2.318  16.679  0.0944  0.8218  0.0079
 7514SOL    HW234179   4.240   2.196  16.651  0.5850 -0.4910 -1.5016
 7515SOL     OW34180   2.562   1.590   4.463  0.5588 -0.7545 -0.4069
 7515SOL    HW134181   2.651   1.609   4.492  0.8091 -1.3196 -0.8138
 7515SOL    HW234182   2.517   1.578   4.546 -0.1930 -0.3905 -0.7589
 7516SOL     OW34183   0.128   2.413   3.028  0.1027  0.0423  0.0502
 7516SOL    HW134184   0.217   2.380   3.025  0.3485  0.6079  1.3060
 7516SOL    HW234185   0.112   2.405   2.934 -0.7592  0.8908  0.1174
 7517SOL     OW34186   0.066   0.284   6.100 -0.0294 -0.2286 -0.1437
 7517SOL    HW134187   0.096   0.233   6.175 -0.3781 -0.2098  0.0092
 7517SOL    HW234188   0.045   0.369   6.138  0.1843  0.1476 -0.8737
 7518SOL     OW34189   2.076   4.177   5.643 -0.0161  0.5990 -0.0661
 7518SOL    HW134190   2.043   4.249   5.697  0.8207 -0.5477  1.9445
 7518SOL    HW234191   2.167   4.207   5.634 -0.4150  1.7508 -0.3540
 7519SOL     OW34192   1.150   0.171   8.384 -0.3648  0.2723  0.8719
 7519SOL    HW134193   1.204   0.093   8.371  1.0883  1.3740  0.2388
 7519SOL    HW234194   1.200   0.208   8.456 -1.9904  1.0338  1.6012
 7520SOL     OW34195   2.886   0.307  16.931 -0.7579  0.3741 -0.7684
 7520SOL    HW134196   2.975   0.326  16.900 -0.7591  1.0154 -0.3808
 7520SOL    HW234197   2.850   0.385  16.888 -1.3546  0.5586  0.0773
 7521SOL     OW34198   2.106   1.291   5.487  0.1785 -0.0562  0.2083
 7521SOL    HW134199   2.105   1.364   5.425 -1.2465  0.2137  0.5438
 7521SOL    HW234200   2.014   1.291   5.513  0.1624  1.8467  0.1445
 7522SOL     OW34201   0.779   3.022   2.116  0.3572  0.1472  0.0710
 7522SOL    HW134202   0.777   2.949   2.055  2.8709  0.5376 -0.4405
 7522SOL    HW234203   0.870   3.047   2.107  0.2728  0.2397 -0.5204
 7523SOL     OW34204   2.118   4.342  10.680  0.0614  0.5413 -0.1845
 7523SOL    HW134205   2.046   4.298  10.635  1.6026 -1.7225 -0.4293
 7523SOL    HW234206   2.138   4.414  10.621  3.0203  1.3870  1.8731
 7524SOL     OW34207   3.679   3.006   4.120 -0.0884  0.0470 -0.4883
 7524SOL    HW134208   3.630   2.959   4.052 -1.7170  1.3487 -0.1915
 7524SOL    HW234209   3.771   2.989   4.096  0.1059  1.7383 -0.9036
 7525SOL     OW34210   3.400   3.428  12.744  0.1857  0.7897  0.1973
 7525SOL    HW134211   3.348   3.402  12.669 -0.2485 -0.0913  0.8089
 7525SOL    HW234212   3.339   3.454  12.812  2.8572 -0.2434  3.0021
 7526SOL     OW34213   2.773   1.989   9.180  0.1458  0.5228  0.1583
 7526SOL    HW134214   2.827   1.948   9.247  0.1572 -1.2562 -0.9133
 7526SOL    HW234215   2.695   1.933   9.179  1.7757 -1.7391  0.3947
 7527SOL     OW34216   3.162   3.813   5.631 -0.5949 -0.3267  0.0602
 7527SOL    HW134217   3.182   3.723   5.608 -1.1295 -0.6991  1.0728
 7527SOL    HW234218   3.243   3.857   5.604 -0.9843  0.1547 -0.3324
 7528SOL     OW34219   0.785   3.604  16.519  0.3965  0.3484 -0.3649
 7528SOL    HW134220   0.736   3.686  16.509  0.0387  0.1210 -0.4866
 7528SOL    HW234221   0.875   3.633  16.501  1.1480 -1.9373 -0.3177
 7529SOL     OW34222   4.447   0.877   8.493 -0.1053 -0.1097  0.5578
 7529SOL    HW134223   4.436   0.957   8.442  3.1066 -0.1863 -0.2616
 7529SOL    HW234224   4.536   0.890   8.525 -0.0707 -0.9115  0.7954
 7530SOL     OW34225   4.127   4.480   8.622 -0.1638 -0.2399 -0.0101
 7530SOL    HW134226   4.103   4.388   8.632 -1.4819  0.1642  0.5985
 7530SOL    HW234227   4.075   4.505   8.546  1.9231  1.6108 -0.8358
 7531SOL     OW34228   1.148   3.604   7.419  0.3655 -0.8737  0.4071
 7531SOL    HW134229   1.108   3.668   7.479  2.1092  1.1118 -0.5267
 7531SOL    HW234230   1.068   3.552   7.413 -0.7308  0.9108 -0.6352
 7532SOL     OW34231   3.511   2.582  14.113  0.4166  0.0361 -0.5310
 7532SOL    HW134232   3.436   2.613  14.061 -1.9465 -0.4668  2.5769
 7532SOL    HW234233   3.550   2.662  14.147 -1.8894  0.5909  0.8341
 7533SOL     OW34234   1.203   4.582  15.909 -0.1940 -0.1120  0.2134
 7533SOL    HW134235   1.256   4.661  15.900  0.6553 -0.6170  0.7599
 7533SOL    HW234236   1.206   4.589  16.004  0.2907 -0.4343  0.2191
 7534SOL     OW34237   0.150   2.505   1.905  0.5369  0.1022 -0.1277
 7534SOL    HW134238   0.056   2.514   1.893  0.3147 -1.9858  0.1754
 7534SOL    HW234239   0.180   2.591   1.936  0.3485 -0.2216  0.9136
 7535SOL     OW34240   2.245   1.584  11.817 -0.2644 -0.2508  0.2804
 7535SOL    HW134241   2.283   1.588  11.729  0.9170  1.0992  0.8438
 7535SOL    HW234242   2.268   1.497  11.851  3.4131  0.5807 -0.0303
 7536SOL     OW34243   0.866   3.276   8.707 -0.2297 -0.3335 -0.2713
 7536SOL    HW134244   0.787   3.313   8.744  1.2732 -0.6736  3.2848
 7536SOL    HW234245   0.928   3.282   8.780  0.4350 -0.6740 -0.8005
 7537SOL     OW34246   4.616   1.287   3.150  0.2271 -0.1473 -0.1700
 7537SOL    HW134247   4.532   1.333   3.154 -0.5122 -1.3399 -2.3213
 7537SOL    HW234248   4.635   1.282   3.057 -0.3330  0.5910 -0.3239
 7538SOL     OW34249   0.096   3.149   6.393  0.4966  0.3285 -0.1316
 7538SOL    HW134250   0.165   3.144   6.459  0.2524 -0.0973  0.0930
 7538SOL    HW234251   0.033   3.206   6.436  1.0469  0.4577  0.4998
 7539SOL     OW34252   1.857   3.692   6.603 -0.1868  0.1567  0.0202
 7539SOL    HW134253   1.859   3.626   6.672  0.7334  0.3944  0.2178
 7539SOL    HW234254   1.952   3.695   6.588 -0.2872  1.0004 -0.4613
 7540SOL     OW34255   1.155   3.367   9.248 -0.1872 -0.2162 -0.5213
 7540SOL    HW134256   1.216   3.422   9.298  1.0448 -0.0967 -2.1360
 7540SOL    HW234257   1.212   3.331   9.180  1.2212  2.1170 -0.5779
 7541SOL     OW34258   0.039   3.379   3.891 -0.2953 -0.3844 -0.0985
 7541SOL    HW134259   4.722   3.308   3.854  1.8662 -0.9992 -1.9611
 7541SOL    HW234260   4.728   3.455   3.855  1.4965  0.7020 -0.0834
 7542SOL     OW34261   1.685   0.280   7.132 -0.1022  0.2437  0.2209
 7542SOL    HW134262   1.610   0.334   7.157  0.0004  0.4908 -0.0154
 7542SOL    HW234263   1.652   0.190   7.137 -1.4310  0.7634  0.9074
 7543SOL     OW34264   2.840   3.049   7.163 -0.4612 -0.1478 -0.6057
 7543SOL    HW134265   2.909   2.989   7.192 -0.6264  0.3003  0.7240
 7543SOL    HW234266   2.794   2.991   7.102  1.8502 -1.4784 -1.0787
 7544SOL     OW34267   3.267   3.228   3.111 -0.0982 -0.2545  0.0418
 7544SOL    HW134268   3.262   3.180   3.028 -0.1595  3.2055 -1.9524
 7544SOL    HW234269   3.276   3.164   3.182 -5.0924 -1.9391 -0.8130
 7545SOL     OW34270   3.399   3.909   5.561  0.4901  0.0250 -0.4641
 7545SOL    HW134271   3.426   3.833   5.509 -0.9493 -0.9623  0.2296
 7545SOL    HW234272   3.467   3.971   5.537  1.7561 -1.4820 -0.8048
 7546SOL     OW34273   2.546   3.986   3.280 -0.5246  0.4091 -0.3201
 7546SOL    HW134274   2.632   3.949   3.295 -1.1294  0.3983  3.0451
 7546SOL    HW234275   2.497   3.951   3.355  0.4741 -1.4282 -0.5215
 7547SOL     OW34276   2.099   0.007   9.367 -0.2006 -0.4564  0.5755
 7547SOL    HW134277   2.189   0.037   9.359 -1.4968  3.1775 -0.1752
 7547SOL    HW234278   2.089   4.717   9.459 -1.6661  2.0318  1.0593
 7548SOL     OW34279   4.533   2.944   5.783 -0.1987  0.3421  0.3096
 7548SOL    HW134280   4.576   2.972   5.863 -2.2799  1.1337  1.1669
 7548SOL    HW234281   4.457   2.905   5.825 -1.0113  0.5604 -0.9346
 7549SOL     OW34282   4.462   0.329  14.949  0.1780  0.5845  0.0520
 7549SOL    HW134283   4.540   0.337  15.004  2.3918  1.5153 -3.2261
 7549SOL    HW234284   4.467   0.234  14.941  2.1038  0.7713 -0.8918
 7550SOL     OW34285   3.165   3.207   6.773  0.1953 -0.1942  0.2931
 7550SOL    HW134286   3.196   3.135   6.718 -0.3509 -0.7967  0.7550
 7550SOL    HW234287   3.174   3.169   6.861 -0.4768  0.1568  0.5150
 7551SOL     OW34288   1.863   3.268   0.771  0.3400 -0.0351 -0.0040
 7551SOL    HW134289   1.863   3.173   0.760  1.5520 -0.0083 -0.2569
 7551SOL    HW234290   1.951   3.290   0.801 -0.4690  1.9518  0.9398
 7552SOL     OW34291   0.080   2.327   7.465  0.2605  0.0926  0.3554
 7552SOL    HW134292   0.091   2.232   7.460  0.5459  0.2188 -1.3961
 7552SOL    HW234293   0.165   2.363   7.442  0.6847 -0.3653  1.2103
 7553SOL     OW34294   1.326   0.904   9.891 -0.4140  0.4178 -0.0514
 7553SOL    HW134295   1.383   0.955   9.834 -2.0478  1.4591 -0.7132
 7553SOL    HW234296   1.391   0.865   9.950 -0.1483 -2.9902 -2.6012
 7554SOL     OW34297   1.309   4.373   8.438 -0.1435  0.5858 -0.3642
 7554SOL    HW134298   1.234   4.314   8.428 -0.2621  1.1345 -2.7535
 7554SOL    HW234299   1.351   4.358   8.353  1.8695  2.1578  0.3371
 7555SOL     OW34300   0.605   1.937   2.448  0.5306  0.5128  0.0873
 7555SOL    HW134301   0.595   1.846   2.475  0.5221  0.2362 -0.8523
 7555SOL    HW234302   0.587   1.987   2.528 -1.2652  0.7227 -0.4391
 7556SOL     OW34303   3.447   4.398   5.870 -0.5828 -0.4771 -0.2108
 7556SOL    HW134304   3.501   4.477   5.877 -0.7866 -0.3376 -0.2235
 7556SOL    HW234305   3.361   4.422   5.903 -1.7942 -3.3262 -1.3178
 7557SOL     OW34306   2.631   3.326  13.171 -0.2188 -0.3881  0.0783
 7557SOL    HW134307   2.681   3.365  13.100  1.1304  1.1192  1.8654
 7557SOL    HW234308   2.704   3.274  13.203 -0.7333 -1.1122  0.0786
 7558SOL     OW34309   4.335   3.744   5.082 -0.1810 -0.3208  0.1076
 7558SOL    HW134310   4.315   3.651   5.067 -0.4253 -0.1601 -0.5846
 7558SOL    HW234311   4.326   3.770   4.990 -1.0685 -1.2806 -0.0716
 7559SOL     OW34312   2.027   2.856  10.768 -0.2790  0.0746  0.1632
 7559SOL    HW134313   1.999   2.813  10.687 -0.7387 -0.4333  0.5918
 7559SOL    HW234314   2.116   2.827  10.786 -0.1565 -1.1342 -2.4042
 7560SOL     OW34315   1.401   4.217   6.096 -0.9203 -0.2277 -0.1193
 7560SOL    HW134316   1.453   4.259   6.165 -0.2767  0.8103 -1.2313
 7560SOL    HW234317   1.461   4.224   6.022  0.0576 -2.6508  0.4416
 7561SOL     OW34318   0.811   1.081  13.426  0.0621  0.0018  0.1935
 7561SOL    HW134319   0.753   1.134  13.481  0.7624  2.0958 -1.1020
 7561SOL    HW234320   0.770   0.996  13.409  0.5231  0.1367 -1.6602
 7562SOL     OW34321   4.094   2.052  10.137 -0.0187 -0.3008  0.0283
 7562SOL    HW134322   4.132   2.049  10.049 -0.2868  0.5332 -0.1202
 7562SOL    HW234323   4.031   2.121  10.114  1.2552  0.3893 -1.3468
 7563SOL     OW34324   4.481   1.657  17.391  0.1475 -0.0951  0.6337
 7563SOL    HW134325   4.563   1.700  17.366  0.9161 -1.1315  1.3628
 7563SOL    HW234326   4.452   1.624  17.306  3.6160 -0.4839 -0.4058
 7564SOL     OW34327   1.292   0.395   6.013 -0.0698  0.2747  0.4373
 7564SOL    HW134328   1.376   0.354   5.995  0.4528  1.5978 -0.1963
 7564SOL    HW234329   1.307   0.419   6.104  1.0431  1.1356  0.0285
 7565SOL     OW34330   0.012   1.509   2.741  0.0109  0.4805  0.2322
 7565SOL    HW134331   0.088   1.567   2.736  0.4471 -0.1563 -0.4758
 7565SOL    HW234332   4.700   1.551   2.813  2.2250  0.9124  1.4238
 7566SOL     OW34333   0.156   2.042   5.209 -0.4449  0.0631  0.1772
 7566SOL    HW134334   0.104   2.089   5.143  1.0326  1.4297 -0.0123
 7566SOL    HW234335   0.218   2.109   5.238  0.3815 -0.2681 -0.8133
 7567SOL     OW34336   3.867   0.438   4.168 -0.6996 -0.4054 -0.6053
 7567SOL    HW134337   3.860   0.415   4.261 -1.6531  0.0190 -0.5627
 7567SOL    HW234338   3.934   0.376   4.142  0.3942  0.4732  0.1411
 7568SOL     OW34339   1.529   1.196   4.790 -0.4032  0.1603  0.2599
 7568SOL    HW134340   1.556   1.286   4.774 -1.2150  0.6468  1.5816
 7568SOL    HW234341   1.461   1.211   4.856  1.0404  1.2717  1.4712
 7569SOL     OW34342   2.433   4.186   8.989 -0.1863 -0.3047  0.4760
 7569SOL    HW134343   2.371   4.249   9.025  0.4297 -0.0163  1.0489
 7569SOL    HW234344   2.387   4.157   8.911  0.1142 -0.2404  0.2761
 7570SOL     OW34345   0.963   4.305   8.563  0.2212 -0.5510 -0.3693
 7570SOL    HW134346   0.906   4.375   8.531  0.1302  0.0028  1.0002
 7570SOL    HW234347   0.896   4.256   8.609  0.2799 -0.0946  0.2047
 7571SOL     OW34348   4.156   1.248   3.888 -0.5058 -0.1592  0.3326
 7571SOL    HW134349   4.144   1.272   3.980 -1.7897 -1.6620  0.5489
 7571SOL    HW234350   4.224   1.181   3.889  0.4925  0.8311 -0.8334
 7572SOL     OW34351   3.971   1.957   9.584 -0.2650  0.0087 -0.0606
 7572SOL    HW134352   3.922   1.876   9.597  0.5294 -0.1381  1.9741
 7572SOL    HW234353   3.908   2.028   9.576 -1.4898 -1.2678 -1.8396
 7573SOL     OW34354   1.251   2.246   5.186  0.9072  0.2672  0.5287
 7573SOL    HW134355   1.188   2.176   5.202  1.7906 -0.1842  1.9958
 7573SOL    HW234356   1.332   2.195   5.184  0.5165 -0.3216 -0.6188
 7574SOL     OW34357   2.082   0.616   3.835 -0.0753  0.3126  0.1984
 7574SOL    HW134358   1.998   0.591   3.873 -0.3563 -2.3708 -2.1499
 7574SOL    HW234359   2.107   0.691   3.889  1.5678 -0.1567  0.0855
 7575SOL     OW34360   2.880   4.134   3.681  0.5836  0.3629 -0.2429
 7575SOL    HW134361   2.830   4.053   3.670  1.4613 -0.2524  0.3372
 7575SOL    HW234362   2.928   4.103   3.757 -0.1934  0.0656  0.1250
 7576SOL     OW34363   3.466   4.125  12.251  0.2694 -0.0979 -0.2976
 7576SOL    HW134364   3.554   4.162  12.252  0.3522 -0.2837 -1.6333
 7576SOL    HW234365   3.432   4.171  12.174 -0.7349 -1.3337 -0.5996
 7577SOL     OW34366   1.641   4.453   2.050  0.1694  0.3196 -0.7318
 7577SOL    HW134367   1.697   4.417   2.119 -0.3002 -1.1074 -1.0936
 7577SOL    HW234368   1.550   4.455   2.080 -0.3247  3.3254 -2.4415
 7578SOL     OW34369   3.050   4.260   4.296  0.0762 -0.3884 -0.9757
 7578SOL    HW134370   3.004   4.331   4.251  0.2072 -1.0673 -2.1835
 7578SOL    HW234371   2.981   4.194   4.296 -1.1860  0.9231  1.9359
 7579SOL     OW34372   4.547   0.057   1.327  0.3125 -0.5397 -0.0374
 7579SOL    HW134373   4.521   0.141   1.289  2.2461  0.2850  0.4364
 7579SOL    HW234374   4.593   0.086   1.406  1.5567 -0.6809 -0.7066
 7580SOL     OW34375   2.300   0.816   6.915  0.4898  0.8406 -0.2671
 7580SOL    HW134376   2.231   0.770   6.963  0.1903  1.0295 -0.5136
 7580SOL    HW234377   2.303   0.770   6.831 -0.4479  1.2158 -0.5065
 7581SOL     OW34378   1.395   2.720  15.249 -0.1891  0.3905 -0.0243
 7581SOL    HW134379   1.429   2.710  15.338  1.4786  2.2919 -0.4431
 7581SOL    HW234380   1.465   2.735  15.186  1.0486 -2.1865  0.7269
 7582SOL     OW34381   3.844   3.635   5.747  0.1299  0.2994  0.4325
 7582SOL    HW134382   3.826   3.549   5.785 -1.9099 -0.3308 -1.9212
 7582SOL    HW234383   3.768   3.689   5.770 -0.4572 -1.4861  2.6907
 7583SOL     OW34384   3.993   3.421  10.091 -0.2363  0.7300 -0.2260
 7583SOL    HW134385   3.952   3.343  10.127 -0.1405  0.9293  0.3227
 7583SOL    HW234386   4.012   3.475  10.168  0.5203 -2.2975  1.7013
 7584SOL     OW34387   4.699   3.641   7.551  0.5875 -0.2373  0.0918
 7584SOL    HW134388   4.711   3.713   7.489  0.8005 -1.4389 -1.2652
 7584SOL    HW234389   4.715   3.568   7.492 -0.6240 -0.4045 -0.0245
 7585SOL     OW34390   1.774   3.327   1.885  0.0026  0.0649  0.4048
 7585SOL    HW134391   1.794   3.416   1.855 -0.1931  0.1190  0.4387
 7585SOL    HW234392   1.859   3.283   1.880  1.3184  2.7641 -1.1440
 7586SOL     OW34393   3.166   3.291   2.316 -0.0735  0.4320 -0.2114
 7586SOL    HW134394   3.072   3.307   2.323  0.1576  0.9431  1.5952
 7586SOL    HW234395   3.210   3.366   2.356  0.0895 -0.1497  0.7079
 7587SOL     OW34396   2.930   3.935   4.139  0.0388 -0.2495  0.1282
 7587SOL    HW134397   3.001   3.936   4.203 -0.4918  1.4446  0.6756
 7587SOL    HW234398   2.855   3.922   4.197  0.5067  1.1264  1.0055
 7588SOL     OW34399   0.181   0.264  16.608 -0.7604  0.7887  0.1000
 7588SOL    HW134400   0.170   0.184  16.659 -0.6902  0.3452 -0.5891
 7588SOL    HW234401   0.250   0.309  16.657 -0.0999  1.0325 -1.0391
 7589SOL     OW34402   0.920   3.980  13.060 -0.5318 -0.3977  0.3816
 7589SOL    HW134403   0.837   3.945  13.092 -1.8176  1.5133 -0.8334
 7589SOL    HW234404   0.959   4.011  13.141  0.4753  2.0000 -1.0231
 7590SOL     OW34405   3.980   0.602   8.137 -0.1368 -0.3692  0.0001
 7590SOL    HW134406   3.980   0.646   8.222  0.6442  0.9930 -0.6970
 7590SOL    HW234407   4.030   0.665   8.085  0.4415  0.4246  1.5230
 7591SOL     OW34408   1.186   3.331  13.271  0.1242 -0.4645  0.6380
 7591SOL    HW134409   1.125   3.258  13.264 -1.8539  1.3832 -1.4116
 7591SOL    HW234410   1.147   3.398  13.214  0.6995 -0.3189  0.4077
 7592SOL     OW34411   1.521   3.820  14.516 -0.0965  0.2904  0.7539
 7592SOL    HW134412   1.451   3.882  14.535 -0.7428  1.0800 -4.1280
 7592SOL    HW234413   1.467   3.747  14.485  0.1267 -0.1719  1.4503
 7593SOL     OW34414   2.626   0.222   5.323  0.1986  0.1551  0.4867
 7593SOL    HW134415   2.626   0.285   5.396  2.9426 -1.2037  1.6537
 7593SOL    HW234416   2.690   0.251   5.258 -2.0087  2.0318 -0.8499
 7594SOL     OW34417   0.054   1.787   5.786  0.0863  0.1925  0.0587
 7594SOL    HW134418   0.003   1.821   5.712  1.5234 -0.9987 -1.4772
 7594SOL    HW234419   0.141   1.794   5.747  0.2288 -3.1581 -0.2401
 7595SOL     OW34420   4.659   3.432   8.052  0.9787  0.5576 -0.2760
 7595SOL    HW134421   0.018   3.414   8.049  0.7773 -0.3993 -0.7651
 7595SOL    HW234422   4.635   3.449   7.961 -0.2767  0.0940 -0.0425
 7596SOL     OW34423   1.813   3.803   3.500 -0.5764 -0.2853  0.0003
 7596SOL    HW134424   1.879   3.786   3.433 -1.3776 -0.3725 -0.7790
 7596SOL    HW234425   1.781   3.716   3.522  0.0881 -0.6141 -0.3431
 7597SOL     OW34426   0.781   1.766   6.226  0.2688 -0.8166 -0.1602
 7597SOL    HW134427   0.852   1.815   6.267 -1.2578 -0.3047  1.8850
 7597SOL    HW234428   0.788   1.793   6.135 -1.4537 -2.2416 -0.7233
 7598SOL     OW34429   3.407   4.291   4.707  0.5600  0.5429 -0.4476
 7598SOL    HW134430   3.326   4.246   4.730  1.6188 -0.7782  0.7802
 7598SOL    HW234431   3.443   4.238   4.636  1.0414 -0.8435  0.8133
 7599SOL     OW34432   3.913   4.422  11.658  0.5159  0.3524 -0.3385
 7599SOL    HW134433   3.853   4.361  11.702  0.7337 -0.8772 -1.7571
 7599SOL    HW234434   3.999   4.380  11.667 -0.6371 -1.8582  0.3212
 7600SOL     OW34435   1.258   3.380   8.958  0.0639 -0.2209  0.0916
 7600SOL    HW134436   1.334   3.434   8.933 -0.0988  0.5278  1.2110
 7600SOL    HW234437   1.197   3.405   8.888  0.6844 -0.5336 -0.5713
 7601SOL     OW34438   3.332   1.236   5.857 -0.2913 -0.1694  1.0577
 7601SOL    HW134439   3.264   1.301   5.873 -0.8719 -0.5708  0.1391
 7601SOL    HW234440   3.359   1.230   5.949  2.4422  0.2845  0.2961
 7602SOL     OW34441   0.970   1.018   6.148 -0.6252 -0.1186 -0.3682
 7602SOL    HW134442   0.925   1.070   6.082 -0.5914 -1.4299 -1.4176
 7602SOL    HW234443   1.049   1.067   6.171 -0.8982  0.6921 -1.1631
 7603SOL     OW34444   3.579   2.132   6.087 -0.2345 -0.1814  0.0179
 7603SOL    HW134445   3.656   2.076   6.079 -0.4374 -0.6432  1.2668
 7603SOL    HW234446   3.584   2.180   6.004 -2.5656 -1.2388 -0.7252
 7604SOL     OW34447   1.255   4.483   6.196  0.6109 -0.7589 -0.0059
 7604SOL    HW134448   1.235   4.436   6.277 -2.2712  0.8500  0.2156
 7604SOL    HW234449   1.175   4.535   6.198  1.7006  0.9023  0.5919
 7605SOL     OW34450   1.457   4.519   9.099 -0.0366 -0.3537  0.3501
 7605SOL    HW134451   1.450   4.478   9.013 -2.2113  2.0877 -0.6379
 7605SOL    HW234452   1.423   4.603   9.067  2.4540  0.8561  0.8602
 7606SOL     OW34453   1.037   0.988   5.587 -0.0689  0.2813 -0.2170
 7606SOL    HW134454   1.014   0.992   5.680  0.6866 -1.6117  0.0600
 7606SOL    HW234455   1.117   0.935   5.582  0.2231  0.9415 -2.2472
 7607SOL     OW34456   1.046   2.821  13.228  0.0436 -0.4520  0.1228
 7607SOL    HW134457   1.078   2.840  13.140 -1.6152  2.1773  0.1050
 7607SOL    HW234458   0.982   2.891  13.237  0.0354 -0.0172 -3.5712
 7608SOL     OW34459   3.359   2.540   8.242  0.0443 -0.1101 -0.0437
 7608SOL    HW134460   3.380   2.562   8.152  1.1119  0.3539  0.3173
 7608SOL    HW234461   3.438   2.488   8.259  0.5478  0.7734  0.3560
 7609SOL     OW34462   3.180   2.238  12.690 -0.2623 -0.2911 -0.4751
 7609SOL    HW134463   3.109   2.302  12.689 -1.4195 -1.5473  0.1053
 7609SOL    HW234464   3.161   2.172  12.624 -0.1342 -2.8326  1.9913
 7610SOL     OW34465   0.636   0.714   5.724 -0.4175  0.0449  0.4303
 7610SOL    HW134466   0.649   0.790   5.667 -0.6446 -0.9930 -1.0133
 7610SOL    HW234467   0.700   0.651   5.690 -0.4807  0.1352  0.1462
 7611SOL     OW34468   4.636   0.358   4.503  0.5149  0.4391 -0.0369
 7611SOL    HW134469   4.681   0.369   4.587 -1.3694  1.3514  0.8526
 7611SOL    HW234470   4.658   0.440   4.459  2.7722  0.5623  1.3342
 7612SOL     OW34471   1.250   3.941   3.133  0.3670 -0.0518  0.1163
 7612SOL    HW134472   1.169   3.977   3.096 -0.1576  1.0157  2.3281
 7612SOL    HW234473   1.225   3.851   3.153  0.0463  0.2889  1.2609
 7613SOL     OW34474   0.806   1.810  12.057  0.1439  0.0382  0.3196
 7613SOL    HW134475   0.788   1.904  12.058  1.7732  0.3372  1.9698
 7613SOL    HW234476   0.898   1.801  12.081  0.2658  0.9972  0.2045
 7614SOL     OW34477   4.605   3.919  11.339 -0.5221 -0.1459 -0.0493
 7614SOL    HW134478   4.541   3.980  11.302 -0.5786  0.4731  1.0706
 7614SOL    HW234479   4.684   3.974  11.335 -1.1870  0.6137 -2.8008
 7615SOL     OW34480   1.407   2.210  14.816 -0.4808 -0.1750 -0.0992
 7615SOL    HW134481   1.404   2.167  14.901 -2.5643 -2.8021 -1.4944
 7615SOL    HW234482   1.341   2.165  14.763 -1.7979  1.7365 -0.0955
 7616SOL     OW34483   1.584   1.624   7.852 -0.2372 -0.4806  0.7465
 7616SOL    HW134484   1.544   1.620   7.939 -3.2033 -2.2790 -0.7220
 7616SOL    HW234485   1.524   1.664   7.789 -0.5136 -0.7725  0.8247
 7617SOL     OW34486   0.846   2.114  13.609  0.2517  0.1724  0.2335
 7617SOL    HW134487   0.873   2.032  13.568 -0.6964 -0.0815  0.1025
 7617SOL    HW234488   0.886   2.096  13.693  0.3706 -0.4770  0.0378
 7618SOL     OW34489   1.448   4.358   3.161  0.2950 -0.4132  0.0395
 7618SOL    HW134490   1.513   4.292   3.136  0.4250 -0.8666  1.5928
 7618SOL    HW234491   1.489   4.380   3.245  2.4632 -1.1496 -0.8193
 7619SOL     OW34492   3.900   4.440   4.401 -0.1477 -0.0878 -0.1550
 7619SOL    HW134493   3.945   4.445   4.485 -1.7550 -1.9578  0.8282
 7619SOL    HW234494   3.827   4.503   4.403 -0.1833 -0.1309 -0.0683
 7620SOL     OW34495   1.478   1.233   0.755 -0.9991  0.6215 -0.1665
 7620SOL    HW134496   1.499   1.172   0.827 -0.2448 -0.8275 -1.6140
 7620SOL    HW234497   1.464   1.180   0.677  0.1297 -1.8592  1.2923
 7621SOL     OW34498   3.822   3.499   6.342  0.2342  1.0261 -0.6329
 7621SOL    HW134499   3.739   3.452   6.340  0.4547  0.5456  1.8006
 7621SOL    HW234500   3.808   3.539   6.428  0.9580 -0.1421  0.0325
 7622SOL     OW34501   2.742   2.213   7.121 -0.1138  0.1830 -0.2167
 7622SOL    HW134502   2.731   2.158   7.199 -1.6708 -0.6290 -1.0139
 7622SOL    HW234503   2.651   2.233   7.101  0.1457  1.6583  0.0553
 7623SOL     OW34504   1.519   4.351   6.330 -0.4764 -0.4663 -0.1474
 7623SOL    HW134505   1.435   4.398   6.331  0.2688  0.8638 -0.2215
 7623SOL    HW234506   1.497   4.292   6.402 -0.0537 -1.2014 -0.6258
 7624SOL     OW34507   2.906   3.703   6.152  0.3715 -0.5498  0.2548
 7624SOL    HW134508   2.989   3.676   6.112 -0.2519 -0.3679 -1.1299
 7624SOL    HW234509   2.916   3.653   6.233 -0.2501 -0.3188  0.4684
 7625SOL     OW34510   2.702   2.537   6.742  0.3709  0.2982  0.0380
 7625SOL    HW134511   2.682   2.444   6.748 -0.4962  0.5686  1.5119
 7625SOL    HW234512   2.641   2.559   6.672 -1.7546 -2.7748  0.9503
 7626SOL     OW34513   2.497   0.705   6.140  0.3300  0.0455  0.6237
 7626SOL    HW134514   2.503   0.623   6.090  0.2491 -1.2159  2.6725
 7626SOL    HW234515   2.588   0.701   6.170  0.0317 -0.6412  1.4519
 7627SOL     OW34516   1.886   0.019   4.195 -0.2893 -0.4215  0.2481
 7627SOL    HW134517   1.964   0.052   4.152  0.1419 -0.3496  1.0700
 7627SOL    HW234518   1.921   4.669   4.225 -0.3115 -1.3407 -2.2958
 7628SOL     OW34519   4.650   1.902  14.018 -0.2716  0.3695  0.4439
 7628SOL    HW134520   4.562   1.940  14.011 -0.5828 -0.6762 -1.2234
 7628SOL    HW234521   4.699   1.969  13.971 -2.2231  2.2672  1.0938
 7629SOL     OW34522   1.280   0.377   1.212  0.1810 -0.0978 -0.1794
 7629SOL    HW134523   1.312   0.287   1.215  0.1537 -0.0995  0.0689
 7629SOL    HW234524   1.187   0.363   1.233  0.6794 -2.3281  0.4798
 7630SOL     OW34525   4.030   0.843   8.794  0.3080  0.1847 -0.0589
 7630SOL    HW134526   4.033   0.903   8.868  1.6593 -0.7698  0.6571
 7630SOL    HW234527   3.987   0.898   8.729  0.4083 -0.4605 -0.6779
 7631SOL     OW34528   2.713   4.577   7.422  0.2278  0.0319  0.0362
 7631SOL    HW134529   2.808   4.582   7.437 -0.0770  0.9776  1.7531
 7631SOL    HW234530   2.703   4.601   7.330  1.0377 -2.0581 -0.5974
 7632SOL     OW34531   3.179   0.674  15.072  0.8267 -0.1718 -0.1165
 7632SOL    HW134532   3.146   0.605  15.129  1.6255  0.8668  1.6082
 7632SOL    HW234533   3.165   0.645  14.981  0.6119 -0.0774 -0.1139
 7633SOL     OW34534   4.598   4.516   7.873  0.2713  0.3771  0.6499
 7633SOL    HW134535   4.599   4.420   7.870 -0.0650  0.4254 -1.0137
 7633SOL    HW234536   4.544   4.534   7.796  0.9329 -0.1779  0.0632
 7634SOL     OW34537   0.487   3.973   1.751 -0.5962 -0.0551  0.7237
 7634SOL    HW134538   0.467   3.983   1.844 -0.7936  0.8071  0.5938
 7634SOL    HW234539   0.561   4.034   1.746  0.6742 -1.6062  0.4093
 7635SOL     OW34540   3.290   3.337   1.758 -0.2539  0.2483 -0.2234
 7635SOL    HW134541   3.224   3.324   1.826 -0.3201 -0.1698 -0.3638
 7635SOL    HW234542   3.307   3.430   1.769 -0.7725  0.2224  0.7723
 7636SOL     OW34543   0.086   4.022   1.861 -0.0830 -0.1206  0.1999
 7636SOL    HW134544   0.092   4.115   1.838 -1.6067 -0.1898 -0.4975
 7636SOL    HW234545   0.051   4.029   1.950 -0.4853  2.3398 -0.1364
 7637SOL     OW34546   3.436   3.177   7.017  0.4172  0.1526 -0.3709
 7637SOL    HW134547   3.413   3.238   7.087  0.3771  0.4311 -0.6295
 7637SOL    HW234548   3.450   3.235   6.942  2.1107  1.8652  1.2576
 7638SOL     OW34549   0.859   2.523   5.539 -0.3126 -0.8440  0.0137
 7638SOL    HW134550   0.772   2.484   5.535 -1.4711  1.8449 -1.4012
 7638SOL    HW234551   0.877   2.505   5.631 -0.4765 -1.4415 -0.0721
 7639SOL     OW34552   4.163   1.555   7.381 -0.2291 -0.4515  0.4480
 7639SOL    HW134553   4.126   1.636   7.416 -1.9647 -1.8680  1.8253
 7639SOL    HW234554   4.150   1.496   7.455 -2.4640 -1.5351 -0.8220
 7640SOL     OW34555   4.079   0.222  13.637 -0.1386  0.5277  0.6721
 7640SOL    HW134556   4.069   0.221  13.542 -2.5460  0.7625  0.9144
 7640SOL    HW234557   4.001   0.271  13.663 -0.0379  0.6066  0.8293
 7641SOL     OW34558   2.643   3.429   1.580  0.3508 -0.2186  0.7540
 7641SOL    HW134559   2.678   3.518   1.583  0.0825 -0.1363  1.3564
 7641SOL    HW234560   2.721   3.386   1.546  0.9065  0.8996  0.6045
 7642SOL     OW34561   4.729   2.729  12.014  0.0090  0.2351  0.3573
 7642SOL    HW134562   4.708   2.732  11.921 -1.8930  0.9477  0.8129
 7642SOL    HW234563   0.048   2.809  12.018  0.5279 -0.2196  2.3108
 7643SOL     OW34564   1.796   1.642   8.257 -0.2650 -0.3298  0.2149
 7643SOL    HW134565   1.853   1.654   8.182 -2.3634  0.8975 -1.1891
 7643SOL    HW234566   1.862   1.651   8.326  1.3094  0.6403 -1.4204
 7644SOL     OW34567   4.600   3.375  12.905 -0.7416  0.0258 -0.2329
 7644SOL    HW134568   4.647   3.446  12.949  2.2862 -2.4219  0.4152
 7644SOL    HW234569   4.580   3.409  12.818 -0.8918  1.3124  0.2945
 7645SOL     OW34570   2.681   0.617   5.731  0.0817  0.2132 -0.2853
 7645SOL    HW134571   2.760   0.608   5.784 -0.8990 -1.3444  0.9263
 7645SOL    HW234572   2.645   0.694   5.774  1.8737 -0.4184  2.3042
 7646SOL     OW34573   3.495   4.521   6.839 -0.4066  0.2112 -0.3541
 7646SOL    HW134574   3.537   4.606   6.848 -3.4497  1.4016  2.2365
 7646SOL    HW234575   3.411   4.532   6.883 -1.0767  1.1611 -1.8636
 7647SOL     OW34576   0.495   0.627   5.419  0.3067  0.7166 -0.4240
 7647SOL    HW134577   0.450   0.677   5.488 -0.9447 -1.1987  0.1716
 7647SOL    HW234578   0.567   0.594   5.473  1.5215  1.7186 -1.4623
 7648SOL     OW34579   2.417   2.141   8.794  0.3006  0.1634 -0.3964
 7648SOL    HW134580   2.486   2.198   8.761 -0.5492  0.0653 -2.3454
 7648SOL    HW234581   2.471   2.073   8.834 -0.1017  0.1593  0.1320
 7649SOL     OW34582   2.377   4.545  14.473  0.1309  0.6897 -0.3799
 7649SOL    HW134583   2.408   4.581  14.556  1.3969  1.1009 -1.0345
 7649SOL    HW234584   2.326   4.469  14.501  3.2793 -1.2743  0.0264
 7650SOL     OW34585   1.056   3.960   6.602  0.2754 -0.1069  0.0482
 7650SOL    HW134586   0.990   3.916   6.548 -0.3506 -0.4429  1.0976
 7650SOL    HW234587   1.098   3.889   6.650 -0.1585  1.5417  2.9012
 7651SOL     OW34588   2.344   1.538  12.180 -0.4478  0.2498  0.1985
 7651SOL    HW134589   2.264   1.591  12.179 -0.4648  0.1948 -1.8308
 7651SOL    HW234590   2.411   1.591  12.222  0.1590  1.1976 -1.9582
 7652SOL     OW34591   0.460   3.551   5.709  0.2437 -0.0663 -0.5400
 7652SOL    HW134592   0.422   3.506   5.785  1.3716  2.0321  1.2626
 7652SOL    HW234593   0.535   3.590   5.752  0.5505 -0.2150 -0.9349
 7653SOL     OW34594   3.576   3.549   5.063  0.4602 -0.1694  0.0074
 7653SOL    HW134595   3.501   3.559   5.005 -1.0262  5.1925  2.8659
 7653SOL    HW234596   3.578   3.457   5.091 -0.2465 -0.5702 -1.2202
 7654SOL     OW34597   0.002   0.916  11.875 -0.4977 -0.3883  0.2402
 7654SOL    HW134598   0.043   0.983  11.930 -0.3236 -1.1072  0.9757
 7654SOL    HW234599   4.643   0.922  11.891 -1.6081 -0.6469 -5.8655
 7655SOL     OW34600   4.085   2.778   9.365  0.2561 -0.0352  0.5527
 7655SOL    HW134601   4.026   2.769   9.290  0.8577 -2.5140  0.3660
 7655SOL    HW234602   4.167   2.734   9.343  1.6767  2.3434  1.1052
 7656SOL     OW34603   4.433   2.479   3.760 -0.7517 -0.0572 -0.0825
 7656SOL    HW134604   4.378   2.454   3.686 -1.9688 -1.2092  1.2055
 7656SOL    HW234605   4.500   2.411   3.756 -0.7691  0.0769 -2.8476
 7657SOL     OW34606   1.613   4.107   5.150  0.5299 -0.2245 -0.3023
 7657SOL    HW134607   1.677   4.044   5.183 -1.4191 -2.7181 -1.2146
 7657SOL    HW234608   1.662   4.159   5.086  1.6998  0.7746  1.4107
 7658SOL     OW34609   4.435   0.532   9.294 -0.3310 -0.7823  0.0034
 7658SOL    HW134610   4.429   0.437   9.303  1.7262 -0.9854 -0.5930
 7658SOL    HW234611   4.493   0.549   9.219  1.0480  1.1390  1.5295
 7659SOL     OW34612   2.966   1.185   7.624  0.8090 -0.2109  0.5535
 7659SOL    HW134613   2.901   1.196   7.554 -0.6419  2.3906  2.3331
 7659SOL    HW234614   2.922   1.122   7.681 -0.4086  0.4254  0.3167
 7660SOL     OW34615   4.475   4.493   4.749  0.6791  0.5830 -0.1605
 7660SOL    HW134616   4.421   4.495   4.828  1.0212  1.2189  0.0586
 7660SOL    HW234617   4.426   4.562   4.703 -1.3813 -0.5258  0.3513
 7661SOL     OW34618   4.486   1.396   1.557 -0.1130  0.3828  0.4935
 7661SOL    HW134619   4.431   1.323   1.530 -1.4462  1.7340 -0.4269
 7661SOL    HW234620   4.424   1.468   1.553  0.0729  0.4629 -0.7635
 7662SOL     OW34621   3.164   3.884  10.401 -0.1277  0.0150 -0.3243
 7662SOL    HW134622   3.152   3.864  10.494 -3.0498  3.7016  0.0703
 7662SOL    HW234623   3.160   3.793  10.371 -1.6399 -0.1303  0.3558
 7663SOL     OW34624   1.487   0.196  11.366  0.0333  0.4272  0.2309
 7663SOL    HW134625   1.508   0.224  11.454  3.3626  2.3565 -1.1903
 7663SOL    HW234626   1.496   0.101  11.378  0.6919  0.2758 -1.3801
 7664SOL     OW34627   2.196   0.702  12.849  0.3296 -0.4048 -0.6362
 7664SOL    HW134628   2.101   0.701  12.857  0.4432 -3.0433  0.7232
 7664SOL    HW234629   2.223   0.729  12.937  0.0411 -1.4991 -0.2033
 7665SOL     OW34630   0.701   1.564   4.401  0.4094  0.1604  0.4033
 7665SOL    HW134631   0.764   1.542   4.333  1.2236  2.9472  0.2381
 7665SOL    HW234632   0.754   1.555   4.480  0.3363  1.1995  0.5785
 7666SOL     OW34633   2.751   1.804   5.904 -0.0327 -0.4038  0.0905
 7666SOL    HW134634   2.657   1.817   5.890  0.3406  1.6169 -0.5275
 7666SOL    HW234635   2.792   1.885   5.875  2.8855 -1.3750  1.5523
 7667SOL     OW34636   2.019   2.665   9.039 -0.0131 -0.1426  0.6198
 7667SOL    HW134637   2.084   2.668   9.109 -0.4342  1.2641  0.9547
 7667SOL    HW234638   1.965   2.587   9.050 -0.1279  0.2498  2.8998
 7668SOL     OW34639   2.305   4.040   7.329  0.1622 -0.2895  0.6703
 7668SOL    HW134640   2.337   4.023   7.418 -1.3471 -3.0368  0.6712
 7668SOL    HW234641   2.257   4.123   7.336 -1.2672 -1.1263  0.7378
 7669SOL     OW34642   1.853   3.632  14.776 -0.0508 -0.2200  0.1140
 7669SOL    HW134643   1.869   3.693  14.705  0.8875 -0.6075 -0.0110
 7669SOL    HW234644   1.760   3.649  14.792  0.0051  0.1473  0.0359
 7670SOL     OW34645   0.237   2.580   8.159  0.1364 -0.1163  0.2801
 7670SOL    HW134646   0.315   2.534   8.127  0.6574  0.3149  0.9393
 7670SOL    HW234647   0.241   2.591   8.254 -0.2976  2.3056  0.0149
 7671SOL     OW34648   2.588   1.687   8.699  0.0673  0.0946  0.4300
 7671SOL    HW134649   2.545   1.622   8.754 -0.1195  0.1730  0.3766
 7671SOL    HW234650   2.677   1.655   8.684  0.5828  1.2151  1.0844
 7672SOL     OW34651   2.532   1.932   4.753 -0.4001 -0.1860 -0.3187
 7672SOL    HW134652   2.480   2.011   4.767  0.0883  0.6793 -3.3908
 7672SOL    HW234653   2.571   1.965   4.672  0.7204  0.2072  0.3958
 7673SOL     OW34654   2.724   1.073   6.979 -0.0383  0.4247 -0.1392
 7673SOL    HW134655   2.632   1.052   6.998 -0.5974  1.9986 -1.0263
 7673SOL    HW234656   2.769   1.048   7.059  1.0577  1.2046 -0.5085
 7674SOL     OW34657   3.333   1.794   0.309 -0.0151 -0.5972  0.1592
 7674SOL    HW134658   3.250   1.841   0.326  1.0772  1.3614  0.0945
 7674SOL    HW234659   3.395   1.863   0.284  0.5559 -0.3347  2.2992
 7675SOL     OW34660   3.116   2.654   9.149  0.1292  0.5932 -0.6573
 7675SOL    HW134661   3.200   2.616   9.123  0.3749 -0.8123  2.2704
 7675SOL    HW234662   3.074   2.669   9.064  2.3067 -1.7160 -2.1377
 7676SOL     OW34663   3.103   1.504  14.425 -0.2550  0.1111  0.0954
 7676SOL    HW134664   3.178   1.562  14.414 -1.4882  1.7447  0.1759
 7676SOL    HW234665   3.030   1.564  14.411 -1.2949 -1.5689 -1.5882
 7677SOL     OW34666   2.078   0.715   9.096 -0.4636 -0.7328 -0.6802
 7677SOL    HW134667   2.031   0.732   9.177 -1.1118  1.1289 -1.4579
 7677SOL    HW234668   2.025   0.757   9.029 -0.9189  0.0269  0.1590
 7678SOL     OW34669   0.874   3.104  14.556 -0.2176 -0.6240 -0.2682
 7678SOL    HW134670   0.901   3.168  14.622 -0.6364 -1.1164  0.3769
 7678SOL    HW234671   0.843   3.039  14.619  1.2551 -1.8346 -0.8115
 7679SOL     OW34672   0.660   2.808  16.739 -0.1751  0.3424 -0.2603
 7679SOL    HW134673   0.705   2.887  16.711  0.8615 -0.3799 -0.6498
 7679SOL    HW234674   0.572   2.839  16.717  0.3177  1.4622 -0.6382
 7680SOL     OW34675   0.927   1.459  14.551 -0.4194 -0.0520  0.6999
 7680SOL    HW134676   0.867   1.527  14.520  1.9881  0.2723 -3.1961
 7680SOL    HW234677   0.939   1.406  14.472 -0.1549 -0.8006  1.2406
 7681SOL     OW34678   3.512   2.500   1.863 -0.0801  0.2209 -0.1594
 7681SOL    HW134679   3.559   2.425   1.897  2.1824  1.8166  0.2467
 7681SOL    HW234680   3.441   2.458   1.814 -0.3268  1.2625 -0.7020
 7682SOL     OW34681   1.442   0.786   2.749  0.3757 -0.4946  0.2876
 7682SOL    HW134682   1.516   0.843   2.769  0.2314  0.0109 -0.6108
 7682SOL    HW234683   1.406   0.814   2.664 -0.5012 -0.8698  0.5277
 7683SOL     OW34684   3.353   1.251   8.632 -0.1420 -0.5981 -0.1220
 7683SOL    HW134685   3.309   1.176   8.591  1.5313 -1.5719 -0.1137
 7683SOL    HW234686   3.347   1.309   8.555 -1.5411 -2.5628 -1.4970
 7684SOL     OW34687   4.423   0.290   6.365  0.0354 -0.4495  0.2105
 7684SOL    HW134688   4.409   0.265   6.273  0.5991  0.0232 -0.0002
 7684SOL    HW234689   4.491   0.235   6.403  1.4034  0.1187 -1.3969
 7685SOL     OW34690   1.680   0.230   6.590 -0.4957 -0.0228  0.3268
 7685SOL    HW134691   1.734   0.307   6.574 -2.5255  1.6581  1.5982
 7685SOL    HW234692   1.702   0.201   6.678  0.2355  2.9911  1.1392
 7686SOL     OW34693   4.471   4.543  10.829 -0.2969 -0.3507  0.2446
 7686SOL    HW134694   4.488   4.610  10.896 -0.3311  0.0799 -0.1804
 7686SOL    HW234695   4.377   4.558  10.825 -0.3981 -0.7312  1.0524
 7687SOL     OW34696   0.231   1.828  15.753  0.2247 -0.2772 -0.2813
 7687SOL    HW134697   0.146   1.851  15.715  0.9599  0.1288 -1.6722
 7687SOL    HW234698   0.228   1.880  15.833 -0.6054  0.1397 -0.5833
 7688SOL     OW34699   1.637   3.696  16.509 -0.6128 -0.4297 -0.3042
 7688SOL    HW134700   1.557   3.742  16.536 -1.9327 -1.6972 -2.0724
 7688SOL    HW234701   1.701   3.767  16.518 -1.0437  0.2813 -3.0529
 7689SOL     OW34702   0.304   1.122   6.585  0.2117 -0.9997  0.4708
 7689SOL    HW134703   0.240   1.051   6.585 -0.5243 -0.3420 -0.5687
 7689SOL    HW234704   0.329   1.130   6.677  1.2373  0.6302  0.0601
 7690SOL     OW34705   2.886   2.352   2.134  0.0826 -0.1009  0.1324
 7690SOL    HW134706   2.877   2.257   2.146 -4.7564  0.4454  0.7649
 7690SOL    HW234707   2.850   2.404   2.206  0.0705  0.6251 -0.4019
 7691SOL     OW34708   1.314   4.313   4.529 -0.1475  0.1127  0.6014
 7691SOL    HW134709   1.223   4.315   4.500 -0.1032 -2.0101  0.2996
 7691SOL    HW234710   1.327   4.220   4.511 -3.4100  0.0340 -1.5134
 7692SOL     OW34711   1.301   1.705   4.691  0.0026  0.3876 -0.0819
 7692SOL    HW134712   1.206   1.714   4.699  0.0766  0.1374  1.0419
 7692SOL    HW234713   1.323   1.687   4.782  0.8432 -3.3424 -0.9917
 7693SOL     OW34714   0.091   4.334   0.175  0.0561 -1.3209  0.0831
 7693SOL    HW134715   0.141   4.327   0.257 -0.8211  0.5848  0.7946
 7693SOL    HW234716   0.106   4.247   0.137 -0.2427 -1.0646 -0.6218
 7694SOL     OW34717   0.906   4.073   4.705  0.3794  0.2647 -0.3415
 7694SOL    HW134718   0.847   4.008   4.666  2.0768 -1.3038 -0.3175
 7694SOL    HW234719   0.903   4.136   4.634 -2.9818  0.9374  0.3689
 7695SOL     OW34720   2.623   4.356   5.172  0.0988 -0.1738  0.0276
 7695SOL    HW134721   2.557   4.419   5.202  0.4010 -0.6924  1.7922
 7695SOL    HW234722   2.677   4.357   5.251  0.1071  2.6001  0.0117
 7696SOL     OW34723   1.803   4.230   2.872 -0.3284 -0.8515  0.0477
 7696SOL    HW134724   1.792   4.324   2.886  0.1087 -0.9547  1.0499
 7696SOL    HW234725   1.748   4.210   2.797  0.7704 -0.6004 -0.8366
 7697SOL     OW34726   3.787   0.069   6.315 -0.4619 -0.0095  0.0435
 7697SOL    HW134727   3.796   4.720   6.270 -1.9449  1.0636 -2.2586
 7697SOL    HW234728   3.876   0.085   6.346 -0.2607 -1.3880  0.1572
 7698SOL     OW34729   2.256   3.687  16.611  0.7665  0.5574  0.3616
 7698SOL    HW134730   2.218   3.660  16.528  0.6067  0.1361  0.5733
 7698SOL    HW234731   2.203   3.647  16.680 -0.0226  1.2232  0.1454
 7699SOL     OW34732   1.052   2.216   4.005 -0.2565  0.0409  0.1162
 7699SOL    HW134733   0.970   2.168   4.001  0.4745 -1.0573 -1.3945
 7699SOL    HW234734   1.025   2.300   3.966  1.7305  0.3252 -0.6273
 7700SOL     OW34735   0.328   2.850   4.308 -0.4787  0.2948  0.3533
 7700SOL    HW134736   0.321   2.818   4.218  0.1390  0.3155  0.2959
 7700SOL    HW234737   0.407   2.801   4.332 -0.5924  1.1097  2.4313
 7701SOL     OW34738   4.013   0.725  13.809  0.2998 -0.0822  0.5471
 7701SOL    HW134739   4.076   0.655  13.829 -0.6945 -0.4789  2.2888
 7701SOL    HW234740   4.024   0.726  13.714  0.3864  0.9740  0.5751
 7702SOL     OW34741   1.898   1.687  13.017  0.1892  0.0260 -0.0848
 7702SOL    HW134742   1.904   1.745  13.093 -1.8607 -0.6097  0.5602
 7702SOL    HW234743   1.964   1.620  13.036  1.4648  0.4720 -2.8692
 7703SOL     OW34744   1.481   2.526   7.263 -0.0428 -0.5278  0.4427
 7703SOL    HW134745   1.557   2.522   7.321 -0.5329  0.0320  1.1222
 7703SOL    HW234746   1.477   2.435   7.234  1.8422 -0.2605 -0.6471
 7704SOL     OW34747   1.399   1.051   5.487  0.3351  0.3518 -0.0021
 7704SOL    HW134748   1.451   1.026   5.410 -2.2407  0.4267 -1.7905
 7704SOL    HW234749   1.414   0.971   5.538  0.8263  0.6155  0.2613
 7705SOL     OW34750   0.550   0.736   9.022 -0.2605  0.2035 -0.2647
 7705SOL    HW134751   0.501   0.790   9.084  0.4609  2.2219 -1.4589
 7705SOL    HW234752   0.489   0.665   9.003 -1.9955  1.9289 -1.1665
 7706SOL     OW34753   1.799   2.148   0.403 -0.6155  0.6694 -0.5172
 7706SOL    HW134754   1.878   2.102   0.428 -0.7158  0.5962 -0.3372
 7706SOL    HW234755   1.732   2.091   0.441 -1.5053  0.4978 -2.3220
 7707SOL     OW34756   0.458   4.248   8.645 -0.0051 -0.0785 -0.8097
 7707SOL    HW134757   0.393   4.191   8.686  3.1621 -0.5834  3.5027
 7707SOL    HW234758   0.446   4.230   8.552  0.6615 -1.4657 -0.6285
 7708SOL     OW34759   1.904   2.956   5.606  0.1256 -0.3753 -0.5098
 7708SOL    HW134760   1.881   3.039   5.647  1.3802  0.2696 -1.1021
 7708SOL    HW234761   1.847   2.954   5.529 -2.4402  0.8016  1.4043
 7709SOL     OW34762   1.091   1.541   9.588 -0.2886 -0.3978  0.1918
 7709SOL    HW134763   1.157   1.605   9.615 -0.7826 -0.2817  1.1201
 7709SOL    HW234764   1.014   1.596   9.576  0.0135 -0.2839 -1.1549
 7710SOL     OW34765   1.707   2.075   6.374  0.1624  0.2265  0.4141
 7710SOL    HW134766   1.625   2.072   6.422 -0.9473 -0.1808 -1.5349
 7710SOL    HW234767   1.767   2.012   6.414  1.9102  1.0645 -0.9017
 7711SOL     OW34768   3.549   3.216  13.099 -1.0007 -0.5626 -0.3035
 7711SOL    HW134769   3.591   3.131  13.110 -0.2137 -0.0469  0.7249
 7711SOL    HW234770   3.508   3.190  13.017  0.4443 -2.2836 -0.4753
 7712SOL     OW34771   1.536   3.383  16.934 -0.4026  0.1512 -0.0247
 7712SOL    HW134772   1.487   3.301  16.925 -0.4068  0.0631  0.7434
 7712SOL    HW234773   1.570   3.380  17.024 -3.3067  1.0139  1.0960
 7713SOL     OW34774   2.355   4.379   2.492  0.7266 -0.3821 -0.0911
 7713SOL    HW134775   2.338   4.473   2.493  0.5689 -0.3800 -2.3919
 7713SOL    HW234776   2.367   4.364   2.398  0.3673 -0.0623 -0.1885
 7714SOL     OW34777   0.487   2.480   1.486  0.1826  0.1544  0.0959
 7714SOL    HW134778   0.544   2.440   1.552 -0.4467  1.0048  1.1404
 7714SOL    HW234779   0.409   2.496   1.538 -0.4840 -1.4737 -0.4163
 7715SOL     OW34780   3.015   3.944  14.392 -0.4891  0.1403  0.1013
 7715SOL    HW134781   3.066   3.865  14.377  0.4870  0.3653  2.2141
 7715SOL    HW234782   2.940   3.928  14.334  1.0921 -1.7801 -1.3922
 7716SOL     OW34783   1.717   0.144  15.051  0.4626  0.3353 -0.0323
 7716SOL    HW134784   1.734   0.089  15.127 -0.1728 -0.3920 -0.4224
 7716SOL    HW234785   1.800   0.150  15.004 -0.5630  1.5794 -1.7061
 7717SOL     OW34786   2.578   1.346   5.388  0.2018  0.0942 -0.0924
 7717SOL    HW134787   2.614   1.431   5.415  0.3646  0.1909 -0.6115
 7717SOL    HW234788   2.649   1.321   5.329  0.8071  0.5855  0.4301
 7718SOL     OW34789   1.334   1.082   2.663  0.8626  0.2166  0.1798
 7718SOL    HW134790   1.333   1.060   2.570 -0.9883  0.0747  0.2341
 7718SOL    HW234791   1.290   1.167   2.669 -0.2077 -0.4283  1.5666
 7719SOL     OW34792   2.159   0.349   7.863 -0.2706 -0.1866 -0.0900
 7719SOL    HW134793   2.150   0.286   7.791 -1.3531 -0.4445  0.2694
 7719SOL    HW234794   2.087   0.410   7.848 -0.7981 -0.1504  2.5511
 7720SOL     OW34795   1.382   0.582   4.083 -0.2179  0.4687  0.0331
 7720SOL    HW134796   1.352   0.631   4.160 -0.5840  0.0378  0.1642
 7720SOL    HW234797   1.473   0.563   4.103  0.2873  2.1334 -0.6736
 7721SOL     OW34798   3.755   0.796   4.903  0.3872  0.0539  0.0342
 7721SOL    HW134799   3.850   0.798   4.890  0.5847  1.0047  1.6419
 7721SOL    HW234800   3.750   0.742   4.981 -0.1342 -0.1885 -0.1636
 7722SOL     OW34801   1.281   1.076   5.945  0.6266 -0.1377 -0.1304
 7722SOL    HW134802   1.311   1.146   6.004  2.3218 -1.5615  0.6994
 7722SOL    HW234803   1.196   1.105   5.914  0.6586  0.8066  0.6653
 7723SOL     OW34804   0.439   3.056   7.010 -0.0707 -0.0461 -0.1110
 7723SOL    HW134805   0.467   3.146   7.025 -1.8589  1.0678 -3.4420
 7723SOL    HW234806   0.343   3.065   7.007 -0.1121 -1.0750 -2.2863
 7724SOL     OW34807   4.195   0.022   7.835  0.1644 -0.0015 -0.1003
 7724SOL    HW134808   4.234   0.099   7.792  0.3602  0.8224  1.5544
 7724SOL    HW234809   4.109   0.024   7.793 -0.1531 -1.3063  0.5060
 7725SOL     OW34810   0.378   2.968   1.969  0.3091 -0.3465  0.1477
 7725SOL    HW134811   0.317   3.042   1.961  0.3800  0.0943  3.5921
 7725SOL    HW234812   0.448   2.999   2.026  2.1529 -0.6024 -1.9674
 7726SOL     OW34813   3.940   0.458   3.577 -0.1330 -0.0635 -0.6142
 7726SOL    HW134814   3.849   0.454   3.607  0.0534  2.5235  0.3043
 7726SOL    HW234815   3.971   0.544   3.603  4.2663 -1.3814 -1.6040
 7727SOL     OW34816   2.921   2.442   9.055  0.2289  0.0782 -0.3771
 7727SOL    HW134817   2.999   2.467   9.006 -1.5044  0.3421 -3.0622
 7727SOL    HW234818   2.939   2.357   9.095 -0.8292  0.6862  1.4078
 7728SOL     OW34819   1.784   1.065  17.361  0.1178 -0.1513 -0.7829
 7728SOL    HW134820   1.784   0.984  17.412 -1.0260  1.5087  1.8664
 7728SOL    HW234821   1.750   1.028  17.280 -0.7363  1.3283 -1.0788
 7729SOL     OW34822   1.282   2.766   7.846  0.0293  0.3513 -0.3549
 7729SOL    HW134823   1.360   2.774   7.791  2.3800 -2.3051  2.5379
 7729SOL    HW234824   1.254   2.675   7.838 -2.0191  1.0151 -0.7260
 7730SOL     OW34825   1.023   2.321  11.540  0.2266 -0.3197  0.6344
 7730SOL    HW134826   0.997   2.255  11.604 -1.0629  0.1562  0.6027
 7730SOL    HW234827   0.973   2.279  11.470 -0.4900 -1.9552  2.1130
 7731SOL     OW34828   0.350   2.475   7.834  0.0834  0.0189  0.7158
 7731SOL    HW134829   0.360   2.567   7.858  1.6045 -0.2797  1.2571
 7731SOL    HW234830   0.398   2.431   7.904  0.3317  0.3926  0.7805
 7732SOL     OW34831   2.261   0.316   1.936  0.0600 -0.0734  0.1375
 7732SOL    HW134832   2.260   0.317   1.840 -4.5319 -2.8307  0.1729
 7732SOL    HW234833   2.327   0.381   1.960  0.4351 -0.2813 -0.3337
 7733SOL     OW34834   2.828   1.974  11.423 -0.3210  0.7628  0.4205
 7733SOL    HW134835   2.860   2.059  11.394  0.4772  0.1427 -0.5558
 7733SOL    HW234836   2.776   1.928  11.357 -0.2073  0.9994  0.1634
 7734SOL     OW34837   0.260   2.884   4.770 -0.3211 -0.2994 -0.1877
 7734SOL    HW134838   0.263   2.910   4.678  1.6550  1.2537  0.3351
 7734SOL    HW234839   0.278   2.963   4.820  0.2236 -0.8854  0.5422
 7735SOL     OW34840   3.903   4.662  12.552  0.3119  0.2333  0.2341
 7735SOL    HW134841   3.849   4.596  12.509 -0.0321  0.4682  0.3109
 7735SOL    HW234842   3.935   4.617  12.631  1.8887 -1.9456 -1.6405
 7736SOL     OW34843   2.158   2.855   2.696 -0.6299 -0.2179 -0.2340
 7736SOL    HW134844   2.151   2.867   2.791 -1.4740 -0.0978 -0.3116
 7736SOL    HW234845   2.181   2.763   2.679 -0.1664  0.2858 -2.3307
 7737SOL     OW34846   0.518   3.145  13.192 -0.0065 -0.0354  0.1534
 7737SOL    HW134847   0.531   3.064  13.240 -0.1383  0.3946  0.9081
 7737SOL    HW234848   0.566   3.208  13.245  1.1439  0.1406 -1.0798
 7738SOL     OW34849   4.592   3.883  10.202  0.8020  0.0328 -0.1655
 7738SOL    HW134850   4.555   3.826  10.136  0.9229 -0.0789 -0.1366
 7738SOL    HW234851   4.510   3.913  10.242  0.4225  0.1903 -1.0641
 7739SOL     OW34852   3.622   2.867   4.443 -0.1561 -0.3482 -0.0608
 7739SOL    HW134853   3.617   2.825   4.358 -1.3059  0.1457 -0.2437
 7739SOL    HW234854   3.674   2.802   4.490  1.3027  0.7939 -0.1053
 7740SOL     OW34855   0.196   1.880   5.464 -0.1841  0.3492  0.2056
 7740SOL    HW134856   0.207   1.924   5.380  0.5095  0.0516  0.1347
 7740SOL    HW234857   0.130   1.938   5.500 -0.7667 -0.0384 -0.2425
 7741SOL     OW34858   0.284   4.649   4.567  0.2421 -0.1266 -0.3373
 7741SOL    HW134859   0.306   4.728   4.517  0.9743 -0.1552 -0.0572
 7741SOL    HW234860   0.218   4.616   4.506  0.2158 -1.6751  0.5424
 7742SOL     OW34861   4.156   0.796  13.215 -0.1559 -0.4075 -0.0075
 7742SOL    HW134862   4.152   0.705  13.242  0.3048 -0.7557 -1.1110
 7742SOL    HW234863   4.245   0.794  13.179  0.1250  1.2430  0.5684
 7743SOL     OW34864   1.945   1.705   3.956 -0.5052 -0.0761  0.1530
 7743SOL    HW134865   1.962   1.649   3.880  2.3957  1.8890 -0.6271
 7743SOL    HW234866   2.016   1.769   3.956 -0.4709 -0.1098  1.4653
 7744SOL     OW34867   0.731   0.353   5.298 -0.1377  0.3733 -0.4177
 7744SOL    HW134868   0.804   0.414   5.303 -0.4965  0.8557 -0.9425
 7744SOL    HW234869   0.770   0.267   5.287  0.8853  1.0417 -2.0152
 7745SOL     OW34870   0.526   3.129   6.256  0.6212 -0.0826 -0.1907
 7745SOL    HW134871   0.534   3.044   6.299 -1.3203  0.8298  1.9483
 7745SOL    HW234872   0.492   3.095   6.174 -3.5852  2.1960  0.5849
 7746SOL     OW34873   2.230   1.975   6.732 -0.1397  0.0837  0.0903
 7746SOL    HW134874   2.200   1.965   6.642 -2.4499  1.5786  0.6855
 7746SOL    HW234875   2.183   2.056   6.751  0.9137  0.7025  0.0577
 7747SOL     OW34876   1.405   3.595   8.924 -0.9293 -0.0571 -0.4150
 7747SOL    HW134877   1.475   3.638   8.972 -0.7367 -0.1997 -0.5685
 7747SOL    HW234878   1.454   3.597   8.842  0.5994 -1.6948  0.4593
 7748SOL     OW34879   3.916   0.602   7.225  0.4548 -0.4895 -0.0346
 7748SOL    HW134880   3.992   0.560   7.266 -0.7329 -3.4383 -0.8079
 7748SOL    HW234881   3.912   0.683   7.274 -1.2923 -1.3517  1.2546
 7749SOL     OW34882   1.962   3.720   3.286  0.4094 -0.0080  0.1357
 7749SOL    HW134883   1.882   3.678   3.254  0.4065  0.9443 -1.0736
 7749SOL    HW234884   2.002   3.746   3.203  0.5761  1.8850  0.8101
 7750SOL     OW34885   0.872   1.707  12.336  0.0282 -0.6870  0.6944
 7750SOL    HW134886   0.913   1.634  12.383  0.1409  0.2845  2.0787
 7750SOL    HW234887   0.946   1.724  12.277 -0.6709  0.4201  0.1467
 7751SOL     OW34888   0.472   0.158   9.449  0.3760 -0.0666  0.1001
 7751SOL    HW134889   0.489   0.128   9.538  0.9924 -0.7821 -0.2580
 7751SOL    HW234890   0.420   0.233   9.479 -0.5956 -0.1202 -1.4426
 7752SOL     OW34891   4.648   4.297   6.738  0.2870 -0.6748  0.0668
 7752SOL    HW134892   4.579   4.343   6.785  0.1370  0.5435 -1.3345
 7752SOL    HW234893   4.702   4.276   6.815 -2.4237  1.3603  2.5260
 7753SOL     OW34894   3.553   3.765   7.532 -0.2991  0.0931 -0.3193
 7753SOL    HW134895   3.501   3.762   7.452  2.4818  0.9627 -2.1528
 7753SOL    HW234896   3.606   3.844   7.518  1.0477 -0.3338  2.3656
 7754SOL     OW34897   2.130   0.885   5.982  1.1840 -0.7942  0.8425
 7754SOL    HW134898   2.035   0.900   5.987  1.4272  2.2790 -3.2812
 7754SOL    HW234899   2.135   0.875   5.887  2.3107  0.2620  0.7940
 7755SOL     OW34900   0.494   0.654   6.423  0.4123 -0.1277 -0.5776
 7755SOL    HW134901   0.508   0.683   6.333  0.9522 -0.1086 -0.4916
 7755SOL    HW234902   0.558   0.710   6.468  1.5835 -2.2208  0.3425
 7756SOL     OW34903   0.834   1.360  16.624 -0.0793  0.0105  0.0310
 7756SOL    HW134904   0.917   1.406  16.613 -0.6880  1.0506 -0.2209
 7756SOL    HW234905   0.778   1.435  16.644 -0.6330  0.4557 -3.2049
 7757SOL     OW34906   2.803   3.935   6.052  0.2620 -0.4396 -0.1229
 7757SOL    HW134907   2.788   3.997   6.123 -1.2019 -1.9857  0.9008
 7757SOL    HW234908   2.822   3.847   6.083  0.0211  0.1824  1.7539
 7758SOL     OW34909   0.186   0.209   4.850 -0.1320  0.3845 -0.0991
 7758SOL    HW134910   0.194   0.213   4.945 -0.5624  0.7929 -0.0815
 7758SOL    HW234911   0.280   0.214   4.832  0.1973  0.4952  1.6354
 7759SOL     OW34912   2.086   2.457   7.721 -0.2287  0.1467 -0.0921
 7759SOL    HW134913   2.000   2.417   7.736 -0.5479  0.4034 -1.2675
 7759SOL    HW234914   2.067   2.543   7.760 -0.6996 -0.5509  1.2449
 7760SOL     OW34915   0.258   4.318   0.366  0.3781  0.4015  0.0650
 7760SOL    HW134916   0.238   4.230   0.396  0.1481 -0.4723 -2.6619
 7760SOL    HW234917   0.323   4.354   0.427 -1.2415  1.2867  1.2821
 7761SOL     OW34918   2.019   3.295   7.940  0.7158 -0.1139 -0.3981
 7761SOL    HW134919   2.103   3.256   7.916 -0.0067  0.2745 -3.6412
 7761SOL    HW234920   2.034   3.383   7.905 -0.1978  0.4247  0.5852
 7762SOL     OW34921   0.071   2.453  12.503 -0.3462  0.5858 -0.5081
 7762SOL    HW134922   0.139   2.451  12.571 -0.4941  2.1379 -0.3004
 7762SOL    HW234923   0.043   2.363  12.488 -0.2338  0.5531 -0.5223
 7763SOL     OW34924   1.254   3.681  16.745 -0.4858  0.2130  0.4206
 7763SOL    HW134925   1.281   3.590  16.737  1.0046  0.7656 -0.7199
 7763SOL    HW234926   1.159   3.674  16.739 -0.3712  0.7951 -2.2206
 7764SOL     OW34927   1.789   1.217   8.809  0.4183 -0.1071  0.0076
 7764SOL    HW134928   1.865   1.275   8.815  1.1965 -1.1177 -0.0193
 7764SOL    HW234929   1.731   1.252   8.877  2.1212  1.2664  0.7554
 7765SOL     OW34930   2.972   1.029   5.307  0.0218  0.6732 -0.0295
 7765SOL    HW134931   2.946   1.056   5.219  0.7469  0.1138 -0.4151
 7765SOL    HW234932   2.890   0.998   5.344 -0.3575  0.7009 -0.8454
 7766SOL     OW34933   2.954   2.639   7.983  0.0737 -0.0402  0.2988
 7766SOL    HW134934   3.017   2.627   8.054  0.2222  1.3075  0.3995
 7766SOL    HW234935   2.882   2.678   8.032  0.1587  0.8809 -0.3061
 7767SOL     OW34936   2.115   1.766   7.686  0.1626  0.1150  0.4707
 7767SOL    HW134937   2.106   1.822   7.763  1.3937  0.0906  0.6370
 7767SOL    HW234938   2.046   1.703   7.707 -1.0756  0.6578 -1.9628
 7768SOL     OW34939   0.162   2.369   6.860  0.3511  0.8406 -0.1918
 7768SOL    HW134940   0.114   2.364   6.943  0.1720 -2.5270 -0.4707
 7768SOL    HW234941   0.231   2.432   6.881  0.2036  0.1558  2.3857
 7769SOL     OW34942   1.481   4.092   7.789  0.5100 -0.3893  0.0572
 7769SOL    HW134943   1.416   4.061   7.851 -0.4117  0.8320 -0.2994
 7769SOL    HW234944   1.505   4.175   7.831  0.7501 -0.3435 -0.1707
 7770SOL     OW34945   1.880   3.404   3.711  0.4018  0.2418  0.1614
 7770SOL    HW134946   1.854   3.313   3.697  2.1162 -0.2252 -0.0212
 7770SOL    HW234947   1.832   3.441   3.637 -1.2715  0.2364  1.2430
 7771SOL     OW34948   3.368   3.087   3.575 -0.4770 -0.0302 -0.0150
 7771SOL    HW134949   3.363   3.175   3.539  2.1592  1.2005  2.5871
 7771SOL    HW234950   3.429   3.100   3.648 -3.2881 -0.0143  2.2992
 7772SOL     OW34951   1.920   2.384  13.464  0.6432  0.0572  0.1832
 7772SOL    HW134952   1.884   2.307  13.419  2.2865  0.2152 -1.3607
 7772SOL    HW234953   1.875   2.379  13.549 -0.5415 -0.5534 -0.4745
 7773SOL     OW34954   0.863   3.461   3.472 -0.2427 -0.3699 -0.6116
 7773SOL    HW134955   0.905   3.504   3.547  1.7085  0.0150 -1.9459
 7773SOL    HW234956   0.843   3.374   3.506  0.5069 -0.7591 -1.1761
 7774SOL     OW34957   2.675   1.038   1.093 -0.3315  0.0452 -0.6679
 7774SOL    HW134958   2.716   1.124   1.082  0.1326 -0.3612 -2.1597
 7774SOL    HW234959   2.753   0.984   1.107  1.9224  3.5928  0.3537
 7775SOL     OW34960   1.538   4.269   7.297 -0.3375  0.5340  0.2414
 7775SOL    HW134961   1.503   4.335   7.237 -0.9499 -0.2541 -0.2723
 7775SOL    HW234962   1.587   4.213   7.236 -0.6439 -0.4698  0.9259
 7776SOL     OW34963   3.676   0.244   2.392 -0.5793  0.3246  0.3383
 7776SOL    HW134964   3.619   0.209   2.324  1.6996  0.4114 -1.6386
 7776SOL    HW234965   3.625   0.268   2.469 -0.6588 -0.6161  0.5869
 7777SOL     OW34966   4.729   3.956   1.215 -0.2155 -0.1383  0.0851
 7777SOL    HW134967   4.665   4.017   1.180 -0.7221 -1.3150 -1.0417
 7777SOL    HW234968   4.710   3.876   1.166  0.5175 -0.9628  1.1426
 7778SOL     OW34969   1.429   0.061   4.506  0.6055 -0.2158  0.5737
 7778SOL    HW134970   1.406   0.009   4.429 -0.1323 -1.3530  1.5727
 7778SOL    HW234971   1.490   4.733   4.544 -0.0649 -0.7960  0.6947
 7779SOL     OW34972   2.823   3.362   4.233  0.4010 -0.6157 -0.2572
 7779SOL    HW134973   2.860   3.347   4.320 -2.2072 -3.5367  0.3700
 7779SOL    HW234974   2.857   3.450   4.219 -2.5713  0.6234  0.2290
 7780SOL     OW34975   1.104   3.134  10.765  0.0280 -0.7212  0.4716
 7780SOL    HW134976   1.160   3.197  10.721 -0.7643 -0.6883 -0.4876
 7780SOL    HW234977   1.164   3.103  10.833 -1.8458 -1.2270  1.9226
 7781SOL     OW34978   4.438   3.414   4.444  0.0584  0.0112 -0.0948
 7781SOL    HW134979   4.449   3.320   4.433 -1.7737 -0.0633 -1.3252
 7781SOL    HW234980   4.519   3.442   4.401  0.9990  0.9277  2.2944
 7782SOL     OW34981   1.342   0.869   9.033 -0.1865  0.1561 -0.3250
 7782SOL    HW134982   1.304   0.865   9.121 -0.7425 -0.6100 -0.6048
 7782SOL    HW234983   1.412   0.809   9.055  0.3727  0.7709 -0.4116
 7783SOL     OW34984   0.299   1.975   6.845 -0.4732  0.3151 -0.4162
 7783SOL    HW134985   0.325   1.938   6.761  0.8121 -1.8744  0.9412
 7783SOL    HW234986   0.374   2.032   6.865  0.9741 -2.2025  1.2852
 7784SOL     OW34987   3.619   3.007   4.696  0.3191  0.0842  0.7436
 7784SOL    HW134988   3.608   2.947   4.622  2.2497 -0.4650  0.8937
 7784SOL    HW234989   3.554   3.075   4.682  0.1817  0.5863  3.8985
 7785SOL     OW34990   4.732   2.689   8.045  0.4294  1.0140 -0.3791
 7785SOL    HW134991   0.017   2.766   8.098  0.3144  0.8577 -0.1064
 7785SOL    HW234992   0.081   2.651   8.070  0.2213 -0.4868 -1.9661
 7786SOL     OW34993   1.000   2.960   0.260  0.3187 -0.5275  0.2060
 7786SOL    HW134994   1.082   3.002   0.232 -0.7520  1.1124 -0.4942
 7786SOL    HW234995   0.945   3.037   0.274 -1.6572 -1.9112  0.0701
 7787SOL     OW34996   4.054   0.696   9.631  0.0242 -0.1639 -0.2393
 7787SOL    HW134997   3.993   0.676   9.702 -0.7610  0.4813 -0.7390
 7787SOL    HW234998   4.119   0.745   9.680 -0.4450  1.0635 -0.8603
 7788SOL     OW34999   3.034   2.216   4.269 -0.1310 -0.2532 -0.1985
 7788SOL    HW135000   3.033   2.308   4.245 -1.3052 -0.2743 -0.2516
 7788SOL    HW235001   3.117   2.179   4.240 -0.5498 -0.7746 -0.7313
 7789SOL     OW35002   0.705   1.616  15.272  0.6058  0.0489 -0.2629
 7789SOL    HW135003   0.702   1.573  15.187 -0.6390 -0.6572  0.1375
 7789SOL    HW235004   0.745   1.555  15.335 -1.6132 -0.9821  0.1370
 7790SOL     OW35005   2.071   1.338  15.392  0.0323  0.0131 -1.0125
 7790SOL    HW135006   2.122   1.375  15.464 -0.0388 -3.0182  0.5902
 7790SOL    HW235007   2.059   1.249  15.424 -2.6260  0.7381 -0.0242
 7791SOL     OW35008   2.746   3.922   5.795  0.4007  0.1746 -0.6393
 7791SOL    HW135009   2.834   3.916   5.757  0.5292 -0.1255 -0.2970
 7791SOL    HW235010   2.774   3.931   5.886 -0.4977  0.2304 -0.3649
 7792SOL     OW35011   3.118   1.299  14.835 -0.4065  0.4037  0.3169
 7792SOL    HW135012   3.116   1.227  14.772  1.7202 -0.6899  1.4958
 7792SOL    HW235013   3.045   1.347  14.796 -0.4056 -0.2384 -0.4668
 7793SOL     OW35014   1.042   2.502   8.474 -0.2008 -0.3550  0.0750
 7793SOL    HW135015   1.095   2.423   8.462 -0.1242 -0.0278 -1.6929
 7793SOL    HW235016   1.094   2.561   8.420 -0.1578  1.7697  2.4595
 7794SOL     OW35017   3.069   4.683   3.508  0.1472 -0.0130 -0.7399
 7794SOL    HW135018   3.131   4.729   3.564 -0.8386  0.8667 -0.3791
 7794SOL    HW235019   3.123   4.640   3.442 -0.7219 -1.8379 -0.2585
 7795SOL     OW35020   1.908   3.992   6.685 -0.3220  0.4087 -0.1919
 7795SOL    HW135021   1.927   4.050   6.612 -0.5492  1.4145  0.5540
 7795SOL    HW235022   1.882   3.909   6.644 -1.1868  0.5855  0.0128
 7796SOL     OW35023   4.549   3.491   8.972  0.3516 -0.7161 -0.4683
 7796SOL    HW135024   4.514   3.429   8.909  0.3014 -0.4743 -0.6770
 7796SOL    HW235025   4.604   3.545   8.916 -0.9075  1.9273  0.8597
 7797SOL     OW35026   3.669   2.390   5.334  1.0218 -0.6506  0.8280
 7797SOL    HW135027   3.623   2.331   5.275  1.9277  0.9496 -1.5170
 7797SOL    HW235028   3.733   2.428   5.274 -0.2794  0.9089  0.4310
 7798SOL     OW35029   0.626   2.166   4.095  0.3729 -0.1257  0.0775
 7798SOL    HW135030   0.677   2.125   4.025  1.0386 -0.0171  0.4931
 7798SOL    HW235031   0.611   2.247   4.047  1.4982 -1.3250 -2.2990
 7799SOL     OW35032   4.536   4.175   8.277  0.9709  0.1353 -0.0033
 7799SOL    HW135033   4.551   4.095   8.226 -2.8628 -0.4813 -0.1761
 7799SOL    HW235034   4.492   4.233   8.215 -0.8922  0.2023  1.3441
 7800SOL     OW35035   1.218   3.725   9.819  0.5681  0.2229 -0.3500
 7800SOL    HW135036   1.142   3.668   9.826  0.5436  0.4576  1.3942
 7800SOL    HW235037   1.277   3.667   9.771 -1.6702 -1.4950 -1.0208
 7801SOL     OW35038   3.172   1.739   4.517 -0.1702 -0.5513 -0.0376
 7801SOL    HW135039   3.124   1.666   4.557 -0.1829 -1.2066 -1.2350
 7801SOL    HW235040   3.228   1.690   4.456  1.9515  0.4647  1.0771
 7802SOL     OW35041   0.922   0.225   6.658  0.0653  0.1431 -0.1207
 7802SOL    HW135042   0.884   0.298   6.610 -0.6956  0.1990  0.5786
 7802SOL    HW235043   0.890   0.237   6.747 -0.3282 -1.0093 -0.1126
 7803SOL     OW35044   0.569   3.644   4.465 -0.4021 -0.3175  0.6874
 7803SOL    HW135045   0.535   3.655   4.376  2.1014  2.0967  0.0440
 7803SOL    HW235046   0.505   3.587   4.507  1.8424 -1.7738  2.0878
 7804SOL     OW35047   0.890   0.659   4.007  0.0862  0.6173  0.2108
 7804SOL    HW135048   0.941   0.740   4.007  0.1574  0.5725  0.3536
 7804SOL    HW235049   0.954   0.600   4.046  1.1529  1.2476 -0.5939
 7805SOL     OW35050   0.825   3.536   8.169  0.3177  0.1388 -0.5732
 7805SOL    HW135051   0.884   3.482   8.222 -0.4546  0.9943  1.1369
 7805SOL    HW235052   0.860   3.522   8.081 -0.6187  0.0841 -0.9378
 7806SOL     OW35053   3.814   0.815   3.073 -0.5528  0.0175 -0.1622
 7806SOL    HW135054   3.802   0.729   3.113 -2.0744  0.2456 -0.1244
 7806SOL    HW235055   3.885   0.864   3.115  1.1570  0.8554 -3.9587
 7807SOL     OW35056   0.227   3.604   4.705 -0.2362  0.4995  0.0336
 7807SOL    HW135057   0.132   3.600   4.699 -0.2898 -0.5484  1.5385
 7807SOL    HW235058   0.230   3.526   4.760 -0.4076 -1.2278 -2.4191
 7808SOL     OW35059   0.375   2.146  12.646  0.1379 -0.3067 -0.0970
 7808SOL    HW135060   0.458   2.185  12.616 -0.3145 -0.8481 -2.0853
 7808SOL    HW235061   0.321   2.222  12.668  2.1553  1.7636 -2.1581
 7809SOL     OW35062   3.571   4.016   5.128  0.4023 -0.0695 -0.9526
 7809SOL    HW135063   3.516   3.947   5.165  1.2568 -0.3525 -0.2141
 7809SOL    HW235064   3.538   4.011   5.038 -0.1271 -0.7370 -0.7167
 7810SOL     OW35065   3.144   3.591  10.839 -0.4762  0.2635 -0.2275
 7810SOL    HW135066   3.149   3.616  10.931  2.4270 -4.1837  0.7838
 7810SOL    HW235067   3.200   3.514  10.832 -0.2943  0.4776 -1.1658
 7811SOL     OW35068   3.518   2.753   3.219 -0.0688 -0.2876 -0.1534
 7811SOL    HW135069   3.437   2.735   3.267 -0.7978  0.3279 -1.1572
 7811SOL    HW235070   3.481   2.790   3.138 -0.2443 -1.3413 -0.5595
 7812SOL     OW35071   3.301   3.004   3.265  0.3124  0.0886 -0.2639
 7812SOL    HW135072   3.373   2.950   3.233 -0.9218 -1.4182 -0.5042
 7812SOL    HW235073   3.297   2.977   3.357 -0.5295  0.8635 -0.0708
 7813SOL     OW35074   1.256   1.918   0.030 -0.0350 -0.0812 -0.8869
 7813SOL    HW135075   1.315   1.967  17.711  0.4201  1.7611  1.1896
 7813SOL    HW235076   1.313   1.863   0.085 -0.9214  0.4667  0.5887
 7814SOL     OW35077   1.841   4.439   8.537 -0.3124  0.2213 -0.0655
 7814SOL    HW135078   1.831   4.529   8.567  1.5432 -0.7240  3.4292
 7814SOL    HW235079   1.936   4.439   8.542 -0.2813 -0.1624 -0.7660
 7815SOL     OW35080   2.882   2.129   8.182 -0.6736  0.0907  0.3168
 7815SOL    HW135081   2.808   2.148   8.240  1.6218  2.6079  2.4023
 7815SOL    HW235082   2.849   2.124   8.092 -2.5142  0.2638  0.9883
 7816SOL     OW35083   4.298   3.539   8.406  0.4975 -0.1548 -0.1236
 7816SOL    HW135084   4.368   3.571   8.349 -1.6325  0.2518 -2.5170
 7816SOL    HW235085   4.341   3.459   8.435  0.0100 -0.0820  0.7833
 7817SOL     OW35086   4.612   3.743   1.457  0.0808 -0.3185 -0.2158
 7817SOL    HW135087   4.621   3.780   1.545 -0.7199 -2.6208  0.8394
 7817SOL    HW235088   4.693   3.692   1.458 -0.7163 -1.5703  0.6146
 7818SOL     OW35089   0.038   2.745   3.734 -0.0450 -0.4183 -0.6797
 7818SOL    HW135090   0.095   2.754   3.658  0.8671  1.3224  0.2011
 7818SOL    HW235091   0.036   2.650   3.735 -0.6739 -0.3989  0.2582
 7819SOL     OW35092   0.829   1.136   0.154 -0.8595  0.5952 -0.4320
 7819SOL    HW135093   0.776   1.205   0.113 -1.5573  0.2155 -0.1714
 7819SOL    HW235094   0.771   1.119   0.228 -1.7363 -0.6263 -1.3829
 7820SOL     OW35095   4.498   0.866   2.371  0.7780 -0.1538 -0.0114
 7820SOL    HW135096   4.506   0.818   2.288 -1.0339 -3.4946  1.7435
 7820SOL    HW235097   4.430   0.816   2.416  0.9835 -0.9266 -0.5469
 7821SOL     OW35098   2.852   1.477  13.861  0.0208 -0.3215 -0.4324
 7821SOL    HW135099   2.935   1.429  13.854  0.5606  0.4639  0.4691
 7821SOL    HW235100   2.839   1.503  13.770 -0.3359 -1.3837 -0.6785
 7822SOL     OW35101   2.671   1.795   2.530  0.5906  0.0181 -0.4240
 7822SOL    HW135102   2.687   1.707   2.496  1.9968 -0.0500  0.4172
 7822SOL    HW235103   2.734   1.846   2.479 -0.3713  1.0415 -0.5710
 7823SOL     OW35104   1.317   3.117   7.149 -1.1802  0.9583  0.1298
 7823SOL    HW135105   1.261   3.041   7.138 -2.2369  1.2763  3.2291
 7823SOL    HW235106   1.253   3.185   7.129  0.7424  1.9071 -2.7611
 7824SOL     OW35107   1.444   0.605   6.580 -0.2513 -0.0731 -0.1049
 7824SOL    HW135108   1.444   0.659   6.659 -0.8357  0.2410 -0.3205
 7824SOL    HW235109   1.427   0.517   6.614 -1.1498  0.0417 -0.2563
 7825SOL     OW35110   1.131   1.288   0.567  0.5312 -0.2878 -0.0133
 7825SOL    HW135111   1.218   1.318   0.542  0.2039  0.7655  0.1093
 7825SOL    HW235112   1.073   1.336   0.508 -0.5878 -1.2113  0.3290
 7826SOL     OW35113   3.813   2.994   9.459  0.2620  0.0359  0.0986
 7826SOL    HW135114   3.769   3.054   9.399  0.0776  1.4276  1.6223
 7826SOL    HW235115   3.819   3.043   9.541  2.4154  1.9643 -1.2120
 7827SOL     OW35116   4.157   0.593   3.936  0.0928 -0.0871  0.3389
 7827SOL    HW135117   4.145   0.675   3.890 -2.3354  0.5497  2.0968
 7827SOL    HW235118   4.217   0.548   3.877 -1.6184  0.2064 -1.6148
 7828SOL     OW35119   0.318   1.138   8.172 -0.0109  0.2034 -0.4490
 7828SOL    HW135120   0.385   1.156   8.238  0.1769  1.2946 -0.9384
 7828SOL    HW235121   0.330   1.045   8.191 -0.3320  0.6916  2.2419
 7829SOL     OW35122   3.636   3.469  12.911  0.0304 -0.1517 -0.4165
 7829SOL    HW135123   3.601   3.423  12.987  2.2839 -1.2946 -0.0770
 7829SOL    HW235124   3.562   3.465  12.850 -0.0773  0.5840 -0.3396
 7830SOL     OW35125   3.618   3.593   3.402 -0.2056 -0.1449  0.6469
 7830SOL    HW135126   3.625   3.661   3.469 -0.9705  3.7989 -3.3579
 7830SOL    HW235127   3.621   3.515   3.459 -2.8276 -1.1545 -0.5852
 7831SOL     OW35128   3.874   3.431  12.452 -0.0991 -0.5687  0.0389
 7831SOL    HW135129   3.940   3.454  12.516  0.9989  0.3817 -1.4322
 7831SOL    HW235130   3.808   3.402  12.515  0.8091  2.3365  2.3127
 7832SOL     OW35131   4.263   0.440   5.704  0.9514 -0.5102 -0.0677
 7832SOL    HW135132   4.256   0.369   5.640  1.1837  0.5326 -1.2468
 7832SOL    HW235133   4.182   0.419   5.749 -0.0777 -0.1945 -1.7606
 7833SOL     OW35134   1.496   2.639   6.405 -0.0240 -0.1087 -0.5311
 7833SOL    HW135135   1.508   2.584   6.483  1.6768 -1.1197 -1.5364
 7833SOL    HW235136   1.544   2.599   6.333  3.2516  0.9486  1.0646
 7834SOL     OW35137   0.775   2.876   2.992 -0.0944  0.1355 -0.2198
 7834SOL    HW135138   0.833   2.881   3.068  2.2846 -0.0400 -2.0231
 7834SOL    HW235139   0.792   2.783   2.978 -0.2039 -0.0805  1.1085
 7835SOL     OW35140   1.757   4.000  17.261  0.5915 -0.0024 -0.1101
 7835SOL    HW135141   1.764   4.093  17.243 -2.5582  0.3024  0.3319
 7835SOL    HW235142   1.760   4.000  17.357 -0.2420 -2.1999 -0.0716
 7836SOL     OW35143   0.544   3.360   9.257 -0.5522 -0.5960 -0.3723
 7836SOL    HW135144   0.601   3.381   9.331 -0.8780 -1.7958  0.2193
 7836SOL    HW235145   0.453   3.369   9.283 -1.1361 -0.8003 -2.3682
 7837SOL     OW35146   3.514   0.031   2.828  0.8164 -0.1072  0.0237
 7837SOL    HW135147   3.457   4.691   2.808  1.1898 -1.0823  2.5799
 7837SOL    HW235148   3.491   0.053   2.918 -0.2688  1.2197 -0.5750
 7838SOL     OW35149   3.940   3.333   4.332 -0.4498 -0.2601  0.6851
 7838SOL    HW135150   3.896   3.384   4.264  1.7097  1.8263  0.8638
 7838SOL    HW235151   4.003   3.390   4.376  0.1051 -0.3572  0.0233
 7839SOL     OW35152   2.957   1.723  14.348  0.1016  0.0789  0.2214
 7839SOL    HW135153   2.924   1.680  14.270  0.8086  0.1763 -0.1254
 7839SOL    HW235154   2.941   1.814  14.325  0.0643  0.5924  2.2910
 7840SOL     OW35155   1.834   3.925   5.138  0.0462 -0.5168  0.6756
 7840SOL    HW135156   1.831   3.831   5.123 -1.1559 -1.1734  5.0402
 7840SOL    HW235157   1.921   3.952   5.166 -0.7020  1.0862  1.4960
 7841SOL     OW35158   0.483   2.041   4.302  0.3893  0.9928  0.0994
 7841SOL    HW135159   0.541   2.077   4.234 -0.1430  0.6558 -0.5361
 7841SOL    HW235160   0.523   1.954   4.307  1.6114  1.3492 -3.2194
 7842SOL     OW35161   2.077   4.018   5.188  0.6663 -0.4397  0.3892
 7842SOL    HW135162   2.158   4.037   5.141 -1.2659  0.5125 -2.5317
 7842SOL    HW235163   2.042   4.107   5.191  0.8232 -0.3768  0.3645
 7843SOL     OW35164   4.607   2.022   4.251  0.7037  0.3287  0.2917
 7843SOL    HW135165   4.662   2.089   4.209 -0.8820  0.8107 -1.0175
 7843SOL    HW235166   4.545   2.077   4.299 -2.9161 -3.1393 -0.4567
 7844SOL     OW35167   3.312   1.407   4.099 -0.1351  0.0881  0.6967
 7844SOL    HW135168   3.348   1.337   4.154 -0.1585 -0.1444  0.4150
 7844SOL    HW235169   3.230   1.366   4.073  0.8230 -0.8404 -0.8618
 7845SOL     OW35170   3.983   4.175   3.084  0.3604 -0.1405 -0.2721
 7845SOL    HW135171   3.991   4.256   3.133 -0.6232  1.4786 -2.7912
 7845SOL    HW235172   4.021   4.120   3.153 -1.8371  1.7517  2.4203
 7846SOL     OW35173   1.805   1.671   2.117 -0.0551 -0.2922  0.3243
 7846SOL    HW135174   1.855   1.618   2.179  0.8226 -1.4452 -1.3891
 7846SOL    HW235175   1.758   1.729   2.177  2.1052  0.6160  1.1438
 7847SOL     OW35176   3.117   0.292   3.635  0.3511 -0.1981  0.2466
 7847SOL    HW135177   3.068   0.288   3.717 -2.9029  0.8467 -1.6590
 7847SOL    HW235178   3.098   0.383   3.616  2.5634  0.0120 -1.0347
 7848SOL     OW35179   2.163   0.496  14.639 -0.2596  0.1091  0.0304
 7848SOL    HW135180   2.219   0.560  14.681  1.3494 -1.6718  0.5756
 7848SOL    HW235181   2.083   0.543  14.615 -0.6320 -2.1063 -3.1216
 7849SOL     OW35182   2.966   2.065  14.946  0.0236  0.7679 -0.1897
 7849SOL    HW135183   3.042   2.007  14.947 -1.3155 -0.9632  0.1610
 7849SOL    HW235184   2.920   2.045  14.865 -2.4202 -0.0531  1.3904
 7850SOL     OW35185   3.129   1.151   4.927  0.2487 -0.6842 -0.4825
 7850SOL    HW135186   3.121   1.246   4.934  1.3653 -0.6925  0.8912
 7850SOL    HW235187   3.219   1.138   4.956  0.6134  0.9441 -0.8873
 7851SOL     OW35188   3.688   0.978  13.299 -0.0962  0.5236 -0.4145
 7851SOL    HW135189   3.675   0.894  13.255 -3.0752 -0.1533  1.7112
 7851SOL    HW235190   3.783   0.975  13.297 -0.1587  0.9518 -3.3599
 7852SOL     OW35191   3.412   3.114   5.302 -0.3067 -0.2062  0.3040
 7852SOL    HW135192   3.353   3.093   5.230  2.1489  1.3011 -2.1851
 7852SOL    HW235193   3.399   3.051   5.373  2.9055 -1.5672 -0.2862
 7853SOL     OW35194   1.831   0.022   4.915 -0.3828 -0.2747  0.2297
 7853SOL    HW135195   1.762   4.693   4.933 -1.4350  0.6944 -0.3713
 7853SOL    HW235196   1.804   0.047   4.827  1.0396  1.0684  0.1769
 7854SOL     OW35197   4.357   1.844   1.834  0.1666 -0.2143  0.0799
 7854SOL    HW135198   4.386   1.928   1.872  1.1298 -0.9805  1.0316
 7854SOL    HW235199   4.415   1.783   1.879  0.6110  0.2725  0.1655
 7855SOL     OW35200   0.358   1.871   9.033  0.1905  0.3867 -0.0367
 7855SOL    HW135201   0.317   1.903   8.953  0.3177  2.4847  0.7181
 7855SOL    HW235202   0.332   1.779   9.030 -1.2556  0.7435  1.0112
 7856SOL     OW35203   0.493   2.234  13.693  0.5529 -0.5477  0.2730
 7856SOL    HW135204   0.487   2.316  13.644 -3.1242 -1.9600 -1.6472
 7856SOL    HW235205   0.517   2.175  13.621 -0.1872  0.0838 -0.4845
 7857SOL     OW35206   0.134   0.956  17.076 -0.0161 -0.1232  0.0644
 7857SOL    HW135207   0.061   1.015  17.094  0.4233  0.3724  0.2131
 7857SOL    HW235208   0.114   0.876  17.125 -1.5350  0.8161  0.9729
 7858SOL     OW35209   4.247   4.251   3.287 -0.1958 -0.2022 -0.9869
 7858SOL    HW135210   4.188   4.177   3.294 -2.5132  2.0009  2.3381
 7858SOL    HW235211   4.198   4.320   3.242  0.0099  0.6179  0.0514
 7859SOL     OW35212   4.432   0.549  17.501 -0.0532  0.1421 -0.1696
 7859SOL    HW135213   4.365   0.617  17.497 -0.8167 -0.5175  1.6167
 7859SOL    HW235214   4.464   0.548  17.411 -1.7884  1.1476 -0.7926
 7860SOL     OW35215   3.184   0.889   7.700  0.0119 -0.2518 -0.0046
 7860SOL    HW135216   3.148   0.938   7.774 -0.3536  2.0949 -1.7359
 7860SOL    HW235217   3.260   0.846   7.739  1.5414  1.0345 -1.5502
 7861SOL     OW35218   1.363   2.171   3.030 -0.2340  0.1686 -0.3522
 7861SOL    HW135219   1.348   2.205   2.942 -2.2441 -0.0463 -0.0778
 7861SOL    HW235220   1.456   2.149   3.021 -0.4834 -2.3081  3.1842
 7862SOL     OW35221   3.548   4.258   6.803 -0.5968 -0.5761 -0.0454
 7862SOL    HW135222   3.542   4.291   6.714 -1.3550 -0.1632  0.1581
 7862SOL    HW235223   3.528   4.343   6.844 -1.1914 -1.0328  0.6219
 7863SOL     OW35224   2.876   3.128   2.574  0.2832 -0.3061  0.1026
 7863SOL    HW135225   2.796   3.137   2.626 -0.1435  1.4725 -0.8868
 7863SOL    HW235226   2.839   3.093   2.493 -0.9670  1.5820 -0.1381
 7864SOL     OW35227   2.369   3.806   3.783  0.3454  0.0589  0.5488
 7864SOL    HW135228   2.279   3.832   3.802 -0.2882 -1.4117 -0.4966
 7864SOL    HW235229   2.353   3.722   3.741  0.5149  0.0570  0.4878
 7865SOL     OW35230   1.513   4.504   8.226  0.2345  0.6438 -0.1430
 7865SOL    HW135231   1.479   4.447   8.158  0.9433  0.6311 -0.4879
 7865SOL    HW235232   1.565   4.439   8.273 -1.0684 -0.4594 -0.2364
 7866SOL     OW35233   4.406   4.628   0.780  0.2166 -0.9341  0.0753
 7866SOL    HW135234   4.328   4.585   0.747  0.0619  1.0367 -2.1033
 7866SOL    HW235235   4.406   4.584   0.866  1.1104 -0.0432  0.5370
 7867SOL     OW35236   2.049   3.448   5.527 -0.0586 -0.5741 -0.6156
 7867SOL    HW135237   1.985   3.427   5.458  0.0995  1.4039 -1.3768
 7867SOL    HW235238   2.039   3.543   5.529  1.8776 -0.3527 -1.2454
 7868SOL     OW35239   3.830   2.075  13.161 -0.0891  0.5877  0.5925
 7868SOL    HW135240   3.757   2.018  13.184 -0.0831  1.0883  1.8451
 7868SOL    HW235241   3.848   2.086  13.254 -0.4033 -1.7464  0.9228
 7869SOL     OW35242   1.093   3.748   4.121 -0.3615 -0.1190 -0.1520
 7869SOL    HW135243   1.172   3.734   4.174 -0.0876 -0.2499 -0.5996
 7869SOL    HW235244   1.136   3.768   4.039  2.7697 -0.2939  1.4586
 7870SOL     OW35245   1.289   3.464   3.567 -0.3061  0.0129 -0.0033
 7870SOL    HW135246   1.337   3.526   3.622  0.3949  0.4918 -1.1455
 7870SOL    HW235247   1.203   3.489   3.601 -1.3507 -1.5892 -1.4701
 7871SOL     OW35248   3.644   2.538   3.062  0.5028  0.0103 -0.0811
 7871SOL    HW135249   3.604   2.609   3.111 -1.7461 -1.6601  0.4949
 7871SOL    HW235250   3.733   2.546   3.097 -0.2334  1.7859  1.3550
 7872SOL     OW35251   0.069   3.390   2.198 -0.4668  0.0646  0.1081
 7872SOL    HW135252   0.026   3.375   2.281 -0.7730 -0.6549 -0.1751
 7872SOL    HW235253   0.152   3.428   2.227 -0.4857 -0.1953  0.5019
 7873SOL     OW35254   2.415   0.754   8.869  0.4958  0.8330 -0.0694
 7873SOL    HW135255   2.381   0.838   8.839  1.8213  0.6927 -1.9676
 7873SOL    HW235256   2.505   0.749   8.836  0.7516  2.5064  0.3649
 7874SOL     OW35257   0.030   3.253   5.120  0.0920  0.3618 -0.2719
 7874SOL    HW135258   0.067   3.293   5.199  0.7353  0.6384 -0.7113
 7874SOL    HW235259   4.712   3.180   5.154  1.1343  0.1819  0.9612
 7875SOL     OW35260   3.641   1.114  16.271 -0.1027 -0.1604 -0.4320
 7875SOL    HW135261   3.608   1.179  16.209  0.6829  0.3172 -0.3448
 7875SOL    HW235262   3.735   1.121  16.256  0.3244  0.7779  2.7514
 7876SOL     OW35263   3.496   3.973   4.597  0.0319 -0.4789  0.2935
 7876SOL    HW135264   3.487   3.884   4.564  0.7016  0.1224 -1.5485
 7876SOL    HW235265   3.498   4.027   4.518 -2.3632 -2.1967 -0.9300
 7877SOL     OW35266   3.482   1.050  16.487 -0.5882  0.3233  0.1349
 7877SOL    HW135267   3.542   1.051  16.413  1.1074  0.2963  1.5155
 7877SOL    HW235268   3.468   0.957  16.501  0.0554  0.3316  0.8382
 7878SOL     OW35269   1.490   3.348   1.292 -0.2582 -0.4365  0.7307
 7878SOL    HW135270   1.506   3.255   1.309  0.1413 -0.3402  0.8665
 7878SOL    HW235271   1.573   3.390   1.313 -1.4035  1.4435  1.4414
 7879SOL     OW35272   0.184   1.218   9.534 -0.2641  0.0437  0.4404
 7879SOL    HW135273   0.089   1.204   9.538  0.0184 -2.3597 -0.8476
 7879SOL    HW235274   0.221   1.131   9.548  1.1898  0.8791  1.6541
 7880SOL     OW35275   0.970   3.190   5.991  0.0870  0.3982  0.6845
 7880SOL    HW135276   1.060   3.209   5.962 -0.6815  0.9737 -1.3555
 7880SOL    HW235277   0.948   3.121   5.928 -0.1683 -1.2577  2.5820
 7881SOL     OW35278   1.458   0.112   8.733 -0.2435 -0.0514  0.0906
 7881SOL    HW135279   1.530   0.172   8.755  1.8238 -2.6037  0.3583
 7881SOL    HW235280   1.442   0.066   8.816  2.2488  0.1865  0.7222
 7882SOL     OW35281   1.807   2.238   1.433 -0.1291 -0.1787 -0.0545
 7882SOL    HW135282   1.719   2.213   1.462  0.4860 -2.2871 -0.0402
 7882SOL    HW235283   1.789   2.319   1.385 -0.8831  0.2946  1.0089
 7883SOL     OW35284   3.874   2.825   7.907  0.1378  0.2953 -0.8935
 7883SOL    HW135285   3.899   2.888   7.839 -0.7586 -0.0685 -1.5598
 7883SOL    HW235286   3.956   2.824   7.956  0.4010  1.0533 -1.3129
 7884SOL     OW35287   4.628   3.191   8.228 -0.4061 -0.0796  0.2153
 7884SOL    HW135288   4.632   3.267   8.170  0.4935 -0.1363  0.1981
 7884SOL    HW235289   4.721   3.198   8.251 -1.1429 -0.6085  3.2874
 7885SOL     OW35290   0.484   1.533   8.502 -0.3389  0.3293 -0.0033
 7885SOL    HW135291   0.514   1.532   8.593 -0.0699  2.1420 -0.0805
 7885SOL    HW235292   0.412   1.472   8.522 -0.4364  0.9614  1.5620
 7886SOL     OW35293   2.760   3.898   4.337  0.1806  0.0754  0.2522
 7886SOL    HW135294   2.788   3.825   4.392 -1.5143  0.9566  2.2861
 7886SOL    HW235295   2.684   3.853   4.300  0.6480  0.0934 -0.7161
 7887SOL     OW35296   4.127   3.165   2.792 -0.1602  0.5693 -0.2171
 7887SOL    HW135297   4.145   3.123   2.708  0.1047  1.4542 -0.6011
 7887SOL    HW235298   4.216   3.186   2.818 -0.1722  3.4464 -2.5829
 7888SOL     OW35299   0.495   3.635   3.904  0.7108  0.5717 -0.1775
 7888SOL    HW135300   0.482   3.659   3.996 -0.6649  0.7328 -0.4127
 7888SOL    HW235301   0.409   3.595   3.894  1.7136 -1.2046 -1.6439
 7889SOL     OW35302   3.315   4.704   5.578 -0.4660  0.2628 -0.6001
 7889SOL    HW135303   3.227   0.005   5.562 -0.2280  0.1420 -2.2267
 7889SOL    HW235304   3.340   4.704   5.485 -0.8323  0.6743 -0.6995
 7890SOL     OW35305   3.563   2.059  15.756 -0.5899 -0.1434  0.2821
 7890SOL    HW135306   3.485   2.102  15.719 -1.4664 -0.5737  1.6490
 7890SOL    HW235307   3.543   1.968  15.734  1.5691 -0.3890 -0.6331
 7891SOL     OW35308   3.037   0.977  13.532 -0.3600  0.2759  0.2539
 7891SOL    HW135309   2.981   1.034  13.585 -0.4956  1.9661 -1.7176
 7891SOL    HW235310   2.977   0.937  13.470  1.6699  0.9796 -2.1428
 7892SOL     OW35311   3.112   1.818   7.991  0.0231  0.4163 -0.0661
 7892SOL    HW135312   3.018   1.802   7.999  0.2902 -1.3638 -0.5866
 7892SOL    HW235313   3.122   1.897   8.045 -0.0385  0.1903  0.2780
 7893SOL     OW35314   2.524   3.700   7.258  0.1299 -0.1610  0.2893
 7893SOL    HW135315   2.490   3.742   7.337  0.7376  0.7941  0.0436
 7893SOL    HW235316   2.612   3.737   7.265 -0.2686  0.9179 -0.3809
 7894SOL     OW35317   2.489   2.648   0.699  0.0708  0.2254 -0.3876
 7894SOL    HW135318   2.502   2.694   0.783 -1.8362  0.1867 -0.0670
 7894SOL    HW235319   2.519   2.559   0.720  1.0729  0.3137 -1.4260
 7895SOL     OW35320   0.097   3.099   4.858  0.0030 -0.1983 -0.3398
 7895SOL    HW135321   0.023   3.061   4.812 -1.2049  2.7954 -0.8263
 7895SOL    HW235322   0.056   3.173   4.902  0.5398  0.2210 -0.5489
 7896SOL     OW35323   0.772   0.531   8.972  0.2380  0.5019  0.2577
 7896SOL    HW135324   0.714   0.607   8.965  1.5628  1.6096  1.4382
 7896SOL    HW235325   0.791   0.541   9.065 -0.7584 -1.1839  0.6608
 7897SOL     OW35326   4.005   1.911   7.759  0.3356 -0.4912 -0.5602
 7897SOL    HW135327   3.914   1.915   7.788  0.5837  0.9467  0.0104
 7897SOL    HW235328   4.049   1.926   7.843 -0.0684 -0.5478 -0.3396
 7898SOL     OW35329   1.624   4.597   4.965  0.5049 -0.2287 -0.0686
 7898SOL    HW135330   1.635   4.508   4.999 -0.8138 -0.9906 -1.6284
 7898SOL    HW235331   1.534   4.617   4.992  0.5020  1.4751 -1.3726
 7899SOL     OW35332   3.174   0.991   0.238 -0.5367  0.1908 -0.3858
 7899SOL    HW135333   3.229   1.065   0.264 -0.0891  0.0035 -0.7946
 7899SOL    HW235334   3.135   0.956   0.318  1.9722  0.9718  1.1856
 7900SOL     OW35335   1.353   0.073  15.916  0.6567  0.1502  0.1800
 7900SOL    HW135336   1.324   0.164  15.927  2.0986  0.8639 -1.9743
 7900SOL    HW235337   1.444   0.097  15.905  0.6490  0.3938  0.6455
 7901SOL     OW35338   4.466   0.630   4.199 -0.0475  0.2734  0.0914
 7901SOL    HW135339   4.460   0.662   4.289 -0.0550  0.9363 -0.1463
 7901SOL    HW235340   4.388   0.673   4.163  0.2986  0.7123 -0.1324
 7902SOL     OW35341   1.099   1.867   7.582 -0.8403  0.9567  0.1812
 7902SOL    HW135342   1.134   1.817   7.508 -3.2380  0.3166 -0.5090
 7902SOL    HW235343   1.050   1.799   7.629  1.3500 -0.4058  0.4977
 7903SOL     OW35344   3.915   1.391  10.145  0.3084  0.4662 -0.5732
 7903SOL    HW135345   3.834   1.345  10.124  2.3443 -2.5425 -1.7550
 7903SOL    HW235346   3.965   1.321  10.186 -1.3225 -0.3274  0.0725
 7904SOL     OW35347   3.900   0.152   8.571 -0.2315  0.1454 -0.4869
 7904SOL    HW135348   3.848   0.174   8.649  0.3166  0.4627 -0.2074
 7904SOL    HW235349   3.990   0.162   8.605 -1.6607  2.2140  2.7300
 7905SOL     OW35350   2.006   3.495   6.778 -0.4403 -0.1867  0.1192
 7905SOL    HW135351   2.035   3.404   6.785  0.3436  0.0034 -0.7547
 7905SOL    HW235352   2.083   3.541   6.811 -0.7075  0.3430  0.0065
 7906SOL     OW35353   3.614   0.748  11.397  0.4867  0.0463 -0.0014
 7906SOL    HW135354   3.668   0.686  11.445 -1.2342  0.3283  2.2851
 7906SOL    HW235355   3.600   0.817  11.462 -0.1321 -2.2549  2.2942
 7907SOL     OW35356   0.160   0.066   2.027  0.8360 -0.4121  0.4490
 7907SOL    HW135357   0.251   0.080   2.001  0.2268  0.0386 -1.4102
 7907SOL    HW235358   0.157   0.141   2.086  0.1510 -0.5653  0.6086
 7908SOL     OW35359   1.491   0.703   9.201 -0.0770 -0.3911 -0.2612
 7908SOL    HW135360   1.503   0.608   9.197 -2.0969 -0.6443  0.0506
 7908SOL    HW235361   1.495   0.721   9.295  1.4184 -0.8615 -0.2332
 7909SOL     OW35362   2.612   1.427   0.120 -0.6059  0.4666  0.0238
 7909SOL    HW135363   2.568   1.380   0.191 -1.4757  0.5877 -0.4376
 7909SOL    HW235364   2.540   1.480   0.086 -2.0113  0.4371  2.9246
 7910SOL     OW35365   4.461   1.096  17.141  0.0902 -0.3428 -0.4031
 7910SOL    HW135366   4.506   1.019  17.176 -0.2661 -0.2798  0.2000
 7910SOL    HW235367   4.498   1.107  17.054 -2.9205  0.8678 -1.5272
 7911SOL     OW35368   3.214   1.227   6.843 -0.7315 -0.0181 -0.2161
 7911SOL    HW135369   3.138   1.256   6.894 -0.5618 -1.3842  0.8019
 7911SOL    HW235370   3.173   1.192   6.764 -0.7103 -0.3060 -0.0990
 7912SOL     OW35371   3.019   0.880   6.668 -0.4559 -0.5405  0.4660
 7912SOL    HW135372   3.112   0.875   6.643 -0.8738 -0.1120 -1.1264
 7912SOL    HW235373   3.020   0.842   6.756  2.1353 -0.2457  0.5849
 7913SOL     OW35374   4.395   1.729   2.629 -0.2143  0.2931 -0.2092
 7913SOL    HW135375   4.374   1.726   2.536 -0.0165 -1.6761 -0.1910
 7913SOL    HW235376   4.386   1.639   2.661  0.1287  0.3001 -0.1025
 7914SOL     OW35377   3.979   3.128   0.904  0.1463 -0.4663 -0.2981
 7914SOL    HW135378   3.994   3.065   0.833 -1.0266  0.1105 -1.0531
 7914SOL    HW235379   3.974   3.059   0.971 -2.4717 -1.1976 -1.2530
 7915SOL     OW35380   2.372   1.332   1.472  0.4053 -0.1289 -0.6083
 7915SOL    HW135381   2.367   1.425   1.451 -2.3720 -0.3804 -1.1351
 7915SOL    HW235382   2.452   1.305   1.428  0.0074 -0.0925 -1.3549
 7916SOL     OW35383   3.474   0.836   9.307 -0.5310  0.1754 -0.0522
 7916SOL    HW135384   3.430   0.819   9.390 -0.9130 -2.7298 -0.8497
 7916SOL    HW235385   3.426   0.918   9.296  0.3135  0.6241 -0.3801
 7917SOL     OW35386   4.677   1.889   4.742  0.1514  0.3368 -0.3062
 7917SOL    HW135387   4.667   1.940   4.823 -0.8086  1.1386 -0.9315
 7917SOL    HW235388   4.722   1.950   4.684  0.9472 -0.2004 -0.2474
 7918SOL     OW35389   0.081   0.691   9.846 -0.3480 -0.0690 -0.2226
 7918SOL    HW135390   0.144   0.731   9.906  0.6325 -1.2423 -0.4630
 7918SOL    HW235391   0.052   0.768   9.797  1.7274  0.8534 -0.0089
 7919SOL     OW35392   2.931   2.538  16.329 -0.1908 -0.4077 -0.3381
 7919SOL    HW135393   2.965   2.454  16.362 -0.3071 -0.4235 -0.2586
 7919SOL    HW235394   3.013   2.588  16.337 -0.4120 -0.2831  1.1447
 7920SOL     OW35395   3.180   4.684  12.362  0.2036  0.4473  0.0180
 7920SOL    HW135396   3.091   4.680  12.328  0.6538  0.9865 -1.2344
 7920SOL    HW235397   3.216   4.714  12.278 -1.1439 -0.5167 -0.8978
 7921SOL     OW35398   2.170   2.784   3.499  0.2186 -0.4789 -0.0340
 7921SOL    HW135399   2.209   2.723   3.437  0.5584 -0.1557 -0.1413
 7921SOL    HW235400   2.084   2.745   3.512  0.9261 -2.6792 -1.9831
 7922SOL     OW35401   2.856   1.603  14.121  0.3147 -0.7314  0.0899
 7922SOL    HW135402   2.773   1.649  14.107  2.6691  3.3778 -0.5300
 7922SOL    HW235403   2.860   1.558  14.036  0.4846 -0.7128  0.0863
 7923SOL     OW35404   3.610   0.567   2.871  0.2082  0.2117 -0.0289
 7923SOL    HW135405   3.540   0.628   2.892  0.8292  1.2013 -0.8267
 7923SOL    HW235406   3.619   0.518   2.953 -1.3964  0.6391  0.3950
 7924SOL     OW35407   2.896   1.532  15.904  0.4170 -0.3975  0.1453
 7924SOL    HW135408   2.910   1.467  15.973 -4.4263 -2.2896 -0.6566
 7924SOL    HW235409   2.963   1.501  15.844 -0.0142  2.1740 -1.6916
 7925SOL     OW35410   0.179   2.606   4.746  1.5270 -0.8521 -0.3410
 7925SOL    HW135411   0.265   2.578   4.715  1.0690 -1.0927 -1.3902
 7925SOL    HW235412   0.202   2.699   4.740 -1.3496 -0.0101  1.6326
 7926SOL     OW35413   3.209   1.426  14.058 -0.1384 -0.0510 -0.5803
 7926SOL    HW135414   3.143   1.372  14.102  0.5694  0.8153  1.5583
 7926SOL    HW235415   3.262   1.444  14.136 -1.2794 -0.8827  0.3768
 7927SOL     OW35416   0.663   3.749   8.220  0.5183 -0.4455  0.8805
 7927SOL    HW135417   0.675   3.743   8.315  0.8162 -0.2162  0.8565
 7927SOL    HW235418   0.728   3.680   8.205 -0.6500 -1.5928  1.0580
 7928SOL     OW35419   2.933   4.350   6.507 -0.1396 -0.2050 -0.1695
 7928SOL    HW135420   2.929   4.256   6.523 -0.3300 -0.3346 -1.0302
 7928SOL    HW235421   2.999   4.375   6.572  1.1676  0.0837 -1.6026
 7929SOL     OW35422   1.759   4.343   5.495  0.5627 -0.0793  0.3324
 7929SOL    HW135423   1.774   4.437   5.499  1.2567 -0.2108  0.8419
 7929SOL    HW235424   1.696   4.335   5.424 -0.3318 -0.0546  1.1383
 7930SOL     OW35425   2.147   0.780   2.776  0.2455 -0.3546 -0.1900
 7930SOL    HW135426   2.171   0.761   2.685 -0.7543 -0.0689 -0.5162
 7930SOL    HW235427   2.086   0.853   2.767  0.2990 -0.3082 -0.1713
 7931SOL     OW35428   2.895   1.040   0.328 -0.2440 -0.2118 -0.2509
 7931SOL    HW135429   2.947   0.975   0.375  1.2502  0.9875 -0.2209
 7931SOL    HW235430   2.840   1.081   0.395 -0.4581  0.0961 -0.6154
 7932SOL     OW35431   3.826   2.330   7.703 -0.1032 -0.4497 -0.2284
 7932SOL    HW135432   3.816   2.306   7.611 -0.8602  1.0373 -0.5439
 7932SOL    HW235433   3.785   2.417   7.703 -0.9353 -0.8347  0.4946
 7933SOL     OW35434   2.515   4.600  11.507 -0.6829  0.5025  0.0572
 7933SOL    HW135435   2.467   4.530  11.552  1.9017 -0.5774  1.1956
 7933SOL    HW235436   2.592   4.614  11.563 -1.3533  0.1110  1.0712
 7934SOL     OW35437   0.992   0.709  15.056 -0.4969  0.5485  0.2801
 7934SOL    HW135438   0.931   0.649  15.014 -1.3803  3.4061 -2.5210
 7934SOL    HW235439   1.071   0.656  15.047 -0.3823  0.5820  1.0499
 7935SOL     OW35440   0.191   4.354   3.451  0.3955 -0.1567  0.1120
 7935SOL    HW135441   0.264   4.299   3.421 -0.2103 -1.6161  1.2755
 7935SOL    HW235442   0.195   4.419   3.381 -1.0305  0.4089  0.5507
 7936SOL     OW35443   0.461   2.556   6.049  0.1171 -0.1323 -0.0391
 7936SOL    HW135444   0.499   2.471   6.073  1.8764  1.1686  1.7224
 7936SOL    HW235445   0.501   2.613   6.114 -1.2272  0.8047 -0.0329
 7937SOL     OW35446   1.882   2.862   7.798 -0.4995 -0.2897 -0.2803
 7937SOL    HW135447   1.889   2.958   7.804 -3.0109 -0.0019 -2.2083
 7937SOL    HW235448   1.908   2.850   7.707  0.2288 -4.7383  0.5276
 7938SOL     OW35449   4.699   3.486   8.677 -0.3151 -0.2793 -0.3791
 7938SOL    HW135450   0.043   3.514   8.725 -1.5366  1.7479  0.4445
 7938SOL    HW235451   4.684   3.566   8.627 -0.9507  0.0658  0.3532
 7939SOL     OW35452   0.344   4.332   1.778  0.0292  0.1114 -0.8729
 7939SOL    HW135453   0.411   4.395   1.752 -1.7113  1.1604 -2.8273
 7939SOL    HW235454   0.316   4.361   1.865 -0.4881 -2.0425 -0.3097
 7940SOL     OW35455   3.098   1.137   2.328  0.4239 -0.6213  0.1042
 7940SOL    HW135456   3.103   1.112   2.420  1.6132  2.1701  0.7958
 7940SOL    HW235457   3.092   1.053   2.283 -0.5702  0.3164 -1.5249
 7941SOL     OW35458   0.317   1.000  14.435 -0.0629  0.2655 -0.0545
 7941SOL    HW135459   0.389   1.062  14.429 -0.2803  0.7292  2.3268
 7941SOL    HW235460   0.267   1.019  14.355 -1.0917 -1.0632  0.2714
 7942SOL     OW35461   3.127   4.594   5.815  0.1902  0.7355  0.1544
 7942SOL    HW135462   3.202   4.621   5.762  0.3677 -0.8848 -0.4252
 7942SOL    HW235463   3.169   4.561   5.896 -0.1434  0.4544  0.2117
 7943SOL     OW35464   1.366   1.985   2.441  0.9950 -0.7987  0.3750
 7943SOL    HW135465   1.423   1.993   2.518  1.0684 -0.5897  0.2986
 7943SOL    HW235466   1.420   1.964   2.365 -0.2235 -0.8549 -0.4678
 7944SOL     OW35467   0.014   2.699   2.403  0.0005 -0.1825 -0.1018
 7944SOL    HW135468   4.697   2.652   2.338  0.8225 -0.8784 -0.2587
 7944SOL    HW235469   4.716   2.666   2.487  0.0493  0.3800  0.1339
 7945SOL     OW35470   1.596   1.037   9.511 -0.5782  0.1978  0.7612
 7945SOL    HW135471   1.571   0.945   9.499  0.1076  0.0154  0.7321
 7945SOL    HW235472   1.540   1.084   9.450  0.0609  2.1293  1.6868
 7946SOL     OW35473   3.048   1.257  17.726 -0.1630 -0.4465  0.0650
 7946SOL    HW135474   2.976   1.273  17.665 -0.1216 -3.0477 -0.6551
 7946SOL    HW235475   3.092   1.183  17.686 -0.2891  0.4979 -1.7946
 7947SOL     OW35476   1.358   4.236   7.485 -0.0234 -0.1539  0.5904
 7947SOL    HW135477   1.326   4.148   7.463  0.8544 -0.6850  1.4382
 7947SOL    HW235478   1.424   4.249   7.417 -0.5065  0.7868  0.3067
 7948SOL     OW35479   0.556   1.828  15.019  0.2827 -0.0197  1.1390
 7948SOL    HW135480   0.513   1.857  14.939 -1.0596 -4.1029  0.4139
 7948SOL    HW235481   0.640   1.792  14.992  0.1684  2.0494 -1.9900
 7949SOL     OW35482   4.486   0.414   5.083  0.3144  0.0052  0.5069
 7949SOL    HW135483   4.533   0.335   5.112  1.3674  0.2916 -0.4013
 7949SOL    HW235484   4.562   0.467   5.056  0.2048 -0.7070 -1.1987
 7950SOL     OW35485   0.915   2.552  11.198  0.0460 -0.1208  0.1327
 7950SOL    HW135486   0.841   2.610  11.183 -0.7472 -1.2841 -0.4943
 7950SOL    HW235487   0.869   2.469  11.184 -3.0891  1.4794  0.9981
 7951SOL     OW35488   3.917   2.542  12.556  0.3667  0.7883 -0.0163
 7951SOL    HW135489   3.841   2.484  12.543  0.5422 -0.1316  3.0525
 7951SOL    HW235490   3.871   2.623  12.536 -1.1356 -0.1425 -0.4091
 7952SOL     OW35491   1.194   0.144   6.765 -0.1721 -1.2369  0.1213
 7952SOL    HW135492   1.204   0.211   6.832 -1.3024 -0.3051 -0.6559
 7952SOL    HW235493   1.217   0.198   6.689  1.5927 -2.6156 -0.3383
 7953SOL     OW35494   2.731   4.347  13.087 -0.6406  0.1269  0.4702
 7953SOL    HW135495   2.752   4.302  13.006 -2.4459  1.5616 -0.7905
 7953SOL    HW235496   2.818   4.361  13.124 -0.7057 -0.0500  0.6976
 7954SOL     OW35497   3.366   0.079   4.838  0.2762  0.2496 -0.0596
 7954SOL    HW135498   3.284   0.114   4.873  0.4700 -1.0063  1.6820
 7954SOL    HW235499   3.334   4.734   4.796  0.5769  0.8766 -1.4848
 7955SOL     OW35500   1.097   3.524  10.983  1.0876 -0.3054  0.7135
 7955SOL    HW135501   1.052   3.534  11.067  0.1345  0.9106  0.0466
 7955SOL    HW235502   1.159   3.598  10.984 -0.3477  0.9113 -0.9389
 7956SOL     OW35503   0.774   1.288   3.540 -0.3691 -0.4734  0.1869
 7956SOL    HW135504   0.826   1.266   3.617  0.6088  0.2402 -0.2739
 7956SOL    HW235505   0.686   1.282   3.577 -0.4210 -1.2281 -0.0494
 7957SOL     OW35506   1.148   1.498   3.367 -0.0046 -0.0544  0.3590
 7957SOL    HW135507   1.060   1.513   3.332  1.5353  4.1859 -1.7902
 7957SOL    HW235508   1.188   1.585   3.355 -0.4283  0.4107  2.2604
 7958SOL     OW35509   1.446   2.824   7.059 -0.4894 -0.3862  0.2950
 7958SOL    HW135510   1.539   2.806   7.069 -0.3352  0.1548 -0.1557
 7958SOL    HW235511   1.447   2.910   7.016  0.4675 -1.2007 -1.3306
 7959SOL     OW35512   0.026   4.307  11.111 -0.6402  0.2444  0.7777
 7959SOL    HW135513   0.039   4.375  11.177 -2.4154 -0.0184  1.3926
 7959SOL    HW235514   0.083   4.240  11.147  1.0068  0.8405 -0.7183
 7960SOL     OW35515   2.441   1.434  11.591 -0.1866  0.2962  0.5844
 7960SOL    HW135516   2.431   1.374  11.517  0.3144  0.9931 -0.0560
 7960SOL    HW235517   2.399   1.377  11.655 -0.6247 -1.3704 -1.1731
 7961SOL     OW35518   3.174   4.106   7.842  0.2910  0.2928 -0.5675
 7961SOL    HW135519   3.150   4.077   7.754  2.4514  0.6237 -1.2604
 7961SOL    HW235520   3.259   4.147   7.827  1.2846 -0.8524  1.8293
 7962SOL     OW35521   3.605   0.401   8.299  0.1816  0.0255 -0.7857
 7962SOL    HW135522   3.598   0.369   8.389 -0.8629 -2.7129 -1.8268
 7962SOL    HW235523   3.514   0.395   8.269 -0.2512 -0.0232  0.4996
 7963SOL     OW35524   1.202   1.360  16.927 -0.4365  0.3403 -0.1313
 7963SOL    HW135525   1.160   1.427  16.872  2.0283  1.3172 -0.8474
 7963SOL    HW235526   1.289   1.398  16.940  0.6787 -2.4951  0.6466
 7964SOL     OW35527   0.411   4.274   2.196  0.2234  0.1817 -0.6897
 7964SOL    HW135528   0.477   4.313   2.254  2.3259 -0.7639 -2.4183
 7964SOL    HW235529   0.352   4.252   2.267  0.2746 -0.0037 -0.7047
 7965SOL     OW35530   4.156   1.009   2.190 -0.1890  0.3399  0.1013
 7965SOL    HW135531   4.179   0.920   2.163 -2.3690 -1.1563  3.0968
 7965SOL    HW235532   4.128   0.984   2.279 -1.0336  0.6086 -0.0888
 7966SOL     OW35533   3.468   4.380  12.723  0.1853 -0.3274 -0.2560
 7966SOL    HW135534   3.423   4.419  12.648  1.4293  0.1083 -0.7662
 7966SOL    HW235535   3.534   4.326  12.679 -1.0507 -1.5062 -0.6583
 7967SOL     OW35536   3.327   2.568  11.632  0.1911 -0.3281  0.2798
 7967SOL    HW135537   3.270   2.642  11.654  0.3430  0.0663 -0.6732
 7967SOL    HW235538   3.346   2.549  11.724 -2.0045  1.3433  1.0748
 7968SOL     OW35539   1.493   2.804   7.384  0.0201  0.4285 -0.0157
 7968SOL    HW135540   1.492   2.893   7.349 -0.4525  0.6383  0.5345
 7968SOL    HW235541   1.520   2.756   7.306  1.0575 -0.2280  0.7421
 7969SOL     OW35542   3.728   2.858  15.854  0.1382  0.1493 -0.0302
 7969SOL    HW135543   3.752   2.826  15.767  0.7633 -1.1183  0.6218
 7969SOL    HW235544   3.663   2.793  15.881 -0.4728  2.2690  3.6225
 7970SOL     OW35545   3.831   0.005   9.049  0.2880 -0.0462  0.2153
 7970SOL    HW135546   3.892   0.047   9.109 -3.1818  3.1106  1.5727
 7970SOL    HW235547   3.756   4.724   9.108  0.6096 -2.5972 -0.0739
 7971SOL     OW35548   4.582   3.663   7.191 -0.2554  0.2723  0.2061
 7971SOL    HW135549   4.525   3.594   7.157  1.1068 -1.1788  0.8186
 7971SOL    HW235550   4.652   3.651   7.126  1.5994 -1.1491  2.4888
 7972SOL     OW35551   1.919   0.094  10.331 -0.2487  0.0657 -0.2094
 7972SOL    HW135552   1.871   0.015  10.307 -0.3821  0.7575 -2.2630
 7972SOL    HW235553   1.864   0.132  10.399 -1.6145 -4.1363  0.9846
 7973SOL     OW35554   4.094   3.456   6.305  0.4444  0.0770  0.1194
 7973SOL    HW135555   4.037   3.478   6.379  1.2697 -0.8731  1.0347
 7973SOL    HW235556   4.035   3.423   6.237 -1.7554  2.7899  0.7311
 7974SOL     OW35557   3.436   0.326  15.253  0.3957 -0.7148  0.2166
 7974SOL    HW135558   3.499   0.305  15.322  0.0535  0.7576  0.9740
 7974SOL    HW235559   3.483   0.389  15.199 -0.6953 -0.3290 -0.2789
 7975SOL     OW35560   0.865   4.294   9.533  0.0708 -0.1759  0.4256
 7975SOL    HW135561   0.828   4.358   9.594  1.3209  2.0790 -1.1798
 7975SOL    HW235562   0.950   4.278   9.575  1.6312 -0.7820 -2.9397
 7976SOL     OW35563   4.054   2.293   4.191  0.3217  0.0985 -0.0938
 7976SOL    HW135564   4.054   2.351   4.114  0.0416 -1.5756 -1.3462
 7976SOL    HW235565   4.010   2.217   4.152  1.9930 -1.4124  0.9867
 7977SOL     OW35566   4.700   1.423  11.333 -0.4341  0.5017  0.9499
 7977SOL    HW135567   4.698   1.497  11.272 -1.4586 -1.5926 -1.5688
 7977SOL    HW235568   4.715   1.347  11.276  0.1911  2.0547 -0.9847
 7978SOL     OW35569   2.672   2.467   8.962  0.1210 -0.1058  0.0715
 7978SOL    HW135570   2.765   2.476   8.983  0.0857 -1.0444  0.5978
 7978SOL    HW235571   2.648   2.404   9.030 -0.0050 -0.8045 -0.6292
 7979SOL     OW35572   2.090   2.305   4.395 -0.1229  0.7709  0.2805
 7979SOL    HW135573   2.042   2.383   4.423  0.3044  0.5713  1.5711
 7979SOL    HW235574   2.175   2.347   4.383 -0.5524  0.9536 -2.1171
 7980SOL     OW35575   3.566   3.514   2.839  0.4142 -0.7072 -0.1534
 7980SOL    HW135576   3.606   3.577   2.898  0.2911 -0.1806 -0.6350
 7980SOL    HW235577   3.520   3.455   2.899  1.1044 -0.3668  0.7016
 7981SOL     OW35578   0.935   0.731   4.736 -0.5326  0.1534 -0.2494
 7981SOL    HW135579   0.958   0.768   4.821 -0.6736  1.3423 -0.7265
 7981SOL    HW235580   0.855   0.784   4.729 -1.2843 -0.8206  1.0811
 7982SOL     OW35581   1.186   3.872   3.830  0.0689  0.0791 -0.1333
 7982SOL    HW135582   1.277   3.890   3.853  0.3301  0.4014 -1.4493
 7982SOL    HW235583   1.144   3.952   3.862 -0.6158 -0.5326  0.5001
 7983SOL     OW35584   2.107   0.894   1.450  0.3816 -0.4862  0.0753
 7983SOL    HW135585   2.064   0.819   1.409  0.6462 -0.6242  0.0481
 7983SOL    HW235586   2.062   0.889   1.534 -1.2390 -0.2254 -0.7877
 7984SOL     OW35587   3.172   2.846   5.300 -0.0612 -0.3968  0.6454
 7984SOL    HW135588   3.134   2.759   5.312 -0.9359  0.1000  1.5175
 7984SOL    HW235589   3.266   2.834   5.286 -0.0346  0.0127  0.4555
 7985SOL     OW35590   0.782   0.000   9.308  0.1427  0.1056  0.1038
 7985SOL    HW135591   0.871   4.711   9.333 -0.3807 -0.1072  1.7163
 7985SOL    HW235592   0.785   4.721   9.213  1.5805  1.0644  0.0059
 7986SOL     OW35593   1.318   3.734  15.443 -0.3154  0.7604 -0.3585
 7986SOL    HW135594   1.258   3.751  15.371  0.5847 -1.2352 -1.5960
 7986SOL    HW235595   1.374   3.808  15.422 -0.1869  1.0707  1.0870
 7987SOL     OW35596   0.731   0.173   8.586 -0.3476 -0.2096  0.4513
 7987SOL    HW135597   0.704   0.205   8.500  0.6222  1.7329  0.8765
 7987SOL    HW235598   0.800   0.237   8.604 -1.9056  2.0866 -1.7100
 7988SOL     OW35599   1.172   4.399  10.088 -0.8073  0.3612 -0.1460
 7988SOL    HW135600   1.090   4.447  10.075 -1.5602 -0.7705  0.3827
 7988SOL    HW235601   1.176   4.335  10.017  0.1752 -0.3640  0.5646
 7989SOL     OW35602   0.236   0.933   9.565  0.2592 -1.0716  0.4756
 7989SOL    HW135603   0.159   0.905   9.614 -2.1970  2.8965 -1.0981
 7989SOL    HW235604   0.247   0.852   9.515 -0.7028  0.5099 -2.2689
 7990SOL     OW35605   0.734   0.681   3.212  0.5407  0.3406  0.2180
 7990SOL    HW135606   0.732   0.635   3.128  1.0726  1.3826 -0.3595
 7990SOL    HW235607   0.778   0.611   3.259 -0.6618  0.3379  1.3727
 7991SOL     OW35608   0.251   3.590   2.335  0.4768  0.0083  0.0061
 7991SOL    HW135609   0.340   3.555   2.328  0.4710 -0.2261  1.2354
 7991SOL    HW235610   0.231   3.603   2.427 -1.7212 -1.4584 -0.2501
 7992SOL     OW35611   1.021   1.051  16.954 -0.1339  0.1401  0.0929
 7992SOL    HW135612   0.942   1.092  16.918  1.4262  1.7459 -1.5195
 7992SOL    HW235613   1.058   1.125  17.001 -0.1549 -0.3028  0.8049
 7993SOL     OW35614   4.616   3.456   1.756  0.1447 -0.5867 -0.0935
 7993SOL    HW135615   4.521   3.468   1.752  0.4594  0.4770 -3.4974
 7993SOL    HW235616   4.627   3.446   1.851 -1.4706  1.7649  0.3317
 7994SOL     OW35617   3.590   1.667   7.166 -0.4150 -0.1840 -0.6705
 7994SOL    HW135618   3.632   1.653   7.251 -0.4541  2.3150 -0.2418
 7994SOL    HW235619   3.660   1.704   7.113 -0.8292  0.1073 -1.0126
 7995SOL     OW35620   2.696   3.365   4.967  0.0858  0.0875  0.3055
 7995SOL    HW135621   2.773   3.308   4.956 -0.6193 -0.1893 -3.3317
 7995SOL    HW235622   2.725   3.421   5.038 -0.7512  1.5430 -0.5115
 7996SOL     OW35623   1.035   2.411  10.438  0.3974  0.1769 -0.2844
 7996SOL    HW135624   1.100   2.431  10.506 -0.0316  0.2518  0.1105
 7996SOL    HW235625   1.059   2.322  10.414  0.6240  0.0167  0.5112
 7997SOL     OW35626   0.593   4.472   1.700 -0.1852  0.1190 -0.2074
 7997SOL    HW135627   0.606   4.517   1.616 -0.3306  0.3313 -0.1167
 7997SOL    HW235628   0.669   4.509   1.745 -0.7605  1.7515 -0.5531
 7998SOL     OW35629   4.210   3.099   7.000 -0.5519  0.3491 -0.1365
 7998SOL    HW135630   4.156   3.039   6.949 -0.0287  0.5560 -0.9421
 7998SOL    HW235631   4.266   3.141   6.935  1.6927 -1.3778  0.6583
 7999SOL     OW35632   0.354   2.192   5.310  0.5244 -0.3222  0.1250
 7999SOL    HW135633   0.437   2.185   5.263  0.8351  0.5415  0.5596
 7999SOL    HW235634   0.311   2.264   5.264 -0.4318 -1.0118 -0.0744
 8000SOL     OW35635   3.349   1.180   2.558 -0.3656 -0.2472 -0.0697
 8000SOL    HW135636   3.263   1.162   2.597  0.1073 -0.4592  0.8782
 8000SOL    HW235637   3.406   1.170   2.634 -1.4122  1.7623  0.9827
 8001SOL     OW35638   1.144   3.089   1.663  0.0131 -0.5378 -0.1937
 8001SOL    HW135639   1.185   3.145   1.597 -0.9416 -0.2737 -0.5630
 8001SOL    HW235640   1.134   3.154   1.732  1.2363  0.6778 -1.1533
 8002SOL     OW35641   3.133   0.982  17.702 -0.5601 -0.0312 -0.1563
 8002SOL    HW135642   3.039   0.994  17.696 -0.2134  1.1583 -3.1340
 8002SOL    HW235643   3.148   0.964   0.057 -1.8975  1.0242  0.2523
 8003SOL     OW35644   0.677   4.569   6.836 -0.1489  0.0012 -0.1124
 8003SOL    HW135645   0.709   4.563   6.745 -1.0816 -1.0826 -0.3614
 8003SOL    HW235646   0.584   4.566   6.817 -0.1297  0.8978 -0.3783
 8004SOL     OW35647   2.773   2.074  17.038  0.5853 -0.5134 -0.0225
 8004SOL    HW135648   2.678   2.080  17.040  0.6676  0.9114 -0.4621
 8004SOL    HW235649   2.783   1.992  17.085  0.3750  0.8436  2.3937
 8005SOL     OW35650   3.434   0.778   2.942 -0.0390  0.0846 -0.2171
 8005SOL    HW135651   3.497   0.840   2.978  0.4302 -0.5404  0.0571
 8005SOL    HW235652   3.356   0.813   2.985  0.3687  0.4029  0.2587
 8006SOL     OW35653   3.088   1.245  12.881 -0.0417  0.1902 -0.0390
 8006SOL    HW135654   3.001   1.253  12.843  0.6939 -0.9180 -1.9696
 8006SOL    HW235655   3.097   1.328  12.929  2.7167  0.8280 -1.6202
 8007SOL     OW35656   2.007   4.686   8.226  0.1890  0.4321 -0.0614
 8007SOL    HW135657   2.061   4.611   8.249  0.3040 -0.3912 -3.1325
 8007SOL    HW235658   1.923   4.658   8.263  0.3110  0.8748  0.5567
 8008SOL     OW35659   1.769   4.352   9.966 -0.2232  0.1127  0.1002
 8008SOL    HW135660   1.682   4.314   9.974 -0.1758  0.1736  0.8697
 8008SOL    HW235661   1.829   4.301  10.019 -2.8764 -2.4631  0.5823
 8009SOL     OW35662   3.559   1.218   4.038  0.2503  0.2260 -0.0043
 8009SOL    HW135663   3.524   1.220   4.127 -0.2674 -1.5539 -0.1611
 8009SOL    HW235664   3.616   1.143   4.053  0.6469  0.7156  0.9190
 8010SOL     OW35665   1.808   3.667   4.311  0.1676 -0.3078 -1.0358
 8010SOL    HW135666   1.819   3.709   4.396 -1.0441  0.9357 -1.5046
 8010SOL    HW235667   1.796   3.573   4.328  0.2099 -0.5589 -2.3679
 8011SOL     OW35668   1.726   2.928  11.204 -0.0354  0.5994  0.2184
 8011SOL    HW135669   1.794   2.914  11.138 -0.1886  0.5810  0.0648
 8011SOL    HW235670   1.685   3.006  11.168 -3.2218 -0.7271  0.9713
 8012SOL     OW35671   4.383   3.927  16.030 -0.2491 -0.0493  0.4224
 8012SOL    HW135672   4.345   4.012  16.007 -1.2014 -0.3327  0.9297
 8012SOL    HW235673   4.331   3.897  16.105 -1.1115 -0.0434 -0.1620
 8013SOL     OW35674   0.775   3.768   7.182 -0.4523 -0.7923  0.1872
 8013SOL    HW135675   0.811   3.787   7.268  0.0054 -2.7386  0.4051
 8013SOL    HW235676   0.691   3.815   7.178  0.3800  0.8214  1.7249
 8014SOL     OW35677   1.554   0.872   7.418 -0.0504 -0.0360  0.1742
 8014SOL    HW135678   1.480   0.924   7.386  0.2562  1.0427  1.1926
 8014SOL    HW235679   1.508   0.832   7.492  0.6941 -2.0759 -0.4645
 8015SOL     OW35680   4.194   0.896   7.697  0.4348 -0.8996 -0.0830
 8015SOL    HW135681   4.253   0.826   7.722  0.0339 -0.8145  1.1024
 8015SOL    HW235682   4.210   0.961   7.766  2.9575 -0.0664 -1.4553
 8016SOL     OW35683   0.423   2.098   4.882  0.6302 -0.0284 -0.0048
 8016SOL    HW135684   0.327   2.104   4.877  0.4440 -2.5111  0.5545
 8016SOL    HW235685   0.437   2.136   4.968 -1.0044 -0.0696  0.2919
 8017SOL     OW35686   1.187   0.079   2.287 -0.0117  0.3457 -0.5139
 8017SOL    HW135687   1.185   4.724   2.321 -0.9471  0.5277 -0.0786
 8017SOL    HW235688   1.238   0.069   2.207  2.0586 -2.1893  1.1537
 8018SOL     OW35689   2.300   3.633  13.632  0.6318  0.4533  0.1230
 8018SOL    HW135690   2.301   3.725  13.659  1.2319  0.1686  1.0740
 8018SOL    HW235691   2.335   3.645  13.544  0.5337  0.6237  0.1065
 8019SOL     OW35692   1.152   0.497   1.959  0.2266 -0.3304  0.2761
 8019SOL    HW135693   1.238   0.456   1.959 -0.0035 -0.8064  1.3910
 8019SOL    HW235694   1.090   0.424   1.961  1.2117 -1.1717 -0.0557
 8020SOL     OW35695   4.729   3.780   5.827 -0.0671  0.3796 -0.4790
 8020SOL    HW135696   0.046   3.756   5.904 -2.9233 -0.4775  1.1686
 8020SOL    HW235697   0.046   3.857   5.801  1.2455 -0.0891  0.7309
 8021SOL     OW35698   1.087   3.684  11.714  0.4102  0.0315  0.1264
 8021SOL    HW135699   1.059   3.691  11.805 -1.8006 -1.8843 -0.3926
 8021SOL    HW235700   1.023   3.618  11.686  0.2317 -0.5312  1.8177
 8022SOL     OW35701   1.566   4.386   4.568  0.1692 -0.0135 -0.2611
 8022SOL    HW135702   1.596   4.298   4.589 -0.2217  0.9500  4.4580
 8022SOL    HW235703   1.473   4.364   4.575  0.1876  0.3809  1.2242
 8023SOL     OW35704   1.652   3.675   4.750 -0.1157 -0.1663  0.2735
 8023SOL    HW135705   1.572   3.668   4.699  0.8861  0.1751 -1.3335
 8023SOL    HW235706   1.630   3.737   4.820 -0.4153  1.1312 -0.9888
 8024SOL     OW35707   0.495   4.230  14.561 -0.0862 -0.0220 -0.7151
 8024SOL    HW135708   0.407   4.255  14.589 -0.2311  0.5447 -1.6861
 8024SOL    HW235709   0.527   4.248  14.650  1.3319  0.2689 -1.2820
 8025SOL     OW35710   3.015   2.270   2.412  0.3047  0.1984 -0.0497
 8025SOL    HW135711   2.931   2.315   2.426 -0.2421 -0.2637 -1.8947
 8025SOL    HW235712   3.084   2.336   2.420  0.1642  0.5125 -1.5355
 8026SOL     OW35713   4.664   3.696   7.840  0.4483  0.3313 -0.2667
 8026SOL    HW135714   4.582   3.732   7.807 -1.1113 -0.6931  2.4434
 8026SOL    HW235715   4.712   3.695   7.757  3.2231  0.1245  1.3411
 8027SOL     OW35716   2.795   1.728   0.083  0.1904 -0.2126  0.3300
 8027SOL    HW135717   2.737   1.682   0.143 -0.4219  0.2061  0.0554
 8027SOL    HW235718   2.877   1.736   0.132  0.4179 -2.8166  0.3375
 8028SOL     OW35719   1.236   2.012   3.490 -0.2779  0.3444  0.0505
 8028SOL    HW135720   1.242   2.087   3.432  3.5250  0.5664  0.7464
 8028SOL    HW235721   1.168   2.043   3.551  0.2338  0.0551  0.7685
 8029SOL     OW35722   3.957   1.138   6.404 -0.2542  0.6811  0.4414
 8029SOL    HW135723   3.926   1.092   6.482  3.7563 -1.3761  0.8589
 8029SOL    HW235724   4.022   1.077   6.368  0.5495  0.1485  2.7977
 8030SOL     OW35725   2.925   3.538  14.280 -0.3137  0.1736 -0.3133
 8030SOL    HW135726   2.923   3.464  14.219  1.0765 -0.0747 -0.0381
 8030SOL    HW235727   2.831   3.554  14.287 -0.4190  0.9205 -3.2261
 8031SOL     OW35728   2.576   4.440   0.322  0.4873  0.5389 -0.0850
 8031SOL    HW135729   2.667   4.460   0.301  0.3506  0.2661 -0.9179
 8031SOL    HW235730   2.583   4.368   0.384  2.6337  0.0526 -0.8754
 8032SOL     OW35731   3.213   2.274   3.457 -0.3887 -0.1225 -0.3183
 8032SOL    HW135732   3.190   2.299   3.547  0.5277 -1.7162  0.3684
 8032SOL    HW235733   3.150   2.202   3.451 -1.6085  1.1784 -2.9782
 8033SOL     OW35734   2.958   0.070  17.598  0.5358  0.5449 -0.0033
 8033SOL    HW135735   2.882   0.013  17.587  2.5309 -1.9479 -0.9506
 8033SOL    HW235736   2.955   0.132  17.526 -0.9575  2.4985  1.7361
 8034SOL     OW35737   2.516   3.128   6.350 -0.3845 -0.1293 -0.1216
 8034SOL    HW135738   2.437   3.113   6.300 -0.3483 -2.7010  0.5750
 8034SOL    HW235739   2.570   3.171   6.284 -1.2682  2.0657  0.6047
 8035SOL     OW35740   4.058   4.326   0.527 -0.0626  0.2516  0.3020
 8035SOL    HW135741   4.040   4.323   0.434  2.1276 -1.0094 -0.0948
 8035SOL    HW235742   4.102   4.244   0.550  2.2587  0.8606 -2.0678
 8036SOL     OW35743   0.354   3.872  16.841 -0.0897 -0.2492  0.4478
 8036SOL    HW135744   0.400   3.803  16.794  1.5011  1.8247 -1.0238
 8036SOL    HW235745   0.337   3.933  16.769 -0.8941  0.7024  1.4371
 8037SOL     OW35746   0.838   1.624   9.597 -0.2216 -0.6146 -0.4579
 8037SOL    HW135747   0.842   1.694   9.532  1.2410 -0.2407  0.0142
 8037SOL    HW235748   0.748   1.599   9.579 -0.2941  0.6251 -1.8950
 8038SOL     OW35749   1.981   4.019   6.373  0.5700 -0.2814 -0.6972
 8038SOL    HW135750   2.016   4.066   6.298  1.6791 -0.7755 -0.4839
 8038SOL    HW235751   1.915   4.083   6.403  2.7760  1.1750  1.0352
 8039SOL     OW35752   4.487   2.634   4.726  0.7964  0.0083  0.0967
 8039SOL    HW135753   4.527   2.704   4.675  2.8325 -0.7569  0.6295
 8039SOL    HW235754   4.521   2.652   4.813  0.9755  2.0009 -0.3903
 8040SOL     OW35755   4.480   1.783  11.610  0.0141 -0.5823  0.2499
 8040SOL    HW135756   4.562   1.829  11.624  0.6179 -1.4508 -0.4368
 8040SOL    HW235757   4.505   1.696  11.580 -2.3544 -1.4025  0.6215
 8041SOL     OW35758   3.876   3.251   2.791 -0.1487 -0.2888 -0.0172
 8041SOL    HW135759   3.847   3.160   2.786 -0.5606 -0.1366 -0.3602
 8041SOL    HW235760   3.971   3.241   2.795 -0.0747  0.4891  0.1689
 8042SOL     OW35761   1.927   4.360   9.579 -0.2165 -0.1253  0.1021
 8042SOL    HW135762   1.866   4.289   9.596 -1.7223  1.1817  0.1849
 8042SOL    HW235763   1.863   4.427   9.553 -2.9770 -1.7783  2.6695
 8043SOL     OW35764   4.328   2.342   6.494  1.1444 -0.1394  0.0852
 8043SOL    HW135765   4.286   2.359   6.410  2.8732  1.4775 -0.4577
 8043SOL    HW235766   4.407   2.299   6.462  0.7212 -0.0258 -1.1229
 8044SOL     OW35767   2.155   0.229   3.299 -0.0611  0.6555  0.4595
 8044SOL    HW135768   2.230   0.212   3.356  1.7006  1.9794 -1.4387
 8044SOL    HW235769   2.169   0.322   3.279 -0.7153  0.7597  0.4904
 8045SOL     OW35770   2.878   3.768   8.474 -0.7412 -0.5666 -0.0963
 8045SOL    HW135771   2.832   3.824   8.412  0.5824 -1.7850 -2.1734
 8045SOL    HW235772   2.809   3.710   8.504 -1.9680  0.8214 -0.2489
 8046SOL     OW35773   3.511   0.471  17.396  0.7571 -0.1231 -0.0111
 8046SOL    HW135774   3.586   0.495  17.450  0.2366  0.2859  0.5407
 8046SOL    HW235775   3.437   0.473  17.457  1.2759  0.9717  0.5861
 8047SOL     OW35776   1.534   3.663  13.632  0.0399  0.4127  0.2515
 8047SOL    HW135777   1.540   3.734  13.567  0.0371  1.3109  1.2461
 8047SOL    HW235778   1.519   3.589  13.574  0.1472 -0.4529  1.3423
 8048SOL     OW35779   2.793   2.378  12.349 -0.4326 -0.6414 -0.1661
 8048SOL    HW135780   2.781   2.313  12.279  0.7994 -1.9302  0.8357
 8048SOL    HW235781   2.780   2.463  12.305  0.0188  0.4289  1.7770
 8049SOL     OW35782   2.200   2.268   2.269 -0.3008  0.2721 -0.2515
 8049SOL    HW135783   2.187   2.362   2.284  1.9181  0.7571 -1.2309
 8049SOL    HW235784   2.283   2.260   2.222 -1.3318 -3.3205 -1.4307
 8050SOL     OW35785   1.763   2.450   9.823  0.1323 -0.0661 -0.0123
 8050SOL    HW135786   1.690   2.481   9.876 -2.1890 -1.9138 -2.0927
 8050SOL    HW235787   1.802   2.390   9.886  2.4168  2.2423  0.7491
 8051SOL     OW35788   4.030   2.926   9.876  0.2368  0.0885  0.0079
 8051SOL    HW135789   4.020   3.016   9.844  0.7802  0.4976  0.9711
 8051SOL    HW235790   4.054   2.874   9.799  2.1642  0.0383  0.6411
 8052SOL     OW35791   1.798   3.354  16.103 -0.0285 -0.1976  0.2059
 8052SOL    HW135792   1.766   3.386  16.188  0.8608  4.1576 -1.1495
 8052SOL    HW235793   1.730   3.290  16.079 -0.6225  1.3458 -2.1717
 8053SOL     OW35794   0.367   2.436   1.749 -0.4704  0.1594 -0.2644
 8053SOL    HW135795   0.301   2.476   1.807  0.3395 -0.1317  0.8646
 8053SOL    HW235796   0.408   2.376   1.811 -1.1946 -1.2320 -1.1491
 8054SOL     OW35797   0.399   2.289  14.428 -0.5235  0.5254  0.3175
 8054SOL    HW135798   0.404   2.337  14.345  1.6081 -0.1707  0.0455
 8054SOL    HW235799   0.342   2.349  14.475  2.0942  3.1543  0.2003
 8055SOL     OW35800   0.656   0.732   4.468 -0.0039  0.0394 -0.2879
 8055SOL    HW135801   0.694   0.647   4.449  0.1437  0.5134 -2.0942
 8055SOL    HW235802   0.683   0.786   4.394  3.0326 -1.0503  0.0632
 8056SOL     OW35803   1.813   0.810  11.039 -0.3722  0.0515 -0.0385
 8056SOL    HW135804   1.883   0.745  11.043 -2.7957 -2.5693 -0.1012
 8056SOL    HW235805   1.825   0.837  10.948  0.2514  1.3390  0.4302
 8057SOL     OW35806   0.118   3.279  15.120 -0.6168 -0.2588 -0.2500
 8057SOL    HW135807   0.050   3.215  15.097  0.0818 -1.1244  0.0799
 8057SOL    HW235808   0.154   3.297  15.034 -0.3971 -3.9067 -0.9188
 8058SOL     OW35809   0.226   1.639   7.963 -0.5197 -0.1763  0.0831
 8058SOL    HW135810   0.274   1.721   7.974  0.3671 -0.5509 -1.0279
 8058SOL    HW235811   0.156   1.660   7.902  1.3440  1.0964 -1.6059
 8059SOL     OW35812   1.158   3.283  12.903 -0.2712 -0.6764  0.0767
 8059SOL    HW135813   1.106   3.269  12.824  1.6692 -3.3346 -0.7266
 8059SOL    HW235814   1.132   3.372  12.927  1.2765 -0.7825  2.2120
 8060SOL     OW35815   0.239   1.497   4.170 -0.1014  0.7226 -0.2538
 8060SOL    HW135816   0.181   1.492   4.245 -1.0411 -1.5023 -1.1410
 8060SOL    HW235817   0.315   1.462   4.217  0.3834  0.1033 -1.4804
 8061SOL     OW35818   0.060   1.821   9.153  0.1335  0.1819  0.7919
 8061SOL    HW135819   0.044   1.874   9.232  0.0901  2.2372 -0.6068
 8061SOL    HW235820   0.080   1.887   9.087  1.8595 -0.1797  0.9495
 8062SOL     OW35821   2.139   1.098  13.273  0.0642  0.3692 -0.1748
 8062SOL    HW135822   2.074   1.061  13.333 -2.2165  1.3095 -2.0603
 8062SOL    HW235823   2.090   1.170  13.234 -2.3953 -0.2188  1.8356
 8063SOL     OW35824   1.499   0.253   7.870  0.1277  0.0718 -0.0879
 8063SOL    HW135825   1.423   0.202   7.898  1.6019 -2.3519 -0.5936
 8063SOL    HW235826   1.542   0.247   7.956  1.5148 -2.4181 -0.9738
 8064SOL     OW35827   3.129   1.522   6.675 -0.2231 -0.0796  0.0209
 8064SOL    HW135828   3.182   1.526   6.754 -0.7749 -3.4813  0.5443
 8064SOL    HW235829   3.043   1.491   6.701 -0.8230  1.3388 -0.2440
 8065SOL     OW35830   0.843   1.017   7.248  0.8255  0.5350  0.7468
 8065SOL    HW135831   0.892   1.091   7.213 -0.4017  2.6275  3.4349
 8065SOL    HW235832   0.834   1.046   7.339 -0.8114 -0.0084  0.7533
 8066SOL     OW35833   0.042   2.798   3.247 -0.1047  0.0767  0.4259
 8066SOL    HW135834   4.733   2.853   3.181 -0.1305 -0.2654  0.1615
 8066SOL    HW235835   4.718   2.722   3.246  1.0068 -0.7482 -1.1112
 8067SOL     OW35836   3.648   0.820  12.002 -0.3982 -0.3632 -1.0618
 8067SOL    HW135837   3.553   0.826  11.998 -0.7001 -3.1392  2.5579
 8067SOL    HW235838   3.651   0.735  12.045 -2.5123  0.8747  1.5086
 8068SOL     OW35839   1.481   0.944   4.262  0.2750  0.1135 -0.0171
 8068SOL    HW135840   1.554   0.914   4.207 -0.8981 -0.5864 -1.1905
 8068SOL    HW235841   1.483   1.028   4.218 -1.3015  0.4698  0.6059
 8069SOL     OW35842   2.095   2.494  12.625 -0.3096 -0.2211 -0.3972
 8069SOL    HW135843   2.004   2.504  12.655 -1.3665 -1.1391 -3.3300
 8069SOL    HW235844   2.094   2.518  12.533  0.1276  0.1017 -0.3160
 8070SOL     OW35845   0.307   3.820   3.435 -0.2659 -0.1488  0.4339
 8070SOL    HW135846   0.393   3.850   3.464  0.9535 -3.9660  0.8358
 8070SOL    HW235847   0.309   3.727   3.459  0.3331  0.3815  2.4308
 8071SOL     OW35848   0.826   1.256   2.421 -0.0523  0.1263  0.1118
 8071SOL    HW135849   0.737   1.222   2.421 -0.6712  1.7100  2.7757
 8071SOL    HW235850   0.847   1.246   2.514  0.3592  0.1193  0.0188
 8072SOL     OW35851   4.276   4.703   5.553 -0.1900 -0.1180  0.0993
 8072SOL    HW135852   4.292   4.655   5.634 -0.1078 -1.8430 -0.9555
 8072SOL    HW235853   4.360   0.013   5.560 -0.8951  0.9737  1.5923
 8073SOL     OW35854   0.063   0.620   5.498  0.3105  0.4472 -0.2747
 8073SOL    HW135855   0.031   0.542   5.543 -0.9527  0.9381 -0.3005
 8073SOL    HW235856   4.730   0.673   5.540  2.9062  2.7492  1.0167
 8074SOL     OW35857   2.474   3.756   4.427  0.2190 -0.3901 -0.2295
 8074SOL    HW135858   2.422   3.836   4.436 -0.8795 -1.0442 -0.7272
 8074SOL    HW235859   2.486   3.750   4.332 -0.1926  2.4801 -0.4732
 8075SOL     OW35860   3.241   3.577  15.907 -0.0133  0.2074 -0.3585
 8075SOL    HW135861   3.155   3.618  15.910 -0.8158 -1.6807  2.6824
 8075SOL    HW235862   3.285   3.638  15.848 -0.1490  0.0070 -0.6642
 8076SOL     OW35863   0.060   1.085  12.881  0.6999 -0.3171 -0.6467
 8076SOL    HW135864   0.007   1.164  12.895  1.0318  0.3184 -3.0248
 8076SOL    HW235865   0.092   1.099  12.792 -0.1467 -0.5038 -0.9865
 8077SOL     OW35866   0.730   3.856   6.806 -0.3384  0.2983 -0.1714
 8077SOL    HW135867   0.707   3.765   6.824  0.8832  0.8694  4.1170
 8077SOL    HW235868   0.812   3.871   6.852 -0.8692 -0.1336  0.9270
 8078SOL     OW35869   0.800   0.988  16.132 -0.3060 -0.2209  0.0297
 8078SOL    HW135870   0.765   0.902  16.113 -0.2269 -0.3489  0.4544
 8078SOL    HW235871   0.723   1.032  16.169 -1.4111 -1.4374 -0.8618
 8079SOL     OW35872   0.846   1.194  12.020 -0.2331 -0.3180  0.2634
 8079SOL    HW135873   0.777   1.246  11.978 -0.6055 -0.8082  0.2714
 8079SOL    HW235874   0.915   1.220  11.958  1.4564 -1.6382  1.5793
 8080SOL     OW35875   3.513   1.912   6.976 -0.2731 -0.3167  0.4621
 8080SOL    HW135876   3.489   1.998   7.010 -2.7995 -0.6756 -0.3766
 8080SOL    HW235877   3.607   1.920   6.990 -0.0267 -2.1024 -0.1213
 8081SOL     OW35878   1.711   0.261   1.662 -0.3762 -0.0768 -0.7143
 8081SOL    HW135879   1.741   0.180   1.704 -0.1105  0.0448 -0.6703
 8081SOL    HW235880   1.776   0.319   1.700  0.0761 -1.3309  0.4327
 8082SOL     OW35881   3.394   3.002  12.953  0.4683 -0.0504 -0.2044
 8082SOL    HW135882   3.433   2.958  13.028  2.2373 -0.9106 -1.6377
 8082SOL    HW235883   3.307   2.962  12.956  0.7849 -0.8777 -2.0805
 8083SOL     OW35884   2.782   2.174   1.898  0.4809 -0.8900 -0.0809
 8083SOL    HW135885   2.691   2.197   1.877  1.2523  1.4295 -0.8043
 8083SOL    HW235886   2.817   2.262   1.909 -1.4339 -0.2857  1.1641
 8084SOL     OW35887   2.475   2.591   6.286 -0.0086  0.6347  0.0909
 8084SOL    HW135888   2.540   2.530   6.252 -2.1573 -1.6865  0.1750
 8084SOL    HW235889   2.422   2.605   6.208  0.9515  2.5687 -0.2272
 8085SOL     OW35890   0.185   1.008   0.062 -0.3607  0.8299 -0.0586
 8085SOL    HW135891   0.230   0.924   0.057  0.3409  1.1951  0.1602
 8085SOL    HW235892   0.100   0.990   0.101 -0.0606  3.2803  1.7235
 8086SOL     OW35893   2.471   0.288  12.694 -0.3952 -0.0966 -0.1947
 8086SOL    HW135894   2.518   0.367  12.667 -0.1584 -0.5673 -1.1683
 8086SOL    HW235895   2.441   0.310  12.782 -0.5686  2.6328 -0.9472
 8087SOL     OW35896   2.666   0.930   2.265  0.0424  0.0718  0.3181
 8087SOL    HW135897   2.680   0.836   2.282  0.2367 -0.3026 -1.8900
 8087SOL    HW235898   2.571   0.934   2.269  0.0123 -0.5047  0.2463
 8088SOL     OW35899   2.728   1.889   2.122  0.0764 -0.0362  0.0591
 8088SOL    HW135900   2.805   1.842   2.153  0.3510  1.4500  1.6412
 8088SOL    HW235901   2.658   1.835   2.159  0.7108  0.3390  1.8158
 8089SOL     OW35902   0.298   0.227  16.017  0.0172 -0.2878 -0.5898
 8089SOL    HW135903   0.270   0.137  16.000  0.8065 -0.3005 -1.7925
 8089SOL    HW235904   0.321   0.232  16.110  3.9225  1.4303 -1.6350
 8090SOL     OW35905   2.010   1.525   9.029  0.1875 -0.2459 -0.2942
 8090SOL    HW135906   2.015   1.440   9.073 -1.9981 -1.7278 -2.9117
 8090SOL    HW235907   1.916   1.543   9.026  0.0025 -0.9461  1.1698
 8091SOL     OW35908   0.628   0.650   1.659  0.4267  0.0835  0.1985
 8091SOL    HW135909   0.694   0.653   1.728  1.2515 -2.3736 -0.4729
 8091SOL    HW235910   0.572   0.576   1.682 -0.3597  0.2094 -1.2633
 8092SOL     OW35911   1.584   2.593   4.799  0.1287  0.1256  0.0228
 8092SOL    HW135912   1.552   2.560   4.714 -1.1127 -1.1870  0.9890
 8092SOL    HW235913   1.588   2.687   4.783 -0.2198 -0.0202 -0.9752
 8093SOL     OW35914   3.053   3.072   5.196 -0.0134 -0.2295 -0.3211
 8093SOL    HW135915   2.969   3.035   5.167  0.2352 -2.3806  1.6975
 8093SOL    HW235916   3.114   2.998   5.200 -1.2614 -1.3250 -1.5602
 8094SOL     OW35917   2.395   0.586  17.546 -0.6063  0.6712  0.0942
 8094SOL    HW135918   2.457   0.651  17.513 -2.2931  0.8888 -2.6478
 8094SOL    HW235919   2.409   0.508  17.492  1.8434  1.8181 -0.8684
 8095SOL     OW35920   3.673   0.114  13.613 -0.0260  0.1779 -0.6594
 8095SOL    HW135921   3.705   0.155  13.694  0.7121  0.5779 -1.1491
 8095SOL    HW235922   3.696   0.183  13.551  3.1584 -1.3121 -1.1666
 8096SOL     OW35923   2.803   2.536   4.756 -0.2320 -0.1039 -0.1667
 8096SOL    HW135924   2.886   2.520   4.711  0.0070 -0.3972  0.3895
 8096SOL    HW235925   2.810   2.493   4.841  1.6871 -1.5398 -1.0416
 8097SOL     OW35926   4.033   2.332   2.811  0.2855  0.0943  0.2788
 8097SOL    HW135927   4.050   2.380   2.892  0.2017 -0.3965  0.5904
 8097SOL    HW235928   3.973   2.394   2.770 -2.4717 -2.3250  0.5898
 8098SOL     OW35929   2.914   0.775  11.771 -0.3374 -0.8048  0.9562
 8098SOL    HW135930   2.877   0.772  11.682 -1.5847 -1.2341  1.4883
 8098SOL    HW235931   2.885   0.863  11.794  1.5407 -0.0340  0.3668
 8099SOL     OW35932   3.042   3.819  11.343  0.0861 -0.4114 -0.0204
 8099SOL    HW135933   3.106   3.754  11.372  0.4003 -0.5784 -1.0780
 8099SOL    HW235934   3.030   3.864  11.427 -0.8421  0.9662 -0.8753
 8100SOL     OW35935   2.064   0.433  10.512  0.5196  0.7107 -0.0022
 8100SOL    HW135936   2.149   0.391  10.506 -0.8060 -1.7075 -1.6510
 8100SOL    HW235937   2.090   0.525  10.518  1.9848  0.1076  2.7970
 8101SOL     OW35938   4.332   2.788   3.635  0.6166 -0.1886 -0.2821
 8101SOL    HW135939   4.383   2.786   3.554  0.7138  0.9434 -0.2446
 8101SOL    HW235940   4.392   2.824   3.700  0.1488 -0.0384  0.0663
 8102SOL     OW35941   2.380   4.055   5.174  0.0208  0.8933  0.2026
 8102SOL    HW135942   2.440   3.995   5.130 -0.5998  0.6402 -0.2912
 8102SOL    HW235943   2.391   4.044   5.269  0.6460 -1.0894 -0.0912
 8103SOL     OW35944   3.916   0.782   5.403 -0.0260  0.7286 -1.0672
 8103SOL    HW135945   3.872   0.836   5.337 -2.0279 -0.9841 -1.1219
 8103SOL    HW235946   3.849   0.776   5.471 -0.0998  2.2518 -0.9914
 8104SOL     OW35947   4.623   4.211  15.261 -0.0383 -0.3890  0.4095
 8104SOL    HW135948   4.584   4.293  15.292 -0.6323 -0.8349  0.8265
 8104SOL    HW235949   4.574   4.197  15.180  0.1708  0.1286  0.1872
 8105SOL     OW35950   4.071   3.590   2.459  0.4785  0.4467 -0.6279
 8105SOL    HW135951   4.158   3.629   2.471  0.5759  0.1005 -0.2320
 8105SOL    HW235952   4.059   3.561   2.549  2.1703  3.3499  0.5401
 8106SOL     OW35953   2.323   4.585  13.473  0.2709  0.1514  0.0020
 8106SOL    HW135954   2.342   4.500  13.432  0.6067 -0.1706  0.8277
 8106SOL    HW235955   2.259   4.629  13.418 -0.0701 -1.9416 -1.2926
 8107SOL     OW35956   2.454   3.239   3.782  0.2787  0.0722 -0.6661
 8107SOL    HW135957   2.446   3.321   3.832 -2.3710 -0.1085 -0.7740
 8107SOL    HW235958   2.396   3.183   3.834 -0.8055 -0.3058 -2.3047
 8108SOL     OW35959   1.316   0.264  12.227  0.3588  0.1858  0.0547
 8108SOL    HW135960   1.221   0.262  12.219  0.3686 -0.9998  0.3218
 8108SOL    HW235961   1.330   0.189  12.284  0.4885  0.5594  0.5172
 8109SOL     OW35962   1.007   0.343   6.098 -0.2091 -0.1175  0.3710
 8109SOL    HW135963   1.086   0.311   6.143  1.5269 -0.1297 -2.7201
 8109SOL    HW235964   1.032   0.436   6.095  0.3243 -0.2487  0.5690
 8110SOL     OW35965   4.369   4.213   5.554  0.1532  0.1245  0.0930
 8110SOL    HW135966   4.308   4.287   5.555 -1.8271 -1.4922  0.2077
 8110SOL    HW235967   4.410   4.220   5.468 -1.2930 -0.6986 -0.6648
 8111SOL     OW35968   0.668   3.596   5.429 -0.0903  0.0108  0.0069
 8111SOL    HW135969   0.740   3.534   5.437  0.6261  0.7776 -0.4399
 8111SOL    HW235970   0.680   3.648   5.508  1.4255  2.3843 -1.8141
 8112SOL     OW35971   0.292   3.371   9.340 -0.2181  0.6823 -0.1780
 8112SOL    HW135972   0.245   3.318   9.403  0.7834 -1.8006 -1.5277
 8112SOL    HW235973   0.283   3.458   9.380 -1.2643  0.4177  0.1408
 8113SOL     OW35974   4.661   3.789   8.892 -0.1496  0.0817 -0.2832
 8113SOL    HW135975   4.578   3.834   8.877 -0.3139  0.4491  1.7577
 8113SOL    HW235976   4.694   3.793   8.802 -1.1569 -2.5702 -0.7644
 8114SOL     OW35977   0.522   1.403   9.216 -0.6586 -0.3122 -0.2420
 8114SOL    HW135978   0.606   1.445   9.235 -1.7370  0.4680  2.6801
 8114SOL    HW235979   0.494   1.382   9.304  0.6996 -0.5075  0.1521
 8115SOL     OW35980   4.131   2.333   8.479 -0.7324  1.1566 -0.2767
 8115SOL    HW135981   4.056   2.389   8.459 -1.4024 -0.0785 -1.1995
 8115SOL    HW235982   4.120   2.317   8.573  0.7668  1.5929 -0.0231
 8116SOL     OW35983   1.340   3.186  10.443  0.2895 -0.0419 -0.2986
 8116SOL    HW135984   1.338   3.098  10.482 -0.0811  0.2518  0.3454
 8116SOL    HW235985   1.309   3.233  10.520  0.5977  1.8199 -1.3066
 8117SOL     OW35986   0.214   0.631   5.028 -0.0961  0.3935  0.0804
 8117SOL    HW135987   0.250   0.716   5.056 -2.2406  1.4663 -0.4749
 8117SOL    HW235988   0.296   0.581   5.032 -0.6897 -0.7000 -2.0867
 8118SOL     OW35989   0.702   0.288   1.680 -0.3091 -0.3037 -0.6024
 8118SOL    HW135990   0.726   0.348   1.610  0.6328  1.0701  0.9261
 8118SOL    HW235991   0.658   0.213   1.639  0.0796 -0.6275 -0.4280
 8119SOL     OW35992   0.707   0.242   5.645 -0.1311 -0.2362  0.0643
 8119SOL    HW135993   0.655   0.171   5.682 -0.8983  0.8891  1.1518
 8119SOL    HW235994   0.794   0.204   5.634 -0.7893 -0.7863 -3.2436
 8120SOL     OW35995   0.935   4.277   5.319  0.2930  0.1248 -0.3824
 8120SOL    HW135996   1.019   4.241   5.290 -0.1425 -0.6879 -0.6324
 8120SOL    HW235997   0.908   4.330   5.244 -0.2550 -1.1032 -1.0424
 8121SOL     OW35998   2.490   3.666  13.119 -0.5935  0.4503  0.0200
 8121SOL    HW135999   2.469   3.593  13.061  1.7660 -1.2836  1.2868
 8121SOL    HW236000   2.579   3.682  13.087 -0.5287  0.3708  0.1587
 8122SOL     OW36001   4.689   2.364   4.064  0.3842 -0.2946 -0.7930
 8122SOL    HW136002   4.702   2.322   3.979  4.0394 -1.1307  0.1751
 8122SOL    HW236003   0.017   2.323   4.123 -0.1874  0.1324  0.1027
 8123SOL     OW36004   3.805   4.235  15.755  0.2694  0.3633 -0.6970
 8123SOL    HW136005   3.742   4.271  15.693 -0.1152 -0.4075 -0.7586
 8123SOL    HW236006   3.830   4.153  15.712  2.1083 -0.1538  1.3804
 8124SOL     OW36007   4.304   1.521   2.994  0.2875  0.5014 -0.6655
 8124SOL    HW136008   4.260   1.570   2.925  1.2279  1.1304 -0.8210
 8124SOL    HW236009   4.256   1.439   3.001  1.8350 -0.4743 -1.4382
 8125SOL     OW36010   0.779   3.397   7.683  0.2000 -0.6126  0.1622
 8125SOL    HW136011   0.804   3.358   7.767  2.5129  0.9972  0.2075
 8125SOL    HW236012   0.701   3.444   7.713  0.6504 -0.4107  1.0039
 8126SOL     OW36013   1.190   4.592  14.557 -0.0613 -0.4302 -0.2173
 8126SOL    HW136014   1.241   4.649  14.615 -1.0652  1.3740 -1.1035
 8126SOL    HW236015   1.104   4.633  14.558  0.8233  1.5006 -2.0656
 8127SOL     OW36016   1.174   3.665  12.047  0.5064  0.3911  0.1715
 8127SOL    HW136017   1.081   3.639  12.049  1.2372 -2.1216  1.6222
 8127SOL    HW236018   1.166   3.735  12.112 -0.0477 -0.9287  1.5402
 8128SOL     OW36019   1.439   4.182   6.514  0.1134  0.1800  0.6585
 8128SOL    HW136020   1.376   4.187   6.586 -1.6692 -0.8514 -0.8366
 8128SOL    HW236021   1.442   4.090   6.488 -0.7045  0.3495 -0.0161
 8129SOL     OW36022   3.696   4.422   2.691  0.2082 -0.1778  0.2910
 8129SOL    HW136023   3.740   4.390   2.770  0.8925  1.6000  0.6312
 8129SOL    HW236024   3.762   4.489   2.673 -0.7760  0.3169 -1.5017
 8130SOL     OW36025   4.585   4.604  17.408 -0.4897 -0.8185  0.4547
 8130SOL    HW136026   4.499   4.601  17.449 -1.6932 -0.2467 -2.0097
 8130SOL    HW236027   4.622   4.524  17.446 -0.2278 -0.0217  1.8522
 8131SOL     OW36028   0.733   1.980  10.151 -0.7168  0.2173  0.2262
 8131SOL    HW136029   0.667   2.030  10.200  0.3816 -0.0118  1.9101
 8131SOL    HW236030   0.675   1.948  10.082 -1.1032  0.4815  0.4246
 8132SOL     OW36031   0.639   1.115   1.010  0.4752 -0.4248  0.1663
 8132SOL    HW136032   0.619   1.155   0.925 -0.9846  2.1779  1.7442
 8132SOL    HW236033   0.563   1.140   1.063 -0.2090  0.7827 -1.4096
 8133SOL     OW36034   1.035   2.168   2.561  0.6169 -0.0421 -0.3394
 8133SOL    HW136035   1.024   2.203   2.473 -0.6036  0.9114  0.1932
 8133SOL    HW236036   0.974   2.226   2.606 -0.0731  0.0244 -1.3651
 8134SOL     OW36037   0.672   2.376   3.909 -0.1664 -0.0239  0.2607
 8134SOL    HW136038   0.683   2.323   3.830 -0.9941  0.0209  0.1115
 8134SOL    HW236039   0.759   2.409   3.931  0.1487  0.2336 -1.3468
 8135SOL     OW36040   3.021   3.280   1.775 -0.2586 -0.0107 -0.3842
 8135SOL    HW136041   3.041   3.324   1.858  2.1726 -1.3704 -0.2597
 8135SOL    HW236042   3.058   3.344   1.715 -0.5809  1.6532  1.1851
 8136SOL     OW36043   0.721   0.768  13.252 -0.1815 -0.2408 -0.3380
 8136SOL    HW136044   0.721   0.735  13.342 -0.3076 -0.0492 -0.2663
 8136SOL    HW236045   0.658   0.703  13.221  0.8329 -2.6171  2.5383
 8137SOL     OW36046   3.651   3.688   2.388  0.0417  0.0842  0.1359
 8137SOL    HW136047   3.619   3.602   2.363  0.6300  0.7153 -2.7524
 8137SOL    HW236048   3.613   3.707   2.474 -0.2025  0.9025 -0.1480
 8138SOL     OW36049   2.467   0.246   8.680 -0.1826  0.0646 -0.2716
 8138SOL    HW136050   2.470   0.330   8.634  0.6603 -0.1549 -0.6080
 8138SOL    HW236051   2.466   0.278   8.770 -0.6447 -0.5984 -0.0463
 8139SOL     OW36052   3.518   2.916   8.956 -0.0515 -0.6654 -0.5025
 8139SOL    HW136053   3.557   2.893   8.872 -1.3716  0.8479 -1.5419
 8139SOL    HW236054   3.425   2.915   8.932 -0.2625  0.5111  0.2449
 8140SOL     OW36055   3.166   0.710   2.611  0.2460  0.1390 -0.2077
 8140SOL    HW136056   3.195   0.654   2.539  1.9308  0.9598 -0.1779
 8140SOL    HW236057   3.149   0.644   2.678 -2.7650 -0.6608 -1.7478
 8141SOL     OW36058   1.850   2.508   1.991  0.0358 -0.6036 -0.0702
 8141SOL    HW136059   1.895   2.424   1.983 -0.4495 -0.7691 -1.1857
 8141SOL    HW236060   1.788   2.503   1.917 -0.2326  1.0383  0.0506
 8142SOL     OW36061   0.615   1.402   7.137 -0.2139  0.0153  0.5643
 8142SOL    HW136062   0.660   1.413   7.054 -0.7180  0.4698  0.3522
 8142SOL    HW236063   0.680   1.444   7.194 -0.4253 -1.3645  1.8503
 8143SOL     OW36064   1.937   4.527   3.726  0.2998 -0.3420  0.1095
 8143SOL    HW136065   1.919   4.517   3.633 -0.3498  1.0689  0.0838
 8143SOL    HW236066   1.855   4.557   3.764  0.2857  0.0134 -0.2018
 8144SOL     OW36067   2.553   2.906  16.934 -0.4228  0.2630  0.0314
 8144SOL    HW136068   2.642   2.934  16.911 -0.0276 -0.8220  0.2504
 8144SOL    HW236069   2.564   2.837  16.998  1.7208  1.8084  1.3282
 8145SOL     OW36070   3.034   0.272   8.458 -0.1648 -0.1027  0.2303
 8145SOL    HW136071   3.091   0.195   8.453 -1.6435 -1.2035  0.3856
 8145SOL    HW236072   3.056   0.312   8.374 -1.2169 -0.3925 -0.1825
 8146SOL     OW36073   1.431   2.774   5.285 -0.3962 -0.4997 -0.3419
 8146SOL    HW136074   1.407   2.759   5.193  0.5477 -0.1089 -0.6513
 8146SOL    HW236075   1.352   2.809   5.325  0.2923 -0.8393  1.3260
 8147SOL     OW36076   1.167   0.017   5.341 -0.2747  0.1208 -0.0339
 8147SOL    HW136077   1.253   0.038   5.379  0.0928  1.6159 -1.6917
 8147SOL    HW236078   1.141   4.670   5.382  1.0678 -0.6877 -0.7919
 8148SOL     OW36079   2.939   2.033   6.084 -0.0039 -0.3380 -0.5034
 8148SOL    HW136080   2.994   2.107   6.060  0.0372 -0.4998 -0.9040
 8148SOL    HW236081   2.919   2.063   6.173 -0.9451  1.0835 -1.1953
 8149SOL     OW36082   1.556   0.342   7.499 -0.2891  0.5565 -0.1014
 8149SOL    HW136083   1.557   0.401   7.575  1.1788  0.2746  0.0984
 8149SOL    HW236084   1.556   0.411   7.433  1.5334 -0.5432 -1.2364
 8150SOL     OW36085   3.070   1.631  11.710 -0.5358  0.2461 -0.1619
 8150SOL    HW136086   3.165   1.634  11.720 -0.4599 -2.4538 -0.1484
 8150SOL    HW236087   3.053   1.725  11.698  0.7220  0.3972 -0.7589
 8151SOL     OW36088   1.974   2.842   6.410  0.3328 -0.1748 -0.4495
 8151SOL    HW136089   1.954   2.873   6.322 -0.8215  1.8427  0.5277
 8151SOL    HW236090   1.889   2.834   6.453  0.1520  1.3800 -0.5184
 8152SOL     OW36091   2.335   4.620  17.203 -0.1643  0.0410  0.0644
 8152SOL    HW136092   2.414   4.657  17.243 -0.7729  2.5364 -1.0872
 8152SOL    HW236093   2.362   4.570  17.126  3.2789 -0.6761  1.7237
 8153SOL     OW36094   3.290   1.699  14.324  0.2541 -0.3037 -0.0444
 8153SOL    HW136095   3.245   1.752  14.258 -1.6539 -2.2764 -0.3284
 8153SOL    HW236096   3.350   1.640  14.279  0.3874  1.5727 -2.2779
 8154SOL     OW36097   3.471   0.396  10.733  0.1511  0.2924 -0.4991
 8154SOL    HW136098   3.395   0.338  10.739  1.5565 -1.6022 -1.1814
 8154SOL    HW236099   3.448   0.455  10.805  0.5152 -1.1728  0.8085
 8155SOL     OW36100   1.048   1.310   8.780 -0.2427  0.6825  0.4644
 8155SOL    HW136101   1.140   1.292   8.760 -0.8618 -0.4363 -1.3423
 8155SOL    HW236102   1.059   1.397   8.742 -0.9782  1.4432  1.9951
 8156SOL     OW36103   0.847   4.501  12.354 -0.5310  0.3882 -0.0530
 8156SOL    HW136104   0.763   4.494  12.400 -0.5430 -0.2297 -0.1727
 8156SOL    HW236105   0.831   4.579  12.301 -0.0256 -1.2470 -2.6101
 8157SOL     OW36106   4.360   4.183   8.041  0.3300 -0.5171  0.0688
 8157SOL    HW136107   4.399   4.146   7.962 -2.0373 -1.8532 -0.4761
 8157SOL    HW236108   4.280   4.218   8.003  0.7737 -0.3177 -0.6800
 8158SOL     OW36109   3.537   0.882   3.589 -0.0547 -0.3550 -0.0190
 8158SOL    HW136110   3.592   0.924   3.655 -0.1806 -1.3041  0.6902
 8158SOL    HW236111   3.468   0.842   3.642 -1.7516  0.7285 -1.4175
 8159SOL     OW36112   0.228   0.017   7.545  0.1191 -0.6432  0.4416
 8159SOL    HW136113   0.277   0.003   7.626 -1.3322 -0.8739  1.2817
 8159SOL    HW236114   0.137   0.023   7.575  0.7720  1.4114  2.0089
 8160SOL     OW36115   2.619   1.726   6.922  0.4898 -0.1132  0.4368
 8160SOL    HW136116   2.581   1.739   7.009  1.5078  0.0936  0.8535
 8160SOL    HW236117   2.656   1.638   6.919  2.7824  0.8570  0.0381
 8161SOL     OW36118   2.888   4.097   6.582  0.2516  0.0930  0.8607
 8161SOL    HW136119   2.906   4.115   6.674 -1.2235 -0.5568  1.2715
 8161SOL    HW236120   2.795   4.084   6.599  0.1834  0.8151  1.0404
 8162SOL     OW36121   3.977   4.161   2.153  0.1181 -0.0170 -0.0144
 8162SOL    HW136122   3.889   4.151   2.189  0.4222  0.2176  0.7883
 8162SOL    HW236123   4.040   4.107   2.200 -0.1228  0.0247  0.3495
 8163SOL     OW36124   4.124   2.033   9.858  0.6238  0.1219 -0.0644
 8163SOL    HW136125   4.130   2.125   9.881  0.2097  0.0473  0.3334
 8163SOL    HW236126   4.207   2.017   9.813  0.1220  0.4921 -1.1494
 8164SOL     OW36127   1.398   4.697   6.867  0.0338 -0.4758  0.3383
 8164SOL    HW136128   1.340   0.033   6.838 -0.5047 -1.2313 -0.4489
 8164SOL    HW236129   1.399   4.720   6.960 -0.3400 -1.7724  0.6605
 8165SOL     OW36130   2.994   1.784   2.675  0.1225  0.1010 -0.4539
 8165SOL    HW136131   3.026   1.694   2.666 -1.1473 -0.6644  2.7725
 8165SOL    HW236132   2.964   1.776   2.766 -2.2188 -0.8331 -1.3221
 8166SOL     OW36133   1.466   4.040   9.627  0.3442 -0.4373  0.3214
 8166SOL    HW136134   1.447   4.045   9.534  2.0288 -2.2688 -0.1352
 8166SOL    HW236135   1.385   4.011   9.668 -0.6062 -0.0418 -1.2974
 8167SOL     OW36136   1.600   0.449  14.152  0.2329 -0.5401  0.4756
 8167SOL    HW136137   1.586   0.541  14.130 -2.6521 -1.0809  0.0384
 8167SOL    HW236138   1.648   0.456  14.235  0.7948  1.0225  0.0282
 8168SOL     OW36139   0.878   1.129   4.670  0.0110  0.5744  0.0562
 8168SOL    HW136140   0.962   1.157   4.708  0.8007 -0.2808 -1.0295
 8168SOL    HW236141   0.877   1.164   4.581  1.2096  0.4405 -0.0223
 8169SOL     OW36142   0.320   2.721   7.265  0.1690  0.1629 -0.3105
 8169SOL    HW136143   0.245   2.696   7.320 -0.6448  0.8707 -1.1071
 8169SOL    HW236144   0.383   2.651   7.285 -2.0227 -2.0660 -1.1323
 8170SOL     OW36145   2.109   2.697   0.032  0.1278  0.1440 -0.0213
 8170SOL    HW136146   2.183   2.684  17.710 -0.9867 -0.0282 -1.3822
 8170SOL    HW236147   2.146   2.757   0.097 -0.6451  0.9379 -0.2968
 8171SOL     OW36148   0.535   1.830   3.149  0.2421 -0.2789  0.5691
 8171SOL    HW136149   0.485   1.856   3.226  0.4321 -3.1541  1.6733
 8171SOL    HW236150   0.623   1.867   3.160 -0.0767  0.8307 -0.7078
 8172SOL     OW36151   2.122   0.701   6.422  0.0927 -0.0617 -0.2502
 8172SOL    HW136152   2.066   0.694   6.499 -0.4260 -2.3027 -0.8117
 8172SOL    HW236153   2.089   0.781   6.382  0.8898  1.1226  1.4883
 8173SOL     OW36154   1.638   1.257  13.950 -0.1274  0.1929 -0.1684
 8173SOL    HW136155   1.626   1.164  13.968  1.8628  0.1763  1.0115
 8173SOL    HW236156   1.733   1.252  13.955 -0.1251  1.9074  1.4288
 8174SOL     OW36157   3.941   3.591   7.403  0.0355 -0.1284 -0.3253
 8174SOL    HW136158   3.880   3.593   7.329 -1.3716 -2.2093  0.7621
 8174SOL    HW236159   3.880   3.583   7.477  0.6419  1.3028  0.3130
 8175SOL     OW36160   3.015   2.814   7.662  0.5231  0.1627  0.0259
 8175SOL    HW136161   2.926   2.819   7.696  1.2964  0.7206  1.9609
 8175SOL    HW236162   3.043   2.898   7.628 -2.0937  1.1229  0.2324
 8176SOL     OW36163   1.527   0.720  14.095 -0.2047  0.8192  0.3817
 8176SOL    HW136164   1.445   0.727  14.143 -0.4139 -2.1987  0.4955
 8176SOL    HW236165   1.555   0.810  14.110 -0.2739  0.7266  1.0381
 8177SOL     OW36166   0.915   2.823   5.564  0.1798 -0.7548  0.8575
 8177SOL    HW136167   0.908   2.731   5.537 -3.2855  0.1390 -1.2743
 8177SOL    HW236168   0.995   2.826   5.616  2.4565 -0.4165 -2.7014
 8178SOL     OW36169   2.812   2.068   8.780  0.4580 -0.1418  0.2507
 8178SOL    HW136170   2.755   2.143   8.765  0.4352 -0.2360 -0.1300
 8178SOL    HW236171   2.748   1.997   8.789  1.8949 -1.6427 -1.1101
 8179SOL     OW36172   4.107   3.078   8.023  0.0126 -0.7823  0.2139
 8179SOL    HW136173   4.138   3.168   8.011  0.5645 -1.1841 -1.3216
 8179SOL    HW236174   4.019   3.088   8.061  0.2349  2.1942 -0.0638
 8180SOL     OW36175   4.215   0.620   3.238  0.0736 -0.3103  0.7250
 8180SOL    HW136176   4.295   0.664   3.210  0.3048 -1.7441 -0.9032
 8180SOL    HW236177   4.231   0.608   3.331  1.2985 -0.8782  0.4406
 8181SOL     OW36178   0.430   3.555   8.191 -0.0110 -0.4572 -0.6687
 8181SOL    HW136179   0.459   3.642   8.165 -0.4036  0.3606  1.6373
 8181SOL    HW236180   0.516   3.514   8.190 -0.2047 -0.8681 -1.1677
 8182SOL     OW36181   0.523   3.336  15.710  0.3140 -0.2507 -0.2652
 8182SOL    HW136182   0.479   3.400  15.765 -1.2612 -0.5261 -1.1732
 8182SOL    HW236183   0.614   3.355  15.731 -0.1837  1.2314  0.5402
 8183SOL     OW36184   4.478   0.861   6.416 -0.4428 -0.1308 -0.1376
 8183SOL    HW136185   4.525   0.844   6.498  0.4051  3.3817  0.0939
 8183SOL    HW236186   4.404   0.802   6.426 -0.4659 -0.0394  0.2400
 8184SOL     OW36187   0.956   2.786  12.526  0.0529  0.0766 -0.2098
 8184SOL    HW136188   0.960   2.697  12.491  2.2048 -0.1695  0.6646
 8184SOL    HW236189   0.964   2.840  12.447  0.6483  0.6267  0.2294
 8185SOL     OW36190   4.118   0.508   2.743  0.8061 -0.3195 -0.5100
 8185SOL    HW136191   4.151   0.482   2.657  0.4560  1.5844 -1.2122
 8185SOL    HW236192   4.099   0.422   2.782 -1.6494  0.1336 -0.7205
 8186SOL     OW36193   0.135   1.351   0.802  0.1568  0.1816 -0.7672
 8186SOL    HW136194   0.206   1.384   0.857 -1.4413  1.4244  0.5986
 8186SOL    HW236195   0.183   1.277   0.765  4.5790  3.0735 -0.7996
 8187SOL     OW36196   4.274   4.346   4.020 -0.4626  0.4763  0.2398
 8187SOL    HW136197   4.208   4.278   4.011  0.7313 -0.7476  0.6961
 8187SOL    HW236198   4.356   4.301   3.999 -2.2398 -2.4253 -0.4532
 8188SOL     OW36199   4.623   4.245   1.897 -0.5978  0.2658 -0.1455
 8188SOL    HW136200   4.547   4.244   1.956 -1.8176  0.2604 -1.7263
 8188SOL    HW236201   4.602   4.298   1.820  0.1343  1.2512  0.3442
 8189SOL     OW36202   2.553   3.426   9.232  0.2367 -0.0417  0.1359
 8189SOL    HW136203   2.546   3.468   9.317  2.0152 -0.8055  0.6542
 8189SOL    HW236204   2.629   3.373   9.255  1.1164  0.5981 -1.3038
 8190SOL     OW36205   3.165   1.081   6.372 -0.0095  0.5957  0.3421
 8190SOL    HW136206   3.209   1.162   6.399  0.9809 -0.6984  2.6359
 8190SOL    HW236207   3.079   1.111   6.341 -2.2475 -3.6772  2.4723
 8191SOL     OW36208   2.438   3.334  14.234  0.5694 -0.0216 -0.3738
 8191SOL    HW136209   2.368   3.330  14.299 -0.4534  1.3104 -1.4009
 8191SOL    HW236210   2.421   3.249  14.194  1.7143  0.0263 -0.9616
 8192SOL     OW36211   2.273   2.360   1.908 -0.1088 -0.4782 -0.2789
 8192SOL    HW136212   2.357   2.400   1.931 -0.2973 -0.3104  0.1174
 8192SOL    HW236213   2.301   2.274   1.878  1.3464 -0.3397  0.6572
 8193SOL     OW36214   0.838   0.460   4.702  0.3747 -0.0511  0.0448
 8193SOL    HW136215   0.862   0.546   4.736  0.0349 -0.4342  1.2530
 8193SOL    HW236216   0.898   0.408   4.755 -0.2913 -0.9282 -0.0522
 8194SOL     OW36217   2.053   1.990   2.910 -0.4828 -0.3562 -0.5708
 8194SOL    HW136218   2.140   2.007   2.873 -0.0304 -2.1425 -0.3498
 8194SOL    HW236219   2.017   1.933   2.841  1.8861 -0.6719 -1.5598
 8195SOL     OW36220   4.550   0.351   1.314  0.4021  0.4330 -0.2390
 8195SOL    HW136221   4.645   0.342   1.316  0.2421 -1.2240  0.0234
 8195SOL    HW236222   4.537   0.445   1.299 -0.2678  0.2824 -0.6049
 8196SOL     OW36223   2.710   2.908  12.532 -1.1604  0.3598 -0.0124
 8196SOL    HW136224   2.689   2.977  12.470 -0.1278  0.9167  0.2687
 8196SOL    HW236225   2.685   2.828  12.485 -0.9296  1.4241 -1.9331
 8197SOL     OW36226   3.822   1.383   7.529  0.5518  0.7363 -0.1258
 8197SOL    HW136227   3.846   1.308   7.474 -1.1924 -0.1753  0.3858
 8197SOL    HW236228   3.797   1.337   7.609  1.0104 -1.7281 -1.3838
 8198SOL     OW36229   3.210   1.350   6.425  0.1878  0.3621 -0.1589
 8198SOL    HW136230   3.297   1.312   6.427  0.0979  0.0357 -1.9222
 8198SOL    HW236231   3.201   1.403   6.504 -0.2927 -1.5711  1.0666
 8199SOL     OW36232   3.022   1.731   0.236  0.1416  0.6388 -0.8204
 8199SOL    HW136233   3.024   1.770   0.324  1.6424  0.4026 -0.7414
 8199SOL    HW236234   3.056   1.645   0.261 -0.1545  1.0208  0.8974
 8200SOL     OW36235   1.844   1.540   6.273  0.1027  0.8825 -0.3329
 8200SOL    HW136236   1.762   1.562   6.317 -0.4267  1.9369 -1.8655
 8200SOL    HW236237   1.871   1.628   6.247 -0.5650  1.1771 -0.0175
 8201SOL     OW36238   0.029   3.475  11.001  0.7646 -0.0795  0.0470
 8201SOL    HW136239   0.032   3.477  10.905 -1.4394  2.8349  0.0442
 8201SOL    HW236240   0.020   3.566  11.030  0.9788 -0.3302  0.8755
 8202SOL     OW36241   3.369   2.176   5.609  0.3590  0.5987  0.5668
 8202SOL    HW136242   3.277   2.174   5.583  0.7297 -1.8360 -0.6111
 8202SOL    HW236243   3.381   2.081   5.605  1.7829  0.9358 -2.7021
 8203SOL     OW36244   3.661   0.705   8.230  0.3234 -0.1205 -0.5169
 8203SOL    HW136245   3.661   0.675   8.321 -0.8383  0.6008 -0.2804
 8203SOL    HW236246   3.706   0.789   8.226  1.5030 -0.7826 -1.0648
 8204SOL     OW36247   1.133   0.134  15.603 -0.3823 -0.2587 -0.6375
 8204SOL    HW136248   1.095   0.105  15.686  2.1700 -1.7335  0.0214
 8204SOL    HW236249   1.127   0.229  15.615  2.3014 -0.3420  1.4870
 8205SOL     OW36250   2.689   0.723   4.208  0.3506  0.6333  0.0750
 8205SOL    HW136251   2.734   0.784   4.266  0.3354 -0.1131  0.8727
 8205SOL    HW236252   2.735   0.640   4.216  0.7746  0.7560 -1.0382
 8206SOL     OW36253   0.593   3.052   9.198 -0.2341  0.0761 -0.2700
 8206SOL    HW136254   0.583   3.147   9.208  2.5939  0.3130  0.4576
 8206SOL    HW236255   0.591   3.054   9.103 -1.2474 -2.4751 -0.2887
 8207SOL     OW36256   3.565   1.249  17.293 -0.4768  0.1537 -0.0097
 8207SOL    HW136257   3.489   1.297  17.326 -0.2462  0.0061  0.7477
 8207SOL    HW236258   3.614   1.241  17.375  2.0275  0.4952 -1.4918
 8208SOL     OW36259   0.431   0.562  15.038  0.8283 -0.9423  0.4228
 8208SOL    HW136260   0.384   0.639  15.069 -0.2992 -1.7692  0.7552
 8208SOL    HW236261   0.369   0.526  14.974  2.2639 -2.0523 -0.3581
 8209SOL     OW36262   2.496   4.035  16.486  0.6399 -0.0847  0.3028
 8209SOL    HW136263   2.448   4.002  16.410  0.0233 -0.4284  0.8344
 8209SOL    HW236264   2.517   4.128  16.476 -0.0496  0.2242  1.7710
 8210SOL     OW36265   3.556   2.735   9.176 -0.7194 -0.3827 -0.1556
 8210SOL    HW136266   3.548   2.778   9.091  2.9958  0.5993  0.0174
 8210SOL    HW236267   3.588   2.655   9.134  1.1493 -0.6224  1.7359
 8211SOL     OW36268   1.379   1.242   3.488  0.1009 -0.0536 -0.2999
 8211SOL    HW136269   1.394   1.333   3.460  2.9555 -0.0626  1.2302
 8211SOL    HW236270   1.307   1.225   3.428 -1.2439 -1.3871  1.6961
 8212SOL     OW36271   1.659   0.847   5.833  0.1489 -0.6503  0.2106
 8212SOL    HW136272   1.607   0.887   5.763  2.5135  0.0717 -1.1374
 8212SOL    HW236273   1.595   0.780   5.860 -0.5546  0.0185  0.2051
 8213SOL     OW36274   1.408   1.138   9.328 -0.6769  0.1847 -0.2959
 8213SOL    HW136275   1.356   1.195   9.272 -0.2361  1.6530  0.7746
 8213SOL    HW236276   1.340   1.084   9.367 -0.3969  0.0990  0.0784
 8214SOL     OW36277   0.009   1.434  17.315 -0.0034  0.3370  0.1678
 8214SOL    HW136278   0.054   1.516  17.294 -1.3628  1.1816  0.5369
 8214SOL    HW236279   4.691   1.470  17.386 -0.5422  2.9488 -1.5375
 8215SOL     OW36280   0.564   0.168   2.033  0.0356 -0.1757 -0.4098
 8215SOL    HW136281   0.654   0.139   2.017  0.4037 -0.8378  2.7938
 8215SOL    HW236282   0.581   0.260   2.054 -2.1843 -0.5086  2.8955
 8216SOL     OW36283   3.767   3.908  13.012  0.0810 -0.0829  0.0708
 8216SOL    HW136284   3.818   3.884  12.935  0.4933 -0.5263  0.4742
 8216SOL    HW236285   3.762   3.823  13.057  1.3956 -0.1728  0.0417
 8217SOL     OW36286   1.563   4.490  16.701 -1.3959  0.2084 -0.3603
 8217SOL    HW136287   1.548   4.584  16.712 -0.7475  0.2160  0.4761
 8217SOL    HW236288   1.552   4.462  16.792 -1.0461  0.9998 -0.0705
 8218SOL     OW36289   2.772   1.539  11.493 -0.1186  0.2328 -0.5530
 8218SOL    HW136290   2.741   1.457  11.454  3.1373 -0.9942 -0.4966
 8218SOL    HW236291   2.865   1.519  11.488 -0.1453 -0.0458  0.1080
 8219SOL     OW36292   2.498   0.147  12.287 -0.4226 -0.3096  0.0784
 8219SOL    HW136293   2.565   0.143  12.356  0.7556  0.6431 -1.0131
 8219SOL    HW236294   2.428   0.203  12.318 -0.2357  0.2628 -0.5423
 8220SOL     OW36295   0.287   4.086   8.770 -0.7354  0.1440  0.0439
 8220SOL    HW136296   0.209   4.108   8.820 -0.0405  0.8067  0.8466
 8220SOL    HW236297   0.242   4.024   8.713  1.7618 -0.4495 -1.2971
 8221SOL     OW36298   2.591   0.605   6.765  0.3137  0.1479 -0.0562
 8221SOL    HW136299   2.501   0.631   6.750 -0.0258 -1.0883 -0.1572
 8221SOL    HW236300   2.630   0.644   6.687  1.0361 -0.5542 -0.0508
 8222SOL     OW36301   3.629   2.654   0.760  0.2823 -0.0699 -0.5067
 8222SOL    HW136302   3.543   2.613   0.751  0.4200 -0.4881  0.0666
 8222SOL    HW236303   3.616   2.707   0.839  0.3657  0.3748 -0.7890
 8223SOL     OW36304   3.584   3.597   1.807 -0.7005  0.1966 -0.8735
 8223SOL    HW136305   3.496   3.565   1.789 -0.3904 -1.2989  0.2670
 8223SOL    HW236306   3.572   3.688   1.834 -0.4888 -0.0199 -0.0302
 8224SOL     OW36307   2.746   1.168   2.363  0.3742 -0.1102  0.0792
 8224SOL    HW136308   2.675   1.190   2.303  0.2250  1.4093  0.8189
 8224SOL    HW236309   2.726   1.075   2.353 -0.1232 -0.2957  2.8531
 8225SOL     OW36310   2.367   4.335   2.217 -0.2565 -0.3974  0.0444
 8225SOL    HW136311   2.399   4.308   2.131  1.0421  0.5330  0.2234
 8225SOL    HW236312   2.374   4.252   2.263 -1.3167  0.4851  1.7905
 8226SOL     OW36313   2.102   2.396   3.212  0.3525 -0.4456 -0.5587
 8226SOL    HW136314   2.039   2.462   3.182  0.0184 -0.2535  0.5437
 8226SOL    HW236315   2.091   2.337   3.138 -0.6161  0.7440 -1.3778
 8227SOL     OW36316   0.618   3.448   8.811  0.4017  0.1649  0.2924
 8227SOL    HW136317   0.523   3.444   8.801  0.6058  0.1433 -1.6191
 8227SOL    HW236318   0.632   3.392   8.887  0.1939 -2.0338 -1.2464
 8228SOL     OW36319   0.888   0.485   3.332  0.0298 -0.6849 -0.2817
 8228SOL    HW136320   0.817   0.421   3.336  1.2203 -2.0044 -0.3006
 8228SOL    HW236321   0.969   0.435   3.324  0.9168  0.7540 -0.3535
 8229SOL     OW36322   3.570   4.630  13.228 -0.2653 -0.1718 -0.0239
 8229SOL    HW136323   3.481   4.595  13.221 -0.3424  0.5539 -2.5014
 8229SOL    HW236324   3.591   4.600  13.139 -0.3399  1.0872 -0.4599
 8230SOL     OW36325   0.632   3.065   8.932  0.7947  0.0793 -0.2161
 8230SOL    HW136326   0.653   3.156   8.911  1.3534  0.0607  0.2597
 8230SOL    HW236327   0.640   3.017   8.850 -0.0811 -2.3059  1.0864
 8231SOL     OW36328   2.165   3.825   7.617  0.2012 -0.2351 -0.3985
 8231SOL    HW136329   2.117   3.785   7.689 -1.1343 -2.4636 -2.5617
 8231SOL    HW236330   2.122   3.911   7.615 -1.0620 -0.8012  2.1315
 8232SOL     OW36331   1.823   0.348  11.394 -0.3868 -0.0269 -0.4847
 8232SOL    HW136332   1.807   0.331  11.487  2.6554  2.1025  0.4452
 8232SOL    HW236333   1.762   0.421  11.378  0.8690  1.4934  1.5540
 8233SOL     OW36334   3.985   0.800  14.621 -0.3817  0.2280 -0.0845
 8233SOL    HW136335   4.022   0.712  14.621  0.3436  0.5421 -1.6658
 8233SOL    HW236336   3.998   0.819  14.528  0.6995 -0.7585 -0.1293
 8234SOL     OW36337   0.453   2.352   3.486 -0.0382 -0.5058  0.1890
 8234SOL    HW136338   0.491   2.265   3.478 -0.3719 -0.5781 -0.5499
 8234SOL    HW236339   0.361   2.336   3.510  0.1158 -1.0419  0.4168
 8235SOL     OW36340   0.528   0.021  11.710  1.0706  0.0659  0.4842
 8235SOL    HW136341   0.483   4.676  11.684 -1.8980  1.5845  0.9519
 8235SOL    HW236342   0.608   0.017  11.657  0.0858 -0.3579 -0.9645
 8236SOL     OW36343   2.545   0.796   7.902  0.3180  0.5330  0.4271
 8236SOL    HW136344   2.625   0.836   7.937  2.1572 -0.9433 -2.1145
 8236SOL    HW236345   2.560   0.705   7.929 -0.2695  0.3508  0.1347
 8237SOL     OW36346   2.503   1.127   6.621  0.1626 -0.4420 -0.1351
 8237SOL    HW136347   2.584   1.088   6.653  0.0329  0.4524  1.3309
 8237SOL    HW236348   2.450   1.115   6.700  2.8648 -1.2375  1.5573
 8238SOL     OW36349   4.657   3.569   4.372  0.4538 -0.6010 -0.0839
 8238SOL    HW136350   4.658   3.579   4.276  2.7654  1.2560  0.1471
 8238SOL    HW236351   4.696   3.653   4.393 -2.6603  0.8882 -0.2443
 8239SOL     OW36352   4.329   0.845   3.103 -0.1105 -0.3515  0.0332
 8239SOL    HW136353   4.265   0.786   3.064 -1.5547  2.6936 -2.2062
 8239SOL    HW236354   4.403   0.831   3.044  0.2782  0.5864  0.2905
 8240SOL     OW36355   4.669   4.457   6.302  0.5594  0.8195 -0.0076
 8240SOL    HW136356   4.659   4.444   6.208  1.4922  0.8282 -0.1119
 8240SOL    HW236357   4.666   4.369   6.339 -1.4388  1.3509  1.0858
 8241SOL     OW36358   2.808   0.363   8.612  0.6658 -0.3137  0.0970
 8241SOL    HW136359   2.817   0.268   8.620  1.4607 -0.2265  0.2537
 8241SOL    HW236360   2.893   0.370   8.568  1.0872 -0.5171  0.8806
 8242SOL     OW36361   1.994   0.938   6.354  0.3032 -0.1024 -0.1639
 8242SOL    HW136362   1.908   0.911   6.324  0.3474  0.7544 -1.0677
 8242SOL    HW236363   2.028   1.005   6.294  0.8469 -0.0670  0.1826
 8243SOL     OW36364   2.845   3.324   5.313  0.2543 -0.6683 -0.2304
 8243SOL    HW136365   2.771   3.278   5.273  0.2126 -0.1676 -0.7299
 8243SOL    HW236366   2.838   3.416   5.287 -0.0530 -0.6207  0.0163
 8244SOL     OW36367   1.431   2.866   2.497  0.4766 -0.3536  0.0321
 8244SOL    HW136368   1.512   2.876   2.546  0.3859  1.1118 -0.1167
 8244SOL    HW236369   1.465   2.878   2.408  2.5387 -0.0406  0.8768
 8245SOL     OW36370   2.810   0.498  11.700  0.8143  0.1603  0.5086
 8245SOL    HW136371   2.812   0.489  11.795 -0.1510 -1.5784  0.3669
 8245SOL    HW236372   2.768   0.584  11.706  2.2337  1.0411 -2.1979
 8246SOL     OW36373   0.832   4.051  17.042  0.4399 -0.2764  0.1990
 8246SOL    HW136374   0.920   4.077  17.067  0.8405  0.8387 -2.3532
 8246SOL    HW236375   0.840   4.072  16.949  0.9307  3.1312  1.0041
 8247SOL     OW36376   0.538   0.606  11.944 -0.4180  0.3485  0.4303
 8247SOL    HW136377   0.492   0.536  11.992 -0.0659  0.5200  1.0249
 8247SOL    HW236378   0.462   0.660  11.922 -1.3994 -0.8269  0.9176
 8248SOL     OW36379   0.813   3.207  12.926 -0.2240 -0.1076 -0.4483
 8248SOL    HW136380   0.722   3.182  12.936 -0.2937  1.4798  2.8486
 8248SOL    HW236381   0.848   3.118  12.929 -0.4331 -0.0486  3.2182
 8249SOL     OW36382   3.751   1.475   8.369 -0.2627  0.2615 -0.7001
 8249SOL    HW136383   3.678   1.458   8.310  2.2029 -2.3900 -2.9819
 8249SOL    HW236384   3.718   1.426   8.444 -1.3339  1.0687 -0.6395
 8250SOL     OW36385   3.984   2.310   3.280 -0.4417 -0.1195  0.2735
 8250SOL    HW136386   3.981   2.238   3.342  0.9686 -1.0715 -0.7605
 8250SOL    HW236387   4.017   2.262   3.204 -0.7338 -0.4996  0.3912
 8251SOL     OW36388   0.848   1.830   2.843  0.6085 -0.2687  0.6595
 8251SOL    HW136389   0.864   1.838   2.749  1.9356 -2.4441  0.6834
 8251SOL    HW236390   0.766   1.780   2.840  0.5089 -0.0521 -0.1097
 8252SOL     OW36391   1.249   1.946   7.174  0.4123 -0.4928  0.3692
 8252SOL    HW136392   1.324   1.976   7.224 -0.1294  0.1368  0.8036
 8252SOL    HW236393   1.254   1.989   7.088  1.7924  1.1964  1.3071
 8253SOL     OW36394   0.097   1.622   5.028  0.7102  0.2569 -0.1237
 8253SOL    HW136395   0.042   1.567   4.972  0.3677  0.8212 -0.3438
 8253SOL    HW236396   0.148   1.667   4.961  0.4946 -0.4406 -0.7704
 8254SOL     OW36397   3.448   0.745   8.828  0.4981 -0.5402 -0.1607
 8254SOL    HW136398   3.460   0.653   8.806  1.1223 -0.0332 -1.9660
 8254SOL    HW236399   3.476   0.739   8.919 -0.9048 -1.3153  0.2174
 8255SOL     OW36400   0.305   3.123   4.340 -0.3186 -0.1646 -0.7331
 8255SOL    HW136401   0.389   3.135   4.384  0.0209  0.6603 -1.5986
 8255SOL    HW236402   0.304   3.035   4.302 -1.6479 -1.3858  2.1417
 8256SOL     OW36403   0.442   0.986   3.959  0.3055 -0.0679 -0.3696
 8256SOL    HW136404   0.408   1.068   3.923 -1.3083  0.0043  1.3096
 8256SOL    HW236405   0.378   0.966   4.027 -0.0201  3.2605  0.3040
 8257SOL     OW36406   0.597   0.299  15.690  0.2016  0.0172 -0.1067
 8257SOL    HW136407   0.543   0.341  15.756 -0.4868  0.1287 -0.7465
 8257SOL    HW236408   0.559   0.211  15.692 -1.0510  0.5850  0.7766
 8258SOL     OW36409   4.121   1.922   3.635  0.2911 -0.1929 -0.2089
 8258SOL    HW136410   4.124   2.001   3.689 -1.2054  1.3915 -2.4554
 8258SOL    HW236411   4.215   1.910   3.622  0.2157  0.9167 -1.6645
 8259SOL     OW36412   4.177   3.849  17.349 -0.3823  0.3741  0.3020
 8259SOL    HW136413   4.230   3.922  17.318 -0.2465 -0.0797 -0.5196
 8259SOL    HW236414   4.242   3.795  17.393  0.2493  1.0046  0.1486
 8260SOL     OW36415   2.635   1.750  14.075  0.1136 -0.0062  0.0467
 8260SOL    HW136416   2.626   1.783  13.986 -0.2229  0.6463  0.3273
 8260SOL    HW236417   2.542   1.745  14.097 -0.1026 -0.5734 -1.0198
 8261SOL     OW36418   3.294   0.786   6.625 -0.0830  0.2926 -0.8857
 8261SOL    HW136419   3.327   0.721   6.564 -1.7210 -1.7228  0.3820
 8261SOL    HW236420   3.348   0.860   6.597  0.5246  0.0139 -0.4457
 8262SOL     OW36421   4.295   2.901   6.598  0.0057  0.5602  0.2347
 8262SOL    HW136422   4.373   2.859   6.633  0.6934  2.3362  0.8514
 8262SOL    HW236423   4.302   2.873   6.507 -3.7056 -1.8515  0.7255
 8263SOL     OW36424   0.216   1.258   8.925  0.5544  0.2260 -0.5093
 8263SOL    HW136425   0.199   1.262   9.019  0.9763  0.4408 -0.4408
 8263SOL    HW236426   0.160   1.322   8.881  1.6947  0.4447 -1.6373
 8264SOL     OW36427   3.317   0.228   5.698  0.3117 -0.2182 -0.3280
 8264SOL    HW136428   3.398   0.279   5.693  1.4980 -1.6466  4.2090
 8264SOL    HW236429   3.341   0.142   5.663 -0.8225 -1.6287  2.3326
 8265SOL     OW36430   0.263   1.061   2.828 -0.2406 -0.5499  0.5467
 8265SOL    HW136431   0.200   1.020   2.768  0.7586 -0.4497 -0.5670
 8265SOL    HW236432   0.327   1.096   2.766 -1.4472 -1.6873 -1.3489
 8266SOL     OW36433   1.896   2.826   4.713 -0.1903  0.9295 -0.5682
 8266SOL    HW136434   1.955   2.898   4.736  2.2008 -1.5532  1.0956
 8266SOL    HW236435   1.936   2.749   4.754 -1.5735  0.1251 -0.7304
 8267SOL     OW36436   1.995   1.825   3.193 -0.8639 -0.0626 -0.1504
 8267SOL    HW136437   1.967   1.916   3.208  2.4992  1.0282 -0.4274
 8267SOL    HW236438   2.007   1.782   3.278  1.3476 -1.2257 -1.0560
 8268SOL     OW36439   0.807   2.015  11.145 -0.4875 -0.3348  0.1994
 8268SOL    HW136440   0.761   2.045  11.067  1.7516  1.0907 -0.5671
 8268SOL    HW236441   0.867   1.949  11.109  0.4509 -0.5331  2.1214
 8269SOL     OW36442   3.494   0.476  16.823  0.0410  0.6485 -0.0695
 8269SOL    HW136443   3.453   0.394  16.795 -0.5505  0.5557  1.0731
 8269SOL    HW236444   3.436   0.539  16.780 -0.2982 -0.2366 -0.9267
 8270SOL     OW36445   1.454   2.438   7.735  0.0914  0.9084  0.4351
 8270SOL    HW136446   1.519   2.507   7.748  0.6358  0.3351  0.7373
 8270SOL    HW236447   1.379   2.487   7.700 -0.9811  0.2677  1.8300
 8271SOL     OW36448   2.666   4.353  11.656  0.5904  0.3484 -0.0327
 8271SOL    HW136449   2.583   4.367  11.703  1.1666  0.2546  1.0264
 8271SOL    HW236450   2.696   4.441  11.635 -0.2642  0.6464 -0.0138
 8272SOL     OW36451   1.816   3.785   2.735  0.1664 -0.1008  0.0267
 8272SOL    HW136452   1.801   3.876   2.711  1.3299 -0.3283 -1.5469
 8272SOL    HW236453   1.816   3.747   2.647 -0.6813 -0.8223  0.3323
 8273SOL     OW36454   2.837   3.858   5.001  0.1691  0.0620 -0.1178
 8273SOL    HW136455   2.892   3.789   5.038 -0.5346 -0.5529 -0.2286
 8273SOL    HW236456   2.873   3.857   4.912 -1.8650 -0.5611 -0.9339
 8274SOL     OW36457   2.147   3.182   3.100  0.6922  0.1921  0.3201
 8274SOL    HW136458   2.127   3.246   3.032 -1.0616  1.8181  2.3733
 8274SOL    HW236459   2.092   3.107   3.079 -0.3795  1.2934 -0.7275
 8275SOL     OW36460   2.625   0.709  11.660 -0.2381 -0.4284 -0.7128
 8275SOL    HW136461   2.704   0.748  11.622 -2.3005  0.4777 -4.0183
 8275SOL    HW236462   2.589   0.677  11.578 -0.7645 -2.1894  0.2123
 8276SOL     OW36463   4.157   4.394   9.448 -0.5382 -0.2348  0.6570
 8276SOL    HW136464   4.252   4.399   9.459 -0.2410 -0.0290 -1.9649
 8276SOL    HW236465   4.141   4.301   9.458 -0.4855 -0.1652  1.3687
 8277SOL     OW36466   0.478   3.430   2.193 -0.6760 -0.0316 -0.5263
 8277SOL    HW136467   0.560   3.413   2.147  0.9914 -0.2629  2.4982
 8277SOL    HW236468   0.421   3.448   2.119  1.7687  1.1807 -2.0919
 8278SOL     OW36469   1.940   2.885  10.472 -0.2796 -0.3082  0.9349
 8278SOL    HW136470   1.924   2.874  10.379 -2.5207  0.3660  1.2439
 8278SOL    HW236471   1.860   2.845  10.507 -0.3527  0.9445  2.2449
 8279SOL     OW36472   0.920   4.092  15.615 -0.2742  0.8486  0.3844
 8279SOL    HW136473   1.007   4.127  15.631  0.1992  0.2434 -0.9263
 8279SOL    HW236474   0.941   4.002  15.592 -0.7577  0.6643  0.6572
 8280SOL     OW36475   4.081   3.041  16.865  0.2355 -0.5030 -0.0416
 8280SOL    HW136476   3.990   3.014  16.856 -0.8055  2.5769  1.3695
 8280SOL    HW236477   4.112   2.998  16.785 -2.1806 -1.6595 -0.3467
 8281SOL     OW36478   1.930   4.348   6.767 -0.1981 -0.5042 -0.0111
 8281SOL    HW136479   1.838   4.364   6.746 -0.5523 -3.3878 -0.6145
 8281SOL    HW236480   1.918   4.258   6.799  0.2248 -0.3559  0.5580
 8282SOL     OW36481   0.902   2.826   1.709 -0.5399  0.2564 -0.0829
 8282SOL    HW136482   0.889   2.759   1.642 -0.5454  0.9565 -0.7821
 8282SOL    HW236483   0.914   2.906   1.659 -0.6236  1.1020  1.2611
 8283SOL     OW36484   4.426   2.581   3.075  0.0389  0.2476 -0.3034
 8283SOL    HW136485   4.438   2.667   3.113 -0.5881  0.5708 -0.8326
 8283SOL    HW236486   4.434   2.512   3.141 -1.3732 -1.2101 -1.6145
 8284SOL     OW36487   1.954   3.818  16.505  0.0023 -0.0460 -0.1137
 8284SOL    HW136488   1.978   3.783  16.591  0.7228 -0.9854 -0.6910
 8284SOL    HW236489   1.896   3.891  16.525 -0.8120 -0.2059 -1.8765
 8285SOL     OW36490   0.250   4.218   0.782 -0.0290 -0.6077  0.4837
 8285SOL    HW136491   0.292   4.288   0.834 -0.6460 -0.1704  0.3909
 8285SOL    HW236492   0.185   4.184   0.843 -1.8589  0.3840 -0.9104
 8286SOL     OW36493   1.618   1.597   0.313  0.1606  0.3528  0.2142
 8286SOL    HW136494   1.674   1.657   0.362  0.0993  0.2822  0.3729
 8286SOL    HW236495   1.666   1.514   0.315  0.5371  0.5674 -0.2013
 8287SOL     OW36496   2.518   2.572   1.740 -0.0554 -0.3039 -0.5417
 8287SOL    HW136497   2.575   2.547   1.667 -2.0145 -0.2181 -2.0895
 8287SOL    HW236498   2.524   2.668   1.745  2.5794 -0.5250  1.0237
 8288SOL     OW36499   2.476   3.506  13.994 -0.2830  0.8300 -0.1338
 8288SOL    HW136500   2.401   3.493  13.936 -1.2089  0.8608  1.0689
 8288SOL    HW236501   2.446   3.483  14.082 -2.7707 -0.0284 -1.2176
 8289SOL     OW36502   4.286   3.011  11.530  0.2166 -0.1019 -0.0571
 8289SOL    HW136503   4.307   2.940  11.591  2.5956  0.1909 -0.5178
 8289SOL    HW236504   4.346   3.077  11.566  0.1562  0.4451 -0.9698
 8290SOL     OW36505   3.106   1.703   5.251 -0.2061 -0.1365 -0.2213
 8290SOL    HW136506   3.137   1.746   5.331  0.4371  4.1612 -2.7864
 8290SOL    HW236507   3.162   1.751   5.189 -0.0065 -0.3846 -0.2319
 8291SOL     OW36508   2.075   3.706   2.298 -0.0690  0.8030  0.6055
 8291SOL    HW136509   2.094   3.646   2.370 -2.0623 -1.3419 -0.6581
 8291SOL    HW236510   2.093   3.785   2.349 -2.0561  1.3540  0.4274
 8292SOL     OW36511   2.408   2.998   2.645  0.3601 -0.4158  0.6854
 8292SOL    HW136512   2.429   2.935   2.714  0.3195 -2.1261 -0.8771
 8292SOL    HW236513   2.312   3.001   2.637  0.3328 -1.3025  0.6962
 8293SOL     OW36514   1.917   2.289   6.926 -0.2618  0.2161 -0.2740
 8293SOL    HW136515   1.951   2.376   6.948  0.2625 -0.1568  0.4010
 8293SOL    HW236516   1.855   2.310   6.856 -0.8060  0.3616  0.2527
 8294SOL     OW36517   0.474   0.565  11.453 -0.7386  0.5009 -0.3041
 8294SOL    HW136518   0.444   0.548  11.364 -2.6102 -1.8270  0.7821
 8294SOL    HW236519   0.429   0.647  11.474  0.8820  1.2585  0.2653
 8295SOL     OW36520   3.703   0.642   3.498  0.2280 -0.5075  0.1605
 8295SOL    HW136521   3.652   0.630   3.577  1.4872  1.4348  1.2617
 8295SOL    HW236522   3.750   0.721   3.524 -1.2536  0.2432  0.5066
 8296SOL     OW36523   0.716   2.472   2.537 -0.2702  0.1852  0.3930
 8296SOL    HW136524   0.685   2.510   2.619 -0.0858 -1.4468  1.2152
 8296SOL    HW236525   0.725   2.555   2.490  0.0834  1.0398  1.9894
 8297SOL     OW36526   0.397   1.618   0.685 -0.6299 -0.7534  0.6005
 8297SOL    HW136527   0.367   1.657   0.767  1.2682  1.3153  0.3264
 8297SOL    HW236528   0.403   1.699   0.634 -0.7985 -0.7788  0.5390
 8298SOL     OW36529   3.953   2.220  12.963 -0.0240 -0.4719 -0.0216
 8298SOL    HW136530   3.886   2.198  12.898 -0.7260  1.5607  0.0251
 8298SOL    HW236531   3.911   2.182  13.040 -1.8609  1.0943 -0.2395
 8299SOL     OW36532   0.130   3.796  16.990  0.4460 -0.1696  0.1233
 8299SOL    HW136533   0.178   3.792  16.907 -0.8333  1.9167 -0.6992
 8299SOL    HW236534   0.162   3.719  17.038  1.1672  0.4242  0.5935
 8300SOL     OW36535   1.397   0.763   8.551  0.4708 -0.0356  0.0721
 8300SOL    HW136536   1.328   0.769   8.617 -0.4657  1.6039 -1.0367
 8300SOL    HW236537   1.464   0.802   8.606  0.6825  0.9838 -0.9078
 8301SOL     OW36538   0.546   0.119   6.893 -0.0376 -0.3956 -0.3973
 8301SOL    HW136539   0.528   0.068   6.971  0.8244  0.2813  0.2437
 8301SOL    HW236540   0.474   0.082   6.841  0.0473 -0.5865 -0.3776
 8302SOL     OW36541   3.733   2.679   5.989 -0.1064  0.2161  0.1761
 8302SOL    HW136542   3.784   2.690   6.069  0.2270  1.4152 -0.2000
 8302SOL    HW236543   3.800   2.720   5.934 -1.4305 -0.9485 -2.3031
 8303SOL     OW36544   3.166   3.470   1.522 -0.1098  0.5878  0.4612
 8303SOL    HW136545   3.217   3.392   1.543  0.0016  0.1603 -1.4229
 8303SOL    HW236546   3.226   3.544   1.536  0.3996  0.1645  0.5026
 8304SOL     OW36547   1.228   4.006   3.553 -0.0645 -0.4967 -0.3284
 8304SOL    HW136548   1.163   3.977   3.489 -0.3143 -1.5245  0.3880
 8304SOL    HW236549   1.204   3.959   3.633 -1.4812  0.2021 -0.3403
 8305SOL     OW36550   2.657   4.704  10.685 -0.1926 -0.0540  0.3769
 8305SOL    HW136551   2.580   4.688  10.738 -0.9907  2.2483 -0.1179
 8305SOL    HW236552   2.666   0.062  10.708 -1.9106  0.0669  0.5516
 8306SOL     OW36553   0.908   0.802   2.118 -0.2922  0.4661  0.3629
 8306SOL    HW136554   0.897   0.885   2.070 -0.2145  0.0210 -0.4244
 8306SOL    HW236555   0.828   0.751   2.105  0.1188  0.2338 -1.3602
 8307SOL     OW36556   1.268   0.539   7.559 -0.0802 -0.2993  0.4758
 8307SOL    HW136557   1.285   0.548   7.653  0.3163  0.3835  0.3311
 8307SOL    HW236558   1.265   0.633   7.542  0.5243 -0.7229 -1.9016
 8308SOL     OW36559   3.042   4.483   7.568 -0.1636  0.4337 -0.4006
 8308SOL    HW136560   3.108   4.550   7.550  1.1096 -1.0723 -1.3345
 8308SOL    HW236561   3.024   4.451   7.480 -1.1834 -0.4478  0.1216
 8309SOL     OW36562   4.586   0.076   8.562  0.0448 -0.1186 -0.3532
 8309SOL    HW136563   4.546   0.069   8.649 -0.3546  0.1921 -0.5083
 8309SOL    HW236564   4.649   0.005   8.565 -1.8747 -1.7803  0.3678
 8310SOL     OW36565   1.156   0.577   9.090  0.3295  0.6646  0.3383
 8310SOL    HW136566   1.119   0.524   9.161 -0.2982 -1.4013 -1.5413
 8310SOL    HW236567   1.170   0.658   9.140  2.6489  0.3329  0.2183
 8311SOL     OW36568   0.520   1.739   2.099  0.1025  0.3345  0.0274
 8311SOL    HW136569   0.436   1.698   2.082 -0.3859  1.2438  0.1962
 8311SOL    HW236570   0.541   1.701   2.184  1.6920 -1.2031 -1.0709
 8312SOL     OW36571   3.805   3.277  12.876 -0.6717  0.3408  0.0261
 8312SOL    HW136572   3.745   3.349  12.898  0.4300  1.2799 -0.0725
 8312SOL    HW236573   3.748   3.200  12.871 -0.1716 -0.2664  3.2203
 8313SOL     OW36574   1.529   2.826   3.395 -0.0704  0.4977  0.1669
 8313SOL    HW136575   1.523   2.902   3.454  2.0366  0.7586  0.0328
 8313SOL    HW236576   1.439   2.793   3.395  0.5229 -1.0904 -0.1373
 8314SOL     OW36577   4.408   2.123   1.877 -0.4282  0.2208 -0.4931
 8314SOL    HW136578   4.498   2.132   1.909 -0.1901  1.1322 -1.4554
 8314SOL    HW236579   4.388   2.210   1.844  0.6748  1.3532  1.7983
 8315SOL     OW36580   1.561   3.283   9.077 -0.5042 -0.1594 -0.4483
 8315SOL    HW136581   1.561   3.321   8.989 -0.1460 -0.8062 -0.7234
 8315SOL    HW236582   1.484   3.229   9.058  0.5327 -2.2446  1.2615
 8316SOL     OW36583   2.673   1.387  11.728 -0.0810  0.1830 -0.2036
 8316SOL    HW136584   2.625   1.433  11.658  1.2026 -2.2614 -2.6782
 8316SOL    HW236585   2.670   1.454  11.797  1.4641  2.0499 -1.9223
 8317SOL     OW36586   4.203   3.296   4.199 -0.4211 -0.4219 -0.2835
 8317SOL    HW136587   4.219   3.302   4.294  3.0156 -0.9767 -0.8313
 8317SOL    HW236588   4.108   3.285   4.191 -0.5657 -0.2897  1.1369
 8318SOL     OW36589   4.674   3.611   0.706 -1.0665  0.1904 -0.0133
 8318SOL    HW136590   4.640   3.522   0.696  0.2664 -0.3716  0.5398
 8318SOL    HW236591   4.644   3.637   0.793  0.9037 -2.4123  1.4663
 8319SOL     OW36592   0.746   0.670  11.786  0.5380  0.4141 -0.4229
 8319SOL    HW136593   0.682   0.648  11.853  1.5788  0.7694  0.6884
 8319SOL    HW236594   0.770   0.580  11.763 -0.9099 -0.1240  0.1778
 8320SOL     OW36595   4.323   2.453   8.821 -0.1959 -0.3238  0.0163
 8320SOL    HW136596   4.338   2.523   8.885 -1.1035 -0.6969  0.6308
 8320SOL    HW236597   4.416   2.445   8.801 -0.9679 -0.3742 -3.6121
 8321SOL     OW36598   0.347   1.781   6.117 -0.1910 -0.0707 -0.1097
 8321SOL    HW136599   0.316   1.695   6.087  1.5061 -0.0281 -2.0097
 8321SOL    HW236600   0.381   1.760   6.204 -2.3596  1.3164  1.0886
 8322SOL     OW36601   3.557   0.041   4.159  0.0121 -0.3539 -0.4265
 8322SOL    HW136602   3.645   0.026   4.126  0.7604 -2.1808  2.4008
 8322SOL    HW236603   3.514   4.695   4.132 -1.9689  0.4872  0.1527
 8323SOL     OW36604   2.827   2.861   8.602 -0.0404 -0.3959  0.4790
 8323SOL    HW136605   2.833   2.945   8.648  3.1804 -1.2613  1.6371
 8323SOL    HW236606   2.745   2.876   8.554  0.0337 -1.1913  0.0967
 8324SOL     OW36607   0.226   2.748   2.008 -0.4657  0.5172  0.2086
 8324SOL    HW136608   0.293   2.808   1.973 -1.8255  1.5376 -0.6273
 8324SOL    HW236609   0.176   2.800   2.071 -1.0177  1.3124 -0.8890
 8325SOL     OW36610   2.499   4.444   2.836  0.1911  0.0445  0.4080
 8325SOL    HW136611   2.513   4.357   2.874  1.7093 -0.4185 -1.2004
 8325SOL    HW236612   2.477   4.487   2.919 -3.3937  1.0114 -1.0575
 8326SOL     OW36613   0.147   3.128   9.057  0.2719 -0.1865 -0.4975
 8326SOL    HW136614   0.149   3.223   9.047  1.3970  0.0112  1.5012
 8326SOL    HW236615   0.158   3.101   8.966  1.4169  0.8831 -0.6780
 8327SOL     OW36616   3.197   3.916   5.990 -0.0141  0.5468  0.0215
 8327SOL    HW136617   3.166   3.900   6.079  0.2820  0.5560  0.1267
 8327SOL    HW236618   3.199   3.827   5.955  0.4556 -0.1575  1.8653
 8328SOL     OW36619   1.174   2.831   1.730  0.3011  0.0126 -0.8081
 8328SOL    HW136620   1.169   2.926   1.731 -0.9851 -0.0481 -1.7551
 8328SOL    HW236621   1.082   2.810   1.740  0.4360 -0.7900 -1.2581
 8329SOL     OW36622   1.633   2.963  12.835 -0.2868 -0.1649  0.4199
 8329SOL    HW136623   1.694   3.036  12.835 -0.5279  0.0528  3.0457
 8329SOL    HW236624   1.688   2.887  12.853 -1.9600 -1.3743  0.4320
 8330SOL     OW36625   4.081   3.035   9.432 -0.9097 -0.1502 -0.6064
 8330SOL    HW136626   4.100   2.956   9.382  2.6120  0.4872 -0.2817
 8330SOL    HW236627   3.990   3.015   9.455 -0.5046  0.0309  1.1512
 8331SOL     OW36628   0.494   2.765   6.822  0.4507  0.1982  0.7110
 8331SOL    HW136629   0.449   2.845   6.850 -0.7160 -1.0694  2.4905
 8331SOL    HW236630   0.562   2.799   6.764  1.7385 -3.4365  0.0658
 8332SOL     OW36631   4.482   3.494   2.669  0.1690  0.0342  0.4622
 8332SOL    HW136632   4.423   3.543   2.611  0.7208 -0.5799 -0.6023
 8332SOL    HW236633   4.549   3.559   2.692  0.9068  0.3015 -2.4738
 8333SOL     OW36634   2.973   2.392   3.694 -0.0507 -0.3931 -0.2307
 8333SOL    HW136635   2.907   2.456   3.719 -0.3885 -0.8249 -0.0028
 8333SOL    HW236636   2.977   2.329   3.767  0.6257  0.0730  0.1365
 8334SOL     OW36637   0.151   1.664  17.063 -0.6152 -0.5390  0.2349
 8334SOL    HW136638   0.133   1.728  16.994  0.3122  0.0457  0.5372
 8334SOL    HW236639   0.102   1.703  17.136  1.6052  0.2030  1.3004
 8335SOL     OW36640   4.576   2.358   9.059  0.3489 -0.2414 -0.1192
 8335SOL    HW136641   4.579   2.439   9.110 -0.1001  0.8252 -1.8036
 8335SOL    HW236642   4.653   2.361   9.001 -0.6792  1.1050 -1.3971
 8336SOL     OW36643   3.311   4.401   0.972 -0.5488  0.2645 -0.1071
 8336SOL    HW136644   3.307   4.484   1.019 -0.7895 -1.5665  3.0599
 8336SOL    HW236645   3.223   4.403   0.935 -0.8182 -0.7721  0.4549
 8337SOL     OW36646   3.104   0.446   7.555  0.3645 -0.1122 -0.1448
 8337SOL    HW136647   3.068   0.529   7.523 -0.0846 -0.4615 -0.5481
 8337SOL    HW236648   3.122   0.461   7.647  0.5201  0.6999 -0.3103
 8338SOL     OW36649   2.194   0.132   0.424  0.4086 -0.4504  0.2826
 8338SOL    HW136650   2.165   0.091   0.343 -1.2809  1.1320  0.0931
 8338SOL    HW236651   2.216   0.048   0.464 -1.0267 -1.3366 -0.8026
 8339SOL     OW36652   1.602   3.654   8.738  0.7537 -0.3090 -0.3990
 8339SOL    HW136653   1.582   3.748   8.741  1.8789 -0.0995  0.5508
 8339SOL    HW236654   1.697   3.668   8.741  0.9027 -0.6316 -3.4633
 8340SOL     OW36655   0.778   3.326   4.527 -0.0452  0.1863  0.1357
 8340SOL    HW136656   0.797   3.351   4.617 -2.4224 -2.0941  1.2487
 8340SOL    HW236657   0.771   3.413   4.487 -2.6830 -1.6316 -3.3551
 8341SOL     OW36658   0.472   1.229   7.341 -0.0345  0.6632  0.7103
 8341SOL    HW136659   0.498   1.302   7.286  1.6317 -0.7893 -0.4320
 8341SOL    HW236660   0.377   1.235   7.328  0.0317  1.5906  0.6930
 8342SOL     OW36661   0.189   4.081   0.527  0.2995  0.0904  0.1938
 8342SOL    HW136662   0.178   4.002   0.580 -0.3629  0.6757  0.9299
 8342SOL    HW236663   0.204   4.144   0.598 -2.0731  0.0861  0.6745
 8343SOL     OW36664   4.039   3.606   9.763 -0.0371 -0.9297  0.1131
 8343SOL    HW136665   4.097   3.665   9.715 -0.3386 -0.6893  0.0463
 8343SOL    HW236666   3.980   3.567   9.698  1.2192  0.2270 -1.7132
 8344SOL     OW36667   2.073   3.787   1.622 -0.1815 -0.2752 -0.3155
 8344SOL    HW136668   2.034   3.760   1.705  0.6595  1.5488  0.6758
 8344SOL    HW236669   2.115   3.704   1.602  0.5332  0.3447 -1.4181
 8345SOL     OW36670   2.293   2.452   6.482 -0.3564 -0.1300 -0.4120
 8345SOL    HW136671   2.231   2.525   6.478 -1.3132 -0.8419  1.6002
 8345SOL    HW236672   2.369   2.497   6.446 -0.7868 -0.2026 -1.4049
 8346SOL     OW36673   3.488   0.978   4.640 -0.1038 -0.6962  0.1590
 8346SOL    HW136674   3.418   1.042   4.630  0.7493  0.3328  0.7601
 8346SOL    HW236675   3.474   0.943   4.728 -0.9169 -0.8113 -0.0195
 8347SOL     OW36676   0.520   4.350   4.757 -0.1143 -0.2412 -0.1714
 8347SOL    HW136677   0.487   4.271   4.799  1.6279 -0.8367  0.0992
 8347SOL    HW236678   0.568   4.318   4.681 -1.9198 -1.9575 -0.5780
 8348SOL     OW36679   1.024   3.429   3.985  0.6001  0.2780 -0.1147
 8348SOL    HW136680   0.953   3.486   4.016 -0.2650 -0.7243 -0.2613
 8348SOL    HW236681   1.100   3.484   4.006 -0.4976  1.9677 -0.4976
 8349SOL     OW36682   3.339   3.342  12.472  0.4679  0.1896  0.6779
 8349SOL    HW136683   3.303   3.277  12.412 -0.0605  0.9800  0.1385
 8349SOL    HW236684   3.280   3.417  12.464  1.6911  0.6158 -4.3131
 8350SOL     OW36685   3.242   3.791   3.096 -0.5109  0.2685  0.3757
 8350SOL    HW136686   3.241   3.734   3.020  0.2816 -1.9563  2.0464
 8350SOL    HW236687   3.170   3.757   3.149  0.9097 -0.0326  2.1163
 8351SOL     OW36688   0.487   2.015   9.997 -0.3007  0.2068  0.4678
 8351SOL    HW136689   0.393   2.027   9.983 -0.4056  0.0487  1.0537
 8351SOL    HW236690   0.536   2.097   9.994  0.0078  0.0249  0.5740
 8352SOL     OW36691   0.918   2.923   3.786  0.1014 -0.3333 -0.1127
 8352SOL    HW136692   1.003   2.922   3.742 -0.3219  0.9383 -0.9470
 8352SOL    HW236693   0.877   2.842   3.754  0.7780  0.0297 -1.9121
 8353SOL     OW36694   3.231   3.324  14.919 -0.3699 -0.4454 -0.3939
 8353SOL    HW136695   3.183   3.389  14.867 -1.3906 -0.8311  0.0573
 8353SOL    HW236696   3.237   3.261  14.847  0.1434  0.4480 -1.1275
 8354SOL     OW36697   0.657   4.085  10.138 -0.3174 -0.4808 -0.9338
 8354SOL    HW136698   0.681   4.059  10.049  0.3744 -0.9293 -0.6156
 8354SOL    HW236699   0.562   4.076  10.135 -0.1361 -2.2921 -1.3382
 8355SOL     OW36700   1.447   0.403   6.279 -0.3010 -0.0345  0.8947
 8355SOL    HW136701   1.503   0.410   6.202 -1.1684  1.2489  0.3726
 8355SOL    HW236702   1.513   0.405   6.348 -2.0751  1.0905  2.5802
 8356SOL     OW36703   3.742   2.324  17.529  0.0126 -0.0374 -0.2036
 8356SOL    HW136704   3.734   2.234  17.498  0.7321  0.0993 -0.7956
 8356SOL    HW236705   3.663   2.338  17.581 -0.5367 -0.5804 -0.8983
 8357SOL     OW36706   0.559   3.722   3.186  0.3325 -0.0641 -0.1604
 8357SOL    HW136707   0.600   3.714   3.100 -0.6264 -1.6077 -0.4741
 8357SOL    HW236708   0.519   3.637   3.203  1.4463 -0.2819  1.3267
 8358SOL     OW36709   2.263   3.519   5.065 -0.4068 -0.5572  0.3321
 8358SOL    HW136710   2.272   3.614   5.053  0.1085 -0.6210  0.2376
 8358SOL    HW236711   2.303   3.484   4.986 -0.7248 -0.9599  0.3533
 8359SOL     OW36712   3.790   2.235  13.758  0.2725  0.2938 -0.2668
 8359SOL    HW136713   3.797   2.142  13.779 -0.0525  0.7211  1.7833
 8359SOL    HW236714   3.705   2.256  13.797  1.0982 -2.5275  3.0971
 8360SOL     OW36715   2.482   0.986   7.502  0.0252  0.4066  0.2247
 8360SOL    HW136716   2.476   0.947   7.590  1.3113  0.2557  0.2545
 8360SOL    HW236717   2.417   1.054   7.514 -0.4043 -0.4323  2.7612
 8361SOL     OW36718   0.937   1.427   4.942 -0.2262 -0.1489  0.0206
 8361SOL    HW136719   0.995   1.501   4.958  0.0733 -1.0709  3.3739
 8361SOL    HW236720   0.990   1.355   4.977 -0.5822 -0.1628  0.5387
 8362SOL     OW36721   3.207   3.531  15.174 -0.3604  0.6461 -0.4284
 8362SOL    HW136722   3.167   3.446  15.153  0.7474 -0.3934  1.6734
 8362SOL    HW236723   3.191   3.576  15.091 -1.6348 -0.6489 -0.9009
 8363SOL     OW36724   2.619   3.651   2.344  0.0306 -0.1573  0.1056
 8363SOL    HW136725   2.619   3.642   2.248  1.3443 -0.6913  0.1440
 8363SOL    HW236726   2.529   3.672   2.366 -0.0270 -0.7465  0.4226
 8364SOL     OW36727   0.828   0.009  12.244 -0.5670  1.0123 -0.5023
 8364SOL    HW136728   0.914   0.050  12.242  1.4040 -3.2175 -1.4469
 8364SOL    HW236729   0.804   0.008  12.151  1.1477  2.6862 -0.9581
 8365SOL     OW36730   0.670   3.898   4.670 -0.3328 -0.1494 -0.7892
 8365SOL    HW136731   0.663   3.857   4.584  3.8799 -0.7962 -0.7937
 8365SOL    HW236732   0.608   3.842   4.717 -1.9462  1.8623 -0.5237
 8366SOL     OW36733   0.421   3.335   1.193  0.3126 -0.0682  0.3054
 8366SOL    HW136734   0.397   3.251   1.155  1.2080  0.2010 -0.8706
 8366SOL    HW236735   0.464   3.385   1.123 -1.5760 -1.9256 -2.1692
 8367SOL     OW36736   2.004   1.494   1.696  0.2909  0.3025  0.2779
 8367SOL    HW136737   1.958   1.546   1.631 -1.9728  1.2452  2.6632
 8367SOL    HW236738   2.043   1.434   1.632  1.1956  0.7136  0.4390
 8368SOL     OW36739   4.434   4.534   8.160 -0.2221  0.1482  0.1628
 8368SOL    HW136740   4.341   4.542   8.140 -0.1397 -1.3919 -0.8060
 8368SOL    HW236741   4.464   4.524   8.070 -1.9964 -0.1588 -0.3839
 8369SOL     OW36742   1.007   2.589  16.758 -0.1569 -0.2360 -0.5906
 8369SOL    HW136743   1.001   2.666  16.701  1.7619  1.2529  1.1911
 8369SOL    HW236744   0.940   2.618  16.820  1.7287  0.5176  1.1131
 8370SOL     OW36745   1.862   1.873   6.445  0.1414 -0.2524 -0.3721
 8370SOL    HW136746   1.848   1.793   6.496  2.8536 -2.1198 -2.5616
 8370SOL    HW236747   1.916   1.835   6.375  1.1406 -1.5571  1.1294
 8371SOL     OW36748   3.663   1.212  16.002  0.0332 -0.0454 -0.2425
 8371SOL    HW136749   3.688   1.187  15.913 -0.1307  0.1001 -0.3293
 8371SOL    HW236750   3.741   1.199  16.056  1.6467 -0.0490 -2.5806
 8372SOL     OW36751   0.120   2.673   9.310  0.3963  0.6392 -0.0166
 8372SOL    HW136752   0.174   2.728   9.252 -0.7280  1.8404  0.0867
 8372SOL    HW236753   0.134   2.587   9.270  1.1936  1.0873 -0.7248
 8373SOL     OW36754   3.111   1.867   8.872  0.5780 -0.3674 -0.4955
 8373SOL    HW136755   3.094   1.803   8.940  0.8425  0.7159  0.6014
 8373SOL    HW236756   3.024   1.903   8.852  0.5726  0.3416  0.7783
 8374SOL     OW36757   3.916   2.055  13.419  0.3764  0.0088 -0.0750
 8374SOL    HW136758   3.961   2.052  13.504  0.2219 -0.0813  0.0041
 8374SOL    HW236759   3.827   2.079  13.448 -0.6172 -2.9795 -0.6845
 8375SOL     OW36760   4.308   0.409   7.981 -0.7061 -0.1916 -0.0310
 8375SOL    HW136761   4.234   0.469   7.993  0.1843  0.8004  0.5300
 8375SOL    HW236762   4.316   0.372   8.068  0.2993  0.1490  0.0248
 8376SOL     OW36763   1.634   1.816   7.558 -0.1404  0.7520  0.4567
 8376SOL    HW136764   1.625   1.905   7.592  2.0103  1.3167 -0.4384
 8376SOL    HW236765   1.701   1.779   7.615 -0.1282 -1.4711 -0.9814
 8377SOL     OW36766   1.124   1.515   7.372  0.2931  0.6130 -0.4070
 8377SOL    HW136767   1.042   1.515   7.422 -0.2378 -0.1885 -1.2530
 8377SOL    HW236768   1.140   1.420   7.366 -1.0865  0.2545  1.6050
 8378SOL     OW36769   1.868   4.139   6.925  0.1436  0.2011 -0.0121
 8378SOL    HW136770   1.784   4.177   6.947  0.0015 -0.0458 -0.1310
 8378SOL    HW236771   1.855   4.086   6.847  1.3304  1.4622 -1.0474
 8379SOL     OW36772   1.508   3.853   6.164 -0.1597 -0.1304 -0.4216
 8379SOL    HW136773   1.433   3.887   6.212  0.5774  1.3275 -0.3149
 8379SOL    HW236774   1.559   3.817   6.236 -1.0304 -0.3312  0.0935
 8380SOL     OW36775   3.588   0.268  10.420  0.7141 -0.1703  0.1547
 8380SOL    HW136776   3.493   0.261  10.428  0.5748  1.2307 -0.3245
 8380SOL    HW236777   3.603   0.229  10.506  0.8760  1.8154  1.0386
 8381SOL     OW36778   4.637   2.187   6.199 -0.2955 -0.2198 -0.2196
 8381SOL    HW136779   4.732   2.200   6.202 -0.3826  0.5178 -0.6326
 8381SOL    HW236780   4.610   2.149   6.282  0.8111 -0.3166  0.1034
 8382SOL     OW36781   3.659   4.665  15.032 -0.1658 -0.3913  0.4330
 8382SOL    HW136782   3.603   4.670  15.110 -0.2033 -1.2447  0.4689
 8382SOL    HW236783   3.720   4.734  15.057  0.3387 -0.7730  0.2677
 8383SOL     OW36784   4.269   4.645   4.596  0.6930  0.4428  0.3431
 8383SOL    HW136785   4.341   4.671   4.539  0.1151  1.5608  0.1385
 8383SOL    HW236786   4.221   4.727   4.603  1.0493  0.7601 -0.9401
 8384SOL     OW36787   2.817   2.328  13.710 -0.2256  0.3523 -0.5969
 8384SOL    HW136788   2.805   2.325  13.804  1.8759 -0.0818 -0.3354
 8384SOL    HW236789   2.857   2.415  13.700 -1.2191  0.7195 -1.4260
 8385SOL     OW36790   3.536   1.090   5.241  0.1968  0.0268  0.1223
 8385SOL    HW136791   3.630   1.072   5.240  0.5535  1.8288  1.8114
 8385SOL    HW236792   3.508   1.006   5.277 -0.6659  0.0024 -0.6086
 8386SOL     OW36793   0.253   3.275  15.376 -0.5037  0.6991 -0.0531
 8386SOL    HW136794   0.343   3.278  15.345 -0.6833  1.7284 -0.4891
 8386SOL    HW236795   0.212   3.261  15.290  0.6699  0.6411 -0.6030
 8387SOL     OW36796   1.410   0.773   9.490 -0.0536 -0.5360  0.6486
 8387SOL    HW136797   1.488   0.718   9.478 -0.6969 -1.4288  0.5468
 8387SOL    HW236798   1.364   0.725   9.559 -1.4930 -1.7336 -1.1376
 8388SOL     OW36799   2.473   2.592   3.192 -0.8423 -0.3560 -0.3212
 8388SOL    HW136800   2.424   2.577   3.110 -0.7161 -1.6308 -0.1617
 8388SOL    HW236801   2.493   2.686   3.188  1.4764 -0.9118 -1.4199
 8389SOL     OW36802   0.003   1.691  16.316 -0.0054  0.6428 -0.1702
 8389SOL    HW136803   4.658   1.721  16.358 -0.1540 -0.7512  0.5623
 8389SOL    HW236804   0.072   1.712  16.380 -2.2429 -0.7682  2.7153
 8390SOL     OW36805   2.290   4.442  15.752  0.2072  0.1042 -0.5230
 8390SOL    HW136806   2.375   4.403  15.736 -0.6634 -1.4718 -1.3546
 8390SOL    HW236807   2.255   4.389  15.823 -1.6709 -1.8540 -2.8846
 8391SOL     OW36808   1.519   1.239   2.241 -0.1537  0.0702  0.4926
 8391SOL    HW136809   1.551   1.322   2.277 -1.2443  1.3826 -1.5961
 8391SOL    HW236810   1.564   1.241   2.157 -0.6382  0.4654  0.2468
 8392SOL     OW36811   3.964   0.574  16.124  0.0695  0.2859  0.0557
 8392SOL    HW136812   4.033   0.528  16.076 -0.3840 -0.5195  0.1887
 8392SOL    HW236813   3.966   0.656  16.075 -1.3575 -0.0660 -0.5888
 8393SOL     OW36814   0.555   2.674   5.434 -0.1262 -0.2897  0.4216
 8393SOL    HW136815   0.546   2.660   5.528  0.8993 -1.1136  0.3998
 8393SOL    HW236816   0.500   2.604   5.400 -2.1207  0.9796  1.0088
 8394SOL     OW36817   0.817   4.397   7.350 -0.4603 -0.7977  0.0802
 8394SOL    HW136818   0.842   4.460   7.282  0.1875 -0.8201  0.3001
 8394SOL    HW236819   0.753   4.454   7.392 -1.8002 -1.2084 -1.3840
 8395SOL     OW36820   1.437   4.564   3.364  0.7867  0.1315 -0.2666
 8395SOL    HW136821   1.457   4.619   3.289  1.8975 -0.1640 -0.1898
 8395SOL    HW236822   1.467   4.607   3.444 -0.4622  0.3035  0.1103
 8396SOL     OW36823   2.285   2.547   4.642  0.1808  0.0879  0.1251
 8396SOL    HW136824   2.210   2.586   4.686 -0.2595 -0.0040 -0.5365
 8396SOL    HW236825   2.275   2.585   4.555  0.8819  1.1426  0.5107
 8397SOL     OW36826   2.070   0.849   0.511  0.2277  0.2968 -0.7516
 8397SOL    HW136827   2.153   0.889   0.534  1.3411 -1.4553 -1.7518
 8397SOL    HW236828   2.097   0.758   0.503 -0.0856  0.3879 -2.8038
 8398SOL     OW36829   0.869   2.420   5.811  0.5983 -0.1796  0.2699
 8398SOL    HW136830   0.836   2.380   5.891 -1.4608  0.3773 -0.2818
 8398SOL    HW236831   0.952   2.450   5.847  1.1803  0.3063 -1.4267
 8399SOL     OW36832   4.249   3.350   3.086 -0.3258  0.2924 -0.0375
 8399SOL    HW136833   4.305   3.402   3.144 -1.3915 -0.6056  1.7958
 8399SOL    HW236834   4.162   3.389   3.094 -0.5119 -0.1807  0.2540
 8400SOL     OW36835   1.261   2.101   4.485 -0.3704 -0.4876  0.0712
 8400SOL    HW136836   1.177   2.057   4.477 -0.7558  0.0463  1.1494
 8400SOL    HW236837   1.324   2.034   4.510  1.5918  1.3805  0.1501
 8401SOL     OW36838   3.986   3.475   8.716 -0.2741 -0.2053 -0.3715
 8401SOL    HW136839   3.957   3.459   8.627  0.0850  1.6239 -0.8261
 8401SOL    HW236840   4.031   3.394   8.738  0.2353  0.5473  1.4353
 8402SOL     OW36841   0.384   2.315   7.614  0.3154  0.4318  0.4353
 8402SOL    HW136842   0.413   2.387   7.558  1.1427 -1.8986 -2.1289
 8402SOL    HW236843   0.394   2.368   7.692 -0.1180 -0.5404  1.1546
 8403SOL     OW36844   0.176   0.125   1.020  0.3120  0.0862 -0.3722
 8403SOL    HW136845   0.175   0.064   0.946  1.4014 -1.2182  0.6927
 8403SOL    HW236846   0.268   0.146   1.036 -0.3453  2.4124  0.3454
 8404SOL     OW36847   1.733   1.454   7.285  0.6086  0.1172 -0.2448
 8404SOL    HW136848   1.684   1.372   7.292 -0.3499  0.7333  0.3142
 8404SOL    HW236849   1.673   1.509   7.336  0.2277 -1.2827  0.8276
 8405SOL     OW36850   0.661   2.297   3.069 -0.3323  0.1491 -0.1339
 8405SOL    HW136851   0.694   2.242   2.998 -0.1625  0.2993 -0.1704
 8405SOL    HW236852   0.672   2.232   3.138  0.4093 -0.7479 -1.1014
 8406SOL     OW36853   3.194   1.799  13.023  0.2041 -0.3701 -0.0431
 8406SOL    HW136854   3.164   1.724  12.971 -0.0200  0.8819 -1.7337
 8406SOL    HW236855   3.124   1.809  13.087 -0.4118  0.3879 -0.8382
 8407SOL     OW36856   0.169   0.577   1.692 -0.1294  0.4684 -0.6115
 8407SOL    HW136857   0.212   0.591   1.776 -0.7823  2.1485 -0.5518
 8407SOL    HW236858   0.233   0.513   1.662  0.2739  0.9083 -0.6917
 8408SOL     OW36859   2.521   2.905   8.583 -0.2591  0.2683  0.1307
 8408SOL    HW136860   2.524   2.999   8.605 -0.6920  0.0952  0.9279
 8408SOL    HW236861   2.498   2.868   8.668  1.3844 -1.4460 -0.1706
 8409SOL     OW36862   2.535   3.973   8.449  0.0956  0.4469 -0.0717
 8409SOL    HW136863   2.461   4.027   8.422  0.4584  0.1210 -1.7291
 8409SOL    HW236864   2.497   3.887   8.434 -1.2917  1.5215 -2.7978
 8410SOL     OW36865   4.602   0.811   7.200 -0.0101  0.0492  0.2045
 8410SOL    HW136866   4.689   0.798   7.238  0.1719  0.5560 -0.0308
 8410SOL    HW236867   4.560   0.861   7.270  1.8605  1.3927  0.3677
 8411SOL     OW36868   3.612   0.760   7.964 -0.1413  0.6393  0.2368
 8411SOL    HW136869   3.695   0.785   7.923  0.1436  0.3669  0.6535
 8411SOL    HW236870   3.630   0.728   8.052 -0.1335  0.3947  0.1468
 8412SOL     OW36871   2.952   1.830  12.018  0.1406 -0.7652 -0.2368
 8412SOL    HW136872   2.947   1.739  12.047  1.8411 -0.3067  1.4598
 8412SOL    HW236873   2.870   1.839  11.969 -1.2443 -3.9227  1.4476
 8413SOL     OW36874   1.556   0.885   8.739 -0.6534 -0.0585 -0.3674
 8413SOL    HW136875   1.486   0.932   8.784  0.4586  0.1808  1.0982
 8413SOL    HW236876   1.635   0.925   8.776 -0.4365 -0.9565  0.1403
 8414SOL     OW36877   0.502   0.783   2.858  0.4462 -0.1801 -0.2986
 8414SOL    HW136878   0.476   0.807   2.947  2.0668  2.2209 -0.4616
 8414SOL    HW236879   0.462   0.697   2.854 -0.6085  0.3143 -0.2405
 8415SOL     OW36880   3.416   2.486  16.273  0.1090 -0.0189  0.0292
 8415SOL    HW136881   3.377   2.447  16.195 -0.8894  2.1559 -0.5435
 8415SOL    HW236882   3.468   2.409  16.296  0.7013  1.2026  2.7610
 8416SOL     OW36883   0.080   4.700   4.761 -0.0544 -0.5395 -0.3855
 8416SOL    HW136884   0.113   0.052   4.785  1.8077 -1.2259 -0.5257
 8416SOL    HW236885   0.143   4.677   4.693 -1.4610 -2.2297 -1.1065
 8417SOL     OW36886   0.249   3.554   6.353 -0.3374 -0.0506  0.0397
 8417SOL    HW136887   0.311   3.490   6.386  0.3519  0.5082 -0.1896
 8417SOL    HW236888   0.301   3.601   6.289  2.3067  2.1433  3.7950
 8418SOL     OW36889   2.440   3.459   2.651 -0.2859 -0.1776 -0.0057
 8418SOL    HW136890   2.469   3.492   2.736  1.8971  2.1249 -1.6285
 8418SOL    HW236891   2.367   3.405   2.681 -0.9614 -0.1058 -1.4971
 8419SOL     OW36892   3.508   2.963   2.603  0.3158  0.7878  0.5110
 8419SOL    HW136893   3.458   3.044   2.615 -0.6223  0.1157  1.1036
 8419SOL    HW236894   3.444   2.897   2.576 -1.0214  1.4062  2.1593
 8420SOL     OW36895   2.465   3.219   8.693  0.1029  0.0260  0.2074
 8420SOL    HW136896   2.381   3.196   8.731 -0.2019  0.1030 -0.4250
 8420SOL    HW236897   2.472   3.310   8.720 -1.1434 -0.3221  1.6922
 8421SOL     OW36898   2.702   0.406   3.651  0.8316  0.3441  0.0023
 8421SOL    HW136899   2.690   0.480   3.711  0.2791 -1.2702  1.9147
 8421SOL    HW236900   2.623   0.401   3.599  0.4162 -2.2056  0.8507
 8422SOL     OW36901   1.467   2.835   2.860  0.0775 -0.6368 -0.0038
 8422SOL    HW136902   1.468   2.856   2.953 -3.3915  0.7156 -0.2840
 8422SOL    HW236903   1.386   2.783   2.862 -0.3425  0.0058 -0.3165
 8423SOL     OW36904   4.675   0.397   0.728  0.0046 -0.1808  0.0935
 8423SOL    HW136905   4.671   0.339   0.652 -1.0391 -0.4453  0.3579
 8423SOL    HW236906   4.674   0.341   0.806  0.5647 -1.0069 -0.5039
 8424SOL     OW36907   1.314   3.266   7.882  0.1343  0.3868  0.3761
 8424SOL    HW136908   1.330   3.183   7.926  2.0912  0.5365 -0.0320
 8424SOL    HW236909   1.223   3.287   7.902  0.1479 -0.7822  1.6240
 8425SOL     OW36910   1.439   2.340  17.650 -0.5248 -0.8301 -0.6977
 8425SOL    HW136911   1.344   2.356  17.649 -0.4805 -0.4387  1.9771
 8425SOL    HW236912   1.471   2.430  17.645  0.3251 -1.1710 -1.4626
 8426SOL     OW36913   1.677   3.466   7.818  0.0674  0.7313 -0.5230
 8426SOL    HW136914   1.743   3.441   7.753 -0.5591  3.0336 -2.0614
 8426SOL    HW236915   1.715   3.533   7.875 -3.0555  1.6262  0.5476
 8427SOL     OW36916   1.169   1.278   6.773 -0.0431 -0.0015 -0.1872
 8427SOL    HW136917   1.185   1.321   6.857  0.1444 -1.2880  0.4311
 8427SOL    HW236918   1.108   1.212   6.804  1.9106 -1.2253  1.0737
 8428SOL     OW36919   0.462   0.225   4.820  0.1428 -0.1287  0.2546
 8428SOL    HW136920   0.524   0.170   4.868 -1.2138 -2.0133 -0.1508
 8428SOL    HW236921   0.485   0.199   4.731 -0.7500  0.8573 -0.2654
 8429SOL     OW36922   1.697   2.729  11.415 -0.5987 -0.2154 -0.1433
 8429SOL    HW136923   1.791   2.732  11.430 -0.5456  1.4423 -0.8198
 8429SOL    HW236924   1.695   2.784  11.337 -0.3342 -0.5813 -0.4074
 8430SOL     OW36925   3.980   1.996   6.100  0.7447  0.7411  0.5139
 8430SOL    HW136926   3.917   1.941   6.054  2.7035  1.4572 -3.0342
 8430SOL    HW236927   3.938   2.017   6.183 -1.5432 -0.8286 -0.2528
 8431SOL     OW36928   3.312   0.241   6.569 -0.4439 -0.0581  0.0434
 8431SOL    HW136929   3.381   0.218   6.506 -0.1993 -1.6826  0.9251
 8431SOL    HW236930   3.246   0.284   6.514  0.0061  0.1619 -0.3257
 8432SOL     OW36931   3.053   2.826   4.220 -0.1300  0.5214 -0.7732
 8432SOL    HW136932   3.046   2.912   4.180 -0.0649 -0.2430 -2.4328
 8432SOL    HW236933   3.038   2.768   4.145  0.5789 -0.0105 -0.5112
 8433SOL     OW36934   2.860   4.082  11.115  0.9823 -0.3665 -0.1530
 8433SOL    HW136935   2.873   4.176  11.109 -1.0335 -0.1655 -1.0767
 8433SOL    HW236936   2.937   4.055  11.064  1.1722 -1.8416  0.9090
 8434SOL     OW36937   0.644   1.297   6.208  0.1662 -0.3316  0.3083
 8434SOL    HW136938   0.706   1.318   6.277 -0.8741 -1.7006  1.6829
 8434SOL    HW236939   0.579   1.367   6.211  1.5977  1.0804 -1.9834
 8435SOL     OW36940   0.607   2.837   7.923  0.0442 -0.7167  0.3403
 8435SOL    HW136941   0.646   2.750   7.912  1.1326  0.0012 -1.5002
 8435SOL    HW236942   0.637   2.873   7.840 -0.6748 -1.2291 -0.1398
 8436SOL     OW36943   1.091   3.921   8.201 -0.6412 -0.1764 -0.4629
 8436SOL    HW136944   1.170   3.876   8.228 -1.2024  2.2416  5.1399
 8436SOL    HW236945   1.035   3.900   8.276  1.4477 -2.4742  0.4301
 8437SOL     OW36946   0.587   2.133   7.022 -0.0676  0.3679  0.0279
 8437SOL    HW136947   0.538   2.207   7.058 -0.0008  1.0486 -1.2667
 8437SOL    HW236948   0.667   2.131   7.074 -0.2013  2.7081  0.3606
 8438SOL     OW36949   3.848   2.429   8.867 -0.3891  0.1642  0.0619
 8438SOL    HW136950   3.895   2.476   8.797 -0.0116 -0.5640 -0.1758
 8438SOL    HW236951   3.900   2.350   8.860 -0.6901  0.0354 -0.7716
 8439SOL     OW36952   2.479   2.634  16.487  0.4863  0.0085  0.5059
 8439SOL    HW136953   2.573   2.634  16.506  0.5915 -0.4288 -0.0125
 8439SOL    HW236954   2.454   2.544  16.501  0.6466 -0.3239 -1.2533
 8440SOL     OW36955   0.956   3.512   1.017 -0.0708 -0.0229 -0.0204
 8440SOL    HW136956   1.011   3.538   1.091 -2.4543  1.1600  1.2951
 8440SOL    HW236957   1.023   3.488   0.952  1.9597  2.4450  1.1668
 8441SOL     OW36958   2.760   3.553   5.171 -0.1244  0.0517 -0.6779
 8441SOL    HW136959   2.837   3.605   5.147 -0.5668  0.5609 -0.9720
 8441SOL    HW236960   2.712   3.595   5.241 -2.1130  1.8478 -3.1055
 8442SOL     OW36961   1.741   3.341   7.517  0.2913  0.0267 -0.4061
 8442SOL    HW136962   1.668   3.374   7.465 -0.6605 -1.5157 -0.0643
 8442SOL    HW236963   1.709   3.254   7.542  0.0554 -0.0012 -0.8113
 8443SOL     OW36964   0.040   4.409   3.110 -0.2198 -0.2053  0.3452
 8443SOL    HW136965   0.096   4.452   3.175  0.0815 -1.4425  0.8842
 8443SOL    HW236966   4.685   4.430   3.137 -0.4264 -0.8251  0.1372
 8444SOL     OW36967   1.323   3.596   2.425 -0.1948  0.6571  0.0830
 8444SOL    HW136968   1.300   3.522   2.369  1.0845  0.4468 -0.1556
 8444SOL    HW236969   1.240   3.603   2.474  0.2462 -1.1114  1.0897
 8445SOL     OW36970   4.436   4.243   1.351 -0.3164 -0.2491  0.5824
 8445SOL    HW136971   4.405   4.181   1.417  0.3110 -1.4019 -0.2018
 8445SOL    HW236972   4.473   4.193   1.278 -2.5453 -2.2731  0.8565
 8446SOL     OW36973   2.161   1.279   0.217  0.1491 -0.0905 -0.3632
 8446SOL    HW136974   2.118   1.195   0.202  0.5332 -0.3271 -0.1553
 8446SOL    HW236975   2.136   1.324   0.136 -1.6270 -1.1992 -0.4231
 8447SOL     OW36976   3.468   2.695   2.773  0.6569 -0.1137  0.3022
 8447SOL    HW136977   3.560   2.709   2.755  0.3445  1.0333 -0.4005
 8447SOL    HW236978   3.431   2.699   2.685  3.2580 -1.0597 -0.8301
 8448SOL     OW36979   3.942   2.979   4.007 -0.8317 -0.2897  0.0501
 8448SOL    HW136980   3.951   2.905   3.947 -2.4287 -1.7536  1.6194
 8448SOL    HW236981   4.023   2.966   4.056 -1.5653 -2.0157  0.8022
 8449SOL     OW36982   0.342   1.174   7.859  0.0775  0.2660  0.4372
 8449SOL    HW136983   0.315   1.182   7.950 -0.0049 -1.4011  0.5496
 8449SOL    HW236984   0.344   1.264   7.825  0.9806  1.0284  2.5016
 8450SOL     OW36985   3.128   1.226  13.635  0.0936  0.0030  0.6330
 8450SOL    HW136986   3.139   1.188  13.547 -0.7789 -2.1349  1.4636
 8450SOL    HW236987   3.041   1.203  13.665  0.3218 -1.7326 -0.0084
 8451SOL     OW36988   3.949   0.691   7.779 -0.0184  0.0360 -0.2666
 8451SOL    HW136989   3.985   0.759   7.722 -0.8473  1.2603  0.6546
 8451SOL    HW236990   3.910   0.745   7.849  0.7054  1.0177 -0.6123
 8452SOL     OW36991   0.617   4.401  11.779 -0.4419 -0.1610 -0.0242
 8452SOL    HW136992   0.639   4.325  11.725  3.1184  1.2622 -0.6195
 8452SOL    HW236993   0.576   4.358  11.854 -0.1922  2.8815  1.8653
 8453SOL     OW36994   3.584   2.879   6.441 -0.1168 -0.1953  0.2624
 8453SOL    HW136995   3.531   2.809   6.403  1.4203 -2.1686  1.7683
 8453SOL    HW236996   3.623   2.826   6.510  0.2630 -0.7783 -0.3994
 8454SOL     OW36997   3.750   0.285  13.444  0.3205  0.2974  0.2668
 8454SOL    HW136998   3.828   0.229  13.448 -1.3335 -2.0383 -0.2822
 8454SOL    HW236999   3.703   0.242  13.373 -2.4234  2.4740  0.7823
 8455SOL     OW37000   1.268   0.228   4.154 -0.8163  0.1311 -0.0044
 8455SOL    HW137001   1.205   0.170   4.113  0.6232  0.6002 -2.8860
 8455SOL    HW237002   1.231   0.311   4.124  3.0358  1.8427 -0.0343
 8456SOL     OW37003   0.339   3.209   3.916  0.3606  0.2325  0.1892
 8456SOL    HW137004   0.256   3.207   3.962 -0.0278 -0.5039 -0.5391
 8456SOL    HW237005   0.304   3.211   3.826  1.1620  1.0341 -0.1062
 8457SOL     OW37006   2.577   0.986  14.344 -0.0920 -0.1335  0.2298
 8457SOL    HW137007   2.640   0.973  14.414  0.3122  2.5444  0.3427
 8457SOL    HW237008   2.629   1.045  14.291  0.9883  0.6050  2.1437
 8458SOL     OW37009   3.970   2.779   3.811 -0.2485 -0.6973  0.2515
 8458SOL    HW137010   4.031   2.716   3.773 -2.3491 -1.7490 -1.3341
 8458SOL    HW237011   3.880   2.750   3.800 -1.5100  2.3731  2.2813
 8459SOL     OW37012   3.790   2.566   4.754  0.5881  0.3994  0.2663
 8459SOL    HW137013   3.831   2.591   4.672  1.5497 -0.1920  0.5697
 8459SOL    HW237014   3.707   2.615   4.752 -1.2676 -2.8772 -1.7657
 8460SOL     OW37015   1.805   0.611  17.382  0.0816  1.0324 -0.3873
 8460SOL    HW137016   1.835   0.660  17.306 -0.1309 -0.2620 -1.2884
 8460SOL    HW237017   1.812   0.688  17.440 -0.8862  1.3484 -0.6875
 8461SOL     OW37018   4.451   0.870   6.135  0.2005  0.0747 -0.2002
 8461SOL    HW137019   4.453   0.843   6.227 -1.1953 -0.0498 -0.2067
 8461SOL    HW237020   4.475   0.962   6.144 -0.9881  0.2830  0.8351
 8462SOL     OW37021   1.880   0.951   7.799  0.0738  0.0114 -0.5776
 8462SOL    HW137022   1.934   1.029   7.813  0.2029 -0.6656  2.5143
 8462SOL    HW237023   1.929   0.904   7.731 -0.0459  1.2882 -1.5597
 8463SOL     OW37024   3.622   4.530   3.492  0.2583  0.0956 -0.3267
 8463SOL    HW137025   3.633   4.437   3.508  0.7770  0.6514  2.5566
 8463SOL    HW237026   3.610   4.565   3.580  1.4850 -2.8056  0.9860
 8464SOL     OW37027   0.098   0.509   0.384  0.2594 -0.4035 -0.2801
 8464SOL    HW137028   0.124   0.531   0.295 -0.4925  1.9882  0.0709
 8464SOL    HW237029   0.002   0.508   0.388  0.3127 -2.3651  0.3599
 8465SOL     OW37030   2.634   3.244   8.310  0.3861 -0.2868  0.2211
 8465SOL    HW137031   2.666   3.289   8.388 -0.9352  0.0590  0.5586
 8465SOL    HW237032   2.713   3.256   8.257 -0.3080 -0.6082 -0.8776
 8466SOL     OW37033   2.422   1.687   4.713 -0.0901 -0.4137 -0.7777
 8466SOL    HW137034   2.341   1.731   4.687  0.8727  0.9243 -1.4899
 8466SOL    HW237035   2.476   1.760   4.742 -1.0866  0.8057 -1.9676
 8467SOL     OW37036   4.394   3.065   5.582  0.4575 -0.3969 -0.3103
 8467SOL    HW137037   4.439   3.035   5.661  1.0234 -0.3035 -0.5951
 8467SOL    HW237038   4.342   2.995   5.545 -1.1997  2.3014 -3.0669
 8468SOL     OW37039   2.612   4.583  14.640 -0.4233 -0.0741 -0.1978
 8468SOL    HW137040   2.587   4.669  14.608 -2.6447 -0.2185  1.1093
 8468SOL    HW237041   2.704   4.603  14.629 -0.1252 -2.7637 -2.5695
 8469SOL     OW37042   1.645   0.400   8.349  0.2400  0.1055 -0.3379
 8469SOL    HW137043   1.613   0.484   8.381  1.7759  1.1314 -1.4766
 8469SOL    HW237044   1.569   0.347   8.374  2.2577 -1.4495  2.5454
 8470SOL     OW37045   1.622   4.230  16.472 -0.0385  0.6466 -0.2914
 8470SOL    HW137046   1.549   4.264  16.523 -0.1098  1.3820 -0.8804
 8470SOL    HW237047   1.696   4.275  16.512  0.5543  0.0449 -0.7101
 8471SOL     OW37048   3.040   1.669   8.654 -0.1119 -0.0359 -0.0561
 8471SOL    HW137049   3.067   1.750   8.697 -1.4667  1.0914 -1.3081
 8471SOL    HW237050   3.104   1.608   8.688 -2.5370 -2.4215  0.2540
 8472SOL     OW37051   2.313   1.346   7.910 -0.2465  0.1223  0.1376
 8472SOL    HW137052   2.299   1.421   7.853  1.1979  1.1229  1.0955
 8472SOL    HW237053   2.261   1.373   7.986 -2.1943 -0.9429 -0.8002
 8473SOL     OW37054   1.144   1.175  16.702  0.4934  0.0500  0.2719
 8473SOL    HW137055   1.168   1.255  16.749 -0.2350  0.8449 -0.7220
 8473SOL    HW237056   1.080   1.139  16.764 -0.2055  1.3774  0.3322
 8474SOL     OW37057   2.641   4.300  16.697  0.1089 -0.4854  0.1534
 8474SOL    HW137058   2.582   4.376  16.701 -0.5297 -1.0937  2.1630
 8474SOL    HW237059   2.635   4.278  16.604  0.9281 -2.5477  0.5818
 8475SOL     OW37060   3.081   2.640   6.477  0.2222  0.3708 -0.0062
 8475SOL    HW137061   3.034   2.714   6.514  0.1409  0.1295  0.3726
 8475SOL    HW237062   3.152   2.631   6.541  0.0657 -1.2067 -0.0530
 8476SOL     OW37063   1.148   0.162   3.901 -0.2361  0.2074  0.3739
 8476SOL    HW137064   1.054   0.177   3.905 -0.3951 -0.5499 -0.4076
 8476SOL    HW237065   1.157   0.127   3.812  1.1266 -2.0621  1.4084
 8477SOL     OW37066   3.099   0.167   7.673  0.7087 -0.0981  0.1717
 8477SOL    HW137067   3.059   0.243   7.715  1.5321 -1.0893  2.7266
 8477SOL    HW237068   3.014   0.126   7.655  0.7146 -0.4869  1.0216
 8478SOL     OW37069   3.625   2.143   6.596 -0.0925  0.3159  0.3282
 8478SOL    HW137070   3.621   2.229   6.637 -1.0465  0.5128 -0.1825
 8478SOL    HW237071   3.536   2.114   6.614 -0.4895  1.2833 -0.0526
 8479SOL     OW37072   0.902   1.904  14.685  0.0645  0.5165 -0.0325
 8479SOL    HW137073   0.871   1.986  14.723  0.8958  0.1338  1.5038
 8479SOL    HW237074   0.965   1.882  14.754 -1.2909 -0.8818  0.7590
 8480SOL     OW37075   1.251   4.220  13.033 -0.0286 -0.0458 -0.8743
 8480SOL    HW137076   1.183   4.192  12.972 -0.5171  1.0334 -0.8297
 8480SOL    HW237077   1.212   4.219  13.121  1.1215 -1.5044 -0.3837
 8481SOL     OW37078   0.926   3.276  11.193 -0.1470  0.0878  0.1041
 8481SOL    HW137079   0.924   3.265  11.098  3.1037 -0.7125  0.1327
 8481SOL    HW237080   0.906   3.369  11.201  1.1062  0.4671 -1.1989
 8482SOL     OW37081   1.374   0.816   1.997  0.2207  0.5426  0.1976
 8482SOL    HW137082   1.301   0.806   2.058  1.6450  0.5226  1.8891
 8482SOL    HW237083   1.430   0.743   2.026 -0.2669 -0.0517 -0.3461
 8483SOL     OW37084   3.774   4.122  12.084 -0.1348  0.3996  0.1279
 8483SOL    HW137085   3.757   4.032  12.115  0.7271 -0.5543 -2.1801
 8483SOL    HW237086   3.772   4.149  12.176 -1.2368 -0.5504  0.3899
 8484SOL     OW37087   2.704   3.161   5.589  0.3927 -0.2951 -0.1598
 8484SOL    HW137088   2.706   3.096   5.658  3.2181 -0.9494 -0.8749
 8484SOL    HW237089   2.763   3.225   5.629 -0.6138 -0.5906  1.7794
 8485SOL     OW37090   4.606   4.543   8.363  0.0619 -0.0626 -0.2671
 8485SOL    HW137091   4.553   4.523   8.286 -0.1278  0.8919 -0.3798
 8485SOL    HW237092   4.533   4.560   8.422  0.5670  1.4401 -0.0767
 8486SOL     OW37093   3.334   1.084   1.766  0.0779  0.7321 -0.5695
 8486SOL    HW137094   3.298   1.168   1.795 -0.3800  0.5577 -0.6212
 8486SOL    HW237095   3.306   1.037   1.845  2.3932  0.3632  0.0447
 8487SOL     OW37096   0.649   4.535  11.522  0.0940  0.6457 -0.5847
 8487SOL    HW137097   0.610   4.485  11.594 -0.4382 -1.3434 -2.2307
 8487SOL    HW237098   0.727   4.482  11.507 -1.6970 -2.6807  1.7048
 8488SOL     OW37099   2.790   3.116   1.751  0.2054  0.5071  0.2872
 8488SOL    HW137100   2.865   3.172   1.769  1.5146 -1.3014  0.4585
 8488SOL    HW237101   2.754   3.154   1.671 -2.1030  0.0247  1.1025
 8489SOL     OW37102   1.961   0.276   7.173  0.1715 -0.0247 -0.0987
 8489SOL    HW137103   1.873   0.276   7.135  0.6038  0.7803 -1.1097
 8489SOL    HW237104   1.950   0.211   7.242 -0.0629 -0.6978 -0.7728
 8490SOL     OW37105   4.331   0.063   9.744 -0.0786  0.1734  0.8813
 8490SOL    HW137106   4.403   0.124   9.732 -0.4817  0.2259 -1.3538
 8490SOL    HW237107   4.268   0.108   9.800  0.1381  1.6105 -0.0436
 8491SOL     OW37108   3.753   3.202   9.230  0.0209  0.6472 -0.3084
 8491SOL    HW137109   3.675   3.206   9.285  0.7307 -1.2746  0.8329
 8491SOL    HW237110   3.746   3.118   9.184 -1.9091  0.1685  0.8797
 8492SOL     OW37111   3.339   0.690   3.647 -0.3412 -0.2897  0.1543
 8492SOL    HW137112   3.356   0.631   3.720  0.6816  1.1144  1.0567
 8492SOL    HW237113   3.246   0.701   3.671 -0.6687 -2.0566 -0.3493
 8493SOL     OW37114   0.162   2.407  13.763 -0.1053  0.8099 -0.3779
 8493SOL    HW137115   0.092   2.343  13.753  0.6012 -0.2314  1.3320
 8493SOL    HW237116   0.118   2.489  13.741 -1.4762 -0.9262 -3.9747
 8494SOL     OW37117   1.970   1.787   6.198 -0.0917  0.1075  0.3962
 8494SOL    HW137118   2.035   1.728   6.159  0.9267  1.6769 -0.2731
 8494SOL    HW237119   1.974   1.863   6.140 -0.8334  0.3230  0.6252
 8495SOL     OW37120   3.872   0.528  12.539 -0.8067 -0.2301 -0.5441
 8495SOL    HW137121   3.878   0.616  12.502 -0.7211 -0.4843 -1.1309
 8495SOL    HW237122   3.778   0.513  12.531 -1.1694  0.8761  1.6493
 8496SOL     OW37123   1.868   4.412   7.736  0.1486  0.1463 -0.1913
 8496SOL    HW137124   1.827   4.463   7.665  0.9733 -2.0998 -2.2772
 8496SOL    HW237125   1.954   4.385   7.703  0.9846  3.4059 -0.7101
 8497SOL     OW37126   1.032   4.592  10.953 -0.2926 -0.1851  0.4691
 8497SOL    HW137127   1.034   4.501  10.923 -1.1970  0.8275 -2.5746
 8497SOL    HW237128   1.119   4.613  10.922 -1.1483  1.1300 -1.0234
 8498SOL     OW37129   2.076   4.505   2.995 -0.5393  0.3312 -0.3922
 8498SOL    HW137130   2.148   4.520   2.934 -0.7797  3.2596  0.0488
 8498SOL    HW237131   2.049   4.597   2.996 -1.5737  0.0100  0.4902
 8499SOL     OW37132   2.383   0.365   3.516 -0.2674 -0.3295 -0.0683
 8499SOL    HW137133   2.375   0.459   3.500  2.3849 -0.0623  0.2647
 8499SOL    HW237134   2.325   0.365   3.593 -1.4307 -1.6435 -0.9434
 8500SOL     OW37135   1.209   4.413   3.025 -0.1606  0.1376 -0.2003
 8500SOL    HW137136   1.197   4.494   3.074 -4.6827 -0.9076  0.4349
 8500SOL    HW237137   1.276   4.371   3.078 -0.9664 -2.4222 -1.1922
 8501SOL     OW37138   4.239   1.678  14.382 -0.3738 -0.2401  0.3756
 8501SOL    HW137139   4.296   1.753  14.366 -2.6466  1.1860 -0.9923
 8501SOL    HW237140   4.254   1.662  14.475 -2.5811  0.8022  0.9010
 8502SOL     OW37141   4.121   1.052  13.077 -0.5876 -0.0297  0.5086
 8502SOL    HW137142   4.211   1.045  13.047 -0.4724 -1.2901  1.1379
 8502SOL    HW237143   4.099   0.965  13.111  0.4816 -0.0696  1.0768
 8503SOL     OW37144   0.236   3.686   9.403  0.1154 -0.2348  0.1767
 8503SOL    HW137145   0.156   3.735   9.383  0.0305 -1.0795 -1.4990
 8503SOL    HW237146   0.295   3.713   9.333 -1.4237  0.8960 -0.6714
 8504SOL     OW37147   0.688   4.256   5.442 -0.3636  0.5214 -0.1104
 8504SOL    HW137148   0.689   4.166   5.472 -1.1155  0.8564  0.9332
 8504SOL    HW237149   0.769   4.263   5.392 -0.3111  2.2230  0.1814
 8505SOL     OW37150   1.868   3.765   4.633 -0.4743 -0.6470 -0.1641
 8505SOL    HW137151   1.809   3.703   4.677  1.9388 -1.4373  1.9741
 8505SOL    HW237152   1.850   3.843   4.684 -1.7054 -0.5016 -0.8314
 8506SOL     OW37153   1.295   1.326  15.183 -0.0766  0.4616  0.0924
 8506SOL    HW137154   1.254   1.411  15.168  0.3367  0.3428 -1.7227
 8506SOL    HW237155   1.336   1.335  15.269  1.2340 -1.1729 -0.3502
 8507SOL     OW37156   4.530   4.137   1.116  0.1050  0.5410  0.4197
 8507SOL    HW137157   4.477   4.067   1.079 -0.1845  0.1711  1.5656
 8507SOL    HW237158   4.546   4.194   1.040  3.1541  0.5503  1.0447
 8508SOL     OW37159   0.670   1.174   9.970  0.0430  0.2905 -0.0243
 8508SOL    HW137160   0.734   1.191   9.901  0.0884  1.0595  0.2083
 8508SOL    HW237161   0.628   1.259   9.958 -0.7610 -0.2491 -1.0648
 8509SOL     OW37162   0.800   2.098   5.797 -0.2469  0.0365 -0.3252
 8509SOL    HW137163   0.828   2.173   5.849  0.2199 -0.5079  0.2037
 8509SOL    HW237164   0.726   2.137   5.752 -0.1222  1.4806  0.7040
 8510SOL     OW37165   4.641   3.678   2.371 -0.2125  0.2139  0.0556
 8510SOL    HW137166   4.615   3.587   2.381 -0.0145  0.4469  2.7056
 8510SOL    HW237167   4.559   3.721   2.348  0.1729  0.6773 -0.4540
 8511SOL     OW37168   0.208   2.508   8.430 -0.1618  0.2034  0.1271
 8511SOL    HW137169   0.156   2.437   8.391  2.6295 -1.3930 -0.6458
 8511SOL    HW237170   0.149   2.566   8.479  0.4746  2.3704 -1.6632
 8512SOL     OW37171   1.443   1.999  10.997  0.1217  0.4778  0.4294
 8512SOL    HW137172   1.411   2.077  10.951  0.3855  0.5477  0.3652
 8512SOL    HW237173   1.509   1.964  10.937 -1.0790  0.4135 -0.8704
 8513SOL     OW37174   2.884   2.932  17.090 -0.2824  0.4609  0.0747
 8513SOL    HW137175   2.890   2.888  17.006 -1.1348 -0.3584  0.4424
 8513SOL    HW237176   2.920   3.019  17.075  0.2296  0.0256 -1.2024
 8514SOL     OW37177   3.376   4.030   1.553 -0.1911  0.9657  0.0451
 8514SOL    HW137178   3.440   4.060   1.489  1.4915 -1.3687  0.6116
 8514SOL    HW237179   3.389   4.085   1.631 -0.1769 -1.7866  1.9692
 8515SOL     OW37180   0.388   3.464  17.500 -0.4273 -0.2442  0.0689
 8515SOL    HW137181   0.397   3.452  17.405 -0.8751  1.8085 -0.2174
 8515SOL    HW237182   0.463   3.412  17.529  0.5924  0.6179 -1.0517
 8516SOL     OW37183   1.808   1.838   7.177  0.1753  0.2683 -0.0004
 8516SOL    HW137184   1.855   1.762   7.211  0.0332 -0.7887 -2.1653
 8516SOL    HW237185   1.867   1.911   7.196 -0.0277  0.0690  1.4072
 8517SOL     OW37186   3.688   1.048  11.808  0.2109  0.0925  0.2202
 8517SOL    HW137187   3.651   1.052  11.896  0.8396  1.4844  0.4214
 8517SOL    HW237188   3.740   1.128  11.798 -0.2351  0.1938 -1.3342
 8518SOL     OW37189   2.801   2.224   5.191 -0.3085  0.2941 -0.4687
 8518SOL    HW137190   2.751   2.243   5.270 -0.9562  1.4403 -1.1592
 8518SOL    HW237191   2.761   2.142   5.165 -1.1113  0.4742  0.2022
 8519SOL     OW37192   0.379   3.020   2.859 -0.2799  0.1599  0.4934
 8519SOL    HW137193   0.303   3.064   2.896 -0.9162 -0.8022  0.3390
 8519SOL    HW237194   0.362   2.926   2.866 -1.0830  0.2733  0.0561
 8520SOL     OW37195   4.305   3.271   7.667 -0.4394 -0.0573  0.8820
 8520SOL    HW137196   4.359   3.288   7.744 -1.0450  2.2387  0.7795
 8520SOL    HW237197   4.295   3.177   7.684  0.5308 -0.3092  0.0593
 8521SOL     OW37198   3.126   2.578  13.321  0.0489 -0.4715 -0.1698
 8521SOL    HW137199   3.213   2.609  13.297 -0.0909  1.0894  1.3588
 8521SOL    HW237200   3.086   2.664  13.310  0.2018 -0.3844 -0.0491
 8522SOL     OW37201   1.982   1.140   1.381 -0.2974  0.0644  0.2021
 8522SOL    HW137202   2.020   1.052   1.384 -1.3637 -0.3529  1.4030
 8522SOL    HW237203   2.018   1.172   1.298 -1.0014 -0.8467 -0.4702
 8523SOL     OW37204   2.712   2.852   7.013 -0.6964 -0.3850  0.6042
 8523SOL    HW137205   2.758   2.833   6.931 -1.4554 -0.6543  0.2312
 8523SOL    HW237206   2.687   2.764   7.042  2.5109 -1.2420  0.8036
 8524SOL     OW37207   0.780   2.360  11.072  0.7241  0.2540 -0.4694
 8524SOL    HW137208   0.793   2.272  11.035  1.1941  1.1196 -2.3509
 8524SOL    HW237209   0.689   2.381  11.052  0.9489  0.0621 -1.7443
 8525SOL     OW37210   1.701   2.363   0.250  0.2331 -0.4061  0.3239
 8525SOL    HW137211   1.782   2.351   0.199 -0.8262 -0.9912 -1.2092
 8525SOL    HW237212   1.719   2.300   0.320 -0.3422 -0.6998  0.2036
 8526SOL     OW37213   3.990   3.120  12.647  0.0550 -0.6691  0.1748
 8526SOL    HW137214   3.907   3.095  12.606 -0.3586  0.0007  0.5983
 8526SOL    HW237215   3.956   3.186  12.707  3.3673  0.7358  0.5305
 8527SOL     OW37216   2.252   3.371   1.853 -0.3437  0.0773  0.0316
 8527SOL    HW137217   2.271   3.433   1.783 -3.0285 -2.3216 -2.8006
 8527SOL    HW237218   2.334   3.357   1.900 -0.9850 -0.2551  1.0748
 8528SOL     OW37219   1.753   3.103  14.321  0.6882 -0.0293 -0.2874
 8528SOL    HW137220   1.683   3.041  14.339 -0.1686  0.1634 -3.0532
 8528SOL    HW237221   1.721   3.166  14.257 -0.4378 -1.4281 -1.0913
 8529SOL     OW37222   1.955   3.126   0.451 -0.4504  0.0255 -0.3221
 8529SOL    HW137223   1.906   3.053   0.415 -2.8582  0.6654  1.6370
 8529SOL    HW237224   1.990   3.083   0.530  0.7547  0.4718 -0.6086
 8530SOL     OW37225   3.303   0.031  13.627 -0.3122  1.0131  0.4281
 8530SOL    HW137226   3.370   4.718  13.578  0.4669  0.7238  1.7665
 8530SOL    HW237227   3.344   0.118  13.633  2.1891 -0.0343 -1.7032
 8531SOL     OW37228   3.621   2.550  15.592  0.2403  0.3856  0.1287
 8531SOL    HW137229   3.672   2.631  15.587  0.0487  0.2837 -2.9856
 8531SOL    HW237230   3.580   2.565  15.678 -1.6929 -0.7929 -0.5744
 8532SOL     OW37231   1.382   1.330   5.781 -0.4469  0.2534 -0.1181
 8532SOL    HW137232   1.362   1.255   5.837  0.1308  0.8675  0.9074
 8532SOL    HW237233   1.467   1.314   5.738 -0.1131  0.7225  0.3786
 8533SOL     OW37234   2.301   4.429   6.591  0.7048 -0.1191 -0.6360
 8533SOL    HW137235   2.301   4.506   6.535 -0.4831 -0.0134 -0.4992
 8533SOL    HW237236   2.358   4.445   6.667  2.1519 -0.9298 -1.5546
 8534SOL     OW37237   4.642   0.173   1.574 -0.8017  0.5417  0.5500
 8534SOL    HW137238   4.548   0.166   1.554 -0.5386 -2.1196  0.2374
 8534SOL    HW237239   4.651   0.266   1.592 -0.9111  0.4858  0.9059
 8535SOL     OW37240   2.758   2.615  16.543  0.4271 -0.9372  0.0945
 8535SOL    HW137241   2.831   2.599  16.603  0.9681 -0.0305 -0.3164
 8535SOL    HW237242   2.803   2.605  16.459 -1.7361 -3.2691 -0.7791
 8536SOL     OW37243   0.677   4.337   7.657 -0.3578  0.3600 -0.2217
 8536SOL    HW137244   0.761   4.382   7.668  1.0976 -3.0072  2.1879
 8536SOL    HW237245   0.617   4.410   7.639  0.3542  1.3124  1.2786
 8537SOL     OW37246   1.626   0.311  10.780 -0.0051 -0.2788 -0.1017
 8537SOL    HW137247   1.695   0.304  10.714  2.0206  1.6016  1.8423
 8537SOL    HW237248   1.675   0.355  10.849 -1.2456 -1.4382  1.5057
 8538SOL     OW37249   1.293   2.696   5.584  0.4770 -0.4981 -0.5465
 8538SOL    HW137250   1.322   2.609   5.557  0.2964 -0.4968 -0.7440
 8538SOL    HW237251   1.284   2.733   5.496 -6.0476 -2.3566 -0.6358
 8539SOL     OW37252   3.736   2.417   2.225 -0.1350 -0.1980 -0.3441
 8539SOL    HW137253   3.692   2.405   2.141 -1.8857  0.8228  0.4448
 8539SOL    HW237254   3.799   2.345   2.217 -1.1516 -1.1508  0.4192
 8540SOL     OW37255   0.120   0.490   9.613  0.4763 -0.3568  0.8119
 8540SOL    HW137256   0.028   0.466   9.603  1.0146 -2.0398 -0.0953
 8540SOL    HW237257   0.117   0.557   9.681  0.1846  0.3280  0.1175
 8541SOL     OW37258   4.069   2.943  12.445 -0.0448 -0.1805 -0.5419
 8541SOL    HW137259   4.142   2.982  12.397  0.2564 -0.5593 -0.3922
 8541SOL    HW237260   4.067   2.998  12.524 -0.8016  0.1407 -0.7885
 8542SOL     OW37261   1.180   2.643   4.155 -0.0997  0.2614  0.0032
 8542SOL    HW137262   1.261   2.620   4.109 -1.4612 -0.7233 -1.8966
 8542SOL    HW237263   1.167   2.732   4.120  0.3534  0.7073  0.9619
 8543SOL     OW37264   1.166   2.452   5.047 -0.2561  0.0590 -0.4153
 8543SOL    HW137265   1.187   2.373   5.097 -1.5727 -0.5798 -0.8735
 8543SOL    HW237266   1.071   2.448   5.037 -0.3699  0.6990  0.3756
 8544SOL     OW37267   4.307   3.172   5.116  0.5815 -0.1993  0.2359
 8544SOL    HW137268   4.308   3.267   5.116  1.4773 -0.2144  1.4805
 8544SOL    HW237269   4.269   3.165   5.028 -0.5641 -0.8751  0.7930
 8545SOL     OW37270   1.380   3.163  16.903  0.9196 -0.0756  0.2677
 8545SOL    HW137271   1.296   3.208  16.917  0.7619 -0.2278 -0.1715
 8545SOL    HW237272   1.379   3.153  16.808  3.4588  0.7689  0.1579
 8546SOL     OW37273   0.549   2.526   9.102 -0.0550  0.7888  0.2376
 8546SOL    HW137274   0.604   2.459   9.061  0.4224  0.8809  0.7318
 8546SOL    HW237275   0.485   2.466   9.140  0.8049  1.3433  2.5696
 8547SOL     OW37276   2.164   4.683   3.628  0.6014 -0.2584  0.3066
 8547SOL    HW137277   2.071   4.669   3.646  0.5150  0.6316  0.5645
 8547SOL    HW237278   2.166   0.038   3.596 -1.0877 -1.0534 -1.9844
 8548SOL     OW37279   4.174   3.787  16.571 -0.1279  0.2623  0.0956
 8548SOL    HW137280   4.226   3.714  16.535  0.0760  0.5402 -0.1740
 8548SOL    HW237281   4.096   3.764  16.521 -0.2925 -0.5981  0.7528
 8549SOL     OW37282   4.705   1.981   8.146 -0.1974 -0.2194 -0.0111
 8549SOL    HW137283   0.038   1.980   8.079  0.4651 -1.2922  0.6778
 8549SOL    HW237284   4.642   2.046   8.115 -0.4422  0.4572  1.9338
 8550SOL     OW37285   0.123   4.295  10.049 -0.1486 -0.5432  0.9475
 8550SOL    HW137286   0.079   4.347   9.981  1.1068 -2.2394 -1.1732
 8550SOL    HW237287   0.171   4.228   9.999  2.2138  1.6525  0.3036
 8551SOL     OW37288   1.464   4.478  16.041 -0.5779  0.7452  0.5305
 8551SOL    HW137289   1.440   4.461  15.950  0.0993  0.3788  0.4190
 8551SOL    HW237290   1.385   4.446  16.085 -0.6492 -1.4900 -1.2372
 8552SOL     OW37291   2.033   4.065   8.403  0.2679 -0.5419  0.5154
 8552SOL    HW137292   2.055   4.158   8.394  1.4812 -0.8130  0.6767
 8552SOL    HW237293   1.939   4.058   8.384 -0.2507  0.8714  2.4888
 8553SOL     OW37294   4.611   0.535   9.069  0.4260  0.2100 -0.1251
 8553SOL    HW137295   4.691   0.495   9.035 -1.9518 -2.1473 -2.9990
 8553SOL    HW237296   4.623   0.617   9.020 -0.5205  0.4501  0.0465
 8554SOL     OW37297   0.583   3.066   5.620  0.1208 -0.1338  0.2248
 8554SOL    HW137298   0.587   3.131   5.690 -3.0021  0.2109  0.0544
 8554SOL    HW237299   0.492   3.038   5.622  0.0075  0.1538 -0.9136
 8555SOL     OW37300   4.236   3.733   4.815  0.1586  0.5085  0.5553
 8555SOL    HW137301   4.173   3.785   4.764  1.3179  1.4840  0.1113
 8555SOL    HW237302   4.174   3.661   4.828 -0.1456  0.8616  1.0696
 8556SOL     OW37303   2.619   0.620   8.754  0.2820 -0.1985 -0.1767
 8556SOL    HW137304   2.663   0.548   8.799  1.0327  1.0705  1.1582
 8556SOL    HW237305   2.589   0.573   8.676  2.0906  0.1673 -1.0908
 8557SOL     OW37306   2.071   2.028   7.508 -0.5425  0.2586  0.3313
 8557SOL    HW137307   2.136   2.070   7.565  0.7875 -0.2832 -0.7923
 8557SOL    HW237308   2.072   1.938   7.541  0.2850 -1.2778 -3.9549
 8558SOL     OW37309   0.575   1.203   0.057  0.0099  0.5982 -0.3708
 8558SOL    HW137310   0.529   1.123   0.084 -0.6327  0.8884 -0.5971
 8558SOL    HW237311   0.514   1.272   0.082 -1.9842 -0.9569 -0.9229
 8559SOL     OW37312   1.810   4.523  14.509  0.0688 -0.2884 -0.0969
 8559SOL    HW137313   1.797   4.487  14.596 -0.2872  1.0233  0.3924
 8559SOL    HW237314   1.777   4.611  14.529  0.6204  0.1882 -1.2702
 8560SOL     OW37315   4.239   1.377  10.047  0.0693 -0.7888 -0.2784
 8560SOL    HW137316   4.270   1.419   9.966  0.9350  0.9733  0.9654
 8560SOL    HW237317   4.206   1.291  10.021  1.4103 -1.4464  0.1861
 8561SOL     OW37318   3.800   0.038  13.315 -0.1380  0.1809 -0.0029
 8561SOL    HW137319   3.870   4.730  13.265 -0.1486 -0.6364  0.6782
 8561SOL    HW237320   3.724   0.002  13.270 -0.8866 -0.4867  1.7903
 8562SOL     OW37321   2.062   1.248   4.180  0.1210 -0.5261 -0.5726
 8562SOL    HW137322   2.137   1.256   4.122  1.3252 -1.1933  0.8734
 8562SOL    HW237323   2.033   1.338   4.192  2.5954  0.1805 -0.0324
 8563SOL     OW37324   2.489   2.209   1.453  0.0668 -0.6385 -0.4506
 8563SOL    HW137325   2.425   2.138   1.446 -0.5738 -0.0462 -0.6183
 8563SOL    HW237326   2.566   2.154   1.466  1.9618  2.3771  1.0586
 8564SOL     OW37327   0.997   3.116   6.270  0.0016 -0.6762  0.1228
 8564SOL    HW137328   1.022   3.197   6.226 -2.3954  1.2094  2.2772
 8564SOL    HW237329   1.070   3.058   6.249 -1.2480 -2.3314  0.3556
 8565SOL     OW37330   2.787   2.722   6.108 -0.1576 -0.0332  0.0112
 8565SOL    HW137331   2.811   2.812   6.130  2.3862 -1.0592  1.4259
 8565SOL    HW237332   2.757   2.691   6.193  0.8859  1.6886  0.9922
 8566SOL     OW37333   3.359   1.783   7.562  0.3889  0.3511  0.2853
 8566SOL    HW137334   3.452   1.795   7.580  1.0951 -0.8928 -2.5289
 8566SOL    HW237335   3.344   1.694   7.593 -3.0934  1.5775  2.0991
 8567SOL     OW37336   2.338   3.431   3.322  0.1884 -0.1845  0.7350
 8567SOL    HW137337   2.334   3.378   3.402 -0.2825 -1.0198  0.1598
 8567SOL    HW237338   2.244   3.440   3.305  0.1242 -2.9162 -0.3144
 8568SOL     OW37339   0.012   4.027  12.824 -0.2538  0.3183  0.1189
 8568SOL    HW137340   4.706   4.111  12.801  0.4782  0.4551 -0.6904
 8568SOL    HW237341   0.103   4.046  12.848 -0.1828  0.1653 -0.0324
 8569SOL     OW37342   4.259   3.036   0.918  0.5340  0.1602 -0.3601
 8569SOL    HW137343   4.302   3.118   0.943 -0.7082  1.0763 -1.2603
 8569SOL    HW237344   4.315   2.991   0.855  0.7196 -0.7325  0.4284
 8570SOL     OW37345   0.339   1.481   0.961  0.4285 -0.5183 -0.2671
 8570SOL    HW137346   0.325   1.567   1.000 -0.4286 -0.3249 -1.0015
 8570SOL    HW237347   0.434   1.476   0.975  0.2973 -2.4024 -0.1217
 8571SOL     OW37348   1.847   2.789   8.860 -0.6168  0.7836  0.2032
 8571SOL    HW137349   1.899   2.763   8.936 -4.2922 -2.7918  1.4599
 8571SOL    HW237350   1.784   2.849   8.901 -1.1564  0.8688 -0.7494
 8572SOL     OW37351   2.742   1.492   2.179 -0.4124 -0.9219 -0.0050
 8572SOL    HW137352   2.654   1.466   2.154 -1.3430  1.3238  0.9156
 8572SOL    HW237353   2.776   1.530   2.098 -2.0387  0.4051 -0.0805
 8573SOL     OW37354   0.092   1.233   2.482  0.1500  0.2018 -0.2428
 8573SOL    HW137355   0.035   1.161   2.510  0.5170  0.1399  0.3610
 8573SOL    HW237356   0.177   1.194   2.464  0.6189  0.5781  1.1307
 8574SOL     OW37357   2.439   3.629  14.490  0.8477 -0.2695  0.0550
 8574SOL    HW137358   2.429   3.722  14.510  0.1868 -0.6126  1.3482
 8574SOL    HW237359   2.408   3.624  14.400 -0.6104  0.2960  0.5167
 8575SOL     OW37360   0.605   0.405   2.149 -0.0498  0.0103 -0.2301
 8575SOL    HW137361   0.524   0.407   2.200 -1.5067 -0.4709 -2.4983
 8575SOL    HW237362   0.596   0.485   2.097 -1.0878  0.7874  1.1593
 8576SOL     OW37363   1.668   4.331   6.679  0.7628  0.1537  0.3074
 8576SOL    HW137364   1.619   4.370   6.751 -3.5411 -0.7646 -2.1311
 8576SOL    HW237365   1.615   4.251   6.671 -2.6993  2.5360 -0.5021
 8577SOL     OW37366   1.167   1.988   9.419 -0.2481  0.2215  0.6738
 8577SOL    HW137367   1.253   1.981   9.462 -0.2954 -0.6282  0.6301
 8577SOL    HW237368   1.177   2.068   9.368 -0.4314  0.0581  0.3825
 8578SOL     OW37369   0.283   2.240  10.204 -0.4074  0.6317 -0.1691
 8578SOL    HW137370   0.279   2.199  10.118 -2.6329  0.0761  0.2099
 8578SOL    HW237371   0.298   2.166  10.261  1.0347  0.4540 -0.7846
 8579SOL     OW37372   2.427   3.388   0.838  0.9048 -0.1379  0.2868
 8579SOL    HW137373   2.477   3.407   0.917 -1.4293  1.6897  1.3310
 8579SOL    HW237374   2.467   3.443   0.771 -2.5633  1.4562 -0.4718
 8580SOL     OW37375   1.930   3.242   7.083 -0.1050  0.0329 -0.1488
 8580SOL    HW137376   2.011   3.289   7.063  0.2936 -1.6722 -2.5587
 8580SOL    HW237377   1.952   3.149   7.081 -1.3617 -0.3177  2.1647
 8581SOL     OW37378   1.030   1.434   3.660 -0.7122 -0.0195  0.4344
 8581SOL    HW137379   0.998   1.344   3.666 -3.2907  0.8293 -0.3883
 8581SOL    HW237380   0.949   1.475   3.630 -2.0648 -2.3358  0.9292
 8582SOL     OW37381   1.875   1.792  13.251  0.2535 -0.0316 -0.0880
 8582SOL    HW137382   1.782   1.809  13.267 -0.2482 -1.3711 -1.5776
 8582SOL    HW237383   1.918   1.812  13.334 -0.5646  3.3916 -0.4593
 8583SOL     OW37384   4.028   0.862   5.024 -0.6577 -0.6620 -0.6307
 8583SOL    HW137385   4.066   0.774   5.028  0.4122 -0.1003  1.6949
 8583SOL    HW237386   4.101   0.917   4.996  0.0784 -1.0238  0.5452
 8584SOL     OW37387   3.481   2.660   2.478  0.5926 -0.3581 -0.3757
 8584SOL    HW137388   3.408   2.679   2.420 -0.0717  1.0736  0.9062
 8584SOL    HW237389   3.548   2.620   2.423  0.3683  1.2713 -1.8185
 8585SOL     OW37390   1.130   3.023  12.691  0.7899  0.1459 -0.5107
 8585SOL    HW137391   1.066   3.044  12.759 -0.9658 -2.5233 -1.3402
 8585SOL    HW237392   1.209   3.031  12.743 -0.9411  0.9347  2.0189
 8586SOL     OW37393   3.179   0.156   4.545 -0.7458 -0.2643 -0.3999
 8586SOL    HW137394   3.182   0.081   4.604 -1.8152  0.8234  1.0238
 8586SOL    HW237395   3.266   0.152   4.506 -0.4439 -1.9949  0.4609
 8587SOL     OW37396   2.542   3.811   8.738  0.1598 -0.1284 -0.1848
 8587SOL    HW137397   2.552   3.885   8.679  5.0827 -0.2610  0.4812
 8587SOL    HW237398   2.587   3.846   8.815  0.1152  1.0889 -0.7133
 8588SOL     OW37399   0.372   4.008   6.512 -0.0710  0.2650 -0.6488
 8588SOL    HW137400   0.322   3.999   6.431 -1.3815  0.1005  0.1760
 8588SOL    HW237401   0.367   4.103   6.522  0.9021  0.1868  0.5673
 8589SOL     OW37402   1.580   0.289   6.053 -0.3060 -0.2768 -0.6005
 8589SOL    HW137403   1.666   0.260   6.083 -1.1867  0.9236  3.0763
 8589SOL    HW237404   1.589   0.277   5.959 -1.0004  0.1223 -0.7155
 8590SOL     OW37405   4.455   4.537  17.143  0.0540 -0.3401 -0.3370
 8590SOL    HW137406   4.498   4.578  17.218 -0.2231 -0.9403  0.1508
 8590SOL    HW237407   4.517   4.557  17.072  0.8856  3.0857  1.3388
 8591SOL     OW37408   2.464   1.008   2.590  0.3476 -0.0935 -0.1947
 8591SOL    HW137409   2.461   0.944   2.518 -0.0187  1.0236 -1.1781
 8591SOL    HW237410   2.397   0.977   2.650  0.9351  1.2392  1.1272
 8592SOL     OW37411   4.086   1.004   1.116 -0.0129 -0.1331 -0.6647
 8592SOL    HW137412   4.103   0.915   1.146 -0.2433 -0.4251 -1.3901
 8592SOL    HW237413   4.167   1.050   1.136  0.6109 -0.8334 -1.5566
 8593SOL     OW37414   4.024   3.651   9.299 -0.0017 -0.7336  0.0760
 8593SOL    HW137415   3.996   3.581   9.240 -1.7904 -1.6047  1.9614
 8593SOL    HW237416   3.994   3.613   9.382  0.7030  0.3396  0.8264
 8594SOL     OW37417   2.083   3.354   3.398 -0.1689  0.0483 -0.0937
 8594SOL    HW137418   2.080   3.444   3.429 -0.0010 -0.0258  0.1385
 8594SOL    HW237419   2.129   3.299   3.462  2.5953  1.7279 -0.6941
 8595SOL     OW37420   3.269   1.510   7.613  0.3782 -0.7970  0.2220
 8595SOL    HW137421   3.238   1.468   7.532  0.0044 -0.5928  0.2602
 8595SOL    HW237422   3.343   1.456   7.639  1.0202  0.2746  0.6020
 8596SOL     OW37423   2.599   0.699  15.075 -0.0228  0.3646 -0.9180
 8596SOL    HW137424   2.680   0.677  15.122 -0.5407 -0.3841 -0.3854
 8596SOL    HW237425   2.548   0.735  15.147  0.5336 -1.8426  0.5612
 8597SOL     OW37426   0.654   2.660   4.677 -0.3509  0.6213  0.0698
 8597SOL    HW137427   0.693   2.707   4.751 -1.8237  0.2480  1.0735
 8597SOL    HW237428   0.729   2.654   4.617  0.5155  0.5781  1.1458
 8598SOL     OW37429   1.038   4.340  10.830 -0.5577  0.5437  0.0332
 8598SOL    HW137430   1.035   4.347  10.734 -1.4659  1.0310  0.0935
 8598SOL    HW237431   1.039   4.245  10.832  2.4320  0.5597 -0.3915
 8599SOL     OW37432   0.945   4.034   5.117  0.0067 -0.1495 -0.2685
 8599SOL    HW137433   0.851   4.015   5.124 -0.0738  1.0656  2.2217
 8599SOL    HW237434   0.938   4.127   5.093 -0.4687  0.0475  0.5981
 8600SOL     OW37435   1.882   0.125   3.297 -0.4144  0.4782 -0.9713
 8600SOL    HW137436   1.895   0.100   3.389  0.7663 -0.2138 -1.3265
 8600SOL    HW237437   1.968   0.155   3.267  0.0973  0.8758  0.8813
 8601SOL     OW37438   2.518   3.307  14.583  0.6463  0.2478  0.1535
 8601SOL    HW137439   2.440   3.294  14.530  0.2847 -1.3300  1.0983
 8601SOL    HW237440   2.576   3.353  14.522  1.7547  0.4933  1.3872
 8602SOL     OW37441   1.268   0.262   8.607 -0.1855 -0.3759 -0.2821
 8602SOL    HW137442   1.332   0.215   8.660  1.3810 -0.7619 -2.5168
 8602SOL    HW237443   1.331   0.333   8.591 -0.3140  0.0762  1.2011
 8603SOL     OW37444   0.277   3.926   1.356  0.1331 -0.0098  0.1781
 8603SOL    HW137445   0.181   3.922   1.355  0.1314  0.0963 -0.1947
 8603SOL    HW237446   0.287   3.971   1.439 -1.8561  1.0999 -0.1754
 8604SOL     OW37447   3.578   2.650   7.290 -0.3548 -0.5848 -0.4503
 8604SOL    HW137448   3.490   2.647   7.327 -0.1163 -0.5794  0.1192
 8604SOL    HW237449   3.567   2.718   7.224  1.1085  2.4887  2.4627
 8605SOL     OW37450   2.213   0.698  11.558 -0.0847  0.1261 -0.2462
 8605SOL    HW137451   2.165   0.616  11.563  0.0412  0.1715  1.5694
 8605SOL    HW237452   2.293   0.687  11.609  0.5266  4.7868 -0.1276
 8606SOL     OW37453   0.458   2.583   6.543  0.5772 -0.1962  0.7630
 8606SOL    HW137454   0.498   2.570   6.628 -0.0814 -1.0294  0.9499
 8606SOL    HW237455   0.485   2.500   6.504 -1.8749 -0.5960 -0.1316
 8607SOL     OW37456   2.469   2.766   7.253 -0.4279  0.3271  0.3266
 8607SOL    HW137457   2.507   2.701   7.312 -0.7967  0.6351  0.9025
 8607SOL    HW237458   2.381   2.763   7.290 -1.8519  1.8538 -2.9191
 8608SOL     OW37459   4.293   3.145   9.251  0.4285  0.0870  0.5296
 8608SOL    HW137460   4.238   3.130   9.327  0.6729  1.8780  1.0571
 8608SOL    HW237461   4.375   3.152   9.300 -0.0525 -2.3246  1.6727
 8609SOL     OW37462   0.944   0.248  16.796  0.5744  0.1100 -0.2047
 8609SOL    HW137463   0.970   0.339  16.810  1.9379 -0.4431  0.8896
 8609SOL    HW237464   0.870   0.219  16.849 -0.0080  3.4685  0.8264
 8610SOL     OW37465   4.203   2.899   3.217 -0.1795 -0.3470 -0.0848
 8610SOL    HW137466   4.252   2.836   3.269 -1.6128  0.2211  1.9609
 8610SOL    HW237467   4.271   2.964   3.200 -1.8430  1.5557  0.5747
 8611SOL     OW37468   1.856   1.397   5.950  0.7054  0.1047  0.1693
 8611SOL    HW137469   1.898   1.386   6.036 -0.1501 -1.7036  0.3613
 8611SOL    HW237470   1.931   1.429   5.901 -0.2043 -0.1056 -1.3586
 8612SOL     OW37471   3.447   2.583   7.612 -0.1761  0.1799  0.3219
 8612SOL    HW137472   3.390   2.642   7.662 -1.7615 -1.2477  0.2297
 8612SOL    HW237473   3.394   2.504   7.605 -1.7144  1.1316  1.0803
 8613SOL     OW37474   3.887   4.635   2.672 -0.6947  0.3761 -0.1604
 8613SOL    HW137475   3.978   4.607   2.678 -0.6630  0.4849 -0.1343
 8613SOL    HW237476   3.891   4.696   2.599 -0.2119 -2.0270 -2.1283
 8614SOL     OW37477   4.027   4.219  17.055 -0.2345 -0.1519  0.6092
 8614SOL    HW137478   4.066   4.204  16.969  1.1521 -1.2135  1.4122
 8614SOL    HW237479   3.970   4.142  17.054  0.2515 -0.4836 -1.1496
 8615SOL     OW37480   3.755   3.572   7.204  0.3063  0.4368  0.4543
 8615SOL    HW137481   3.716   3.547   7.120 -1.4604 -1.4240  1.8275
 8615SOL    HW237482   3.679   3.544   7.256  0.7263 -1.2031  0.1856
 8616SOL     OW37483   1.049   4.171  12.865  0.1895  0.1514 -0.6942
 8616SOL    HW137484   1.019   4.086  12.899 -0.1368 -0.2639 -2.0351
 8616SOL    HW237485   0.982   4.230  12.900  0.9248  0.9811 -0.7015
 8617SOL     OW37486   2.698   4.204   2.046 -0.2020 -0.1448  0.2701
 8617SOL    HW137487   2.605   4.220   2.032  0.2528  1.6049 -0.7707
 8617SOL    HW237488   2.694   4.111   2.065  0.9526 -0.8247 -2.7042
 8618SOL     OW37489   1.191   2.840   8.865  0.3331  0.2943 -0.0496
 8618SOL    HW137490   1.107   2.885   8.874 -1.3863 -2.3939 -2.4108
 8618SOL    HW237491   1.164   2.752   8.840  2.3610 -0.0278 -1.0632
 8619SOL     OW37492   0.193   1.571  15.871  0.1288  0.6710  0.2344
 8619SOL    HW137493   0.243   1.493  15.847 -1.5439 -0.5545  0.6874
 8619SOL    HW237494   0.244   1.641  15.830  2.7939 -0.1210  2.2117
 8620SOL     OW37495   3.902   3.891   7.399 -0.1991  0.4645  0.5109
 8620SOL    HW137496   3.990   3.929   7.391  0.3591 -1.2404 -1.7943
 8620SOL    HW237497   3.932   3.802   7.421  2.1679  0.7186 -1.5993
 8621SOL     OW37498   0.525   0.221   4.526 -0.0364  0.3277  0.1957
 8621SOL    HW137499   0.453   0.165   4.498  2.0822 -1.3199 -1.9865
 8621SOL    HW237500   0.539   0.267   4.443 -2.5123 -0.4332 -0.6210
 8622SOL     OW37501   0.647   0.860   1.874 -0.4590  0.4502 -0.1664
 8622SOL    HW137502   0.726   0.808   1.858 -1.1859 -1.4719  2.4190
 8622SOL    HW237503   0.580   0.791   1.875 -0.1899  0.2890  4.1174
 8623SOL     OW37504   0.862   1.650   0.712  0.6248 -0.4635  0.5413
 8623SOL    HW137505   0.867   1.718   0.645  0.0163  1.7940  2.7857
 8623SOL    HW237506   0.786   1.684   0.760 -0.1617 -0.4801 -0.6910
 8624SOL     OW37507   1.128   3.192   2.321 -0.2235  0.0189 -0.1529
 8624SOL    HW137508   1.156   3.102   2.338  2.4944  0.9929  0.6323
 8624SOL    HW237509   1.063   3.180   2.252  2.0019  0.4814 -2.3603
 8625SOL     OW37510   0.031   2.394  10.654 -0.3611 -0.0528  0.3094
 8625SOL    HW137511   0.057   2.438  10.573  0.4090 -1.0704 -0.0112
 8625SOL    HW237512   0.082   2.445  10.716  2.0403 -1.7285 -0.2636
 8626SOL     OW37513   0.379   1.870   5.183  0.0356  0.3769  0.0042
 8626SOL    HW137514   0.459   1.912   5.215  1.7741 -2.8509 -0.1578
 8626SOL    HW237515   0.323   1.948   5.183 -0.5426 -0.0499  2.0811
 8627SOL     OW37516   1.536   1.217   7.370  0.7556  0.6371  0.4375
 8627SOL    HW137517   1.523   1.280   7.441  3.6729  2.0571 -0.3068
 8627SOL    HW237518   1.614   1.173   7.405 -0.4939 -0.6264  1.6595
 8628SOL     OW37519   3.759   1.254   5.347 -0.0307 -0.6402 -0.5733
 8628SOL    HW137520   3.768   1.235   5.440 -1.6578  3.6449  0.4249
 8628SOL    HW237521   3.720   1.341   5.350  0.3645 -0.5416  1.5995
 8629SOL     OW37522   0.992   4.523   8.764  0.1686 -0.0575  0.3343
 8629SOL    HW137523   0.926   4.539   8.697 -0.7650  0.9592  1.5042
 8629SOL    HW237524   1.035   4.445   8.728 -2.3179 -0.7917 -0.9745
 8630SOL     OW37525   1.154   2.892  13.011  0.4707  0.1016  0.5033
 8630SOL    HW137526   1.205   2.819  12.973 -0.4863  0.1582 -0.9054
 8630SOL    HW237527   1.234   2.943  13.022  0.0467  1.3433 -2.1202
 8631SOL     OW37528   3.526   4.556  16.970  0.2427 -0.9719  0.4511
 8631SOL    HW137529   3.440   4.535  17.006 -0.6726  0.5759 -0.8188
 8631SOL    HW237530   3.564   4.605  17.043 -1.5799 -0.1315  0.8348
 8632SOL     OW37531   1.901   1.926   6.765 -0.2146 -0.0684  0.3491
 8632SOL    HW137532   1.933   2.003   6.717 -0.7420  1.2075  2.0512
 8632SOL    HW237533   1.963   1.914   6.837 -1.1419 -1.1831  0.9574
 8633SOL     OW37534   3.443   0.084   4.474 -0.3729  0.1871  0.2489
 8633SOL    HW137535   3.517   0.083   4.535  0.5428  1.5339 -0.8241
 8633SOL    HW237536   3.468   0.147   4.406  1.2315  0.0993  0.7380
 8634SOL     OW37537   1.604   0.177   0.477 -0.2941  0.2834  0.1132
 8634SOL    HW137538   1.593   0.236   0.552 -1.2646 -2.3654  2.0824
 8634SOL    HW237539   1.696   0.152   0.484  0.3747  3.0945  1.1040
 8635SOL     OW37540   0.379   4.706   3.027 -0.4004  0.0659  0.1948
 8635SOL    HW137541   0.462   4.685   2.984 -0.1546 -0.4451  0.9231
 8635SOL    HW237542   0.314   4.678   2.962  1.9836 -1.6783 -1.4309
 8636SOL     OW37543   1.098   0.871   4.008  0.8426 -0.4142  0.7426
 8636SOL    HW137544   1.152   0.815   4.065  2.3802  0.7081  0.3824
 8636SOL    HW237545   1.166   0.928   3.971 -0.2314  0.2219 -0.2373
 8637SOL     OW37546   3.024   3.583   3.180 -0.3400 -0.1615 -0.8059
 8637SOL    HW137547   3.007   3.551   3.268  1.3128 -0.1337 -0.4731
 8637SOL    HW237548   2.939   3.568   3.139 -0.6999  0.3491 -0.2476
 8638SOL     OW37549   4.627   0.281  16.819 -0.2476 -0.0089  0.5921
 8638SOL    HW137550   4.627   0.248  16.909 -1.9680 -0.6207  0.3807
 8638SOL    HW237551   4.597   0.211  16.761  0.6410 -0.4047  0.6177
 8639SOL     OW37552   1.558   2.756  12.118  0.2599 -0.3206  0.6369
 8639SOL    HW137553   1.628   2.701  12.083  1.1862  1.1081  0.2400
 8639SOL    HW237554   1.555   2.829  12.057  0.1507  0.5567  1.6919
 8640SOL     OW37555   1.600   0.281   9.403 -0.4547 -0.4793  0.0068
 8640SOL    HW137556   1.547   0.216   9.450 -0.7576  0.0442  0.3857
 8640SOL    HW237557   1.685   0.236   9.409  0.2814  0.8895 -0.2524
 8641SOL     OW37558   4.344   1.075   7.827 -0.0271 -0.3857  0.0241
 8641SOL    HW137559   4.417   1.035   7.874 -0.9022 -0.3878  1.3978
 8641SOL    HW237560   4.388   1.113   7.752  0.8401 -0.2962  0.5798
 8642SOL     OW37561   2.316   1.305   4.026  0.1349 -0.1855  0.6975
 8642SOL    HW137562   2.318   1.264   3.940  0.5438  1.4715 -0.0994
 8642SOL    HW237563   2.377   1.246   4.071  0.1605 -1.0489 -0.4872
 8643SOL     OW37564   0.968   1.352  12.999 -0.3226  0.3497 -0.0995
 8643SOL    HW137565   0.964   1.258  12.983 -0.1745  0.1113  1.2112
 8643SOL    HW237566   1.035   1.356  13.067 -0.0943 -0.7342 -0.2696
 8644SOL     OW37567   1.138   2.404   6.642 -0.3919  0.1071  0.2078
 8644SOL    HW137568   1.165   2.315   6.619 -1.0803 -0.5865  2.0905
 8644SOL    HW237569   1.215   2.426   6.695  1.3312  1.4273 -2.8598
 8645SOL     OW37570   1.425   3.089   7.388 -0.3896  0.0358 -0.1942
 8645SOL    HW137571   1.376   3.106   7.308  0.1082  0.8335 -0.3271
 8645SOL    HW237572   1.385   3.154   7.446 -0.6764 -0.1480 -0.1864
 8646SOL     OW37573   2.473   2.975   9.055 -0.2256 -0.2786 -0.7376
 8646SOL    HW137574   2.418   2.944   9.127 -0.4588  0.0639 -0.7722
 8646SOL    HW237575   2.482   3.067   9.078 -0.0057 -0.6946  0.8600
 8647SOL     OW37576   4.097   0.952   2.967  0.1735  0.1929  0.0226
 8647SOL    HW137577   4.110   0.953   3.062 -0.2787 -0.0710  0.0872
 8647SOL    HW237578   4.135   0.865   2.949 -1.0595  0.1013 -2.2277
 8648SOL     OW37579   2.841   1.852   4.174  0.1861  0.1068  0.7785
 8648SOL    HW137580   2.772   1.809   4.123  0.2003  0.7557  0.2149
 8648SOL    HW237581   2.925   1.814   4.148 -0.1501 -0.8070  1.0226
 8649SOL     OW37582   2.979   4.304   3.494 -0.9902  0.1511  0.0841
 8649SOL    HW137583   3.065   4.341   3.513 -0.3973 -1.0642 -0.2644
 8649SOL    HW237584   2.955   4.235   3.556  1.9994  0.3095  1.4096
 8650SOL     OW37585   2.897   0.221  17.378 -0.5463  0.0545 -0.3757
 8650SOL    HW137586   2.811   0.196  17.413 -0.3656 -0.5635 -0.3600
 8650SOL    HW237587   2.883   0.306  17.338  0.0580  0.9000  1.2312
 8651SOL     OW37588   4.183   3.080  13.497 -0.2055 -0.3110 -0.5380
 8651SOL    HW137589   4.265   3.128  13.509  0.5282 -1.6549 -0.1421
 8651SOL    HW237590   4.218   2.991  13.494  1.2224  0.2162  0.5875
 8652SOL     OW37591   4.306   0.996   6.811  0.6951  0.4609 -0.1320
 8652SOL    HW137592   4.396   0.964   6.825 -0.0179 -1.3758  0.1865
 8652SOL    HW237593   4.322   1.067   6.749  0.4000 -0.6236 -1.4307
 8653SOL     OW37594   3.768   3.079  17.135  0.2989  0.3026 -0.3191
 8653SOL    HW137595   3.686   3.034  17.158 -0.2947  1.2545 -0.5733
 8653SOL    HW237596   3.769   3.069  17.039  0.5934 -0.6458 -0.2180
 8654SOL     OW37597   1.336   0.008   9.651 -0.2849  0.3686  0.0030
 8654SOL    HW137598   1.402   4.711   9.590  3.2142 -0.0930  4.0095
 8654SOL    HW237599   1.395   0.060   9.706 -0.8448  0.6043  0.3768
 8655SOL     OW37600   2.091   4.682  17.389  0.1733  0.0272  0.8003
 8655SOL    HW137601   2.035   0.010  17.343  0.2700 -0.2689  0.2820
 8655SOL    HW237602   2.158   4.671  17.321 -1.0797  0.4541 -0.5059
 8656SOL     OW37603   2.426   3.951  10.383 -0.5863  0.5793 -0.1870
 8656SOL    HW137604   2.508   3.984  10.344 -0.6299  0.2381 -0.5744
 8656SOL    HW237605   2.417   4.011  10.456 -0.0920  0.5565 -0.1056
 8657SOL     OW37606   1.093   3.657   4.415  0.2584  0.3008  0.2501
 8657SOL    HW137607   1.112   3.573   4.373 -0.5872  1.2437 -2.0303
 8657SOL    HW237608   0.999   3.643   4.429 -0.0038 -1.0143 -2.6187
 8658SOL     OW37609   3.141   0.645   0.029  0.3064  0.4764  0.4236
 8658SOL    HW137610   3.135   0.672   0.120 -3.0159 -1.7130  0.8248
 8658SOL    HW237611   3.132   0.727  17.718 -1.4533 -0.5024 -0.9266
 8659SOL     OW37612   0.856   3.056   3.383 -0.5214  0.0680  0.5122
 8659SOL    HW137613   0.790   3.062   3.451 -0.4856 -0.3024  0.5767
 8659SOL    HW237614   0.924   3.113   3.420 -1.0346  1.1902 -0.2523
 8660SOL     OW37615   4.661   2.296  17.272 -0.2215  0.9543 -0.1178
 8660SOL    HW137616   4.729   2.302  17.205 -0.5900  2.0753 -0.3851
 8660SOL    HW237617   4.637   2.207  17.246  1.5500  0.6454 -0.6953
 8661SOL     OW37618   4.391   0.078   7.501  0.4069  0.1657  0.5521
 8661SOL    HW137619   4.369   4.725   7.470 -1.2912  0.6978  0.2609
 8661SOL    HW237620   4.356   0.124   7.425 -1.1642  0.9132  1.7327
 8662SOL     OW37621   2.611   1.449  17.498 -0.2732 -0.1354 -0.2540
 8662SOL    HW137622   2.596   1.543  17.507 -2.4815 -0.3166 -1.9832
 8662SOL    HW237623   2.525   1.419  17.529 -0.5375 -0.3198 -1.1583
 8663SOL     OW37624   2.360   3.639  14.925 -0.0247 -0.4138  0.3113
 8663SOL    HW137625   2.425   3.677  14.866 -1.7579  0.6371 -0.9504
 8663SOL    HW237626   2.327   3.569  14.869 -2.0788  0.0782  0.9039
 8664SOL     OW37627   3.021   2.737   8.427 -0.5155  0.4371 -0.4132
 8664SOL    HW137628   3.053   2.827   8.432 -3.4398  1.5825 -2.0292
 8664SOL    HW237629   2.939   2.750   8.474 -1.1676 -4.0201 -0.2356
 8665SOL     OW37630   2.182   0.744   2.187 -0.1890  0.4016  0.0023
 8665SOL    HW137631   2.238   0.822   2.177  0.3408 -0.3153 -2.6580
 8665SOL    HW237632   2.109   0.771   2.133 -1.7755  0.8394  2.3608
 8666SOL     OW37633   1.780   0.961   8.912 -0.3215  0.6668 -0.1380
 8666SOL    HW137634   1.860   0.911   8.894 -0.8758  0.3906 -1.8819
 8666SOL    HW237635   1.795   1.046   8.871  0.5238  1.7383  2.4406
 8667SOL     OW37636   2.096   1.183   7.294 -0.1244  0.5506 -0.5443
 8667SOL    HW137637   2.055   1.153   7.213 -0.6538 -3.2784  1.1169
 8667SOL    HW237638   2.084   1.099   7.339  0.2166  1.0739  0.5185
 8668SOL     OW37639   3.108   0.421   7.216 -0.0121  0.1553  0.3244
 8668SOL    HW137640   3.143   0.509   7.227 -2.3925  1.2375 -1.0126
 8668SOL    HW237641   3.080   0.436   7.125  1.4404 -1.8443 -0.4637
 8669SOL     OW37642   1.493   3.066   3.510  0.1736  0.1617 -0.2527
 8669SOL    HW137643   1.458   3.114   3.585 -5.3122 -1.9651 -1.4749
 8669SOL    HW237644   1.528   3.142   3.463  0.9849 -0.0353  0.0203
 8670SOL     OW37645   3.264   4.006  13.283  0.2069  0.0524 -0.2168
 8670SOL    HW137646   3.332   3.998  13.350  0.4083  0.9528 -0.3238
 8670SOL    HW237647   3.317   4.014  13.204  1.0529  1.0228  0.4574
 8671SOL     OW37648   3.743   3.917   5.325  0.2512  0.6693  0.2572
 8671SOL    HW137649   3.689   3.963   5.260 -0.7227 -0.2198  0.4462
 8671SOL    HW237650   3.740   3.974   5.402 -1.0300  1.2434 -0.2093
 8672SOL     OW37651   4.529   4.231  10.488  0.8799  0.8377  0.6515
 8672SOL    HW137652   4.445   4.274  10.474  0.2666 -0.2381  1.0280
 8672SOL    HW237653   4.518   4.212  10.581  1.7908  0.9163  0.7818
 8673SOL     OW37654   2.678   4.485   4.937 -0.3330 -0.0029 -0.6247
 8673SOL    HW137655   2.633   4.455   5.016  0.1367  1.5002  0.1986
 8673SOL    HW237656   2.605   4.512   4.881 -0.1331  1.4747 -0.1607
 8674SOL     OW37657   0.118   3.608   1.990  0.2981 -0.5324  0.3659
 8674SOL    HW137658   0.141   3.686   2.041  3.3831 -1.4078  0.3150
 8674SOL    HW237659   0.086   3.544   2.053 -2.0476  0.0053 -0.3025
 8675SOL     OW37660   1.638   3.048   8.106 -0.0787  0.1882 -0.4003
 8675SOL    HW137661   1.642   3.113   8.036 -0.3593  0.2985 -0.3134
 8675SOL    HW237662   1.689   3.098   8.170  2.9450 -1.1243 -1.7977
 8676SOL     OW37663   2.030   2.605   9.382 -0.1250  0.4222  0.3692
 8676SOL    HW137664   2.044   2.562   9.466 -0.6218  0.9363  0.7149
 8676SOL    HW237665   2.099   2.565   9.328  0.3603  1.0671  0.5105
 8677SOL     OW37666   3.452   4.027  17.605 -0.7536  0.2551  0.5356
 8677SOL    HW137667   3.394   4.102  17.611 -0.1514  0.9478 -2.5943
 8677SOL    HW237668   3.438   3.978  17.524  0.0558 -0.0974  0.6056
 8678SOL     OW37669   1.199   2.166   3.248  0.0238  0.3931 -0.5934
 8678SOL    HW137670   1.119   2.158   3.196 -0.7983  3.0699  0.2477
 8678SOL    HW237671   1.261   2.146   3.178  0.6353  2.7187 -0.7270
 8679SOL     OW37672   1.994   3.711   3.876  0.1079  0.0612 -0.0520
 8679SOL    HW137673   2.029   3.766   3.945 -0.5485 -1.0727  1.1812
 8679SOL    HW237674   1.951   3.775   3.819 -1.2304  0.9976  2.0157
 8680SOL     OW37675   0.431   2.644   8.403 -0.3741  0.0843  0.4471
 8680SOL    HW137676   0.368   2.574   8.418  0.9695 -1.2437 -0.1173
 8680SOL    HW237677   0.378   2.720   8.380 -2.0161 -1.1925 -0.0199
 8681SOL     OW37678   2.933   0.182   2.535  0.2268  0.2597  0.0352
 8681SOL    HW137679   2.918   0.097   2.494 -0.5503  1.1079 -1.4450
 8681SOL    HW237680   2.987   0.165   2.612  1.6176 -0.4320 -1.0813
 8682SOL     OW37681   0.011   1.424   1.425  0.3834 -0.4124  0.3461
 8682SOL    HW137682   0.009   1.495   1.362 -0.6430 -0.8368 -0.0882
 8682SOL    HW237683   4.660   1.423   1.468 -0.4285  0.6592 -1.2821
 8683SOL     OW37684   2.048   1.112   6.145  0.7066  0.5310  0.1100
 8683SOL    HW137685   2.042   1.206   6.127 -0.5368  0.0844 -1.7743
 8683SOL    HW237686   2.100   1.081   6.070 -0.5356  1.5174 -1.1534
 8684SOL     OW37687   1.707   1.119  16.645  0.2676  0.2446  0.1581
 8684SOL    HW137688   1.645   1.046  16.650  0.5746  0.1301  2.1400
 8684SOL    HW237689   1.771   1.088  16.709  0.1654 -0.1409  0.0755
 8685SOL     OW37690   3.251   2.338   8.684  0.4000  0.1651  0.1563
 8685SOL    HW137691   3.180   2.277   8.706  1.3973 -0.1207  2.5726
 8685SOL    HW237692   3.199   2.410   8.648 -0.4610 -0.0403  0.9946
 8686SOL     OW37693   1.774   4.104   6.064 -0.4141  0.4639  0.3500
 8686SOL    HW137694   1.844   4.121   6.001  0.3994 -0.9750  0.8642
 8686SOL    HW237695   1.713   4.178   6.064  1.1885  1.7717  0.9318
 8687SOL     OW37696   1.232   3.721  11.485 -0.2182  0.3425 -0.8332
 8687SOL    HW137697   1.313   3.747  11.530  0.7415  1.0226 -2.9491
 8687SOL    HW237698   1.178   3.704  11.563  2.6211  2.1306  1.5099
 8688SOL     OW37699   2.450   4.683   0.356  0.0661 -0.6099 -0.1518
 8688SOL    HW137700   2.460   4.689   0.451  2.0600 -0.7211 -0.3706
 8688SOL    HW237701   2.495   4.599   0.352 -0.4313 -0.6914 -3.4708
 8689SOL     OW37702   4.472   3.920  13.163 -0.1909 -0.0071 -0.4532
 8689SOL    HW137703   4.511   3.855  13.104  1.8808 -1.0372  2.0185
 8689SOL    HW237704   4.552   3.972  13.173 -0.6034  0.5858 -0.2508
 8690SOL     OW37705   0.243   3.563   7.159  0.0371  0.2227  0.4217
 8690SOL    HW137706   0.262   3.638   7.216  0.2654  0.3919  0.1234
 8690SOL    HW237707   0.292   3.489   7.195 -0.3931 -0.6453 -0.7753
 8691SOL     OW37708   1.074   0.206   2.872 -0.1283  0.3467 -0.2125
 8691SOL    HW137709   1.135   0.211   2.798 -0.4001 -0.9205 -0.5159
 8691SOL    HW237710   1.087   0.293   2.911  0.7170  0.0574  0.1505
 8692SOL     OW37711   4.146   4.105   8.647 -0.2997 -0.2026  0.5217
 8692SOL    HW137712   4.089   4.033   8.674  1.3607 -0.4642  3.3487
 8692SOL    HW237713   4.155   4.095   8.553  0.6662  1.5128  0.4303
 8693SOL     OW37714   3.598   1.918   5.342 -0.2711 -0.1336 -0.0061
 8693SOL    HW137715   3.522   1.885   5.390 -0.0968  0.1334  0.4612
 8693SOL    HW237716   3.662   1.920   5.414 -0.3980 -1.2913  0.1376
 8694SOL     OW37717   0.592   2.689   1.325  0.1733 -0.0747 -0.3983
 8694SOL    HW137718   0.585   2.760   1.389  1.4690 -0.9794  0.7279
 8694SOL    HW237719   0.557   2.616   1.375  1.1985 -0.4097 -0.1715
 8695SOL     OW37720   2.051   0.781   7.664  0.4754 -0.6208 -0.4851
 8695SOL    HW137721   2.076   0.764   7.754  2.5271 -0.6514 -1.0600
 8695SOL    HW237722   2.133   0.749   7.626  2.2843  2.7943  0.4924
 8696SOL     OW37723   0.017   0.642   2.688  0.6789 -0.4030  0.3042
 8696SOL    HW137724   0.001   0.727   2.728  1.9193  1.2692 -2.7476
 8696SOL    HW237725   0.048   0.677   2.605 -1.9364 -1.8656 -1.2802
 8697SOL     OW37726   3.536   1.207   0.744 -0.0368  0.1578 -0.0108
 8697SOL    HW137727   3.507   1.136   0.685 -0.2902  0.6348 -0.4631
 8697SOL    HW237728   3.527   1.170   0.832  0.0022  0.3972  0.0929
 8698SOL     OW37729   2.241   2.625   9.192  0.0381  0.5112  0.0074
 8698SOL    HW137730   2.297   2.702   9.206 -1.0536  1.4247 -0.6355
 8698SOL    HW237731   2.309   2.557   9.190  0.7358  1.1863  0.9681
 8699SOL     OW37732   3.022   3.164  16.993  0.6318  0.2965 -0.0017
 8699SOL    HW137733   2.977   3.235  17.039 -1.7278  0.2522 -2.2509
 8699SOL    HW237734   3.087   3.228  16.965  1.1784 -0.0337  0.5030
 8700SOL     OW37735   3.915   0.137   5.057  0.0985  0.0038 -0.5157
 8700SOL    HW137736   3.895   0.067   4.995 -2.3933  0.2913 -0.0430
 8700SOL    HW237737   3.838   0.132   5.114  0.5984  0.3410  0.1824
 8701SOL     OW37738   4.560   2.123   6.450  0.0007  0.0719  0.0637
 8701SOL    HW137739   4.483   2.066   6.452 -0.4336  0.6868  0.8384
 8701SOL    HW237740   4.574   2.119   6.544 -2.3957 -2.0846  0.3201
 8702SOL     OW37741   3.717   1.276   7.770 -0.1315  0.2589 -0.8143
 8702SOL    HW137742   3.637   1.308   7.813  0.1634 -0.6490  0.3947
 8702SOL    HW237743   3.778   1.336   7.814 -0.9388  0.5272 -0.0480
 8703SOL     OW37744   3.636   3.763   5.895  0.7673  0.2002  0.2567
 8703SOL    HW137745   3.552   3.806   5.878  0.3699 -0.7465 -0.1529
 8703SOL    HW237746   3.626   3.761   5.990  1.0128  0.6730  0.2966
 8704SOL     OW37747   2.192   0.716   5.259  0.2705 -0.3507 -0.3163
 8704SOL    HW137748   2.159   0.778   5.323 -0.1962 -1.7016  0.7491
 8704SOL    HW237749   2.254   0.767   5.208  2.3988 -0.6160  2.0547
 8705SOL     OW37750   2.216   4.640   2.187  0.1636  0.5918  0.1624
 8705SOL    HW137751   2.148   4.573   2.176 -0.1573  0.8909  0.2962
 8705SOL    HW237752   2.247   4.624   2.276  1.1893 -0.6761 -0.4311
 8706SOL     OW37753   2.820   3.528   3.039 -0.2476  0.3039 -0.1509
 8706SOL    HW137754   2.748   3.483   3.084  0.8760  0.3536  1.6717
 8706SOL    HW237755   2.804   3.482   2.956  0.4189  0.3257 -0.2956
 8707SOL     OW37756   1.368   2.086   6.155 -0.0833  0.3423  0.4794
 8707SOL    HW137757   1.441   2.147   6.164  0.1010  0.4599 -1.8393
 8707SOL    HW237758   1.398   2.040   6.076  1.9550  1.6496  0.4822
 8708SOL     OW37759   0.346   1.285   3.450  0.5558 -0.1240 -0.0355
 8708SOL    HW137760   0.279   1.285   3.381 -0.8079 -0.0800  1.2859
 8708SOL    HW237761   0.351   1.379   3.467  2.8985 -0.5137  1.4410
 8709SOL     OW37762   0.538   3.749   2.368  0.4556  0.1486 -0.0944
 8709SOL    HW137763   0.603   3.722   2.303 -0.5598 -0.3688 -0.8918
 8709SOL    HW237764   0.467   3.782   2.313 -0.2286  0.8254  1.1975
 8710SOL     OW37765   3.741   4.203   8.442  1.0202 -0.5555 -0.1664
 8710SOL    HW137766   3.768   4.122   8.400  1.3593 -0.5849  0.1108
 8710SOL    HW237767   3.732   4.246   8.357  1.9828 -0.7169 -0.3452
 8711SOL     OW37768   1.541   2.322   4.121  0.0984 -0.7145  0.3008
 8711SOL    HW137769   1.465   2.270   4.147 -0.2738 -0.8008 -0.9753
 8711SOL    HW237770   1.587   2.334   4.204  0.9938 -3.1840  0.1408
 8712SOL     OW37771   1.345   3.286   1.598  0.6424  0.2082 -0.0573
 8712SOL    HW137772   1.399   3.310   1.673  1.3887 -1.2285 -0.1462
 8712SOL    HW237773   1.332   3.376   1.568 -0.9577  0.5513  1.6296
 8713SOL     OW37774   2.739   2.547   3.783  0.2015  0.7690  0.5550
 8713SOL    HW137775   2.776   2.576   3.866 -2.4582  0.6961  1.7848
 8713SOL    HW237776   2.684   2.621   3.758  0.2677  0.8490  0.6496
 8714SOL     OW37777   1.851   3.138   6.783  0.4867 -0.8469  0.3100
 8714SOL    HW137778   1.766   3.120   6.743  1.2737  0.1616 -1.8511
 8714SOL    HW237779   1.827   3.150   6.875 -1.0192 -1.2133 -0.0306
 8715SOL     OW37780   1.155   3.038   4.759 -0.8059  0.2175 -0.2594
 8715SOL    HW137781   1.185   3.121   4.796  1.7788 -0.9887  0.4162
 8715SOL    HW237782   1.136   3.070   4.671 -0.8492  1.2005  0.1119
 8716SOL     OW37783   0.853   1.133   4.389 -0.0712 -0.0088 -0.2947
 8716SOL    HW137784   0.868   1.184   4.309  1.2044 -0.8637 -0.6024
 8716SOL    HW237785   0.782   1.082   4.351 -0.3656 -0.3302  0.6971
 8717SOL     OW37786   4.072   4.491   1.982  0.0525  0.5308 -0.6418
 8717SOL    HW137787   4.099   4.401   1.967 -0.8629  0.2219 -0.4225
 8717SOL    HW237788   4.140   4.535   1.930  0.0743 -1.4523 -2.2634
 8718SOL     OW37789   3.000   2.458   6.779  0.5807 -0.2121 -0.1533
 8718SOL    HW137790   2.923   2.513   6.766  0.5669  0.3964  2.3816
 8718SOL    HW237791   2.994   2.433   6.872  0.4678  0.0415 -0.0916
 8719SOL     OW37792   2.603   4.700   9.091 -0.1309  0.0595  0.4763
 8719SOL    HW137793   2.589   0.044   9.145  1.1814  1.2549 -0.9349
 8719SOL    HW237794   2.556   4.635   9.144  0.4533 -0.9363 -0.2301
 8720SOL     OW37795   3.846   1.728   8.393  0.0236 -0.5249  0.2616
 8720SOL    HW137796   3.804   1.642   8.387 -2.6646  0.8212  0.2728
 8720SOL    HW237797   3.880   1.718   8.482  2.3028 -2.7728 -0.8646
 8721SOL     OW37798   3.528   3.703   4.504  0.0134 -0.2266  0.0851
 8721SOL    HW137799   3.583   3.648   4.448 -2.7329 -1.0190 -1.8239
 8721SOL    HW237800   3.563   3.661   4.583  0.6879  0.1779  0.0020
 8722SOL     OW37801   2.846   2.964   9.783  0.4320  0.2603  0.0685
 8722SOL    HW137802   2.924   2.970   9.728  0.7415  1.4164  0.6438
 8722SOL    HW237803   2.793   2.907   9.726  1.0343  1.7074 -1.9459
 8723SOL     OW37804   1.701   2.759  10.561 -0.2246  0.2953 -0.5035
 8723SOL    HW137805   1.632   2.810  10.602 -0.9176 -1.6917  0.7489
 8723SOL    HW237806   1.730   2.695  10.625  0.3839  0.4252 -0.6433
 8724SOL     OW37807   1.624   3.003   6.751  0.3075 -0.3270  0.2069
 8724SOL    HW137808   1.567   3.039   6.819  0.2768  1.1192 -0.5947
 8724SOL    HW237809   1.569   3.016   6.674  0.0589 -1.5813  0.1778
 8725SOL     OW37810   0.724   4.346   1.380 -0.0207  0.0345  0.2632
 8725SOL    HW137811   0.666   4.423   1.384 -0.9169 -0.5280 -1.6606
 8725SOL    HW237812   0.665   4.276   1.351  0.0984 -0.3720  1.0170
 8726SOL     OW37813   2.311   2.545   2.974 -0.1140 -0.3316  0.1673
 8726SOL    HW137814   2.305   2.476   2.908 -2.2408  1.4466 -1.5012
 8726SOL    HW237815   2.220   2.567   2.995  0.1701  1.5983 -0.6051
 8727SOL     OW37816   3.802   1.924   7.369 -0.8274 -0.2437 -0.1918
 8727SOL    HW137817   3.747   1.952   7.296 -0.6602 -1.3147 -0.7181
 8727SOL    HW237818   3.740   1.934   7.441  1.9772 -2.4239  2.5393
 8728SOL     OW37819   2.044   2.111   3.146 -0.0331  0.0074 -0.5062
 8728SOL    HW137820   2.029   2.057   3.068 -1.1078  0.3896 -0.5572
 8728SOL    HW237821   1.977   2.180   3.141 -0.8051 -0.6518  0.5855
 8729SOL     OW37822   4.675   3.546   4.086 -0.8366 -0.2609  0.0097
 8729SOL    HW137823   4.702   3.624   4.038  0.2693 -1.2551 -0.9736
 8729SOL    HW237824   4.699   3.468   4.036 -0.5695 -0.7466  0.9035
 8730SOL     OW37825   1.911   3.828  12.156 -0.0118  0.1419 -0.2392
 8730SOL    HW137826   1.842   3.894  12.159 -2.1902 -2.0753 -1.6039
 8730SOL    HW237827   1.921   3.795  12.245  2.3982 -2.3000 -1.3883
 8731SOL     OW37828   3.994   2.424  14.459 -0.3556  0.9407  0.5973
 8731SOL    HW137829   3.995   2.356  14.392 -1.3819  0.3110  1.2114
 8731SOL    HW237830   4.042   2.389  14.534 -0.0893  1.3609  0.6240
 8732SOL     OW37831   3.626   4.192   5.828 -0.3852  0.0103  0.1127
 8732SOL    HW137832   3.566   4.266   5.839  0.5689  0.6662  0.9049
 8732SOL    HW237833   3.572   4.120   5.861 -1.3677  0.4651 -0.4982
 8733SOL     OW37834   2.089   2.805   8.494 -0.3507 -0.0218  0.2708
 8733SOL    HW137835   2.022   2.751   8.453  0.3964 -1.4972  1.0064
 8733SOL    HW237836   2.127   2.744   8.557 -1.4249  2.0628  2.9237
 8734SOL     OW37837   1.357   2.898  10.436 -0.1176  0.1292 -0.4076
 8734SOL    HW137838   1.369   2.905  10.341 -1.9417  1.6847 -0.5204
 8734SOL    HW237839   1.280   2.841  10.444 -1.9398  2.3788 -1.9665
 8735SOL     OW37840   2.828   0.847  13.384  0.3150 -0.2145  0.1093
 8735SOL    HW137841   2.791   0.806  13.462  0.2788  0.1793  0.3044
 8735SOL    HW237842   2.767   0.920  13.367  1.3528  0.5023 -0.5640
 8736SOL     OW37843   4.287   1.983   4.543  0.4774 -0.5063  0.3869
 8736SOL    HW137844   4.353   2.046   4.515  1.3355 -2.9308 -2.9310
 8736SOL    HW237845   4.347   1.908   4.541  0.2842 -0.7548  2.9585
 8737SOL     OW37846   0.694   0.622   4.905  0.0536 -0.8991  0.2814
 8737SOL    HW137847   0.652   0.704   4.878 -2.0951 -2.3186 -0.6735
 8737SOL    HW237848   0.698   0.644   4.998 -0.5772 -0.7510  0.2741
 8738SOL     OW37849   4.360   3.306   2.135  0.6107 -0.2618  0.0301
 8738SOL    HW137850   4.311   3.225   2.132 -0.7884  0.5544  1.2053
 8738SOL    HW237851   4.297   3.361   2.181  1.2756 -0.3939  1.0833
 8739SOL     OW37852   0.603   0.189   9.940  0.7037  0.2091  0.6028
 8739SOL    HW137853   0.615   0.153  10.027 -0.9370 -0.1969  0.6626
 8739SOL    HW237854   0.692   0.206   9.908  0.3405 -1.6215 -1.3863
 8740SOL     OW37855   4.188   2.302  10.882  0.4324  0.5768 -0.2507
 8740SOL    HW137856   4.248   2.233  10.911 -0.5395 -0.8044 -1.5127
 8740SOL    HW237857   4.164   2.341  10.966  0.6640 -1.3046  0.6904
 8741SOL     OW37858   3.450   1.326  14.955  0.5090 -0.1462 -0.0782
 8741SOL    HW137859   3.454   1.357  14.865 -1.7053  1.3845  0.3649
 8741SOL    HW237860   3.449   1.233  14.937  2.0626  0.0160 -1.0461
 8742SOL     OW37861   1.601   3.523   8.290 -0.5252  0.5994  0.7543
 8742SOL    HW137862   1.616   3.606   8.335 -3.1643  2.0308 -1.0056
 8742SOL    HW237863   1.686   3.479   8.294 -0.9836 -0.4401 -0.5951
 8743SOL     OW37864   0.773   0.784   8.608 -0.0883  0.1279 -0.0864
 8743SOL    HW137865   0.697   0.836   8.637 -0.7947 -0.2675 -1.2271
 8743SOL    HW237866   0.743   0.694   8.626 -0.3213  0.2739  0.2672
 8744SOL     OW37867   4.425   4.699   4.041  0.3853 -0.0643 -0.3518
 8744SOL    HW137868   4.472   4.619   4.016 -1.4316 -0.6836 -1.7782
 8744SOL    HW237869   4.359   4.693   3.973  1.1560 -0.3647 -1.0822
 8745SOL     OW37870   2.056   1.026   4.999 -0.3639 -0.5322  0.1722
 8745SOL    HW137871   2.064   1.074   5.081 -3.2050  0.8824 -0.3972
 8745SOL    HW237872   2.000   0.950   5.016  0.9962 -1.4727  0.5093
 8746SOL     OW37873   4.408   0.346   3.532  0.0104 -0.9160 -0.1660
 8746SOL    HW137874   4.406   0.277   3.466 -2.6161 -0.0100 -1.0384
 8746SOL    HW237875   4.336   0.405   3.511  2.7894  3.4696  2.5083
 8747SOL     OW37876   0.950   0.507   5.846  0.3548  0.1004  0.0905
 8747SOL    HW137877   0.984   0.521   5.757 -2.7500  1.9177 -0.7872
 8747SOL    HW237878   0.994   0.423   5.859 -1.2537 -0.7616 -0.1636
 8748SOL     OW37879   3.721   3.752   2.936 -0.0196  0.6009  0.0800
 8748SOL    HW137880   3.759   3.737   3.023  1.9752  2.4355 -0.4697
 8748SOL    HW237881   3.797   3.749   2.878 -0.7186 -1.9284 -0.7235
 8749SOL     OW37882   2.264   3.655  10.550 -1.2866 -0.8999  0.0047
 8749SOL    HW137883   2.349   3.651  10.505 -1.2769  1.4131 -0.2056
 8749SOL    HW237884   2.247   3.564  10.572 -0.4311 -0.7553  1.2778
 8750SOL     OW37885   0.411   2.279   8.476  0.2000 -0.6268  0.0127
 8750SOL    HW137886   0.430   2.207   8.537 -1.8523 -2.4517 -1.4886
 8750SOL    HW237887   0.323   2.306   8.501 -0.0584 -1.3356 -0.1418
 8751SOL     OW37888   1.778   0.523   9.045  0.1141  0.6646  0.3348
 8751SOL    HW137889   1.739   0.583   8.982 -3.0521 -0.7647  0.9381
 8751SOL    HW237890   1.708   0.524   9.111  1.6948 -0.1982  2.0199
 8752SOL     OW37891   4.530   4.712   6.200 -0.5866 -0.2364 -0.1469
 8752SOL    HW137892   4.560   4.656   6.128 -0.0876  0.2852 -0.3458
 8752SOL    HW237893   4.597   4.687   6.263 -1.2602  1.5648  1.2676
 8753SOL     OW37894   2.451   1.256   8.578 -0.3171 -0.2663  0.5742
 8753SOL    HW137895   2.495   1.324   8.629 -1.5382  1.4093 -0.6081
 8753SOL    HW237896   2.529   1.217   8.539 -1.7419  2.8835 -5.3530
 8754SOL     OW37897   0.972   3.429  14.494 -0.7874  0.4233  0.0185
 8754SOL    HW137898   0.961   3.392  14.581  1.8816 -2.3758 -0.8075
 8754SOL    HW237899   1.065   3.408  14.479 -1.2573  1.3349 -4.2864
 8755SOL     OW37900   0.166   1.368  15.543 -0.5412 -0.3090 -0.5677
 8755SOL    HW137901   0.106   1.439  15.569  0.0850  0.1673 -0.4225
 8755SOL    HW237902   0.196   1.344  15.631 -0.8440 -0.6659 -0.5619
 8756SOL     OW37903   3.996   4.291   6.832  0.5074  0.1762 -0.0293
 8756SOL    HW137904   4.000   4.260   6.742  0.4566  1.4180 -0.4716
 8756SOL    HW237905   3.974   4.384   6.817  1.0234 -0.0545 -2.1684
 8757SOL     OW37906   3.516   4.576   7.248 -0.4640  0.0566 -0.4272
 8757SOL    HW137907   3.422   4.566   7.263 -0.3549 -0.5382 -0.1476
 8757SOL    HW237908   3.526   4.603   7.157  1.5928  0.8041  0.0306
 8758SOL     OW37909   0.914   1.967   0.069  0.0725  0.0791  0.1358
 8758SOL    HW137910   0.973   2.040   0.083 -0.1246  0.2214  0.2209
 8758SOL    HW237911   0.919   1.962  17.711 -0.3252 -2.0321  0.2032
 8759SOL     OW37912   1.414   4.050  15.627 -0.4205  0.4980 -0.3142
 8759SOL    HW137913   1.335   4.103  15.623 -1.3461 -1.0161 -1.6871
 8759SOL    HW237914   1.420   4.005  15.543 -0.5512 -1.4441  0.7306
 8760SOL     OW37915   1.541   1.426  10.488  0.1073  0.2315  0.1307
 8760SOL    HW137916   1.468   1.472  10.448  0.1245 -0.7300 -0.9913
 8760SOL    HW237917   1.612   1.463  10.435 -0.9813  1.6066 -0.3649
 8761SOL     OW37918   1.203   0.301   6.324  0.2619  0.0956  0.3063
 8761SOL    HW137919   1.186   0.353   6.403  0.0957 -1.9881  1.6540
 8761SOL    HW237920   1.297   0.315   6.311  0.0154  1.9837  0.4749
 8762SOL     OW37921   2.231   3.909   8.234  0.0894  0.1404 -0.2498
 8762SOL    HW137922   2.230   3.994   8.279  1.8621  0.1166 -0.1498
 8762SOL    HW237923   2.286   3.926   8.157  1.5469  2.1154  1.2013
 8763SOL     OW37924   0.624   1.380   8.073  0.0398  0.2258  0.1970
 8763SOL    HW137925   0.680   1.304   8.062  0.0650  0.0935  1.2187
 8763SOL    HW237926   0.630   1.400   8.166  1.7051 -0.4416  0.2179
 8764SOL     OW37927   3.630   2.059   2.912  0.3752 -0.0667 -0.1025
 8764SOL    HW137928   3.540   2.069   2.942 -0.0082 -1.1749 -0.8790
 8764SOL    HW237929   3.676   2.089   2.990  1.5556  0.5248 -1.0205
 8765SOL     OW37930   3.478   2.234   1.368 -0.6646  0.2782  0.1262
 8765SOL    HW137931   3.502   2.176   1.296 -0.1896  1.6690 -0.8455
 8765SOL    HW237932   3.562   2.251   1.409 -0.2495 -0.0340 -0.5999
 8766SOL     OW37933   2.826   1.935  15.361  0.0792  0.0888 -0.5465
 8766SOL    HW137934   2.847   1.858  15.307 -1.7289 -0.9016  0.1731
 8766SOL    HW237935   2.737   1.954  15.330 -0.0216  0.4994  0.0023
 8767SOL     OW37936   3.077   3.437   1.237 -0.4684 -0.0361  0.2011
 8767SOL    HW137937   3.158   3.390   1.217 -1.3419 -0.8172 -1.5213
 8767SOL    HW237938   3.106   3.479   1.317  0.3459  1.3262 -0.8141
 8768SOL     OW37939   2.736   4.639   8.853  0.6188 -0.4523 -0.9404
 8768SOL    HW137940   2.745   4.683   8.938 -0.4160 -0.0816 -1.0221
 8768SOL    HW237941   2.739   4.549   8.886  3.0632 -0.0882 -0.1935
 8769SOL     OW37942   3.070   3.801  17.655 -0.3310 -0.4569 -0.1270
 8769SOL    HW137943   2.986   3.838  17.681  0.3687  1.4686 -0.5352
 8769SOL    HW237944   3.120   3.884  17.655 -3.1863  1.2606 -0.3349
 8770SOL     OW37945   0.773   0.822   6.954  0.9861 -0.3844 -0.5460
 8770SOL    HW137946   0.779   0.853   7.044  2.3701 -1.4546 -0.2763
 8770SOL    HW237947   0.684   0.787   6.945  0.4737  0.6486  0.4912
 8771SOL     OW37948   1.531   1.600   9.004 -0.2827 -0.1733 -0.1217
 8771SOL    HW137949   1.471   1.579   8.933 -0.8960 -0.1241  0.3794
 8771SOL    HW237950   1.478   1.584   9.082 -0.3314 -0.9354 -0.3159
 8772SOL     OW37951   0.330   2.951  10.772  0.0889  0.0310 -0.2995
 8772SOL    HW137952   0.296   3.040  10.779 -0.6402 -0.3621  1.3136
 8772SOL    HW237953   0.382   2.959  10.692  1.3218 -0.8634  0.4155
 8773SOL     OW37954   3.217   1.951  16.713 -0.0720  0.5438 -0.3121
 8773SOL    HW137955   3.168   1.975  16.792  0.7713  1.3601 -0.0302
 8773SOL    HW237956   3.278   2.024  16.697  0.7433 -0.3298 -1.1358
 8774SOL     OW37957   0.869   0.748   7.278 -0.5428 -0.6066  0.5224
 8774SOL    HW137958   0.796   0.735   7.338 -1.0157 -1.7249 -0.2953
 8774SOL    HW237959   0.879   0.843   7.285 -0.4486 -0.5031 -1.1888
 8775SOL     OW37960   0.707   0.069   5.337  0.7018 -0.0111  0.1016
 8775SOL    HW137961   0.745   4.733   5.389  2.6590  0.2004 -1.0615
 8775SOL    HW237962   0.785   0.082   5.284  0.5536  0.5026  0.0017
 8776SOL     OW37963   2.227   2.461   3.779 -0.0816 -0.2986 -0.0007
 8776SOL    HW137964   2.300   2.465   3.718 -1.8605 -2.3324 -2.2498
 8776SOL    HW237965   2.158   2.411   3.736 -1.4855  1.4654  0.2021
 8777SOL     OW37966   4.228   0.539   8.469 -0.0924  0.2604  0.0346
 8777SOL    HW137967   4.300   0.567   8.412  0.2668 -3.4028 -1.3461
 8777SOL    HW237968   4.163   0.594   8.425 -1.2939 -0.3595  1.0421
 8778SOL     OW37969   1.408   2.635  10.592 -0.0959 -0.5112  0.2950
 8778SOL    HW137970   1.470   2.590  10.649  0.7284 -0.2163 -0.3458
 8778SOL    HW237971   1.334   2.644  10.652  1.0706 -1.4176  1.8630
 8779SOL     OW37972   4.015   0.208   3.562 -0.0600  0.2497 -0.1167
 8779SOL    HW137973   4.079   0.217   3.632  1.5786 -0.2373 -1.5368
 8779SOL    HW237974   3.977   0.296   3.564  1.5538  0.9268  0.3881
 8780SOL     OW37975   2.871   4.196   4.884  0.2304  0.0092 -0.2998
 8780SOL    HW137976   2.785   4.181   4.924 -0.9477  1.4014 -2.3580
 8780SOL    HW237977   2.909   4.243   4.958 -0.6283  1.8295 -1.0376
 8781SOL     OW37978   0.295   0.461  13.116  0.4482  0.6126 -0.0610
 8781SOL    HW137979   0.310   0.546  13.159  0.8056  0.8159 -0.5942
 8781SOL    HW237980   0.215   0.472  13.065 -0.2753  0.1227  0.9688
 8782SOL     OW37981   4.106   2.655  15.407 -0.3269  0.2438 -0.5812
 8782SOL    HW137982   4.078   2.605  15.330 -0.7626 -1.3365  0.6078
 8782SOL    HW237983   4.032   2.712  15.426 -0.2495  0.3709 -0.6625
 8783SOL     OW37984   2.264   2.800   3.775 -0.2917  0.5642 -0.5448
 8783SOL    HW137985   2.198   2.737   3.744  0.7097 -0.5651 -0.3832
 8783SOL    HW237986   2.232   2.878   3.731 -0.3634  0.9055  0.1234
 8784SOL     OW37987   3.364   2.409   6.523 -0.2205 -0.3530 -0.0612
 8784SOL    HW137988   3.357   2.369   6.436  1.4686 -2.4319  0.7623
 8784SOL    HW237989   3.284   2.378   6.564 -0.4522 -0.6732 -0.7522
 8785SOL     OW37990   0.548   3.876   3.554  0.5295 -0.4005  0.2497
 8785SOL    HW137991   0.603   3.797   3.558 -0.2046 -0.9107  0.1926
 8785SOL    HW237992   0.553   3.905   3.645 -2.1278  1.0871 -0.1146
 8786SOL     OW37993   4.416   2.435  15.356 -0.1275  0.4829  0.1455
 8786SOL    HW137994   4.477   2.478  15.416  0.1400  1.2831 -0.7025
 8786SOL    HW237995   4.386   2.506  15.299 -3.1482  0.1968  1.3542
 8787SOL     OW37996   1.121   0.101   7.264  0.1312 -0.5842  0.4052
 8787SOL    HW137997   1.146   0.165   7.330  1.4802 -1.9229  1.1962
 8787SOL    HW237998   1.043   0.152   7.240  0.1494  0.0127  1.6635
 8788SOL     OW37999   0.721   1.065   6.410  0.0412 -0.7705  0.0454
 8788SOL    HW138000   0.749   1.155   6.396  0.0172 -0.3906  2.4864
 8788SOL    HW238001   0.683   1.044   6.325  2.4154  1.3881 -1.5561
 8789SOL     OW38002   0.377   2.464   5.445 -0.1607 -0.3129  0.4147
 8789SOL    HW138003   0.294   2.511   5.438 -0.0055 -0.1021 -0.0293
 8789SOL    HW238004   0.360   2.401   5.515 -0.9879 -1.2545 -0.6301
 8790SOL     OW38005   4.075   1.665   5.480 -0.3735  0.0640  0.2110
 8790SOL    HW138006   4.100   1.577   5.508 -0.0587 -0.4333 -1.6302
 8790SOL    HW238007   4.070   1.710   5.565  0.3580  1.9989 -0.7835
 8791SOL     OW38008   2.526   1.716   3.326  0.2442  0.3007 -0.3446
 8791SOL    HW138009   2.497   1.797   3.367  1.7701  1.4133 -1.4621
 8791SOL    HW238010   2.607   1.744   3.283 -0.0596  1.6355 -0.0517
 8792SOL     OW38011   1.341   1.528  12.426 -0.0870 -0.2319  0.2744
 8792SOL    HW138012   1.314   1.616  12.454  0.0068 -0.2500  0.4250
 8792SOL    HW238013   1.435   1.534  12.445 -0.1487 -0.5486  0.6770
 8793SOL     OW38014   3.699   2.001   7.662  0.7490 -0.2647  0.0343
 8793SOL    HW138015   3.629   1.938   7.677  1.2340 -0.9420 -0.5002
 8793SOL    HW238016   3.741   2.008   7.747 -0.3878 -1.4097  0.6877
 8794SOL     OW38017   4.644   4.608  16.943 -0.0193  0.0622 -0.1403
 8794SOL    HW138018   4.643   4.686  16.889  0.2390 -1.4980 -2.4138
 8794SOL    HW238019   0.004   4.598  16.949  0.1893  1.8063 -0.4994
 8795SOL     OW38020   4.631   1.693   8.907  0.3246 -0.1525  0.0254
 8795SOL    HW138021   4.667   1.753   8.972  1.7743 -2.4700  1.3728
 8795SOL    HW238022   4.546   1.733   8.888  0.9801  1.2121  0.0033
 8796SOL     OW38023   2.666   1.297  11.419 -0.5471  0.1969  0.6691
 8796SOL    HW138024   2.653   1.217  11.471  1.4139 -1.5242 -1.4694
 8796SOL    HW238025   2.576   1.310  11.392 -0.3927 -0.2203 -0.0571
 8797SOL     OW38026   2.169   0.221  10.743  0.1921 -0.1656 -0.1650
 8797SOL    HW138027   2.248   0.228  10.796  0.5108  0.3009 -0.6992
 8797SOL    HW238028   2.112   0.292  10.775  0.2668 -0.3199  0.3107
 8798SOL     OW38029   4.176   2.070   7.217 -0.7452  0.8459 -0.5711
 8798SOL    HW138030   4.131   2.003   7.269  0.2237 -0.5026 -1.4513
 8798SOL    HW238031   4.225   2.002   7.170  0.5545  2.0794 -1.0043
 8799SOL     OW38032   3.734   2.283   8.428  0.2947  0.0700 -0.1905
 8799SOL    HW138033   3.813   2.275   8.374 -0.1809 -1.3777 -0.6485
 8799SOL    HW238034   3.775   2.286   8.514 -0.1570 -0.3627  0.0341
 8800SOL     OW38035   1.726   3.606   9.422  0.8719  0.0166 -0.4382
 8800SOL    HW138036   1.791   3.673   9.401  0.6222  0.9900  1.9638
 8800SOL    HW238037   1.728   3.556   9.340 -0.8925 -1.2021  0.2805
 8801SOL     OW38038   4.113   2.077  14.530 -0.1645 -0.0323  0.1145
 8801SOL    HW138039   4.135   2.163  14.565 -0.4718  0.4034 -0.7540
 8801SOL    HW238040   4.018   2.077  14.546 -0.7965  0.2990 -3.6541
 8802SOL     OW38041   3.019   2.731  15.423  0.2535  0.0759  0.2674
 8802SOL    HW138042   3.066   2.718  15.341 -1.3369  0.3681 -0.6808
 8802SOL    HW238043   2.932   2.757  15.391  0.6769  0.9388 -0.1933
 8803SOL     OW38044   1.933   1.673   6.633  0.1911  0.2163  0.8092
 8803SOL    HW138045   1.996   1.617   6.678  2.3426  2.2365  0.3210
 8803SOL    HW238046   1.921   1.751   6.687 -0.0967  1.2577 -0.7705
 8804SOL     OW38047   0.012   3.801   7.337  0.1546  0.2917  0.1018
 8804SOL    HW138048   4.696   3.740   7.283  0.1732 -1.4655  2.0695
 8804SOL    HW238049   0.056   3.849   7.266 -0.6307  0.5158 -0.2418
 8805SOL     OW38050   3.695   2.210   2.686  0.4979  0.2444 -0.6858
 8805SOL    HW138051   3.702   2.169   2.772 -0.0947  0.6901 -0.4254
 8805SOL    HW238052   3.719   2.300   2.709  3.7866 -0.4535 -1.4124
 8806SOL     OW38053   4.187   3.400  12.307  0.6496  0.0489  0.4752
 8806SOL    HW138054   4.201   3.493  12.291  1.1928 -0.3230 -1.2486
 8806SOL    HW238055   4.132   3.362  12.238  0.8409  1.2663 -0.3500
 8807SOL     OW38056   4.034   4.102   6.281 -0.3604  0.1019 -0.1085
 8807SOL    HW138057   3.974   4.162   6.325 -0.5250 -0.4740  0.4600
 8807SOL    HW238058   3.991   4.100   6.195  2.6941  1.9903 -1.6696
 8808SOL     OW38059   0.890   1.253   3.153 -0.2183 -0.3204 -0.0118
 8808SOL    HW138060   0.974   1.296   3.174  0.1612  0.0775 -2.3038
 8808SOL    HW238061   0.892   1.180   3.214  1.2353 -0.9157 -0.7686
 8809SOL     OW38062   2.647   3.697   4.211  0.2293 -0.5448 -0.3633
 8809SOL    HW138063   2.640   3.667   4.120 -0.7504 -0.3411 -0.3589
 8809SOL    HW238064   2.667   3.629   4.275 -0.0640  0.3288  0.6623
 8810SOL     OW38065   0.891   4.029   1.752 -0.0405 -0.1511  0.3852
 8810SOL    HW138066   0.823   4.095   1.738 -0.0772 -0.0065  1.2308
 8810SOL    HW238067   0.954   4.046   1.682  0.4796  0.4834  1.0104
 8811SOL     OW38068   0.196   1.356  17.589  0.1936 -0.7721 -0.0152
 8811SOL    HW138069   0.164   1.274  17.551 -0.2691 -0.3058 -0.6143
 8811SOL    HW238070   0.224   1.406  17.513 -0.3119 -1.4725 -0.6605
 8812SOL     OW38071   3.004   2.670   0.097 -0.0639  0.3713 -0.4078
 8812SOL    HW138072   2.909   2.671   0.108 -0.0610  1.6611 -0.5448
 8812SOL    HW238073   3.037   2.755   0.127 -1.6770  0.3727  1.3595
 8813SOL     OW38074   1.233   1.739  14.152 -0.0606 -0.2779  0.3619
 8813SOL    HW138075   1.224   1.736  14.057  0.3829 -0.9300  0.3373
 8813SOL    HW238076   1.177   1.665  14.177 -1.6005 -0.0069 -2.2866
 8814SOL     OW38077   0.378   2.937   8.246 -0.1955 -0.1453 -0.6271
 8814SOL    HW138078   0.462   2.914   8.207  0.1117  0.2111 -0.1776
 8814SOL    HW238079   0.391   3.030   8.264  1.1685 -0.8624  2.0722
 8815SOL     OW38080   4.562   1.930  17.013  0.0530 -0.8900  0.6002
 8815SOL    HW138081   4.619   1.917  16.937 -3.0160 -0.4671 -1.7372
 8815SOL    HW238082   4.478   1.966  16.985  0.7098 -1.3959 -1.9798
 8816SOL     OW38083   2.588   1.249  11.030 -0.2695 -0.2400 -0.0595
 8816SOL    HW138084   2.544   1.272  10.947 -1.1692 -2.2183 -0.1275
 8816SOL    HW238085   2.680   1.261  11.006  0.3084  1.1362  2.8807
 8817SOL     OW38086   1.847   3.572   6.357  0.4790 -0.0608  0.6282
 8817SOL    HW138087   1.828   3.623   6.435  1.0402 -1.3767  1.6205
 8817SOL    HW238088   1.777   3.613   6.306 -0.2464 -1.2076  0.7196
 8818SOL     OW38089   3.786   3.758   3.785 -0.3710  0.2309 -0.1292
 8818SOL    HW138090   3.868   3.808   3.781 -1.1991  1.4058 -2.0879
 8818SOL    HW238091   3.757   3.780   3.697  1.0286  0.2936 -0.5755
 8819SOL     OW38092   0.492   4.057  15.766 -0.3722  0.3644 -0.2329
 8819SOL    HW138093   0.511   4.013  15.683  1.5246 -1.9542  1.4120
 8819SOL    HW238094   0.565   4.020  15.816 -0.3681  2.6388  1.4359
 8820SOL     OW38095   2.862   1.651   6.078 -0.2381 -0.6611  0.3336
 8820SOL    HW138096   2.944   1.701   6.079  0.5203 -1.9016  0.9305
 8820SOL    HW238097   2.803   1.718   6.043  1.4930  0.4686 -0.4224
 8821SOL     OW38098   0.441   3.923   5.400 -0.0665 -0.7456 -0.4618
 8821SOL    HW138099   0.379   3.850   5.394 -0.0280 -1.0328  2.5384
 8821SOL    HW238100   0.443   3.953   5.491  0.9339 -2.4508  0.0823
 8822SOL     OW38101   1.835   3.759   2.415  0.1541 -0.6724  0.5335
 8822SOL    HW138102   1.915   3.711   2.397  0.1583  0.4682 -2.5802
 8822SOL    HW238103   1.769   3.690   2.420  0.6658 -1.1395  0.8566
 8823SOL     OW38104   2.995   2.694   8.909  0.5092 -0.0605 -0.3722
 8823SOL    HW138105   3.046   2.738   8.841  0.5436  2.2457  1.1513
 8823SOL    HW238106   2.951   2.626   8.858  1.4491 -0.0381 -1.2059
 8824SOL     OW38107   1.118   1.027   2.450  0.3713  0.0509  0.6342
 8824SOL    HW138108   1.208   1.024   2.419 -0.1911  0.2400 -0.9944
 8824SOL    HW238109   1.108   0.937   2.481 -2.0174 -0.8476 -2.7356
 8825SOL     OW38110   4.253   4.447   4.909  0.8126  0.0498  0.0278
 8825SOL    HW138111   4.194   4.479   4.977  2.1484  0.4853  0.9990
 8825SOL    HW238112   4.202   4.373   4.878  1.7786 -0.6654  0.1566
 8826SOL     OW38113   3.094   0.054  16.919  0.8773 -0.1099 -0.2149
 8826SOL    HW138114   3.089   4.696  16.897  0.6314 -0.5441  1.6844
 8826SOL    HW238115   3.187   0.076  16.921  1.1411 -1.0141 -2.1112
 8827SOL     OW38116   0.162   3.293   8.565 -0.4823 -0.3636  0.0645
 8827SOL    HW138117   0.144   3.201   8.545  0.1295 -0.6643  0.8814
 8827SOL    HW238118   0.078   3.333   8.543 -1.2111 -1.3681  1.0148
 8828SOL     OW38119   4.223   2.407   6.208  0.4212 -0.2862  0.2998
 8828SOL    HW138120   4.298   2.371   6.160  0.1781 -1.3713  0.7451
 8828SOL    HW238121   4.151   2.376   6.153  2.4848 -0.0940 -2.5192
 8829SOL     OW38122   3.300   1.893  10.112 -0.4593 -0.2586  0.4692
 8829SOL    HW138123   3.309   1.978  10.069  0.0608 -0.8786 -0.6634
 8829SOL    HW238124   3.346   1.914  10.193 -0.2020 -1.6454  0.6964
 8830SOL     OW38125   2.289   0.801  16.952 -0.3821 -0.7076 -0.0924
 8830SOL    HW138126   2.317   0.890  16.972 -0.5263 -0.4257 -1.1380
 8830SOL    HW238127   2.337   0.740  17.008 -0.2338  1.2989  1.9455
 8831SOL     OW38128   4.293   4.407  12.254  0.4074 -0.1581 -0.6453
 8831SOL    HW138129   4.265   4.498  12.253 -0.4539 -0.4148  1.0996
 8831SOL    HW238130   4.228   4.369  12.313 -0.7218  0.1868 -1.6735
 8832SOL     OW38131   2.454   2.255   2.151  0.1734 -0.1102  0.5444
 8832SOL    HW138132   2.533   2.210   2.180  1.4642 -0.2378 -3.1314
 8832SOL    HW238133   2.495   2.323   2.098 -0.9690  0.1403 -0.0251
 8833SOL     OW38134   3.746   2.410   4.976  0.3499 -0.1760  0.2368
 8833SOL    HW138135   3.822   2.412   5.034 -0.5005 -0.4807  1.3387
 8833SOL    HW238136   3.766   2.482   4.915  0.1739  0.9495  1.5158
 8834SOL     OW38137   3.575   2.515   9.429  0.2233 -0.0238  0.3709
 8834SOL    HW138138   3.588   2.487   9.339  1.6825 -0.2946  0.6814
 8834SOL    HW238139   3.635   2.590   9.434  1.0910 -0.7512  0.6630
 8835SOL     OW38140   0.463   4.382  13.615 -0.0495  0.1858  0.3705
 8835SOL    HW138141   0.545   4.429  13.608  0.0714 -0.1788 -0.6296
 8835SOL    HW238142   0.431   4.415  13.699 -1.0772 -0.3689  0.2049
 8836SOL     OW38143   0.525   3.466  13.182  0.6618  0.4672 -0.1689
 8836SOL    HW138144   0.478   3.458  13.265 -0.3184 -1.6815 -0.9187
 8836SOL    HW238145   0.533   3.561  13.175 -0.8335  0.5441 -0.7225
 8837SOL     OW38146   4.302   4.505   7.893  0.5393  0.2817  0.4120
 8837SOL    HW138147   4.330   4.489   7.803  0.8730 -2.3055  0.9780
 8837SOL    HW238148   4.283   4.599   7.892 -0.2066  0.2070  6.6346
 8838SOL     OW38149   1.370   1.064   1.906  0.4993 -0.1543 -0.2737
 8838SOL    HW138150   1.348   0.982   1.950  1.4481  0.1431  0.7367
 8838SOL    HW238151   1.287   1.104   1.932  0.6142  0.0630 -0.2392
 8839SOL     OW38152   3.159   4.337   4.963  0.3011  0.0537  0.2768
 8839SOL    HW138153   3.093   4.355   5.030 -1.0683 -2.5199 -0.3923
 8839SOL    HW238154   3.234   4.302   5.012 -0.0778  2.7346  2.7859
 8840SOL     OW38155   2.154   3.755  12.685 -0.0995 -0.2010 -0.1326
 8840SOL    HW138156   2.117   3.751  12.597  1.9859 -1.2010 -0.9879
 8840SOL    HW238157   2.242   3.776  12.654 -0.4474  1.1471 -0.1837
 8841SOL     OW38158   0.077   3.484   6.129 -0.0554 -0.4475  0.3446
 8841SOL    HW138159   0.128   3.497   6.208 -1.1300  3.2369  0.4210
 8841SOL    HW238160   0.036   3.397   6.136 -2.3710  0.7396  1.4692
 8842SOL     OW38161   0.435   4.470   1.386 -0.1979  0.2016 -0.1354
 8842SOL    HW138162   0.343   4.496   1.393  0.0780  0.8919  1.0197
 8842SOL    HW238163   0.492   4.547   1.386  0.7986 -0.5343 -0.1054
 8843SOL     OW38164   3.657   0.407   3.092 -0.6294  0.1253 -0.2421
 8843SOL    HW138165   3.585   0.374   3.147 -1.4078 -0.2850 -1.4981
 8843SOL    HW238166   3.728   0.407   3.156 -0.3212 -2.0754 -0.6031
 8844SOL     OW38167   2.962   0.312   5.603  0.1524  0.4552  0.2890
 8844SOL    HW138168   2.883   0.295   5.654 -1.3252  0.2996 -2.0291
 8844SOL    HW238169   2.944   0.379   5.537 -0.9160 -0.1434 -0.0286
 8845SOL     OW38170   3.159   3.460   4.473 -0.2922  0.1647  0.2515
 8845SOL    HW138171   3.220   3.395   4.438  0.3801 -0.2889  2.2815
 8845SOL    HW238172   3.194   3.541   4.436  0.4159  0.7361  2.1965
 8846SOL     OW38173   0.642   4.441   5.647  0.4359  0.2528  0.3670
 8846SOL    HW138174   0.704   4.390   5.699 -0.1626  0.2671  1.1087
 8846SOL    HW238175   0.654   4.393   5.565 -2.5439  0.8933 -0.4387
 8847SOL     OW38176   1.966   2.948   7.087 -0.2761 -0.2425  0.0604
 8847SOL    HW138177   2.016   2.910   7.159  1.4081  1.5235 -0.1877
 8847SOL    HW238178   2.033   2.957   7.019  0.9624 -1.1969  1.1500
 8848SOL     OW38179   1.919   1.250  13.409 -0.1480 -0.1705  0.3007
 8848SOL    HW138180   1.890   1.209  13.490 -2.2871 -0.1803 -0.4723
 8848SOL    HW238181   2.001   1.288  13.442  0.5751 -1.8532  0.4312
 8849SOL     OW38182   1.240   3.600   3.865  0.5956  0.9085  0.1144
 8849SOL    HW138183   1.163   3.559   3.825 -0.4333  1.9681  0.9982
 8849SOL    HW238184   1.261   3.670   3.803  1.2279 -0.6261 -1.4210
 8850SOL     OW38185   4.685   3.284   2.810 -0.6405  0.3453 -0.4327
 8850SOL    HW138186   0.032   3.236   2.823 -2.0750 -1.8541  0.4733
 8850SOL    HW238187   4.695   3.312   2.719 -1.8395  0.2689 -0.5811
 8851SOL     OW38188   0.749   3.593  10.007 -0.1327  0.1985  0.4511
 8851SOL    HW138189   0.829   3.553  10.040 -1.7360 -1.2824  2.5714
 8851SOL    HW238190   0.690   3.608  10.081 -1.3995  1.0213 -0.7161
 8852SOL     OW38191   0.486   2.321   5.064 -0.2983 -0.3506  0.0527
 8852SOL    HW138192   0.417   2.379   5.031  2.4120  3.3945  0.8983
 8852SOL    HW238193   0.567   2.371   5.053 -1.3895  1.4378  0.1073
 8853SOL     OW38194   1.283   4.725   5.678  0.5506 -0.0001 -0.4690
 8853SOL    HW138195   1.247   4.734   5.767 -0.9211  1.0341 -1.1765
 8853SOL    HW238196   1.327   4.641   5.670 -1.1905 -0.6576 -3.1311
 8854SOL     OW38197   0.322   2.234   6.666  0.1027  0.1291 -0.1509
 8854SOL    HW138198   0.289   2.263   6.752  1.4593 -0.3692  0.5357
 8854SOL    HW238199   0.248   2.261   6.611 -1.5186  0.0972  1.9928
 8855SOL     OW38200   0.896   4.431   2.894 -0.3954 -0.0676  0.7189
 8855SOL    HW138201   0.974   4.376   2.902 -0.3873 -0.4186 -1.5940
 8855SOL    HW238202   0.896   4.460   2.985  0.4008  2.1939 -0.0026
 8856SOL     OW38203   3.609   1.015   3.344  0.1111  0.2966 -0.2738
 8856SOL    HW138204   3.599   0.945   3.409 -1.2859 -0.7378 -1.6169
 8856SOL    HW238205   3.566   1.088   3.390 -2.6928 -2.8328  2.1044
 8857SOL     OW38206   4.113   2.112   9.045 -0.1407 -0.1827 -0.5097
 8857SOL    HW138207   4.201   2.150   9.038 -0.5921  0.8704 -0.4003
 8857SOL    HW238208   4.118   2.065   9.128  1.1273  1.5452  0.3788
 8858SOL     OW38209   1.232   3.253  13.928 -0.2476  0.3645  0.3482
 8858SOL    HW138210   1.266   3.165  13.944  1.2849  0.9896  0.6015
 8858SOL    HW238211   1.280   3.305  13.993  0.6328  0.3258 -0.2641
 8859SOL     OW38212   0.935   2.866   3.225 -0.2345 -0.2473  0.0926
 8859SOL    HW138213   0.982   2.806   3.283  0.8243  0.7129  0.2485
 8859SOL    HW238214   0.890   2.931   3.279 -0.6414 -0.1501 -0.3661
 8860SOL     OW38215   0.850   1.634   6.705 -0.9845  0.1727 -0.1661
 8860SOL    HW138216   0.938   1.671   6.708 -0.2235 -1.6239 -0.2720
 8860SOL    HW238217   0.791   1.708   6.695 -2.9817 -1.4418 -0.3089
 8861SOL     OW38218   0.472   2.945  15.084 -0.0409  0.3204  0.0883
 8861SOL    HW138219   0.458   2.924  15.176 -0.1546  1.3005  0.2901
 8861SOL    HW238220   0.528   3.021  15.101  0.5070  0.4257 -2.0947
 8862SOL     OW38221   0.764   1.619  14.403  0.3087  0.0770  0.2128
 8862SOL    HW138222   0.729   1.698  14.446  1.9756  0.8249  0.1998
 8862SOL    HW238223   0.717   1.626  14.320 -1.0234  1.8733  1.1069
 8863SOL     OW38224   2.342   2.705   6.083 -0.1632  0.8598  0.2938
 8863SOL    HW138225   2.413   2.705   6.019 -0.7247  0.4898 -0.3222
 8863SOL    HW238226   2.299   2.786   6.057 -2.0507  0.2816  1.6147
 8864SOL     OW38227   4.145   2.710  14.658 -0.1707  0.3667 -0.4832
 8864SOL    HW138228   4.211   2.705  14.588 -0.8613  0.0736 -1.1196
 8864SOL    HW238229   4.111   2.622  14.673 -2.1335  1.0340 -1.0203
 8865SOL     OW38230   3.096   2.179   0.530 -0.4176 -0.1684  0.5365
 8865SOL    HW138231   3.129   2.125   0.458  0.4879  1.8908 -0.5903
 8865SOL    HW238232   3.016   2.132   0.555 -0.2612  0.3968  2.0836
 8866SOL     OW38233   3.825   3.181   1.816  0.5109  0.0407 -0.4770
 8866SOL    HW138234   3.795   3.259   1.769  2.0881  0.1835 -1.2424
 8866SOL    HW238235   3.747   3.127   1.827  1.0379 -0.3558  1.3896
 8867SOL     OW38236   0.130   1.676  15.110 -0.2654  0.0154  0.0029
 8867SOL    HW138237   0.196   1.728  15.155  0.1803 -1.3614  0.9363
 8867SOL    HW238238   0.184   1.635  15.042 -0.7910 -0.0660 -0.3607
 8868SOL     OW38239   0.714   3.370   4.189  0.4457 -0.2777 -0.2665
 8868SOL    HW138240   0.623   3.345   4.177  0.5511 -0.2882 -1.0256
 8868SOL    HW238241   0.719   3.435   4.119 -0.2814 -0.5294 -0.5510
 8869SOL     OW38242   4.220   3.830   1.628  0.1640  0.0587 -0.0071
 8869SOL    HW138243   4.133   3.870   1.629  0.4561  0.7203 -2.1831
 8869SOL    HW238244   4.283   3.900   1.613  0.0398  0.1573 -0.0689
 8870SOL     OW38245   1.235   3.113   8.273 -0.4397  0.0181  0.6154
 8870SOL    HW138246   1.287   3.097   8.194 -1.2565 -4.2273  0.9290
 8870SOL    HW238247   1.305   3.142   8.333  0.7973 -0.8835 -0.3772
 8871SOL     OW38248   2.415   3.620   7.026  0.3027 -0.1610 -0.3347
 8871SOL    HW138249   2.451   3.630   7.114 -1.5031  0.3849  0.3593
 8871SOL    HW238250   2.486   3.653   6.972 -0.6375  2.8832  0.2630
 8872SOL     OW38251   3.314   4.630   4.317 -0.2774 -0.4211 -0.0511
 8872SOL    HW138252   3.380   4.678   4.366 -0.4185 -1.2978  0.9940
 8872SOL    HW238253   3.257   4.701   4.286 -0.2293 -0.7845 -0.9784
 8873SOL     OW38254   4.214   0.125   4.841  0.6884  0.0434  0.3087
 8873SOL    HW138255   4.283   0.187   4.818 -0.2230  0.7953 -0.4108
 8873SOL    HW238256   4.264   0.051   4.876 -2.8366 -2.0991  0.8275
 8874SOL     OW38257   1.786   2.986   5.360 -0.0125  0.4373 -0.2361
 8874SOL    HW138258   1.726   2.978   5.286  0.3433  0.9038 -0.5747
 8874SOL    HW238259   1.841   3.059   5.330 -1.9673  2.1752  0.3639
 8875SOL     OW38260   1.372   3.799   4.187  0.2568  0.1205 -0.1906
 8875SOL    HW138261   1.397   3.889   4.166 -0.0651 -0.0841 -1.4565
 8875SOL    HW238262   1.446   3.749   4.153 -0.8648 -2.0830  0.6272
 8876SOL     OW38263   3.953   2.168   6.586  0.2404  0.3989 -0.2775
 8876SOL    HW138264   4.027   2.201   6.637 -0.7059  0.3954  1.1110
 8876SOL    HW238265   3.935   2.247   6.536  0.3737  1.4828  1.3681
 8877SOL     OW38266   2.437   1.136   5.206  0.0598  0.1209  0.4768
 8877SOL    HW138267   2.481   1.193   5.269  0.4313 -1.1441  1.3611
 8877SOL    HW238268   2.359   1.189   5.190  0.4872 -0.1596 -2.3812
 8878SOL     OW38269   1.434   1.222   0.217  0.0483  0.1619 -0.5000
 8878SOL    HW138270   1.525   1.194   0.223 -0.1300 -0.1146  0.9620
 8878SOL    HW238271   1.386   1.140   0.230  0.4304  0.1397  0.7653
 8879SOL     OW38272   1.056   1.302   2.282 -0.6125 -0.1316  0.0650
 8879SOL    HW138273   0.990   1.262   2.339 -0.9052 -1.4905 -1.2504
 8879SOL    HW238274   1.136   1.265   2.320 -0.0454 -1.3250 -2.3300
 8880SOL     OW38275   2.686   4.485  13.458  0.4153 -0.3554  0.1487
 8880SOL    HW138276   2.617   4.447  13.404  0.0046  0.8906 -0.2076
 8880SOL    HW238277   2.720   4.533  13.382  1.6878 -0.0046  0.9365
 8881SOL     OW38278   0.678   3.604  16.127 -0.4780  0.5895  0.3560
 8881SOL    HW138279   0.646   3.637  16.043  0.1936  2.4220  0.8398
 8881SOL    HW238280   0.772   3.603  16.111 -1.0680 -0.0204 -3.2615
 8882SOL     OW38281   2.265   1.719   3.612 -0.1869 -0.2181  0.0999
 8882SOL    HW138282   2.211   1.673   3.676 -0.5909  0.1284  0.0130
 8882SOL    HW238283   2.259   1.809   3.646  0.8287 -0.5503  1.1763
 8883SOL     OW38284   1.916   2.503   5.809 -0.2837 -0.5016  0.5440
 8883SOL    HW138285   1.920   2.424   5.755  0.5337  0.0690 -0.2137
 8883SOL    HW238286   2.000   2.503   5.856  0.6915  2.3165 -1.2245
 8884SOL     OW38287   3.173   1.814   4.067  0.0598  0.1102 -0.5327
 8884SOL    HW138288   3.158   1.753   3.995 -1.0776  1.4058 -1.4087
 8884SOL    HW238289   3.117   1.887   4.039 -1.3246 -1.4934 -2.0007
 8885SOL     OW38290   3.066   0.256   0.381  0.1965  0.5170  0.7856
 8885SOL    HW138291   3.111   0.190   0.435 -1.2040  1.1385  2.7170
 8885SOL    HW238292   3.006   0.197   0.336  1.8893 -0.7067  0.1219
 8886SOL     OW38293   0.672   3.672   2.940 -0.1599 -0.4765  0.0927
 8886SOL    HW138294   0.705   3.586   2.914 -1.7952  0.1032 -3.9475
 8886SOL    HW238295   0.723   3.728   2.883  0.5986  0.3003  1.5326
 8887SOL     OW38296   0.964   0.506  16.656  0.2734 -0.2761 -0.5159
 8887SOL    HW138297   1.053   0.474  16.640  0.5480  0.3992 -0.3549
 8887SOL    HW238298   0.973   0.594  16.619  0.2878  0.3382  0.9614
 8888SOL     OW38299   0.609   4.562   2.690 -0.2311  0.4806 -0.1449
 8888SOL    HW138300   0.563   4.588   2.611  0.2825  1.3529 -0.1500
 8888SOL    HW238301   0.544   4.518   2.745 -0.1269  3.0103  1.9813
 8889SOL     OW38302   2.087   3.487   7.290  0.0954 -0.0169  0.0251
 8889SOL    HW138303   2.124   3.569   7.258 -0.0638 -0.1919 -0.6113
 8889SOL    HW238304   2.077   3.432   7.212 -0.9352  1.6695 -1.0381
 8890SOL     OW38305   2.824   0.852   8.711  0.4033  0.8302 -0.1306
 8890SOL    HW138306   2.875   0.853   8.630  0.2835 -0.3956 -0.2201
 8890SOL    HW238307   2.764   0.779   8.697  0.3004  1.3467 -2.4254
 8891SOL     OW38308   2.650   0.490   8.318  0.7356  0.6258  0.0303
 8891SOL    HW138309   2.587   0.419   8.330  1.7958 -0.5443 -1.2266
 8891SOL    HW238310   2.608   0.569   8.351 -1.7077 -0.6515 -0.0428
 8892SOL     OW38311   1.277   2.244  11.021 -0.1313  0.4495  0.2663
 8892SOL    HW138312   1.218   2.210  11.088 -1.0585 -0.4717 -1.0226
 8892SOL    HW238313   1.220   2.266  10.948  0.4138  1.8676  0.2660
 8893SOL     OW38314   0.667   3.785  13.434  0.3798  0.3137 -0.0635
 8893SOL    HW138315   0.722   3.851  13.391  0.2846  0.0744 -0.5572
 8893SOL    HW238316   0.596   3.789  13.370  0.3343 -3.1820 -0.2210
 8894SOL     OW38317   1.403   3.900   5.839  0.1076  0.6338 -0.0835
 8894SOL    HW138318   1.490   3.917   5.875  0.1073 -0.8361  0.6450
 8894SOL    HW238319   1.402   3.950   5.758  0.4301 -0.2997 -0.6720
 8895SOL     OW38320   3.769   3.799   3.499 -0.7090  0.4641  0.0860
 8895SOL    HW138321   3.836   3.744   3.459 -0.6457  0.7327 -0.1784
 8895SOL    HW238322   3.811   3.883   3.481  0.9616 -1.2414 -4.0525
 8896SOL     OW38323   0.475   1.341   8.961 -0.2269 -0.3550  0.7762
 8896SOL    HW138324   0.492   1.335   9.055  0.3170  2.2452  0.8208
 8896SOL    HW238325   0.385   1.309   8.956 -0.2069 -0.2261 -0.4123
 8897SOL     OW38326   1.902   2.094  15.455  0.2358 -0.6369 -0.1005
 8897SOL    HW138327   1.955   2.017  15.434  2.1634  0.8374 -0.6488
 8897SOL    HW238328   1.953   2.134  15.526  1.6493 -1.5529 -0.5996
 8898SOL     OW38329   0.177   4.536   9.682  0.1596  0.3346 -0.7101
 8898SOL    HW138330   0.209   4.481   9.753  1.6268  1.8189 -0.2124
 8898SOL    HW238331   0.257   4.559   9.634 -0.7265  1.9676 -1.4255
 8899SOL     OW38332   2.018   3.762  11.460  0.1675 -0.4297  0.8574
 8899SOL    HW138333   2.019   3.675  11.500 -2.1638  0.2759  2.4432
 8899SOL    HW238334   2.106   3.779  11.427 -0.2069  0.2533  0.2069
 8900SOL     OW38335   1.621   3.244   5.811 -0.5642 -0.0432 -0.2160
 8900SOL    HW138336   1.685   3.314   5.821  0.1009 -0.3560 -2.4530
 8900SOL    HW238337   1.616   3.258   5.717 -1.8358 -1.0563 -0.3071
 8901SOL     OW38338   1.615   1.510   5.683 -0.0267 -0.7147  0.1732
 8901SOL    HW138339   1.630   1.441   5.748 -0.4932  0.1848  1.2324
 8901SOL    HW238340   1.544   1.552   5.732 -0.2313 -2.7108  1.5919
 8902SOL     OW38341   4.238   3.880  16.251  0.3138  1.0775  0.3836
 8902SOL    HW138342   4.145   3.895  16.269 -0.0135 -0.9554  0.3459
 8902SOL    HW238343   4.253   3.798  16.298 -0.9515  0.3804 -0.4504
 8903SOL     OW38344   4.425   0.613  17.042 -0.1868 -0.3430 -0.3343
 8903SOL    HW138345   4.351   0.672  17.055  1.6768  1.7722  0.6870
 8903SOL    HW238346   4.416   0.576  16.955  0.6309 -2.3579  0.4433
 8904SOL     OW38347   2.506   3.682  10.415 -0.1708  0.1271  0.1900
 8904SOL    HW138348   2.562   3.709  10.488  0.2813 -0.6724  0.1294
 8904SOL    HW238349   2.466   3.769  10.402  0.7590  0.8089  1.9854
 8905SOL     OW38350   0.176   1.993   6.184  0.3584  0.1396 -0.1622
 8905SOL    HW138351   0.114   2.026   6.119 -1.6607 -0.1195  1.6319
 8905SOL    HW238352   0.204   1.910   6.146  0.7476 -0.5748  1.6997
 8906SOL     OW38353   2.202   2.341   5.066  0.0810  0.1644  0.0452
 8906SOL    HW138354   2.210   2.420   5.120  0.1994  0.2555 -0.1050
 8906SOL    HW238355   2.110   2.352   5.042  0.6827  1.2957 -1.7035
 8907SOL     OW38356   0.624   4.366   0.898  0.5453 -0.4461  0.4307
 8907SOL    HW138357   0.677   4.341   0.974  1.5291  1.2792  0.2839
 8907SOL    HW238358   0.667   4.329   0.822 -0.3406  1.1152 -0.8246
 8908SOL     OW38359   0.178   2.328   4.678  0.2369 -0.1482  0.5524
 8908SOL    HW138360   0.174   2.415   4.718 -0.3075  0.2766 -0.4162
 8908SOL    HW238361   0.255   2.327   4.620  0.8884  1.7111  1.3670
 8909SOL     OW38362   1.235   1.299   1.681  0.9778 -0.8184  0.0892
 8909SOL    HW138363   1.318   1.347   1.688 -0.0192  0.9927 -0.5782
 8909SOL    HW238364   1.215   1.259   1.765  0.6254 -1.3626 -0.2611
 8910SOL     OW38365   4.629   4.051   7.426 -0.3891  0.9131 -0.2172
 8910SOL    HW138366   4.680   3.981   7.384  0.2735  1.3013 -0.0646
 8910SOL    HW238367   4.571   3.995   7.476  1.6213 -0.6867  0.3476
 8911SOL     OW38368   0.005   4.043   6.302 -0.6398 -0.4805 -0.1546
 8911SOL    HW138369   0.050   4.111   6.252 -1.4241  1.1494  1.3582
 8911SOL    HW238370   0.076   3.978   6.306  1.3772  1.7012 -0.4350
 8912SOL     OW38371   0.320   3.917   3.969 -0.1206  0.0779 -0.0489
 8912SOL    HW138372   0.305   3.861   4.045 -0.9143 -0.0828 -0.3183
 8912SOL    HW238373   0.251   3.882   3.912  0.6468 -1.1010 -0.2315
 8913SOL     OW38374   3.616   0.950   4.397 -0.3395  0.0139  0.0067
 8913SOL    HW138375   3.540   0.929   4.451 -0.9713  0.7908 -0.5821
 8913SOL    HW238376   3.683   0.897   4.441  0.5234 -0.8915 -2.3580
 8914SOL     OW38377   1.533   2.545   4.317  0.5591 -0.2087 -0.0720
 8914SOL    HW138378   1.504   2.523   4.406  0.9597  0.9304  0.3368
 8914SOL    HW238379   1.530   2.639   4.305  1.1658 -0.1236  0.4617
 8915SOL     OW38380   3.097   4.059   9.260 -0.0978 -0.2962  0.2977
 8915SOL    HW138381   3.041   4.103   9.324 -1.1726 -1.6185  0.2764
 8915SOL    HW238382   3.179   4.047   9.308  1.9722  2.8014 -2.5392
 8916SOL     OW38383   0.655   2.910   8.183  0.3521  0.0167 -0.3344
 8916SOL    HW138384   0.693   2.827   8.209  0.7431 -0.2615 -1.7997
 8916SOL    HW238385   0.628   2.892   8.093  2.6190  0.1008 -1.0131
 8917SOL     OW38386   0.196   2.048   3.445  0.3466 -0.2060 -0.2864
 8917SOL    HW138387   0.160   2.038   3.533 -0.9248 -0.6712 -0.8663
 8917SOL    HW238388   0.122   2.020   3.391 -1.4753  0.6271  1.7636
 8918SOL     OW38389   2.924   2.292   7.667 -0.2935  0.0544 -0.4440
 8918SOL    HW138390   2.983   2.218   7.677 -0.3086 -0.2315 -2.4690
 8918SOL    HW238391   2.976   2.359   7.712  0.0294  1.2673 -2.6119
 8919SOL     OW38392   3.037   2.368  12.479 -0.4348  0.0360  0.4482
 8919SOL    HW138393   2.948   2.396  12.455 -0.4709 -0.2674  0.2302
 8919SOL    HW238394   3.043   2.277  12.451  0.0674  1.0214 -2.5864
 8920SOL     OW38395   4.408   0.297   8.240  0.1653  0.1781 -0.3978
 8920SOL    HW138396   4.428   0.208   8.211  1.0246  0.6297 -1.1896
 8920SOL    HW238397   4.475   0.305   8.309  1.7945 -2.2918 -1.6598
 8921SOL     OW38398   0.634   2.546   4.962 -0.1819 -0.1403 -0.0310
 8921SOL    HW138399   0.591   2.630   4.981 -1.7048 -0.9455  0.0849
 8921SOL    HW238400   0.627   2.535   4.868 -1.2334 -0.1057  0.0400
 8922SOL     OW38401   3.369   4.540  12.226 -0.1362 -0.2795  0.1431
 8922SOL    HW138402   3.387   4.456  12.183 -2.8287 -1.2391  0.8841
 8922SOL    HW238403   3.295   4.509  12.278  0.6356  1.1406  2.0502
 8923SOL     OW38404   2.419   3.974  11.179 -0.2549  0.1560  0.0110
 8923SOL    HW138405   2.367   3.968  11.099 -0.6790 -2.0851  0.4606
 8923SOL    HW238406   2.505   3.958  11.140 -0.3713  1.4809 -0.7879
 8924SOL     OW38407   1.331   1.022   7.388 -0.3655  0.0415 -0.4759
 8924SOL    HW138408   1.380   1.104   7.393  1.0374 -0.7305 -1.4615
 8924SOL    HW238409   1.311   1.020   7.294  1.7923  0.9864 -0.9525
 8925SOL     OW38410   1.019   2.859  11.134 -0.1130  0.5369 -0.0035
 8925SOL    HW138411   1.061   2.894  11.056  1.7159 -1.2220  0.1841
 8925SOL    HW238412   1.066   2.907  11.202 -0.1851  1.6335 -0.7209
 8926SOL     OW38413   3.933   4.029  15.204 -0.4344  0.5154 -0.4326
 8926SOL    HW138414   3.990   4.100  15.176  1.0520 -0.0808  1.0683
 8926SOL    HW238415   3.979   3.960  15.156  1.0279  1.5305 -0.5018
 8927SOL     OW38416   2.774   1.050   1.732 -0.0913 -0.0740  0.0024
 8927SOL    HW138417   2.780   1.138   1.770  0.0565 -0.5764  1.1363
 8927SOL    HW238418   2.782   0.996   1.811 -0.4877 -0.5760 -0.3094
 8928SOL     OW38419   3.756   1.586   7.366 -0.1876  0.3900 -0.2943
 8928SOL    HW138420   3.816   1.653   7.398  0.4798  0.4422 -1.6655
 8928SOL    HW238421   3.783   1.512   7.420 -0.1590 -1.3587 -2.7430
 8929SOL     OW38422   0.643   4.719  16.764  0.4480  0.3102  0.3846
 8929SOL    HW138423   0.655   0.042  16.689 -0.6418  0.2166  0.1381
 8929SOL    HW238424   0.707   0.029  16.820 -1.1495  0.7697  1.8533
 8930SOL     OW38425   0.506   4.051  13.504 -0.1421 -0.6658  0.0587
 8930SOL    HW138426   0.545   4.106  13.572 -0.4488  0.5784 -0.7610
 8930SOL    HW238427   0.445   3.993  13.549  0.1475 -2.0882 -1.3703
 8931SOL     OW38428   0.356   4.144   4.467 -0.0732 -0.2273 -0.6357
 8931SOL    HW138429   0.331   4.104   4.550 -0.5437 -1.2072 -1.2454
 8931SOL    HW238430   0.441   4.182   4.491 -1.1586  1.7808  0.0549
 8932SOL     OW38431   0.111   4.072   0.098  0.5870 -0.1721  0.4158
 8932SOL    HW138432   0.164   4.025   0.162  1.6063  0.9133  0.3647
 8932SOL    HW238433   0.038   4.014   0.074 -0.2143  0.6691  0.7916
 8933SOL     OW38434   4.536   1.322   4.225 -0.0577  0.4628 -0.4616
 8933SOL    HW138435   4.629   1.303   4.238 -0.2075 -0.2035 -0.3709
 8933SOL    HW238436   4.537   1.415   4.202  2.1612 -0.0962 -2.6914
 8934SOL     OW38437   1.594   4.689  10.042  0.1711 -0.1994  0.1545
 8934SOL    HW138438   1.557   4.676   9.954 -1.4216  2.1497  0.4930
 8934SOL    HW238439   1.565   4.609  10.085  1.4523 -0.9146 -0.2901
 8935SOL     OW38440   0.309   2.675  11.999  0.2899  0.2367 -0.0840
 8935SOL    HW138441   0.341   2.724  11.924 -2.6680  0.0193 -1.5134
 8935SOL    HW238442   0.367   2.599  12.001 -0.5734 -0.4531 -1.2517
 8936SOL     OW38443   1.754   0.870  17.177 -0.7217 -0.1924 -0.0475
 8936SOL    HW138444   1.733   0.876  17.084  1.5587  0.4963 -0.5155
 8936SOL    HW238445   1.677   0.826  17.214 -1.7197  1.3794 -0.2470
 8937SOL     OW38446   4.446   1.034   8.825  0.4479 -0.1311 -0.1500
 8937SOL    HW138447   4.462   1.062   8.735 -2.1640 -1.1027 -0.9235
 8937SOL    HW238448   4.403   1.106   8.872  1.0703 -1.0473  1.8342
 8938SOL     OW38449   3.000   2.982   5.832  0.2995 -0.8680 -0.0225
 8938SOL    HW138450   2.997   2.890   5.805 -2.2298 -0.3853 -1.3732
 8938SOL    HW238451   3.092   3.000   5.852  0.0959  0.7252 -0.5032
 8939SOL     OW38452   3.269   2.697   5.035 -0.0326  0.2340  0.2936
 8939SOL    HW138453   3.268   2.602   5.019 -1.0109  0.5862 -1.7352
 8939SOL    HW238454   3.175   2.710   5.039 -0.2294 -1.5954  1.8813
 8940SOL     OW38455   2.542   0.842   7.045 -0.0098  0.7254  0.3526
 8940SOL    HW138456   2.607   0.779   7.016 -0.1097 -0.6389  3.0840
 8940SOL    HW238457   2.470   0.830   6.983  1.7382 -1.3214 -1.2919
 8941SOL     OW38458   1.162   0.845  11.628 -0.0746 -0.0211 -0.3872
 8941SOL    HW138459   1.088   0.810  11.579 -0.9093 -0.2110  1.0092
 8941SOL    HW238460   1.118   0.882  11.704  1.1260 -1.3483  0.9703
 8942SOL     OW38461   0.006   2.693   6.088 -0.0105  0.0639 -0.0077
 8942SOL    HW138462   0.094   2.691   6.125 -1.3545  1.8582  3.3068
 8942SOL    HW238463   0.019   2.709   5.994 -0.5991 -1.2316 -0.3211
 8943SOL     OW38464   2.016   0.850   8.836 -0.0174  0.4308  0.2472
 8943SOL    HW138465   2.039   0.832   8.745 -2.7458  0.3599 -0.4094
 8943SOL    HW238466   2.099   0.886   8.866  2.2420 -3.4176 -1.3722
 8944SOL     OW38467   1.746   1.386  14.644 -0.3165  0.0108 -0.3430
 8944SOL    HW138468   1.798   1.367  14.722 -0.2126 -2.3939 -0.9857
 8944SOL    HW238469   1.692   1.459  14.674 -1.0820  0.0853 -1.8808
 8945SOL     OW38470   0.896   3.032   9.110 -0.3946 -0.0645  0.5279
 8945SOL    HW138471   0.915   2.943   9.142  1.3552 -0.4236 -1.4992
 8945SOL    HW238472   0.803   3.038   9.129 -0.3449  0.1692  0.6919
 8946SOL     OW38473   3.414   0.206   5.273  0.6105 -0.3628 -0.1476
 8946SOL    HW138474   3.320   0.220   5.285  0.2157 -2.4480 -0.8686
 8946SOL    HW238475   3.449   0.236   5.356 -0.0850 -0.4776  0.1896
 8947SOL     OW38476   3.920   2.397   6.455 -0.1847 -0.4099 -0.0502
 8947SOL    HW138477   3.953   2.375   6.367 -1.5135 -1.2478 -0.3361
 8947SOL    HW238478   3.993   2.455   6.476 -0.8090  0.8186 -1.3235
 8948SOL     OW38479   1.393   2.969  11.314  0.1164  0.1911  0.3969
 8948SOL    HW138480   1.484   2.994  11.332 -0.3676  2.6489 -0.4756
 8948SOL    HW238481   1.362   3.054  11.281  1.4404  0.1102 -1.0611
 8949SOL     OW38482   0.421   1.563   3.509  0.0360  0.5673 -0.2536
 8949SOL    HW138483   0.495   1.553   3.449  0.6744  2.6645  0.1961
 8949SOL    HW238484   0.443   1.637   3.564 -2.1166  1.0264  0.0021
 8950SOL     OW38485   2.167   0.551   4.907  0.3342  0.1793  0.9070
 8950SOL    HW138486   2.259   0.526   4.913  0.7855  1.1836 -1.8353
 8950SOL    HW238487   2.177   0.605   4.829 -0.0158  0.8215  1.3042
 8951SOL     OW38488   1.013   3.672   6.598 -0.0324 -0.1305 -0.5782
 8951SOL    HW138489   0.942   3.635   6.545  0.9229  0.1614 -2.0435
 8951SOL    HW238490   0.989   3.640   6.685  0.5601 -0.1496 -0.4217
 8952SOL     OW38491   3.518   3.922   2.351 -0.0041 -0.3746  0.3612
 8952SOL    HW138492   3.573   3.844   2.361 -0.6007 -0.6966  1.1654
 8952SOL    HW238493   3.480   3.896   2.267  1.0483  2.1700 -0.8939
 8953SOL     OW38494   0.466   3.935   8.151 -0.1238  0.0259 -0.9905
 8953SOL    HW138495   0.539   3.873   8.157 -0.3501 -0.3331 -1.9710
 8953SOL    HW238496   0.515   4.009   8.115  0.4361 -0.7960 -1.9401
 8954SOL     OW38497   3.538   2.243   4.296  0.1460  0.3742 -0.1476
 8954SOL    HW138498   3.582   2.293   4.364  3.0920  1.4464 -2.8931
 8954SOL    HW238499   3.564   2.153   4.318  0.1428  0.8954  1.9943
 8955SOL     OW38500   3.320   4.124   3.343  0.3819 -0.0760 -0.4903
 8955SOL    HW138501   3.301   4.197   3.402  0.2717  0.0049 -0.6271
 8955SOL    HW238502   3.275   4.158   3.266 -3.2453  0.9037  2.0737
 8956SOL     OW38503   3.574   3.760   9.232 -0.6621 -0.1388  0.6484
 8956SOL    HW138504   3.659   3.797   9.257 -0.9078  0.2487  0.8971
 8956SOL    HW238505   3.545   3.825   9.168 -0.8262  0.0203  0.8859
 8957SOL     OW38506   1.854   0.582   1.472 -0.3127  0.1202  0.4907
 8957SOL    HW138507   1.760   0.601   1.471 -0.2417  0.3276 -1.1499
 8957SOL    HW238508   1.888   0.666   1.441 -0.8651  0.5042  0.9158
 8958SOL     OW38509   1.657   3.063   3.909 -0.1972  0.0505 -0.0384
 8958SOL    HW138510   1.634   3.111   3.830  2.8321 -0.0321 -0.9878
 8958SOL    HW238511   1.727   3.116   3.948 -1.6205  0.9607  1.2731
 8959SOL     OW38512   3.867   1.358   7.127 -0.2942  0.2480  0.3795
 8959SOL    HW138513   3.888   1.419   7.056  2.7402 -0.8091  0.3587
 8959SOL    HW238514   3.815   1.422   7.176 -0.2313  0.7419 -0.1997
 8960SOL     OW38515   4.638   1.725   2.381  0.0720 -0.2480  0.4728
 8960SOL    HW138516   4.675   1.740   2.468  1.3068 -1.5680  0.1732
 8960SOL    HW238517   4.689   1.646   2.360 -2.4517 -0.8224 -3.5651
 8961SOL     OW38518   3.253   1.550  16.589  0.0646  0.0275 -0.0300
 8961SOL    HW138519   3.243   1.638  16.553  1.8593  1.2952  2.5403
 8961SOL    HW238520   3.348   1.547  16.577 -0.0854  2.1582 -1.7066
 8962SOL     OW38521   3.565   3.516   3.830  0.2708 -0.5348 -0.0372
 8962SOL    HW138522   3.473   3.508   3.804  0.3793  0.2427 -0.6854
 8962SOL    HW238523   3.578   3.611   3.837  0.5100 -0.5326 -0.5434
 8963SOL     OW38524   1.864   0.474   6.520  0.3102 -0.7542 -0.0333
 8963SOL    HW138525   1.850   0.522   6.602 -0.0008  1.2918 -1.2948
 8963SOL    HW238526   1.786   0.507   6.477  0.9814  1.5590  0.4744
 8964SOL     OW38527   1.033   2.442   2.341 -0.0611 -0.1625  0.2999
 8964SOL    HW138528   0.988   2.526   2.334 -1.8250 -1.1329 -0.0511
 8964SOL    HW238529   1.024   2.413   2.250  1.2086 -1.1126  0.4787
 8965SOL     OW38530   2.031   3.231   1.827  0.4421  0.0722  0.0551
 8965SOL    HW138531   2.043   3.186   1.744 -0.3689 -2.0524  1.0691
 8965SOL    HW238532   2.118   3.266   1.848  0.0545  0.4590  1.0180
 8966SOL     OW38533   1.172   1.287   2.645 -0.2088 -0.3001  0.1818
 8966SOL    HW138534   1.108   1.220   2.669  1.4235 -0.8837  2.9029
 8966SOL    HW238535   1.171   1.290   2.549 -1.1653  1.8259  0.2735
 8967SOL     OW38536   2.337   1.523   5.113 -0.1041  0.1508  0.5424
 8967SOL    HW138537   2.416   1.555   5.069 -0.3810  0.1847  0.0738
 8967SOL    HW238538   2.336   1.437   5.071 -2.1872  1.7321 -2.6140
 8968SOL     OW38539   0.056   0.299   7.875 -0.6363  0.6753  0.1792
 8968SOL    HW138540   0.039   0.210   7.907  0.6661  0.7186  0.9716
 8968SOL    HW238541   0.100   0.337   7.951 -1.3904 -1.7816  1.8592
 8969SOL     OW38542   2.900   1.742  15.181 -0.5616 -0.6457  0.5888
 8969SOL    HW138543   2.980   1.692  15.198  0.4014  1.0344  0.9803
 8969SOL    HW238544   2.839   1.682  15.140  1.2429 -1.8205 -0.3852
 8970SOL     OW38545   3.813   2.800  12.454  0.2679 -0.2983 -0.3077
 8970SOL    HW138546   3.898   2.830  12.424  0.6692 -1.4218 -0.2870
 8970SOL    HW238547   3.774   2.886  12.470 -0.3447 -0.6327  0.0530
 8971SOL     OW38548   1.368   3.828   1.585  0.3879  0.2553 -0.6388
 8971SOL    HW138549   1.442   3.878   1.553  2.1842 -0.1889  2.7656
 8971SOL    HW238550   1.296   3.858   1.530  0.0296  1.4502  0.4723
 8972SOL     OW38551   1.195   1.341   4.203 -0.0447 -0.2755 -0.5470
 8972SOL    HW138552   1.226   1.424   4.238 -1.3764  0.2267 -0.5453
 8972SOL    HW238553   1.183   1.354   4.109  1.1354  0.3433 -0.6134
 8973SOL     OW38554   0.874   2.615   9.734 -0.1705  0.6915  0.7163
 8973SOL    HW138555   0.801   2.676   9.723  0.9647  2.1660  1.3468
 8973SOL    HW238556   0.880   2.602   9.829 -1.1129 -0.6490  0.5834
 8974SOL     OW38557   2.653   1.580  11.914 -0.2351 -0.2521  0.5378
 8974SOL    HW138558   2.707   1.647  11.957  0.9053 -1.9087  1.7032
 8974SOL    HW238559   2.565   1.611  11.934 -0.1490  0.4811 -0.1826
 8975SOL     OW38560   1.625   0.007   7.094 -0.1957 -0.4220 -0.4940
 8975SOL    HW138561   1.615   0.042   7.182  0.4077  2.5359 -1.5883
 8975SOL    HW238562   1.576   4.662   7.113  0.3225 -0.0703  2.3189
 8976SOL     OW38563   0.737   0.461  16.818 -0.3733 -0.1709 -0.2570
 8976SOL    HW138564   0.808   0.472  16.754 -1.0639  2.6229 -0.5090
 8976SOL    HW238565   0.759   0.539  16.867  1.5291 -0.1910 -1.0453
 8977SOL     OW38566   3.025   4.091   3.903  0.4421  0.3446  0.3074
 8977SOL    HW138567   3.097   4.146   3.933 -0.8822  2.3434 -0.1518
 8977SOL    HW238568   3.014   4.030   3.976 -1.3327 -1.0594 -1.1160
 8978SOL     OW38569   0.257   3.724  10.222  0.1368 -0.9213  0.6345
 8978SOL    HW138570   0.232   3.765  10.139 -0.6628  1.3091  1.9857
 8978SOL    HW238571   0.350   3.741  10.235 -0.4453  1.4900  1.6227
 8979SOL     OW38572   0.159   3.222   8.232  0.0187 -0.1270 -0.0995
 8979SOL    HW138573   0.168   3.277   8.154 -1.2383 -0.4494 -0.4673
 8979SOL    HW238574   0.229   3.245   8.294  0.6144 -0.8975 -0.4797
 8980SOL     OW38575   2.493   4.092   7.727  0.1348 -0.1799 -0.4162
 8980SOL    HW138576   2.533   4.140   7.799  2.5882  0.5225 -2.2536
 8980SOL    HW238577   2.510   4.143   7.647  2.2918 -1.0220 -0.4945
 8981SOL     OW38578   1.891   2.119   5.311  0.1535  0.7305 -0.3605
 8981SOL    HW138579   1.823   2.106   5.245  0.6658 -1.5753 -0.4411
 8981SOL    HW238580   1.918   2.211   5.312  0.6450  0.5897 -1.5871
 8982SOL     OW38581   1.594   4.701  14.549  0.6881  0.0571  0.4231
 8982SOL    HW138582   1.590   0.053  14.589 -0.0657  0.7976 -1.2581
 8982SOL    HW238583   1.503   4.694  14.518  0.9281  1.3822 -0.6193
 8983SOL     OW38584   1.016   2.233   3.039 -0.4196 -0.1409 -0.3976
 8983SOL    HW138585   0.938   2.204   2.992  0.1345 -3.4940  0.8001
 8983SOL    HW238586   1.072   2.242   2.962  1.4594 -0.4150  0.9398
 8984SOL     OW38587   3.172   0.204   8.153 -0.5190 -0.0780  0.3828
 8984SOL    HW138588   3.162   0.133   8.217  0.5909 -2.3130 -1.9010
 8984SOL    HW238589   3.187   0.155   8.072 -1.7806  0.7840 -0.3810
 8985SOL     OW38590   1.659   4.046   1.010 -0.0607 -0.0252 -0.4137
 8985SOL    HW138591   1.733   3.997   0.973 -0.9371 -0.5694 -1.4356
 8985SOL    HW238592   1.710   4.123   1.036  0.4242  0.2091 -2.1003
 8986SOL     OW38593   2.486   3.092   1.911 -0.0136 -0.2786  0.5918
 8986SOL    HW138594   2.457   3.014   1.958  1.2078 -1.4448 -0.6082
 8986SOL    HW238595   2.501   3.153   1.984 -0.7030 -1.1268  1.4476
 8987SOL     OW38596   2.886   2.671   2.222  0.2393  0.4721 -0.0614
 8987SOL    HW138597   2.976   2.646   2.243 -0.9479 -4.2097 -0.6086
 8987SOL    HW238598   2.907   2.765   2.220 -1.3029  0.8091 -0.3519
 8988SOL     OW38599   1.745   2.271   2.318 -0.6036 -0.0284  0.1041
 8988SOL    HW138600   1.749   2.277   2.223 -3.3611 -0.1043 -0.0243
 8988SOL    HW238601   1.794   2.344   2.357 -0.6181  0.4909 -0.8515
 8989SOL     OW38602   4.439   4.509   1.424 -0.1758 -0.0785  0.2144
 8989SOL    HW138603   4.517   4.528   1.373  0.1763  0.0827  0.8059
 8989SOL    HW238604   4.427   4.415   1.407  3.5665 -0.2898 -1.1582
 8990SOL     OW38605   3.510   3.038   9.660 -0.3148 -0.2403  0.2585
 8990SOL    HW138606   3.482   2.947   9.658 -1.3665  0.0992 -0.6278
 8990SOL    HW238607   3.526   3.044   9.565  1.4471  1.8204  0.6982
 8991SOL     OW38608   0.678   3.464   6.257  0.1492 -0.4294  0.1567
 8991SOL    HW138609   0.638   3.377   6.259 -0.9904  0.0696 -1.1740
 8991SOL    HW238610   0.740   3.456   6.185  0.9770 -1.6565  1.0083
 8992SOL     OW38611   2.194   0.482   5.409 -0.4846 -0.0313  0.5249
 8992SOL    HW138612   2.125   0.428   5.370  0.5894  0.0514 -1.5041
 8992SOL    HW238613   2.179   0.568   5.370 -0.4370 -1.3129 -2.3907
 8993SOL     OW38614   2.119   0.238   2.750 -0.5708  0.3203 -0.1552
 8993SOL    HW138615   2.153   0.322   2.781 -2.2954  1.6104 -1.7621
 8993SOL    HW238616   2.186   0.194   2.699  0.7927  1.2563  0.8289
 8994SOL     OW38617   3.284   4.234  17.560 -0.3533  0.0631 -0.1221
 8994SOL    HW138618   3.249   4.237  17.471  0.6188 -0.5012 -0.5235
 8994SOL    HW238619   3.361   4.291  17.558 -0.5463  0.3141 -0.4420
 8995SOL     OW38620   3.734   3.991  13.764 -0.0032  0.3812  0.2397
 8995SOL    HW138621   3.766   3.947  13.843 -1.5740  0.7808  1.1098
 8995SOL    HW238622   3.643   3.962  13.763 -0.5391  2.0707 -0.5254
 8996SOL     OW38623   1.473   0.764   5.022  0.8755  0.1194  0.1463
 8996SOL    HW138624   1.473   0.825   4.949  0.8633 -0.1010 -0.0352
 8996SOL    HW238625   1.547   0.707   4.999  0.3761 -1.3928  2.2048
 8997SOL     OW38626   4.106   0.930   4.279  0.6161 -0.8457  0.1793
 8997SOL    HW138627   4.086   1.022   4.258 -0.8222 -1.2575 -0.2548
 8997SOL    HW238628   4.074   0.926   4.369  0.2253 -3.7733 -0.1101
 8998SOL     OW38629   2.167   2.202   8.020 -0.0651 -0.3071  0.1279
 8998SOL    HW138630   2.119   2.201   8.102 -1.5704 -0.6363 -0.7564
 8998SOL    HW238631   2.188   2.295   8.026 -2.2471  0.1324  1.0191
 8999SOL     OW38632   4.036   0.758   4.661  0.3540 -0.1558  0.1924
 8999SOL    HW138633   4.112   0.716   4.622  1.7232  2.2007  0.3503
 8999SOL    HW238634   4.038   0.709   4.743 -0.3998 -0.9442 -0.2505
 9000SOL     OW38635   1.204   0.426  12.557 -0.0494 -0.2113 -0.1223
 9000SOL    HW138636   1.122   0.463  12.526  0.0890  0.4562  0.3163
 9000SOL    HW238637   1.264   0.465  12.494 -2.1345 -0.2936 -2.1809
 9001SOL     OW38638   1.818   3.534  13.470 -0.2142  0.4863 -0.0593
 9001SOL    HW138639   1.752   3.571  13.412  0.9154 -0.5394 -2.0194
 9001SOL    HW238640   1.836   3.450  13.428 -0.7524  1.0031 -1.3387
 9002SOL     OW38641   3.853   0.255   3.291  0.3333 -0.2993 -0.5417
 9002SOL    HW138642   3.904   0.324   3.334  0.3558 -1.5269  1.4115
 9002SOL    HW238643   3.863   0.180   3.350 -2.0693 -0.2344 -0.0342
 9003SOL     OW38644   0.787   0.451   1.491  0.1013 -0.1762  0.5753
 9003SOL    HW138645   0.772   0.512   1.419  0.0963  2.1884  2.5883
 9003SOL    HW238646   0.874   0.478   1.519 -0.5376  1.3685  1.0752
 9004SOL     OW38647   3.379   0.997   0.540 -0.2887 -0.3312 -0.0834
 9004SOL    HW138648   3.423   1.044   0.469 -1.7039  0.1737 -0.6203
 9004SOL    HW238649   3.304   1.049   0.567 -0.0792  0.6491 -1.4326
 9005SOL     OW38650   4.131   2.890   2.189 -0.1131  0.2067  0.0501
 9005SOL    HW138651   4.083   2.972   2.203  0.6666  0.7989 -0.7300
 9005SOL    HW238652   4.074   2.830   2.142 -0.2718 -0.6715  1.3616
 9006SOL     OW38653   0.661   2.689  11.190 -0.2886  0.2336 -0.1235
 9006SOL    HW138654   0.616   2.699  11.106  0.5884  0.3065 -0.5911
 9006SOL    HW238655   0.615   2.621  11.238  0.7376 -0.8210 -0.6074
 9007SOL     OW38656   3.498   3.691  14.883 -1.1546  0.1221  0.1640
 9007SOL    HW138657   3.577   3.744  14.887 -2.5168  2.1815 -0.4789
 9007SOL    HW238658   3.520   3.632  14.811  0.0712  0.9027 -0.0900
 9008SOL     OW38659   4.267   2.804   5.335 -0.6215 -0.4376  0.2816
 9008SOL    HW138660   4.339   2.861   5.310  0.0036 -1.2911  0.1456
 9008SOL    HW238661   4.186   2.851   5.314 -0.0169  0.4953  0.0446
 9009SOL     OW38662   0.722   0.416  11.670 -0.4417  0.3861 -0.6133
 9009SOL    HW138663   0.785   0.345  11.658 -0.4960  0.0606  1.0022
 9009SOL    HW238664   0.647   0.366  11.700  0.7189 -1.8047 -1.4128
 9010SOL     OW38665   3.478   1.690   5.749 -0.4822 -0.3491  0.2488
 9010SOL    HW138666   3.503   1.687   5.842  2.6645 -0.9546 -0.6209
 9010SOL    HW238667   3.539   1.630   5.706 -0.9560 -0.2324 -0.5756
 9011SOL     OW38668   2.127   1.437   8.561 -0.5889  0.1305 -0.0254
 9011SOL    HW138669   2.200   1.495   8.539 -1.8457  1.5467 -0.4571
 9011SOL    HW238670   2.059   1.503   8.575 -1.3088 -0.3303 -1.2869
 9012SOL     OW38671   4.564   2.291   3.515 -0.5904 -0.5618 -0.2739
 9012SOL    HW138672   4.594   2.267   3.603 -1.4726  1.7765  0.6653
 9012SOL    HW238673   4.558   2.209   3.466  0.7284 -1.2873  0.7876
 9013SOL     OW38674   0.665   0.544   6.866 -0.4731  0.2971  0.1294
 9013SOL    HW138675   0.709   0.509   6.789  1.5376  0.8303  1.0306
 9013SOL    HW238676   0.578   0.566   6.832 -1.7842 -1.5247  2.2792
 9014SOL     OW38677   3.074   0.895   2.257  0.3715 -0.0590 -0.0910
 9014SOL    HW138678   3.018   0.848   2.318 -0.9705 -0.6888 -1.7910
 9014SOL    HW238679   3.147   0.835   2.239  1.1831  0.7929  0.3303
 9015SOL     OW38680   1.396   2.539  12.000  0.1368  0.3047  0.4385
 9015SOL    HW138681   1.378   2.549  11.907  2.3838 -1.8273 -0.2192
 9015SOL    HW238682   1.413   2.630  12.025  2.9250 -0.1265  0.0641
 9016SOL     OW38683   0.988   4.075  17.470 -0.0309 -0.0293 -0.0433
 9016SOL    HW138684   0.954   4.119  17.392 -1.8072 -2.0411 -0.4147
 9016SOL    HW238685   1.038   4.005  17.427 -0.5334 -0.2936 -0.1981
 9017SOL     OW38686   2.252   0.210   4.494  0.5057 -0.2264  0.3905
 9017SOL    HW138687   2.347   0.199   4.502  0.5377  0.1370  0.4821
 9017SOL    HW238688   2.210   0.145   4.551  0.8762  0.0225  0.9475
 9018SOL     OW38689   3.372   0.912   6.355 -0.0883  0.6609  0.0519
 9018SOL    HW138690   3.370   0.860   6.275 -0.3645 -3.4017  2.7393
 9018SOL    HW238691   3.284   0.946   6.367  0.3319  1.3926  1.0338
 9019SOL     OW38692   3.548   3.806   6.139 -0.3210 -0.0977  0.1467
 9019SOL    HW138693   3.521   3.723   6.178 -1.3748 -0.8137 -2.1230
 9019SOL    HW238694   3.557   3.864   6.216 -1.8316 -2.3589  2.0198
 9020SOL     OW38695   0.126   3.539   2.967 -0.4263  0.0324 -0.4024
 9020SOL    HW138696   0.196   3.601   2.946 -0.6651  0.5976  0.4866
 9020SOL    HW238697   0.053   3.588   2.929 -1.4342  0.4513  2.0995
 9021SOL     OW38698   0.961   4.611  16.834  0.0207  0.1760 -0.4631
 9021SOL    HW138699   0.866   4.600  16.834 -0.0440  0.8856 -3.5552
 9021SOL    HW238700   0.965   4.690  16.780 -2.3642  0.2864 -0.4829
 9022SOL     OW38701   3.844   0.861   7.294 -0.0848  0.4498  0.8173
 9022SOL    HW138702   3.837   0.920   7.369 -0.6718 -1.1865  2.0733
 9022SOL    HW238703   3.891   0.915   7.231  2.6789 -1.8248  0.9410
 9023SOL     OW38704   1.766   0.854   6.766 -0.2094 -0.5791 -0.5405
 9023SOL    HW138705   1.804   0.936   6.734  1.3734 -1.7316 -1.5819
 9023SOL    HW238706   1.691   0.852   6.707  1.9832 -1.6871 -3.3068
 9024SOL     OW38707   4.186   0.109   6.810 -0.3806 -0.1293  0.1046
 9024SOL    HW138708   4.195   0.036   6.749 -2.1985  0.2632 -0.6279
 9024SOL    HW238709   4.247   0.169   6.767 -2.0650  1.0399 -0.6485
 9025SOL     OW38710   2.130   4.077  11.359  0.2785 -0.0788 -0.2013
 9025SOL    HW138711   2.180   3.995  11.365  1.0395  0.5428  1.9160
 9025SOL    HW238712   2.117   4.096  11.452  3.0408 -0.8561  0.3461
 9026SOL     OW38713   3.581   2.707   4.831  0.3585  1.0159  0.5341
 9026SOL    HW138714   3.528   2.642   4.878 -1.5192  1.2610 -1.2452
 9026SOL    HW238715   3.512   2.762   4.794  0.9182 -0.2307 -2.3536
 9027SOL     OW38716   0.197   3.185   7.266 -0.2414 -0.5624  0.2506
 9027SOL    HW138717   0.140   3.150   7.197  1.2950  0.4031 -1.4984
 9027SOL    HW238718   0.189   3.112   7.328 -0.6282 -1.4950 -0.8898
 9028SOL     OW38719   1.750   2.290  12.714 -0.1325  0.5494  0.5059
 9028SOL    HW138720   1.680   2.296  12.649  0.8863  1.0746 -0.5532
 9028SOL    HW238721   1.792   2.376  12.704 -0.1725  0.4827 -0.2327
 9029SOL     OW38722   0.511   3.732   7.838 -0.6424  0.1576 -0.6293
 9029SOL    HW138723   0.440   3.795   7.838 -0.6360  0.1473  0.9842
 9029SOL    HW238724   0.579   3.774   7.785  0.0051 -0.2813 -0.1414
 9030SOL     OW38725   3.035   4.230  10.656  0.0713 -0.2652  0.3236
 9030SOL    HW138726   2.958   4.287  10.651  1.4820  1.4970 -1.4130
 9030SOL    HW238727   2.991   4.159  10.703 -0.6460 -0.5419 -0.7762
 9031SOL     OW38728   3.774   0.572   2.390 -0.2651 -0.1789  0.4031
 9031SOL    HW138729   3.757   0.599   2.300  0.7276 -1.2685 -0.1062
 9031SOL    HW238730   3.682   0.563   2.416 -0.1019 -1.6748  0.4680
 9032SOL     OW38731   1.840   2.744  14.459 -0.0489 -0.6681  0.1760
 9032SOL    HW138732   1.840   2.772  14.368  0.1296 -0.2208  0.3098
 9032SOL    HW238733   1.772   2.799  14.499  1.6038  0.1446  1.9107
 9033SOL     OW38734   2.727   3.913   3.722 -0.5553 -0.2119 -0.5129
 9033SOL    HW138735   2.661   3.968   3.680 -3.3363 -1.5302  2.0730
 9033SOL    HW238736   2.691   3.911   3.811  1.7617  2.5099  0.4714
 9034SOL     OW38737   1.639   3.848   6.728  0.0792 -0.3477  0.3702
 9034SOL    HW138738   1.682   3.845   6.813  0.8087  1.1695  0.0611
 9034SOL    HW238739   1.689   3.784   6.678 -0.0761  0.0564 -0.3062
 9035SOL     OW38740   3.278   0.749  10.306  0.4261 -0.0240 -0.0548
 9035SOL    HW138741   3.240   0.820  10.357 -0.0200 -0.7693  0.6463
 9035SOL    HW238742   3.353   0.713  10.353  0.6211 -0.7483 -0.9155
 9036SOL     OW38743   0.818   0.477   6.628  0.6029  0.1563 -0.8243
 9036SOL    HW138744   0.840   0.557   6.677  1.7260 -0.3613 -0.4834
 9036SOL    HW238745   0.818   0.500   6.536 -1.9682 -0.9315 -1.0796
 9037SOL     OW38746   0.335   4.222   6.898  0.6139  0.5037  0.6994
 9037SOL    HW138747   0.359   4.134   6.868 -2.2074 -0.4533  1.2250
 9037SOL    HW238748   0.243   4.208   6.918  0.2687 -0.7024 -1.7728
 9038SOL     OW38749   1.812   2.866   2.138 -0.2418  0.2017 -0.3355
 9038SOL    HW138750   1.845   2.954   2.124  1.7602 -0.7485 -1.6463
 9038SOL    HW238751   1.897   2.821   2.149  0.6429  2.1341  0.7597
 9039SOL     OW38752   4.521   4.588   6.827  0.2407 -0.4202  0.1771
 9039SOL    HW138753   4.598   4.610   6.775 -0.4924  2.9308  0.5041
 9039SOL    HW238754   4.561   4.620   6.908  0.2858  0.6802 -0.2674
 9040SOL     OW38755   2.693   0.390   2.273  0.1181  0.3453  0.1647
 9040SOL    HW138756   2.663   0.299   2.281  0.0792  0.0997 -2.5840
 9040SOL    HW238757   2.739   0.395   2.356  1.1772  1.7535 -0.5212
 9041SOL     OW38758   0.182   1.276   4.794  0.0591  0.1543  0.3405
 9041SOL    HW138759   0.158   1.205   4.735  0.7268 -0.6514  1.0421
 9041SOL    HW238760   0.142   1.251   4.877 -0.1421 -0.8132 -0.0500
 9042SOL     OW38761   1.249   0.972   9.523  0.3784  0.2828 -0.1460
 9042SOL    HW138762   1.184   0.960   9.592  2.0894 -2.8638  0.9273
 9042SOL    HW238763   1.307   0.895   9.526  1.0233  0.7111 -1.5256
 9043SOL     OW38764   3.953   2.808   3.310  0.8356 -0.5771 -0.5000
 9043SOL    HW138765   3.974   2.846   3.225 -1.0305  0.2442 -0.5974
 9043SOL    HW238766   4.036   2.819   3.355 -0.3622  3.0867  0.7944
 9044SOL     OW38767   2.847   2.142   6.307  0.4673 -0.4258  0.2144
 9044SOL    HW138768   2.874   2.223   6.351  1.8165 -0.3653 -0.7602
 9044SOL    HW238769   2.872   2.070   6.365  2.2126 -0.1377 -0.1919
 9045SOL     OW38770   0.956   0.463   9.290 -0.0538  0.4719 -0.3872
 9045SOL    HW138771   0.906   0.535   9.251 -0.1414  1.1963  1.0627
 9045SOL    HW238772   0.883   0.401   9.294  0.4834 -0.0377  1.1730
 9046SOL     OW38773   1.289   0.363   7.216  0.2902  0.4933  0.5963
 9046SOL    HW138774   1.377   0.401   7.223  1.6980 -2.5065 -0.8048
 9046SOL    HW238775   1.270   0.320   7.299  0.2403 -0.8438 -0.1133
 9047SOL     OW38776   4.646   0.544  13.728  0.8852  0.3966  1.0086
 9047SOL    HW138777   4.668   0.522  13.818  0.7899 -1.9178  0.4674
 9047SOL    HW238778   4.698   0.622  13.710 -0.1915  0.6171 -1.1544
 9048SOL     OW38779   3.636   2.077   0.260 -0.2034 -0.0864 -0.2467
 9048SOL    HW138780   3.683   2.002   0.298  0.3994  1.1044  1.3437
 9048SOL    HW238781   3.683   2.106   0.182  0.6833 -0.5811  0.0917
 9049SOL     OW38782   1.906   0.850  12.905  0.9518  0.1593 -0.5462
 9049SOL    HW138783   1.847   0.853  12.980 -0.8535  0.5626 -1.9962
 9049SOL    HW238784   1.974   0.902  12.949  0.8577  1.4476 -1.9262
 9050SOL     OW38785   1.864   1.487   5.600 -0.4248  0.4721  0.5425
 9050SOL    HW138786   1.830   1.402   5.571  0.9487  0.1995 -0.2717
 9050SOL    HW238787   1.780   1.520   5.633 -0.7712 -0.3170  0.4660
 9051SOL     OW38788   4.031   0.078   9.236  0.2715  0.2496 -0.2654
 9051SOL    HW138789   4.067   0.012   9.177 -1.6407 -1.8488  0.9185
 9051SOL    HW238790   4.020   0.029   9.318  0.6805  0.0740 -0.3164
 9052SOL     OW38791   3.132   3.062  11.690  0.4149  0.2502 -0.3259
 9052SOL    HW138792   3.156   2.970  11.684  0.4729  0.2155  0.5055
 9052SOL    HW238793   3.221   3.094  11.703  0.7644 -0.4737 -0.9334
 9053SOL     OW38794   1.992   1.005   9.934  0.2886 -0.1151  0.2297
 9053SOL    HW138795   2.030   0.919   9.951  0.3378 -0.0307  0.5612
 9053SOL    HW238796   1.972   1.047  10.018  1.3565  3.5303 -1.3144
 9054SOL     OW38797   1.206   2.172   8.190  0.6223  0.0283 -0.0565
 9054SOL    HW138798   1.112   2.153   8.192  0.3700  1.1627 -0.6853
 9054SOL    HW238799   1.220   2.162   8.096 -1.3950  1.2317 -0.5092
 9055SOL     OW38800   3.639   4.248   3.860 -0.1427 -0.1209  0.0692
 9055SOL    HW138801   3.656   4.246   3.954 -0.6650 -0.6959  0.1499
 9055SOL    HW238802   3.700   4.177   3.841 -0.6194 -0.3363 -0.6546
 9056SOL     OW38803   4.017   0.442  10.504  0.0431  0.0794 -0.4952
 9056SOL    HW138804   4.095   0.424  10.556 -0.4736  2.6448  1.1369
 9056SOL    HW238805   3.964   0.362  10.514 -0.0198  0.2108  0.2141
 9057SOL     OW38806   0.362   4.271  15.911 -0.3871  0.5410 -0.1876
 9057SOL    HW138807   0.383   4.348  15.857  2.5651 -0.1258  0.0243
 9057SOL    HW238808   0.413   4.204  15.866  2.0438  1.0302  1.8439
 9058SOL     OW38809   1.193   3.122   5.804  1.1740  0.1267  0.0742
 9058SOL    HW138810   1.188   3.040   5.756  1.5961 -0.4233  0.9639
 9058SOL    HW238811   1.264   3.100   5.865 -0.9138 -1.6970  1.8544
 9059SOL     OW38812   4.415   4.695   9.040 -0.0251 -0.1730  0.4974
 9059SOL    HW138813   4.421   4.624   9.105 -0.7806 -0.6714  0.0176
 9059SOL    HW238814   4.488   0.018   9.063 -0.2105  0.7201 -1.1510
 9060SOL     OW38815   2.986   4.705   0.242  0.4501  0.5076 -0.2206
 9060SOL    HW138816   2.960   4.617   0.269 -0.5413  0.3811 -1.6122
 9060SOL    HW238817   3.046   4.690   0.168 -1.1783 -0.3922 -1.3444
 9061SOL     OW38818   0.934   3.032   5.264 -0.0183 -0.2260  0.4279
 9061SOL    HW138819   0.857   2.992   5.304 -0.5043 -0.2234 -0.4957
 9061SOL    HW238820   0.974   2.954   5.226 -0.9129  0.2457 -1.5178
 9062SOL     OW38821   1.820   1.329  12.856 -0.5351 -0.1580 -0.0811
 9062SOL    HW138822   1.755   1.382  12.809  0.0631  0.2088 -0.4902
 9062SOL    HW238823   1.765   1.290  12.924  1.7518 -0.3593  1.6419
 9063SOL     OW38824   4.534   4.228  10.756  0.2957  0.3275  0.4862
 9063SOL    HW138825   4.442   4.209  10.742  0.7054 -1.0274 -0.3706
 9063SOL    HW238826   4.551   4.160  10.821  0.6100 -0.1041 -0.0504
 9064SOL     OW38827   3.437   0.602  10.480 -0.3515 -0.3358 -0.2288
 9064SOL    HW138828   3.429   0.517  10.522 -0.2078 -0.4975 -0.5283
 9064SOL    HW238829   3.518   0.636  10.518 -1.0911  2.1179 -0.8143
 9065SOL     OW38830   4.376   3.104   3.101 -0.6924 -0.5633  0.1163
 9065SOL    HW138831   4.392   3.128   3.010  1.8030 -0.2627  0.6320
 9065SOL    HW238832   4.320   3.180   3.112 -1.6153 -1.2293  0.0449
 9066SOL     OW38833   4.317   1.486   2.679  0.3568 -0.2794  0.1540
 9066SOL    HW138834   4.382   1.417   2.687 -0.7741 -1.2450  0.9405
 9066SOL    HW238835   4.230   1.450   2.662  0.4567 -0.8874  0.9648
 9067SOL     OW38836   0.578   0.949   7.286 -0.4293  0.0432 -0.5558
 9067SOL    HW138837   0.672   0.965   7.294  0.0938 -1.7955 -2.8338
 9067SOL    HW238838   0.546   0.938   7.375 -1.8891  2.6833 -0.7615
 9068SOL     OW38839   2.053   1.955   3.551 -0.2028 -0.4978  0.4432
 9068SOL    HW138840   2.100   2.034   3.523  0.2364 -0.2674  1.8191
 9068SOL    HW238841   2.051   1.970   3.646 -0.1904 -0.1169  0.3844
 9069SOL     OW38842   3.426   3.831   1.770 -0.3075 -0.3840  0.2573
 9069SOL    HW138843   3.395   3.917   1.740 -0.4047  0.0032  1.4891
 9069SOL    HW238844   3.436   3.798   1.681  4.4003  1.1697  0.1840
 9070SOL     OW38845   3.769   4.629   1.159  0.0910 -0.3419 -0.2146
 9070SOL    HW138846   3.729   4.615   1.245  0.5206  0.2652  0.0789
 9070SOL    HW238847   3.722   4.570   1.101  1.7155 -1.7232 -0.1234
 9071SOL     OW38848   0.024   2.443   3.279  0.4543  0.2136  0.2097
 9071SOL    HW138849   0.084   2.430   3.205 -1.0082  0.0803 -0.9491
 9071SOL    HW238850   4.685   2.387   3.254  1.6311 -0.5263 -1.7195
 9072SOL     OW38851   1.108   2.150   0.110  0.1877  0.3060 -0.1399
 9072SOL    HW138852   1.165   2.085   0.070  0.2113  0.3789 -0.2238
 9072SOL    HW238853   1.148   2.145   0.197 -0.8174 -0.9908  0.2603
 9073SOL     OW38854   0.651   0.716  12.211 -0.0180 -0.1502 -0.4310
 9073SOL    HW138855   0.598   0.685  12.137 -0.1610  0.0205 -0.4006
 9073SOL    HW238856   0.721   0.773  12.180  0.0357  0.1172  0.1685
 9074SOL     OW38857   3.097   1.137   8.520  0.1175 -0.3252  0.2589
 9074SOL    HW138858   3.165   1.088   8.474  2.4868  3.1088  0.1239
 9074SOL    HW238859   3.101   1.229   8.494 -3.2545 -0.7986 -1.9218
 9075SOL     OW38860   1.829   0.516   4.453 -0.2208 -0.7905  0.4131
 9075SOL    HW138861   1.768   0.482   4.518  0.8921  0.0645  1.9005
 9075SOL    HW238862   1.848   0.432   4.411  0.3277  0.0189 -0.9726
 9076SOL     OW38863   4.427   0.633   7.482  0.0670 -0.0604  0.0633
 9076SOL    HW138864   4.489   0.696   7.520  0.9711 -0.5493 -0.6149
 9076SOL    HW238865   4.394   0.594   7.563  1.8218  0.4521  1.0312
 9077SOL     OW38866   2.980   3.658   1.686  0.0472  0.1106  0.5688
 9077SOL    HW138867   3.024   3.739   1.662 -0.1359 -0.2761 -1.0916
 9077SOL    HW238868   3.030   3.594   1.636  1.0359  1.1063  0.2834
 9078SOL     OW38869   0.551   3.208   7.923  0.0680 -0.0359  0.1840
 9078SOL    HW138870   0.484   3.167   7.869  2.0943  0.0237 -2.3711
 9078SOL    HW238871   0.549   3.297   7.887  1.6866 -0.1602 -0.2204
 9079SOL     OW38872   2.887   4.260   6.809  0.0568  0.2582 -0.0449
 9079SOL    HW138873   2.792   4.267   6.821  0.1653 -1.3558  1.7443
 9079SOL    HW238874   2.906   4.350   6.781 -2.8032  1.1318  0.8280
 9080SOL     OW38875   2.311   3.913  13.238  0.6330  0.0321  0.6875
 9080SOL    HW138876   2.278   4.001  13.258 -0.3451 -0.3301  0.6874
 9080SOL    HW238877   2.298   3.909  13.144  0.7885  1.3374  0.6238
 9081SOL     OW38878   0.350   3.387   8.804  0.1929 -0.9324  0.4054
 9081SOL    HW138879   0.321   3.395   8.713  0.0919  0.2211  0.5275
 9081SOL    HW238880   0.289   3.450   8.843  1.7819  0.9888 -0.2219
 9082SOL     OW38881   4.571   3.965   2.626 -0.0551  0.1040  0.1229
 9082SOL    HW138882   4.513   3.932   2.558 -0.0348  0.4212 -0.0464
 9082SOL    HW238883   4.542   3.911   2.700 -1.0739  0.1039 -0.2769
 9083SOL     OW38884   3.414   4.253   8.488  0.0698  0.2047  0.0741
 9083SOL    HW138885   3.496   4.276   8.444 -0.0431  0.6631  0.1101
 9083SOL    HW238886   3.345   4.277   8.425 -1.5240 -1.5543  1.1267
 9084SOL     OW38887   1.443   1.036   6.957 -0.0798  0.0416 -0.0527
 9084SOL    HW138888   1.365   1.062   7.006  0.9277  0.8369  1.1374
 9084SOL    HW238889   1.512   1.102   6.968 -1.8560  2.2469 -2.2875
 9085SOL     OW38890   3.148   2.020   2.844 -0.2500 -0.0796  0.6002
 9085SOL    HW138891   3.076   1.960   2.862  0.1394 -1.3226 -1.9201
 9085SOL    HW238892   3.191   1.966   2.777  1.6404  1.0624  0.8805
 9086SOL     OW38893   4.312   2.778   4.890 -0.1422 -0.0819 -0.3632
 9086SOL    HW138894   4.297   2.718   4.817  2.3123  0.7544 -1.5288
 9086SOL    HW238895   4.271   2.723   4.957  1.8877 -0.7211  0.3575
 9087SOL     OW38896   2.576   0.204   9.229  0.0830  0.0497  0.3627
 9087SOL    HW138897   2.607   0.290   9.259 -0.6080  0.6486 -0.6146
 9087SOL    HW238898   2.505   0.180   9.288 -2.0983  1.6626 -1.6193
 9088SOL     OW38899   0.391   0.656   8.490 -0.0774 -0.6336  0.2493
 9088SOL    HW138900   0.424   0.583   8.439 -2.0252 -1.2360 -0.1729
 9088SOL    HW238901   0.440   0.646   8.571  0.7356 -1.4181 -0.3484
 9089SOL     OW38902   2.025   4.397   4.896 -0.1046  0.0079 -0.1833
 9089SOL    HW138903   2.118   4.385   4.915  0.2376 -0.0865 -1.9410
 9089SOL    HW238904   2.015   4.346   4.815 -1.8166 -1.1607  0.7524
 9090SOL     OW38905   0.449   0.074   9.724 -0.2668 -0.6272  0.5923
 9090SOL    HW138906   0.368   0.101   9.766 -0.0826  1.7782 -0.5845
 9090SOL    HW238907   0.515   0.089   9.792  0.6967  3.1195 -1.1767
 9091SOL     OW38908   1.874   0.861   2.151 -0.0413  0.1837  1.2213
 9091SOL    HW138909   1.909   0.869   2.062 -1.3718 -0.5076  0.6314
 9091SOL    HW238910   1.781   0.846   2.131 -0.2771  1.5743  1.2231
 9092SOL     OW38911   4.024   3.131   2.272 -0.0487 -0.4193 -0.1167
 9092SOL    HW138912   4.037   3.170   2.185 -3.9779  0.1018 -0.4831
 9092SOL    HW238913   3.931   3.109   2.264 -0.2127  1.4042 -3.3385
 9093SOL     OW38914   1.007   2.347  15.095 -0.0236 -0.1326 -0.4862
 9093SOL    HW138915   1.005   2.306  15.009 -1.3412 -0.9198 -0.0815
 9093SOL    HW238916   1.086   2.401  15.098  0.7873 -1.3370 -0.2917
 9094SOL     OW38917   1.097   1.330   9.803  0.8068 -0.5339  0.3066
 9094SOL    HW138918   1.141   1.384   9.868  0.4801  1.6196 -1.2570
 9094SOL    HW238919   1.106   1.387   9.726 -0.7050  0.2835  0.7437
 9095SOL     OW38920   2.523   0.565   2.134  0.7071  0.4233 -0.5994
 9095SOL    HW138921   2.584   0.502   2.172 -1.1110 -1.4069 -0.7448
 9095SOL    HW238922   2.580   0.605   2.068  1.0835 -2.1805 -1.8306
 9096SOL     OW38923   1.200   1.857   3.929  0.0733 -0.0734  0.5181
 9096SOL    HW138924   1.257   1.904   3.867 -2.1925  0.4917 -1.1065
 9096SOL    HW238925   1.264   1.832   3.996 -0.6653 -0.2114  1.1597
 9097SOL     OW38926   1.451   0.670  10.978  0.5840  0.2734 -0.1808
 9097SOL    HW138927   1.500   0.617  11.042  0.9022 -0.0911 -0.7278
 9097SOL    HW238928   1.408   0.726  11.043 -0.3340  0.3736 -0.8790
 9098SOL     OW38929   4.666   2.005  16.355 -0.0863 -0.4719  0.2527
 9098SOL    HW138930   4.624   1.969  16.277  1.6390 -0.2879 -0.7569
 9098SOL    HW238931   4.618   1.948  16.415  0.6605 -0.0121  1.2739
 9099SOL     OW38932   0.822   1.972   9.026  0.2289 -0.1309 -0.3123
 9099SOL    HW138933   0.748   1.937   9.076  0.2027  1.7733  0.9660
 9099SOL    HW238934   0.883   1.903   9.055 -0.4848 -0.5098  0.2850
 9100SOL     OW38935   2.087   0.524   7.069 -0.0680  0.1423  0.4343
 9100SOL    HW138936   2.028   0.451   7.090 -1.7343  0.4843 -2.9778
 9100SOL    HW238937   2.121   0.473   6.995 -2.0803  2.1482 -1.8558
 9101SOL     OW38938   1.367   1.881   9.130 -0.4510 -0.0556  0.1554
 9101SOL    HW138939   1.307   1.956   9.126  1.2858  1.2961 -0.6655
 9101SOL    HW238940   1.438   1.900   9.070 -1.6145 -0.6557 -1.4110
 9102SOL     OW38941   3.298   2.405   2.124  0.0694 -0.4295 -0.0312
 9102SOL    HW138942   3.260   2.331   2.173 -0.1922  0.8820  1.7413
 9102SOL    HW238943   3.216   2.440   2.091  0.8079  0.1972 -1.1885
 9103SOL     OW38944   0.762   0.908   5.264 -0.6216  0.4714  0.1053
 9103SOL    HW138945   0.738   0.999   5.285  0.3982  0.6493  0.4730
 9103SOL    HW238946   0.756   0.868   5.350  1.9889  2.2271  1.1034
 9104SOL     OW38947   3.857   4.097   2.826  0.2027 -0.1706 -0.1325
 9104SOL    HW138948   3.845   4.184   2.866  2.4431  0.5971 -1.1256
 9104SOL    HW238949   3.770   4.057   2.830 -0.7595  1.7686 -1.5359
 9105SOL     OW38950   1.820   1.136  13.645 -0.5212 -0.1144  0.0320
 9105SOL    HW138951   1.886   1.069  13.629 -0.8758 -0.3554 -0.4420
 9105SOL    HW238952   1.853   1.180  13.723  1.3233 -2.8075  0.7442
 9106SOL     OW38953   2.293   3.914   2.300  0.0969  0.4968 -0.5108
 9106SOL    HW138954   2.355   3.987   2.294  2.9193 -1.7986  0.4408
 9106SOL    HW238955   2.315   3.880   2.387  0.8392  0.0061 -0.8864
 9107SOL     OW38956   2.524   3.467   8.776  0.2592  0.4909 -0.0022
 9107SOL    HW138957   2.589   3.511   8.831  0.6023 -0.6546  0.5082
 9107SOL    HW238958   2.455   3.533   8.788  0.3262  0.7754 -1.1715
 9108SOL     OW38959   2.996   1.524   2.944 -0.1431 -0.1653 -0.3922
 9108SOL    HW138960   3.090   1.545   2.940 -0.2637  0.4101 -0.3107
 9108SOL    HW238961   2.973   1.558   3.031  0.4287  1.0976 -0.7227
 9109SOL     OW38962   4.726   2.033   5.570  0.2415  0.0863  0.2939
 9109SOL    HW138963   4.665   2.019   5.497  2.4395 -1.6548 -1.1906
 9109SOL    HW238964   0.015   2.124   5.550  1.1333 -0.5374 -1.4373
 9110SOL     OW38965   1.822   0.844  11.501 -0.7653 -0.5144  0.1655
 9110SOL    HW138966   1.747   0.868  11.447  1.6224  3.4422 -1.3806
 9110SOL    HW238967   1.903   0.856  11.452 -2.5817 -0.3667 -2.8073
 9111SOL     OW38968   2.503   2.692  12.644 -0.0628 -0.3408  0.6607
 9111SOL    HW138969   2.550   2.696  12.561 -0.2610  2.2946  0.6805
 9111SOL    HW238970   2.529   2.605  12.673 -3.8385 -1.8436 -0.4116
 9112SOL     OW38971   1.889   3.140   3.357  0.0314  0.0474  0.1803
 9112SOL    HW138972   1.839   3.210   3.315 -1.0288 -0.6362  0.3136
 9112SOL    HW238973   1.976   3.180   3.356  0.0581  0.0233  2.3634
 9113SOL     OW38974   4.193   3.100   2.489  0.3705 -0.6116 -0.4801
 9113SOL    HW138975   4.139   3.126   2.414 -0.0640  0.5618  0.2491
 9113SOL    HW238976   4.216   3.014   2.453  0.8111 -0.0998 -1.4279
 9114SOL     OW38977   4.425   0.484  16.737 -0.5262 -0.3704 -0.1495
 9114SOL    HW138978   4.354   0.457  16.795 -2.0272  2.1621 -0.8249
 9114SOL    HW238979   4.499   0.433  16.770 -3.1851 -3.2306  1.4431
 9115SOL     OW38980   4.673   3.942   5.483  0.3450 -0.0702  0.0597
 9115SOL    HW138981   4.595   3.996   5.469 -0.2976 -0.3407  2.5753
 9115SOL    HW238982   4.643   3.851   5.476 -2.4892  0.5339  4.4587
 9116SOL     OW38983   0.087   2.366   5.204  0.0923 -0.1031 -0.8182
 9116SOL    HW138984   0.157   2.403   5.150  0.1941  1.3098  0.2792
 9116SOL    HW238985   0.009   2.402   5.162  0.7561  1.6417 -0.5521
 9117SOL     OW38986   3.971   4.516  14.268  0.1665  0.7252 -0.0456
 9117SOL    HW138987   3.914   4.482  14.200  3.5812 -0.6667 -2.2425
 9117SOL    HW238988   3.973   4.608  14.242 -4.4660  0.0519 -2.6703
 9118SOL     OW38989   1.007   4.431   4.519  0.0604 -0.0277 -0.0354
 9118SOL    HW138990   1.002   4.363   4.452  1.4755  0.2052 -0.3648
 9118SOL    HW238991   0.958   4.507   4.486  3.9134  0.7251 -4.0110
 9119SOL     OW38992   3.682   3.807   4.164  0.0080 -0.5119  0.1752
 9119SOL    HW138993   3.631   3.789   4.243 -1.9583  0.2771 -0.9101
 9119SOL    HW238994   3.735   3.728   4.172 -0.9651 -1.0853  0.8679
 9120SOL     OW38995   1.195   2.927  15.752  0.2250  0.4970 -0.3702
 9120SOL    HW138996   1.256   2.982  15.702  1.9822  0.8073  2.1717
 9120SOL    HW238997   1.113   2.942  15.704 -0.3213  2.2044  1.0868
 9121SOL     OW38998   4.272   2.276   7.844  0.2412 -0.0914 -0.1701
 9121SOL    HW138999   4.198   2.264   7.784 -1.7846 -0.0090  2.2698
 9121SOL    HW239000   4.340   2.310   7.787  2.1821  1.5696  3.0945
 9122SOL     OW39001   0.825   1.923   3.151  0.1307 -0.1844  0.0679
 9122SOL    HW139002   0.810   1.965   3.066 -0.5738 -1.1402 -0.2824
 9122SOL    HW239003   0.908   1.882   3.129  0.6753  1.7727 -1.4196
 9123SOL     OW39004   4.613   0.528   3.827 -0.1904  0.3207 -0.2603
 9123SOL    HW139005   4.671   0.589   3.784 -0.1505 -0.0374 -0.7100
 9123SOL    HW239006   4.676   0.467   3.865 -0.6210 -0.1630 -0.3131
 9124SOL     OW39007   2.180   0.584   0.499 -0.9241  0.4561  0.0884
 9124SOL    HW139008   2.264   0.593   0.544 -1.5248  2.0389  0.8880
 9124SOL    HW239009   2.201   0.614   0.410 -1.1283  0.7927  0.1554
 9125SOL     OW39010   0.878   4.721  16.587  0.3535  0.0245  0.2103
 9125SOL    HW139011   0.870   4.718  16.491 -0.5198 -1.6215  0.3343
 9125SOL    HW239012   0.854   0.077  16.604  0.9421  0.1815  0.2218
 9126SOL     OW39013   0.528   2.655   3.661 -0.0649  0.1281 -0.2498
 9126SOL    HW139014   0.611   2.665   3.707 -0.0992 -0.9937  0.0606
 9126SOL    HW239015   0.529   2.734   3.607 -2.0085  0.7432  0.5815
 9127SOL     OW39016   4.310   0.502   1.527 -0.6327  0.1652  0.2130
 9127SOL    HW139017   4.249   0.510   1.453 -1.4866  1.1354  1.0290
 9127SOL    HW239018   4.334   0.409   1.533 -2.9098 -0.4331 -0.0052
 9128SOL     OW39019   1.396   4.231  16.626 -0.0500  0.4701  0.4227
 9128SOL    HW139020   1.450   4.161  16.664  1.0409  0.9225 -0.2813
 9128SOL    HW239021   1.326   4.240  16.690 -0.2456 -1.0477  0.4247
 9129SOL     OW39022   4.539   3.448   6.826 -0.6070  0.2025  0.1786
 9129SOL    HW139023   4.585   3.504   6.764 -1.2496 -2.2498 -2.5411
 9129SOL    HW239024   4.609   3.412   6.879 -1.3094 -0.5192  0.6144
 9130SOL     OW39025   0.320   2.152   8.870  0.8307  0.0617  0.0275
 9130SOL    HW139026   0.275   2.074   8.838  0.3067  0.9747 -1.4704
 9130SOL    HW239027   0.401   2.146   8.819 -0.3971  1.9455 -2.1787
 9131SOL     OW39028   2.877   1.721   6.497 -0.2025  0.2001  0.0117
 9131SOL    HW139029   2.877   1.642   6.443  0.0377  0.8747 -0.9667
 9131SOL    HW239030   2.929   1.679   6.566  1.1835 -2.3470 -2.5511
 9132SOL     OW39031   1.417   1.361  17.731 -0.3387 -0.1663  0.0969
 9132SOL    HW139032   1.329   1.396   0.006 -1.5649 -2.3223 -2.5957
 9132SOL    HW239033   1.423   1.316   0.078  1.3005  0.0410  0.0983
 9133SOL     OW39034   4.559   3.485   2.027  0.3607 -0.3615  0.0238
 9133SOL    HW139035   4.619   3.436   2.084 -0.8796 -1.9775 -0.0688
 9133SOL    HW239036   4.474   3.454   2.057 -0.4345 -0.5871 -2.5249
 9134SOL     OW39037   4.197   1.614   7.896  0.7068  0.2786  0.4558
 9134SOL    HW139038   4.179   1.644   7.985 -1.5541 -0.5269  0.2788
 9134SOL    HW239039   4.263   1.547   7.913  0.9081  0.2167 -0.6071
 9135SOL     OW39040   1.551   3.420   6.203 -0.0541  0.4148 -0.0324
 9135SOL    HW139041   1.525   3.475   6.278  1.6718 -1.8201  2.2055
 9135SOL    HW239042   1.468   3.389   6.168  0.9244  0.6231 -2.5194
 9136SOL     OW39043   4.269   1.613   4.680  0.2191  0.3027 -0.0700
 9136SOL    HW139044   4.330   1.678   4.646  0.0544  0.1430 -0.6721
 9136SOL    HW239045   4.182   1.650   4.663 -1.5989 -3.2016  1.6713
 9137SOL     OW39046   3.153   3.429   5.025  0.1503  0.5240  0.6371
 9137SOL    HW139047   3.089   3.420   4.954 -2.0560  1.0081  2.5760
 9137SOL    HW239048   3.127   3.344   5.062 -0.7413  0.3638 -0.3610
 9138SOL     OW39049   2.616   4.255  13.889 -0.3948  0.0131 -0.0985
 9138SOL    HW139050   2.615   4.308  13.810 -0.4252 -1.0987 -0.8379
 9138SOL    HW239051   2.574   4.320  13.945  1.1537  1.1322 -0.2527
 9139SOL     OW39052   4.002   4.674   3.583 -0.5789  0.3400 -0.2738
 9139SOL    HW139053   4.012   4.683   3.678  0.1576 -1.4510 -0.1729
 9139SOL    HW239054   3.998   0.030   3.554 -0.1870  0.5242  0.2429
 9140SOL     OW39055   0.383   1.926   8.556 -0.1433  0.5114  0.5186
 9140SOL    HW139056   0.453   1.869   8.523  0.2582  1.7238 -0.6945
 9140SOL    HW239057   0.334   1.937   8.474 -0.1803  0.0681  0.4774
 9141SOL     OW39058   3.951   3.653   5.489 -0.1227 -0.1540 -0.2319
 9141SOL    HW139059   3.904   3.669   5.571  0.3991 -0.2415  0.0878
 9141SOL    HW239060   4.035   3.615   5.516  1.2499  2.4102 -0.8937
 9142SOL     OW39061   3.630   0.258  15.425  0.2395  0.4435  0.3532
 9142SOL    HW139062   3.671   0.279  15.509 -0.8885  0.3909  0.9220
 9142SOL    HW239063   3.622   0.163  15.424  1.4486  0.3357  1.1433
 9143SOL     OW39064   4.021   3.890   3.698 -0.3865  0.0139 -0.1024
 9143SOL    HW139065   4.074   3.810   3.698 -0.5887 -0.1105  3.2171
 9143SOL    HW239066   4.077   3.954   3.653 -1.1565 -0.8459 -2.2887
 9144SOL     OW39067   3.146   3.829   3.374  0.0335  0.2222 -0.4677
 9144SOL    HW139068   3.125   3.906   3.322 -0.0366  0.6762  0.2268
 9144SOL    HW239069   3.065   3.827   3.425 -0.0442 -1.8717 -0.6483
 9145SOL     OW39070   0.898   2.763   2.591 -0.2056  0.1646  0.2846
 9145SOL    HW139071   0.832   2.723   2.534  0.9468  0.4847 -1.2849
 9145SOL    HW239072   0.849   2.737   2.669 -1.5267  1.8068  0.0135
 9146SOL     OW39073   1.877   0.803   7.295  0.0490  0.3048  0.4417
 9146SOL    HW139074   1.844   0.879   7.248 -3.0713 -0.5496  1.2113
 9146SOL    HW239075   1.934   0.765   7.228 -2.5441 -1.5314 -0.7166
 9147SOL     OW39076   2.777   1.152  14.223 -0.1826  0.9021  0.3172
 9147SOL    HW139077   2.859   1.146  14.271  0.0736  1.1205 -0.0931
 9147SOL    HW239078   2.798   1.159  14.130 -0.2943 -0.3441  0.2033
 9148SOL     OW39079   2.104   3.630   8.094 -0.2623  0.1360 -0.0127
 9148SOL    HW139080   2.179   3.594   8.141  1.0748  0.6404 -1.7872
 9148SOL    HW239081   2.075   3.703   8.148  1.1976  2.0555 -1.8668
 9149SOL     OW39082   2.009   1.943   5.984 -0.2546 -0.3008 -0.1284
 9149SOL    HW139083   1.979   1.897   5.906  0.9814 -2.7723  0.8818
 9149SOL    HW239084   1.930   1.990   6.013 -1.0274 -0.4143 -2.0511
 9150SOL     OW39085   2.090   4.221   6.170  0.3479 -0.0928 -0.3698
 9150SOL    HW139086   2.058   4.215   6.081 -0.7381 -0.3384  0.0424
 9150SOL    HW239087   2.184   4.235   6.156  0.5371 -0.3689  0.5848
 9151SOL     OW39088   0.303   0.575   7.626  0.0188 -0.1121 -0.0518
 9151SOL    HW139089   0.212   0.585   7.654  0.0584  0.2650 -0.0511
 9151SOL    HW239090   0.292   0.585   7.531 -0.6120  0.4720  0.0836
 9152SOL     OW39091   4.549   2.236  10.813  0.2240  0.4452  0.3771
 9152SOL    HW139092   4.627   2.256  10.762  0.8893 -1.0081  0.7917
 9152SOL    HW239093   4.549   2.140  10.815 -3.1182  0.4445  0.0172
 9153SOL     OW39094   1.650   0.941  16.303 -0.4564  0.5599 -0.4343
 9153SOL    HW139095   1.684   0.863  16.259 -2.5850 -1.3943  1.3853
 9153SOL    HW239096   1.612   0.911  16.386 -0.3679  0.8954 -0.2708
 9154SOL     OW39097   0.165   1.243   1.553  0.3639 -0.3990 -0.1665
 9154SOL    HW139098   0.109   1.305   1.506 -2.4650 -2.9807 -0.1854
 9154SOL    HW239099   0.102   1.182   1.590 -1.3683  2.1127  1.0410
 9155SOL     OW39100   4.531   3.756   1.931  0.2742  0.1527 -0.1549
 9155SOL    HW139101   4.460   3.752   1.996 -0.5503  1.3892 -0.9932
 9155SOL    HW239102   4.572   3.671   1.948  1.8400  0.4202 -2.6248
 9156SOL     OW39103   0.359   0.386   1.326 -0.4017  0.3573  0.0097
 9156SOL    HW139104   0.435   0.347   1.371 -0.0815 -0.1526 -0.9836
 9156SOL    HW239105   0.366   0.477   1.355  1.2683  0.8371 -1.9117
 9157SOL     OW39106   2.621   3.902   4.728  0.5311  0.4464  0.0054
 9157SOL    HW139107   2.579   3.893   4.642 -1.2244 -1.0227  1.0309
 9157SOL    HW239108   2.702   3.943   4.696  0.5907 -0.0574 -0.4878
 9158SOL     OW39109   0.444   2.862   2.543  0.6578 -0.5918 -0.4117
 9158SOL    HW139110   0.390   2.835   2.469 -1.1207  0.4511  0.5254
 9158SOL    HW239111   0.514   2.903   2.493  0.7022  0.1772  0.2905
 9159SOL     OW39112   0.016   1.923   9.404  0.4442  0.3030  0.5648
 9159SOL    HW139113   4.674   1.887   9.448  0.0228  0.9135  0.3249
 9159SOL    HW239114   0.063   1.967   9.475  2.7787 -1.3423  0.0581
 9160SOL     OW39115   0.851   3.921   8.937  0.1560  0.0594 -0.6276
 9160SOL    HW139116   0.783   3.855   8.925  1.1732 -0.4001 -3.8454
 9160SOL    HW239117   0.892   3.879   9.013  2.3673 -1.4634 -2.7031
 9161SOL     OW39118   2.028   1.747   8.458 -0.3784 -0.5469 -0.0524
 9161SOL    HW139119   2.114   1.759   8.417 -1.5029 -0.3803 -2.3390
 9161SOL    HW239120   2.014   1.836   8.492  0.2869 -0.7033  0.6594
 9162SOL     OW39121   2.697   3.382   4.480  0.2271 -0.4590 -0.3234
 9162SOL    HW139122   2.723   3.423   4.562 -1.1903  0.6590 -0.4187
 9162SOL    HW239123   2.755   3.306   4.487  2.9289  1.5974 -0.9270
 9163SOL     OW39124   1.817   3.345   2.577  0.4797  0.3170  0.0567
 9163SOL    HW139125   1.749   3.379   2.519 -0.3979 -1.0809  0.2660
 9163SOL    HW239126   1.808   3.414   2.643 -1.3759  1.3464 -1.2708
 9164SOL     OW39127   0.475   0.436   1.771 -0.3688  0.0645 -0.4236
 9164SOL    HW139128   0.547   0.375   1.789 -0.4180 -0.1749 -1.0641
 9164SOL    HW239129   0.427   0.390   1.703 -1.7156  1.4722 -0.4317
 9165SOL     OW39130   0.085   1.291   6.561  0.1586 -0.2558 -0.2468
 9165SOL    HW139131   0.169   1.251   6.541  0.1541 -1.1734  1.6218
 9165SOL    HW239132   0.059   1.232   6.631 -0.1857 -0.2517 -0.3709
 9166SOL     OW39133   2.908   3.594   7.511 -0.1510 -0.3016 -0.4237
 9166SOL    HW139134   2.871   3.528   7.570 -0.1422 -2.8622 -3.2328
 9166SOL    HW239135   2.914   3.668   7.571  1.5741 -1.9142  1.4311
 9167SOL     OW39136   0.947   0.003  14.566  0.5430 -0.0433 -0.1794
 9167SOL    HW139137   0.949   4.711  14.474  0.1978 -0.7133  0.0059
 9167SOL    HW239138   0.852   4.729  14.574  0.6679 -2.2155 -0.9861
 9168SOL     OW39139   1.822   0.110   9.065 -0.0570  0.3960  0.6382
 9168SOL    HW139140   1.757   0.051   9.104  0.6743 -1.0695 -0.3562
 9168SOL    HW239141   1.862   0.057   8.996 -0.7833  0.0562  0.4752
 9169SOL     OW39142   2.412   3.872   4.156 -0.5749  0.0247 -0.0653
 9169SOL    HW139143   2.421   3.932   4.230 -0.4202 -1.3535  1.0303
 9169SOL    HW239144   2.324   3.838   4.167 -0.9846  0.7041 -1.1576
 9170SOL     OW39145   0.874   2.829   5.961 -0.0796  0.0406 -0.0491
 9170SOL    HW139146   0.924   2.878   5.896  0.7406 -1.1177 -0.2985
 9170SOL    HW239147   0.821   2.780   5.898 -1.3955  1.1672  0.1844
 9171SOL     OW39148   0.773   4.664  15.651 -0.1203  0.2134 -0.6425
 9171SOL    HW139149   0.810   4.608  15.582 -1.2430  0.7549 -1.6752
 9171SOL    HW239150   0.858   4.694  15.683 -0.6266  1.7862 -0.7676
 9172SOL     OW39151   3.632   4.584   6.424  0.0163 -0.1102  0.1729
 9172SOL    HW139152   3.645   4.678   6.406  1.5791 -0.5487 -0.9549
 9172SOL    HW239153   3.718   4.553   6.452  0.0669 -1.1387 -1.1069
 9173SOL     OW39154   0.852   4.625   5.457  0.2255  0.3208  0.7209
 9173SOL    HW139155   0.900   4.707   5.445  0.1158 -0.0031 -1.8585
 9173SOL    HW239156   0.919   4.563   5.487  1.4257  1.9484  1.4166
 9174SOL     OW39157   1.144   0.138  16.628 -0.1046 -0.0976  0.1796
 9174SOL    HW139158   1.184   0.225  16.630 -0.3477  0.0247 -0.2544
 9174SOL    HW239159   1.060   0.163  16.666  0.2885  1.1982  0.2148
 9175SOL     OW39160   3.437   1.407   7.975 -0.2976 -0.6180  0.6218
 9175SOL    HW139161   3.381   1.474   7.935  2.4705  2.4340  1.8266
 9175SOL    HW239162   3.455   1.450   8.059 -2.8587  0.7718  0.4468
 9176SOL     OW39163   4.147   0.647   5.522  0.1765 -0.5078  0.6307
 9176SOL    HW139164   4.093   0.613   5.594 -0.8080 -0.1452  0.0631
 9176SOL    HW239165   4.083   0.695   5.470  0.9757  1.5294  1.5360
 9177SOL     OW39166   2.048   3.265   2.312 -0.6414  0.6058 -0.3993
 9177SOL    HW139167   2.116   3.331   2.302 -0.1303 -0.0615 -1.2826
 9177SOL    HW239168   2.099   3.212   2.373 -0.2100  1.1840 -0.2629
 9178SOL     OW39169   0.366   3.145   7.681  0.1146 -0.0299 -0.6167
 9178SOL    HW139170   0.445   3.131   7.629 -1.5291 -1.0309 -2.8322
 9178SOL    HW239171   0.324   3.062   7.660 -2.0725  0.9920 -0.2705
 9179SOL     OW39172   1.342   4.403   2.533  0.0163 -0.3084 -0.5479
 9179SOL    HW139173   1.370   4.382   2.622  0.1057 -0.3902 -0.5956
 9179SOL    HW239174   1.263   4.349   2.524 -0.1651  0.2441 -2.2261
 9180SOL     OW39175   2.492   0.985   6.397 -0.6090 -0.4339  0.5991
 9180SOL    HW139176   2.505   1.054   6.463 -1.4289  0.6642 -0.3994
 9180SOL    HW239177   2.494   0.904   6.448  0.4998 -0.9084 -0.1899
 9181SOL     OW39178   1.382   3.029   8.003  0.2309 -0.6191 -0.6609
 9181SOL    HW139179   1.357   2.937   8.003 -0.8456 -0.3327  1.5874
 9181SOL    HW239180   1.464   3.028   8.054 -0.5430 -0.8129  0.5955
 9182SOL     OW39181   2.827   0.937   1.474  0.1852 -0.2664  0.4089
 9182SOL    HW139182   2.794   0.968   1.558  1.3888  1.5795  0.1994
 9182SOL    HW239183   2.803   1.012   1.420 -0.6170 -0.6041  0.2995
 9183SOL     OW39184   2.421   3.366   1.439  0.3546 -0.4470 -0.2656
 9183SOL    HW139185   2.499   3.403   1.481 -0.9226  1.4000  0.5106
 9183SOL    HW239186   2.422   3.277   1.472  1.0941 -0.1080  0.6489
 9184SOL     OW39187   0.817   0.694  12.999  0.4294 -1.0807 -0.1074
 9184SOL    HW139188   0.818   0.743  13.081  0.6929  0.0870 -0.8162
 9184SOL    HW239189   0.745   0.633  13.012 -1.2203  1.6337  3.5759
 9185SOL     OW39190   0.768   3.089   4.945 -0.0064  0.8842 -0.2072
 9185SOL    HW139191   0.734   3.153   4.882 -1.3351  0.1627 -0.2116
 9185SOL    HW239192   0.716   3.109   5.023  1.5956  0.4341  0.9823
 9186SOL     OW39193   3.759   2.521  14.332 -0.6724 -0.1156 -0.0691
 9186SOL    HW139194   3.690   2.455  14.332  0.7172 -1.5961 -0.2525
 9186SOL    HW239195   3.817   2.508  14.407 -0.4076  2.5426  0.1934
 9187SOL     OW39196   1.710   3.346   3.161  0.2932  0.4849  0.1428
 9187SOL    HW139197   1.740   3.437   3.161  0.0094  0.5788 -1.8854
 9187SOL    HW239198   1.622   3.366   3.129  0.1266  1.2236  1.0517
 9188SOL     OW39199   3.149   3.240   8.720 -0.5963  0.3716 -0.2773
 9188SOL    HW139200   3.230   3.290   8.712 -2.1409  2.8705 -0.1769
 9188SOL    HW239201   3.119   3.272   8.805 -0.1081 -0.4913  0.2254
 9189SOL     OW39202   0.076   4.499   2.506  0.3261 -0.0662  0.2060
 9189SOL    HW139203   0.117   4.574   2.464  0.6305 -0.8655 -0.9226
 9189SOL    HW239204   4.721   4.530   2.517  0.2441 -0.6904  1.3190
 9190SOL     OW39205   3.087   0.915   5.533  0.3313  0.1032 -0.7295
 9190SOL    HW139206   3.080   0.993   5.587 -0.8485 -1.8235  1.9043
 9190SOL    HW239207   3.064   0.962   5.453  0.9651  1.2132 -0.2589
 9191SOL     OW39208   4.027   0.606   4.884 -0.3116 -0.0352  0.3686
 9191SOL    HW139209   4.096   0.587   4.948  0.1198 -2.3338 -0.7686
 9191SOL    HW239210   3.962   0.551   4.927  0.0750 -1.9173 -1.3815
 9192SOL     OW39211   0.767   0.280  14.256 -0.4213 -0.1604  0.4292
 9192SOL    HW139212   0.680   0.315  14.273 -0.6501  0.3859 -1.7967
 9192SOL    HW239213   0.753   0.265  14.162  0.6650  1.1887  0.0551
 9193SOL     OW39214   1.647   0.243   1.397  0.4589  0.2204 -0.5744
 9193SOL    HW139215   1.666   0.258   1.489  0.0911  0.7076 -0.5757
 9193SOL    HW239216   1.723   0.287   1.359  1.2291  0.3214  1.1209
 9194SOL     OW39217   2.592   1.826   2.901 -0.4988  0.0162 -0.6342
 9194SOL    HW139218   2.512   1.834   2.849 -0.6075 -0.3064 -0.5173
 9194SOL    HW239219   2.587   1.733   2.921  1.2919 -0.1447 -0.9784
 9195SOL     OW39220   3.989   3.510  12.700  0.1671  0.1379 -0.1073
 9195SOL    HW139221   3.933   3.485  12.774  0.6855  1.8459  0.8660
 9195SOL    HW239222   4.071   3.527  12.747  1.2041  0.2303 -1.9572
 9196SOL     OW39223   4.638   4.036  10.957 -0.1138 -0.4176 -0.2111
 9196SOL    HW139224   4.599   3.949  10.970  0.4639 -0.6759 -0.2043
 9196SOL    HW239225   4.706   4.021  11.023  0.3806  0.6056 -0.4942
 9197SOL     OW39226   1.847   2.393   7.865  0.2823 -0.1278 -0.4115
 9197SOL    HW139227   1.809   2.471   7.824 -0.5732  0.2311  1.0750
 9197SOL    HW239228   1.842   2.418   7.957  0.6062  0.2247 -0.4849
 9198SOL     OW39229   4.002   1.114   8.148  0.1601  0.1824 -0.2178
 9198SOL    HW139230   4.022   1.200   8.113 -2.3835  1.1485  0.7020
 9198SOL    HW239231   4.070   1.112   8.214  0.0200 -0.4592 -0.0888
 9199SOL     OW39232   2.212   0.687  14.340 -0.0042 -0.2261 -0.1836
 9199SOL    HW139233   2.282   0.690  14.405  0.5733  0.8939 -0.8512
 9199SOL    HW239234   2.220   0.778  14.310  0.7619  0.1972  1.2965
 9200SOL     OW39235   1.618   2.526   6.652  0.7009 -0.1854  0.1569
 9200SOL    HW139236   1.669   2.447   6.672 -0.2118 -0.8055  0.0413
 9200SOL    HW239237   1.673   2.598   6.681  1.1784 -0.0506 -1.0762
 9201SOL     OW39238   2.851   3.250   8.109 -0.2769 -0.1995  0.5111
 9201SOL    HW139239   2.908   3.280   8.038 -0.5281  0.0129  0.4005
 9201SOL    HW239240   2.894   3.172   8.145  1.7602 -0.0361 -1.5503
 9202SOL     OW39241   2.667   2.461   1.528 -0.6690  0.3665 -0.5203
 9202SOL    HW139242   2.756   2.462   1.564 -1.1694  1.1797  0.6997
 9202SOL    HW239243   2.674   2.505   1.444  0.9126  1.3353  0.1224
 9203SOL     OW39244   3.998   4.378   9.815 -0.1559 -0.2203  0.5726
 9203SOL    HW139245   4.077   4.421   9.783  0.3017 -0.8325  0.8653
 9203SOL    HW239246   4.036   4.303   9.860  1.4801  0.2454 -0.0318
 9204SOL     OW39247   4.478   4.485   6.511  0.3040 -0.1433 -0.2696
 9204SOL    HW139248   4.554   4.506   6.565 -0.6195  0.1447  0.9094
 9204SOL    HW239249   4.520   4.470   6.426  1.5860 -1.3813  0.5891
 9205SOL     OW39250   3.533   0.476   5.211  0.4743 -0.5090 -0.4696
 9205SOL    HW139251   3.549   0.423   5.288  0.7112  1.1362  0.6112
 9205SOL    HW239252   3.472   0.424   5.159  1.7602  0.4516 -2.9435
 9206SOL     OW39253   2.320   2.102   0.826  0.6292 -0.1529 -1.0276
 9206SOL    HW139254   2.397   2.081   0.773  2.2747  2.1331  0.4701
 9206SOL    HW239255   2.313   2.197   0.814 -1.9986 -0.3301 -0.8143
 9207SOL     OW39256   1.536   1.901   7.308  0.1520 -0.1428 -0.2022
 9207SOL    HW139257   1.605   1.872   7.248 -0.2933  0.6970 -1.1241
 9207SOL    HW239258   1.555   1.853   7.389 -0.6858  1.8277  1.1709
 9208SOL     OW39259   4.718   2.491  12.168  0.1347  0.0422  0.8483
 9208SOL    HW139260   4.735   2.568  12.115  0.3274 -0.2451  0.4915
 9208SOL    HW239261   4.734   2.523  12.257  2.5983  1.6374 -0.1915
 9209SOL     OW39262   1.738   4.470   2.930  0.3701  0.4069 -0.1431
 9209SOL    HW139263   1.791   4.540   2.969  0.1121  0.8028 -0.4945
 9209SOL    HW239264   1.645   4.494   2.938  0.0825 -1.1039  0.9832
 9210SOL     OW39265   1.974   4.582   5.085  0.3779  0.1339  0.1357
 9210SOL    HW139266   1.992   4.517   5.016  1.0710  1.0489 -0.5429
 9210SOL    HW239267   1.910   4.636   5.038  2.1961 -0.4978 -3.0983
 9211SOL     OW39268   1.451   4.563   7.820 -0.1863  0.6984 -0.8215
 9211SOL    HW139269   1.387   4.618   7.866  1.6380  3.2005 -1.2585
 9211SOL    HW239270   1.474   4.614   7.742 -2.2206 -0.6475 -2.2751
 9212SOL     OW39271   2.103   3.779   9.101  0.0739  0.0699  0.4185
 9212SOL    HW139272   2.172   3.822   9.150 -0.5294  0.5284  0.8544
 9212SOL    HW239273   2.081   3.710   9.164 -0.6426 -1.3459 -1.3543
 9213SOL     OW39274   0.506   0.298  13.119  0.3363 -0.5110  0.4272
 9213SOL    HW139275   0.420   0.340  13.128  0.5803  0.4208 -1.5277
 9213SOL    HW239276   0.538   0.327  13.034 -0.5598 -1.5998 -0.2794
 9214SOL     OW39277   0.581   1.961   9.203  0.1651 -1.1870 -0.8486
 9214SOL    HW139278   0.554   1.999   9.286 -0.2053  0.1761 -1.6028
 9214SOL    HW239279   0.496   1.952   9.158 -0.2964 -2.7454  0.3190
 9215SOL     OW39280   1.616   3.693  16.969  0.6028 -0.1486 -0.2571
 9215SOL    HW139281   1.649   3.695  16.879  1.3935 -4.5472 -0.0500
 9215SOL    HW239282   1.611   3.598  16.981  1.4625  0.0993  2.1538
 9216SOL     OW39283   1.513   4.608   9.500 -0.3240  0.3659 -0.0247
 9216SOL    HW139284   1.584   4.608   9.564 -0.4426  1.5122  0.1014
 9216SOL    HW239285   1.530   4.527   9.453 -0.7547  0.5301 -0.4597
 9217SOL     OW39286   1.053   3.925   9.716  0.2512  0.3538  0.3737
 9217SOL    HW139287   0.985   3.864   9.743 -2.1403  3.3415  1.1032
 9217SOL    HW239288   1.135   3.890   9.751  0.4748 -0.7668 -1.2769
 9218SOL     OW39289   4.659   2.606   2.146 -0.0858 -0.5256  0.1624
 9218SOL    HW139290   4.627   2.517   2.132 -1.8032  0.2832 -1.0403
 9218SOL    HW239291   4.648   2.642   2.059 -0.1392 -0.6174  0.1313
 9219SOL     OW39292   1.561   0.330   4.523  0.5678 -0.3564  0.1667
 9219SOL    HW139293   1.509   0.252   4.540 -2.3365  1.0031 -2.4533
 9219SOL    HW239294   1.582   0.312   4.432 -1.4097  2.4902 -0.8555
 9220SOL     OW39295   4.212   1.848   5.326  0.1790  0.0656 -0.2872
 9220SOL    HW139296   4.193   1.800   5.245 -0.4907 -2.4005  1.3433
 9220SOL    HW239297   4.172   1.780   5.379 -0.8852 -0.0308 -1.2204
 9221SOL     OW39298   1.637   1.286   4.376  0.3465  0.4047 -0.1318
 9221SOL    HW139299   1.616   1.242   4.294 -1.5319 -0.5104  0.8562
 9221SOL    HW239300   1.697   1.223   4.417  0.4571  0.4163 -0.2768
 9222SOL     OW39301   2.697   1.467   9.054 -0.1131 -0.1592 -0.2541
 9222SOL    HW139302   2.742   1.397   9.007  0.2860 -1.9017  2.6966
 9222SOL    HW239303   2.771   1.515   9.091 -0.3502 -0.9751  1.3003
 9223SOL     OW39304   3.934   4.142  11.417  0.3362 -0.3462  0.5520
 9223SOL    HW139305   3.920   4.235  11.402  2.1678 -0.3450 -1.1704
 9223SOL    HW239306   4.028   4.144  11.438 -0.1232  1.8403  2.4801
 9224SOL     OW39307   0.741   2.432   7.146 -0.1603  0.0063  0.2704
 9224SOL    HW139308   0.786   2.410   7.064 -0.7279  3.4047 -0.9765
 9224SOL    HW239309   0.815   2.423   7.207  1.4490  1.6443 -1.4194
 9225SOL     OW39310   4.325   0.975   5.526  0.4042 -0.1272  0.1874
 9225SOL    HW139311   4.348   0.894   5.570 -1.7028 -0.1486  1.2514
 9225SOL    HW239312   4.234   0.993   5.549  0.2910  0.5596 -0.7790
 9226SOL     OW39313   2.323   3.264   3.538  0.1323  0.1924  0.1393
 9226SOL    HW139314   2.373   3.277   3.619  1.8720  1.6719 -1.1694
 9226SOL    HW239315   2.317   3.171   3.558  2.4771  0.2740  1.1892
 9227SOL     OW39316   1.444   0.041   6.424  0.1136  0.0190  0.9356
 9227SOL    HW139317   1.349   0.048   6.438 -0.0823 -0.4502 -0.1828
 9227SOL    HW239318   1.476   0.019   6.512 -0.5059 -0.1635  1.1154
 9228SOL     OW39319   2.608   1.790   6.524  0.0565 -0.2853  0.2540
 9228SOL    HW139320   2.589   1.791   6.430 -2.4383  0.8832  0.7712
 9228SOL    HW239321   2.704   1.787   6.530 -0.0079 -0.4986  1.1734
 9229SOL     OW39322   0.837   0.742  15.326 -0.0611 -0.2023 -0.0903
 9229SOL    HW139323   0.835   0.788  15.242  0.6673 -2.4343 -1.3224
 9229SOL    HW239324   0.809   0.656  15.296 -0.3982 -0.5654  1.2518
 9230SOL     OW39325   3.009   4.086   5.867 -0.0497 -0.0962 -0.0624
 9230SOL    HW139326   3.083   4.028   5.886 -1.3407 -1.6119  0.3034
 9230SOL    HW239327   3.000   4.117   5.957  1.2283 -1.2998  0.4873
 9231SOL     OW39328   2.967   4.719   6.922  0.0571 -0.5124 -0.9881
 9231SOL    HW139329   3.017   0.020   6.995  0.4504 -1.5882 -0.7369
 9231SOL    HW239330   2.954   0.072   6.884  3.2799 -0.3985 -1.8229
 9232SOL     OW39331   2.250   0.498   5.685 -0.3064 -0.0447 -0.0222
 9232SOL    HW139332   2.309   0.423   5.691  0.0872  0.2286 -0.5014
 9232SOL    HW239333   2.223   0.489   5.593  1.1872 -0.6004 -0.4050
 9233SOL     OW39334   0.475   0.138  12.683  0.1936  0.7769 -0.2704
 9233SOL    HW139335   0.532   0.176  12.749  1.3505 -0.5845 -0.4845
 9233SOL    HW239336   0.526   0.127  12.603  1.0869 -1.3028  0.5888
 9234SOL     OW39337   4.425   4.224   7.344 -0.1006  0.0162  0.3999
 9234SOL    HW139338   4.515   4.194   7.358 -0.1050  0.3334  1.1007
 9234SOL    HW239339   4.374   4.162   7.396  1.1281 -0.4074  1.1046
 9235SOL     OW39340   1.306   4.040   6.291  0.0992 -0.8012 -0.0796
 9235SOL    HW139341   1.267   4.085   6.367  0.5013 -0.6536  0.0387
 9235SOL    HW239342   1.312   4.111   6.227 -1.6009 -1.5229 -1.0406
 9236SOL     OW39343   3.303   2.140   3.769 -0.1914  0.1395  0.0397
 9236SOL    HW139344   3.386   2.180   3.794 -0.3004 -0.9529  2.1349
 9236SOL    HW239345   3.249   2.147   3.848 -1.7913 -2.5241 -0.8107
 9237SOL     OW39346   3.550   2.188   5.203 -0.1182 -0.1465  0.4786
 9237SOL    HW139347   3.478   2.161   5.145  0.4392 -1.4209  0.3756
 9237SOL    HW239348   3.576   2.106   5.245 -0.7702 -1.1214 -0.9838
 9238SOL     OW39349   1.247   0.782   5.577  0.1253 -0.4656  0.6596
 9238SOL    HW139350   1.248   0.693   5.542  2.1147 -0.0226 -0.4433
 9238SOL    HW239351   1.341   0.799   5.579  0.4178 -2.2010  1.3424
 9239SOL     OW39352   3.041   4.308   9.057 -0.7083 -0.5196  0.0061
 9239SOL    HW139353   3.090   4.241   9.105 -0.9739 -1.7594 -1.4395
 9239SOL    HW239354   3.046   4.277   8.967  0.3784  2.5275 -0.9681
 9240SOL     OW39355   0.163   1.880   0.400  0.2424 -0.5486  0.3665
 9240SOL    HW139356   0.197   1.940   0.334 -0.0280 -1.2616 -0.4328
 9240SOL    HW239357   0.177   1.797   0.355  1.4238  0.2175 -0.6700
 9241SOL     OW39358   2.907   0.933   8.442  0.2599  0.6584  0.0773
 9241SOL    HW139359   2.905   0.923   8.347 -0.7887 -1.4801  0.3147
 9241SOL    HW239360   2.968   1.006   8.454  0.3062  0.5923  0.2472
 9242SOL     OW39361   1.654   1.513   1.966 -0.0875 -0.6911 -0.4167
 9242SOL    HW139362   1.711   1.558   2.029 -2.6883  1.1133  0.6929
 9242SOL    HW239363   1.577   1.568   1.984  0.6844  0.2600  0.0071
 9243SOL     OW39364   0.063   4.721   6.392  0.1112 -0.2741 -0.0524
 9243SOL    HW139365   0.138   0.037   6.360 -1.4937  2.3447  0.3632
 9243SOL    HW239366   0.065   4.638   6.344  0.2325 -0.4607  0.2715
 9244SOL     OW39367   0.207   4.698  11.373 -0.3552 -0.1222  0.2722
 9244SOL    HW139368   0.264   4.722  11.299  0.2811  1.2277  1.2012
 9244SOL    HW239369   0.190   0.049  11.412 -0.5717 -0.1478  0.2313
 9245SOL     OW39370   1.829   2.850   3.372  0.6264  0.3537  0.2253
 9245SOL    HW139371   1.850   2.942   3.391  1.9216  0.3168 -1.0121
 9245SOL    HW239372   1.735   2.848   3.357  1.0070 -1.9703 -1.7663
 9246SOL     OW39373   0.956   0.326   7.250  0.0264  0.3729  0.3087
 9246SOL    HW139374   1.005   0.381   7.310  0.8051 -1.4129  1.3157
 9246SOL    HW239375   0.904   0.393   7.206  1.8864  1.2430 -0.5609
 9247SOL     OW39376   0.034   0.338   3.944 -0.5418  0.2274  0.1039
 9247SOL    HW139377   4.696   0.297   3.989 -0.9607  1.7633  0.8236
 9247SOL    HW239378   0.084   0.370   4.019  0.0781  0.1828 -0.2890
 9248SOL     OW39379   3.624   1.742  14.101  0.0572 -0.0984  0.5277
 9248SOL    HW139380   3.550   1.790  14.064  0.9380  0.4106 -0.5625
 9248SOL    HW239381   3.586   1.703  14.180 -0.5508  2.0913  1.3227
 9249SOL     OW39382   4.721   1.458  14.017  0.5009  0.7590 -0.0937
 9249SOL    HW139383   4.707   1.541  14.063  0.1308  1.1313 -0.8645
 9249SOL    HW239384   4.674   1.396  14.072  0.9728  1.2748  0.8919
 9250SOL     OW39385   4.547   3.542   3.565 -0.1025  0.0217  0.2100
 9250SOL    HW139386   4.555   3.542   3.469  1.0714  3.2363  0.3015
 9250SOL    HW239387   4.469   3.487   3.575  0.8015 -0.7224  3.0329
 9251SOL     OW39388   2.943   1.888  12.312  0.3106  0.0374 -0.1712
 9251SOL    HW139389   2.993   1.848  12.242 -1.6362  0.3158 -1.7194
 9251SOL    HW239390   2.862   1.836  12.309 -0.8642  2.0502 -2.6408
 9252SOL     OW39391   1.983   3.654  10.691  0.2272 -0.4249  0.2175
 9252SOL    HW139392   2.003   3.574  10.740  4.0519  0.6663  0.3805
 9252SOL    HW239393   1.888   3.642  10.695 -0.3390  3.5979 -1.6707
 9253SOL     OW39394   1.696   0.156   6.854  0.5653  0.6580 -0.1087
 9253SOL    HW139395   1.705   0.085   6.917  1.9626  1.4581  0.5716
 9253SOL    HW239396   1.685   0.227   6.918 -0.4318  0.2792  0.1416
 9254SOL     OW39397   4.474   2.909  17.445  0.8858 -0.5409 -0.3489
 9254SOL    HW139398   4.393   2.951  17.417  0.2391 -1.1262  0.6769
 9254SOL    HW239399   4.497   2.945  17.531  1.4446  0.0628 -0.7474
 9255SOL     OW39400   3.279   2.022   4.583  0.0040 -0.2684 -0.2111
 9255SOL    HW139401   3.334   2.038   4.506  2.1078  1.7428  1.7394
 9255SOL    HW239402   3.255   1.929   4.575  0.2894 -0.2815 -0.9155
 9256SOL     OW39403   0.369   2.655  11.662 -0.3446 -0.0650  0.3727
 9256SOL    HW139404   0.393   2.734  11.711  1.0355  0.5727 -1.3170
 9256SOL    HW239405   0.455   2.638  11.625  0.5714  1.8034  1.6932
 9257SOL     OW39406   4.628   2.736   7.133  0.8132  0.1021 -0.5933
 9257SOL    HW139407   4.568   2.806   7.105 -0.5508  1.0964  4.8773
 9257SOL    HW239408   4.600   2.730   7.224 -1.5471  0.2452 -1.3142
 9258SOL     OW39409   2.843   3.503   4.724  0.2707 -0.2374  0.1908
 9258SOL    HW139410   2.932   3.488   4.756  0.0290  0.6248  1.2839
 9258SOL    HW239411   2.787   3.468   4.793 -0.9003  0.9675 -0.1275
 9259SOL     OW39412   1.783   4.392   6.138 -0.0869  0.0228  0.0475
 9259SOL    HW139413   1.730   4.399   6.216 -1.1414  0.8168 -0.7483
 9259SOL    HW239414   1.868   4.424   6.170 -0.8043  0.7587  1.1929
 9260SOL     OW39415   0.504   1.280   6.515 -0.2358 -0.1901 -0.4064
 9260SOL    HW139416   0.438   1.211   6.502  0.1835 -0.0281 -3.4207
 9260SOL    HW239417   0.586   1.242   6.545 -0.6251 -1.1567 -0.5520
 9261SOL     OW39418   0.524   2.079   8.720  0.2413  0.4300 -0.4310
 9261SOL    HW139419   0.478   2.029   8.652  2.4613  0.7854 -2.2253
 9261SOL    HW239420   0.604   2.027   8.730  0.5918  1.2098  0.7673
 9262SOL     OW39421   1.419   3.976   5.332  0.6369  0.0080  0.4527
 9262SOL    HW139422   1.503   3.983   5.377  0.7363 -2.4158  0.6425
 9262SOL    HW239423   1.454   3.950   5.247  0.2702  3.4964 -0.7991
 9263SOL     OW39424   3.765   0.576   5.062 -0.0193  0.1604  0.0307
 9263SOL    HW139425   3.693   0.539   5.113  1.9957 -1.1591  1.9295
 9263SOL    HW239426   3.825   0.502   5.068 -0.3398 -0.0478  0.7937
 9264SOL     OW39427   3.934   3.139   1.386  0.1560 -0.0114  0.4256
 9264SOL    HW139428   3.954   3.075   1.454  3.3413  1.1342  0.5402
 9264SOL    HW239429   4.013   3.137   1.332 -0.9727 -1.3015 -1.1670
 9265SOL     OW39430   0.293   2.689   3.150  0.1821  0.6369  0.3165
 9265SOL    HW139431   0.197   2.687   3.156  0.3817 -2.0354  2.5261
 9265SOL    HW239432   0.312   2.658   3.239 -1.1742  0.0581  0.4165
 9266SOL     OW39433   4.008   3.328  13.431 -0.0457  0.0994  0.2316
 9266SOL    HW139434   4.040   3.384  13.502  2.4994 -1.9577  0.7084
 9266SOL    HW239435   4.022   3.238  13.462 -3.2416  0.0611  1.5450
 9267SOL     OW39436   1.060   3.795  16.054 -0.0161 -0.2152  0.7633
 9267SOL    HW139437   1.155   3.794  16.041 -0.3396  0.1586 -1.7046
 9267SOL    HW239438   1.023   3.880  16.033  1.0973 -0.1602 -0.9826
 9268SOL     OW39439   1.749   1.731   0.522 -0.4234  0.3238  0.6603
 9268SOL    HW139440   1.710   1.661   0.574 -2.7850  0.3779 -1.0568
 9268SOL    HW239441   1.824   1.763   0.573  0.9856 -1.1188 -0.4976
 9269SOL     OW39442   1.655   4.065  14.931 -0.1530  0.2103  0.0478
 9269SOL    HW139443   1.654   3.990  14.991  0.3646 -1.0888 -1.5348
 9269SOL    HW239444   1.581   4.036  14.877  1.1004 -1.1638 -0.9307
 9270SOL     OW39445   3.017   1.701  16.794 -0.4488  0.2249  0.3063
 9270SOL    HW139446   3.079   1.638  16.757 -1.6829 -0.9773  0.2876
 9270SOL    HW239447   3.068   1.782  16.803 -0.3616  0.0314  1.5977
 9271SOL     OW39448   1.495   2.760   3.744  0.0699  0.6663 -0.7711
 9271SOL    HW139449   1.428   2.747   3.677  0.0701 -1.1996 -0.4222
 9271SOL    HW239450   1.562   2.718   3.690  0.8278 -1.0796  1.4717
 9272SOL     OW39451   1.564   2.644  10.324 -0.6208  0.8853  0.1740
 9272SOL    HW139452   1.587   2.707  10.393  2.5492 -0.1519  0.0418
 9272SOL    HW239453   1.486   2.607  10.365 -1.7548 -0.2859 -3.1306
 9273SOL     OW39454   3.943   1.169   6.845  0.3379 -0.4870  0.3734
 9273SOL    HW139455   4.024   1.179   6.895 -0.6598  2.3009  1.4846
 9273SOL    HW239456   3.878   1.143   6.911  0.6666  0.2237  0.9883
 9274SOL     OW39457   3.226   4.004   2.887 -0.2224 -0.0701 -0.8480
 9274SOL    HW139458   3.314   3.977   2.859  0.9078  1.9354  0.7901
 9274SOL    HW239459   3.216   3.952   2.967 -1.9158  0.4243 -0.7381
 9275SOL     OW39460   4.325   0.569  10.542  0.0669 -0.6551  0.4766
 9275SOL    HW139461   4.235   0.587  10.513  1.3091  0.9441 -2.3938
 9275SOL    HW239462   4.320   0.506  10.613 -0.3739 -2.0602 -0.8009
 9276SOL     OW39463   1.226   2.872   7.494  0.2290 -0.2290 -0.6237
 9276SOL    HW139464   1.281   2.881   7.417 -0.9863 -0.6498 -1.5375
 9276SOL    HW239465   1.257   2.937   7.558 -0.8458  1.2145 -1.5588
 9277SOL     OW39466   1.024   1.139   7.704 -0.0096  0.1759  0.1434
 9277SOL    HW139467   1.055   1.125   7.794 -0.7116 -1.5012  0.1309
 9277SOL    HW239468   0.938   1.174   7.726 -0.6080 -0.5388 -1.0782
 9278SOL     OW39469   1.581   3.696  14.753 -0.1755 -0.6574  0.7338
 9278SOL    HW139470   1.567   3.757  14.680 -2.1760 -1.8595  0.1224
 9278SOL    HW239471   1.499   3.694  14.802 -0.0010  2.0701  1.1803
 9279SOL     OW39472   1.106   1.894   8.403  0.6926  0.3166  0.3911
 9279SOL    HW139473   1.123   1.800   8.402 -0.3938  0.1235 -0.2883
 9279SOL    HW239474   1.026   1.890   8.349  1.3290 -0.3021 -0.4992
 9280SOL     OW39475   0.313   0.716   5.590  0.3578  0.1846 -0.0981
 9280SOL    HW139476   0.246   0.664   5.545  2.3754 -1.8529 -0.7887
 9280SOL    HW239477   0.330   0.654   5.661 -0.3046  0.6102  0.4296
 9281SOL     OW39478   4.183   0.204   8.464 -0.1405  0.1777  0.5470
 9281SOL    HW139479   4.249   0.270   8.444 -0.7646  0.5886 -0.1469
 9281SOL    HW239480   4.142   0.188   8.379  1.9955  1.1753 -0.6838
 9282SOL     OW39481   4.346   1.489   4.075  0.5030 -0.2411  0.6525
 9282SOL    HW139482   4.323   1.452   4.159  1.5155  0.7267  1.3658
 9282SOL    HW239483   4.428   1.534   4.095  0.4110 -1.1843  3.0569
 9283SOL     OW39484   3.708   1.005   7.725  0.4772  0.2634 -0.1472
 9283SOL    HW139485   3.790   0.975   7.686 -1.4292 -1.6309 -2.6475
 9283SOL    HW239486   3.728   1.097   7.744  0.1099  0.3615 -0.2445
 9284SOL     OW39487   3.883   0.456  11.753 -0.6316  0.0738 -0.7036
 9284SOL    HW139488   3.959   0.449  11.811 -0.0096 -0.5159 -1.5735
 9284SOL    HW239489   3.935   0.459  11.672  0.2965 -1.0156 -0.1625
 9285SOL     OW39490   3.668   0.914   8.975 -0.6548  0.3693 -0.2000
 9285SOL    HW139491   3.709   0.957   9.050 -0.3351 -0.2763 -0.0050
 9285SOL    HW239492   3.613   0.846   9.014 -1.9342 -0.9416 -4.2194
 9286SOL     OW39493   3.389   0.731   7.784  0.2937 -0.1250 -0.9320
 9286SOL    HW139494   3.392   0.635   7.792 -0.6874 -0.2144 -1.6089
 9286SOL    HW239495   3.446   0.747   7.859 -1.2603  1.2338 -0.0416
 9287SOL     OW39496   2.197   0.694   4.636  0.1598  0.2563  0.2349
 9287SOL    HW139497   2.239   0.764   4.685  0.2489  0.0546  0.4476
 9287SOL    HW239498   2.265   0.658   4.578 -1.9400 -3.2880 -0.0165
 9288SOL     OW39499   3.300   3.000   4.832  0.1032  0.0006 -0.2620
 9288SOL    HW139500   3.306   2.909   4.803 -0.6196 -0.9673  2.6617
 9288SOL    HW239501   3.244   3.049   4.772  2.1143  1.9250 -0.5466
 9289SOL     OW39502   0.859   1.562   8.088  0.3417  0.2209  0.4373
 9289SOL    HW139503   0.850   1.650   8.125  0.5476  0.7873 -0.8387
 9289SOL    HW239504   0.777   1.562   8.038  0.5790  0.1583  0.0457
 9290SOL     OW39505   2.749   2.744   9.107  0.5719 -0.4876 -0.3556
 9290SOL    HW139506   2.813   2.762   9.038  0.4672 -1.0085 -0.5908
 9290SOL    HW239507   2.679   2.701   9.058  0.2053  1.2735 -1.3855
 9291SOL     OW39508   3.592   1.894   2.155 -0.3652  0.1433  0.0105
 9291SOL    HW139509   3.685   1.896   2.180 -0.7689  2.8300  1.1870
 9291SOL    HW239510   3.576   1.988   2.156 -3.7463 -0.4648  2.2058
 9292SOL     OW39511   3.082   3.992  10.967 -0.1050 -0.3287  0.3881
 9292SOL    HW139512   3.175   3.978  10.952 -0.0081  1.3419 -0.4644
 9292SOL    HW239513   3.050   4.017  10.881  0.5916 -1.4381 -0.1938
 9293SOL     OW39514   4.026   1.487   4.466  0.0357  0.4358 -0.3057
 9293SOL    HW139515   3.949   1.471   4.410  0.0503 -3.3665  0.7759
 9293SOL    HW239516   3.994   1.515   4.551  1.4209 -4.8592  1.9299
 9294SOL     OW39517   2.346   2.566  11.896  0.3116  0.2431  0.5817
 9294SOL    HW139518   2.323   2.567  11.803 -0.2763  1.9689  0.7468
 9294SOL    HW239519   2.410   2.637  11.900  1.7974 -0.9759 -1.3377
 9295SOL     OW39520   2.489   0.047   8.252 -0.2187  0.1648 -0.2988
 9295SOL    HW139521   2.534   0.096   8.321  1.2426 -2.2788  0.4803
 9295SOL    HW239522   2.397   0.070   8.262 -0.0906  0.8747 -0.6954
 9296SOL     OW39523   2.500   1.478   7.092 -0.0765  0.1898  0.0161
 9296SOL    HW139524   2.445   1.494   7.015 -0.1081  1.2015  0.2535
 9296SOL    HW239525   2.442   1.510   7.162 -1.0848 -2.2994  0.3076
 9297SOL     OW39526   3.529   3.627  16.214  0.6747  0.1909  0.1944
 9297SOL    HW139527   3.536   3.650  16.306  0.3931 -0.1505  0.3020
 9297SOL    HW239528   3.568   3.703  16.171 -1.9528  1.2691 -0.2628
 9298SOL     OW39529   3.287   3.676   4.371  0.1910  0.4818  0.2483
 9298SOL    HW139530   3.321   3.708   4.287  1.1796 -0.6945  0.2022
 9298SOL    HW239531   3.354   3.707   4.431  3.0391 -0.6459 -2.3047
 9299SOL     OW39532   0.344   2.384  16.347  0.0292  0.5074 -0.7920
 9299SOL    HW139533   0.413   2.376  16.281 -1.9588 -3.1946 -2.4600
 9299SOL    HW239534   0.273   2.429  16.300 -0.3849  0.2535 -0.4140
 9300SOL     OW39535   2.659   2.072   8.001  0.1616  0.0312  0.0781
 9300SOL    HW139536   2.658   1.983   8.036 -0.2446  0.5375  1.3548
 9300SOL    HW239537   2.568   2.090   7.977  0.9712  2.6908 -0.9669
 9301SOL     OW39538   1.926   4.277   4.663  0.0286 -0.5667  0.4786
 9301SOL    HW139539   1.903   4.276   4.570  0.7632 -2.6175  0.3265
 9301SOL    HW239540   2.014   4.240   4.657  0.6204  1.0578 -0.7870
 9302SOL     OW39541   1.110   4.116   6.807 -0.5103 -0.1298  0.2968
 9302SOL    HW139542   1.132   4.197   6.762 -1.3286 -0.5563 -0.8842
 9302SOL    HW239543   1.092   4.062   6.729  1.8822 -1.2313  0.4993
 9303SOL     OW39544   0.280   1.370   5.439  0.7274  0.1818 -0.1068
 9303SOL    HW139545   0.273   1.450   5.387  1.7848  1.8315  2.2883
 9303SOL    HW239546   0.212   1.376   5.505  0.9453  0.6576  0.0731
 9304SOL     OW39547   2.043   1.311  12.031 -0.4781  0.3684 -0.1648
 9304SOL    HW139548   2.122   1.299  12.084  0.7612  0.3564 -2.0409
 9304SOL    HW239549   1.984   1.250  12.073 -0.8256  1.8452  1.5070
 9305SOL     OW39550   1.778   0.371  11.025  0.2649 -0.0174  0.0903
 9305SOL    HW139551   1.780   0.459  11.063 -1.5635 -0.5389  1.3849
 9305SOL    HW239552   1.687   0.347  11.041  0.5481 -0.6038  0.8275
 9306SOL     OW39553   0.260   0.358  14.095  0.0126 -0.0225  0.1807
 9306SOL    HW139554   0.173   0.318  14.094  0.1995 -0.5441  4.4781
 9306SOL    HW239555   0.305   0.288  14.142  0.2176 -0.6114 -0.8934
 9307SOL     OW39556   2.363   0.347   8.296  0.0182 -0.0604 -0.3540
 9307SOL    HW139557   2.315   0.388   8.224 -2.3884 -0.8319  0.7928
 9307SOL    HW239558   2.309   0.268   8.298 -1.1224  0.6921 -1.4557
 9308SOL     OW39559   2.084   1.867   0.006 -0.0383  0.2609 -0.5502
 9308SOL    HW139560   2.027   1.808   0.056  0.1613  2.5585  2.3658
 9308SOL    HW239561   2.024   1.933  17.709 -0.0121  1.8023  2.3564
 9309SOL     OW39562   3.629   3.262   8.955 -0.0040  0.0913  0.3175
 9309SOL    HW139563   3.703   3.259   9.015  1.8207  0.1284 -1.9264
 9309SOL    HW239564   3.558   3.288   9.014 -0.5632  2.5294 -1.4069
 9310SOL     OW39565   1.396   0.103   6.176  0.2262  0.0914 -0.6840
 9310SOL    HW139566   1.413   0.086   6.268  0.3274  2.2633 -0.2837
 9310SOL    HW239567   1.446   0.182   6.156 -1.9029  1.2527 -1.4463
 9311SOL     OW39568   1.195   4.412  11.634  0.3017  0.4168  0.1551
 9311SOL    HW139569   1.168   4.480  11.573  1.4529  0.2380 -0.5558
 9311SOL    HW239570   1.152   4.453  11.709  0.0967 -0.1098  0.3247
 9312SOL     OW39571   1.087   2.336   4.452  0.4273 -0.3405  0.4718
 9312SOL    HW139572   1.126   2.250   4.437 -0.7352 -0.8561  0.3703
 9312SOL    HW239573   1.155   2.377   4.505 -1.8829  3.4973  0.5067
 9313SOL     OW39574   2.461   4.153   9.487  0.3849  0.2851 -0.2298
 9313SOL    HW139575   2.496   4.156   9.397  0.6345  0.4104 -0.1282
 9313SOL    HW239576   2.366   4.159   9.492  0.4064  0.6727 -0.2710
 9314SOL     OW39577   2.815   1.065   0.575 -0.4285 -0.3103 -0.1207
 9314SOL    HW139578   2.843   0.975   0.593  2.2368  0.9124  1.8381
 9314SOL    HW239579   2.746   1.067   0.642 -0.4088  0.2272 -0.1186
 9315SOL     OW39580   2.553   1.327   9.292 -0.2114 -0.1500 -0.0906
 9315SOL    HW139581   2.591   1.369   9.214  0.4542  3.4817  2.2238
 9315SOL    HW239582   2.514   1.245   9.262 -1.7522  0.3025  0.6739
 9316SOL     OW39583   4.278   2.601   2.175  0.1062  0.2651 -0.1162
 9316SOL    HW139584   4.264   2.691   2.205 -0.4158  0.1510 -0.0203
 9316SOL    HW239585   4.325   2.615   2.093 -0.7197  0.6650 -0.5232
 9317SOL     OW39586   3.862   2.653   6.221 -0.3331 -0.3247 -0.0833
 9317SOL    HW139587   3.957   2.670   6.221 -0.2111 -0.9781  0.6319
 9317SOL    HW239588   3.836   2.703   6.298  2.3685  2.7570 -1.1639
 9318SOL     OW39589   0.988   0.035  15.400 -0.1016  0.8287  0.1038
 9318SOL    HW139590   1.038   0.068  15.475 -0.3174 -2.9701  1.8957
 9318SOL    HW239591   0.947   0.118  15.376  0.3867  1.2851  0.8564
 9319SOL     OW39592   0.734   1.420   0.627 -0.4732  0.1455 -0.1414
 9319SOL    HW139593   0.737   1.423   0.532  1.2186  0.7883 -0.0764
 9319SOL    HW239594   0.784   1.500   0.643  0.3316 -0.1507 -1.1813
 9320SOL     OW39595   2.198   1.252   5.159  0.3356  0.3307  0.6193
 9320SOL    HW139596   2.143   1.313   5.207 -1.6774 -0.7970 -0.2741
 9320SOL    HW239597   2.194   1.298   5.075 -1.6978 -1.8408 -0.4619
 9321SOL     OW39598   2.321   0.154   2.976  0.4941 -0.2749  0.1405
 9321SOL    HW139599   2.308   0.242   3.012 -2.2218 -0.9881  0.9651
 9321SOL    HW239600   2.415   0.152   2.993  0.7610 -1.3294 -1.5644
 9322SOL     OW39601   0.001   0.551  16.748  0.0061 -0.0359  0.3140
 9322SOL    HW139602   4.718   0.458  16.743  0.1822 -0.0824  0.5612
 9322SOL    HW239603   0.065   0.571  16.679  0.2955 -0.0282  0.5829
 9323SOL     OW39604   3.957   0.040   7.674  0.2583 -0.0143 -0.3987
 9323SOL    HW139605   3.870   0.080   7.678  0.4734  0.2518  1.7454
 9323SOL    HW239606   4.004   0.104   7.620  0.7517 -0.8173 -0.9054
 9324SOL     OW39607   3.321   3.576   3.709  0.1233 -0.5536  0.7065
 9324SOL    HW139608   3.325   3.588   3.614 -1.0483  0.4796  0.7801
 9324SOL    HW239609   3.233   3.539   3.716 -0.1248 -0.1008 -0.0361
 9325SOL     OW39610   0.342   1.155   8.474 -0.2377 -0.0895  0.2512
 9325SOL    HW139611   0.356   1.130   8.565  0.3559  1.6703  0.6433
 9325SOL    HW239612   0.301   1.241   8.482 -0.6895 -0.4173  1.3693
 9326SOL     OW39613   3.638   3.145  10.312  0.1269  0.0285 -0.0956
 9326SOL    HW139614   3.546   3.167  10.306 -0.0089 -0.1580  1.1722
 9326SOL    HW239615   3.646   3.099  10.396  2.9341 -2.1399 -1.5348
 9327SOL     OW39616   0.323   4.464   2.038 -0.5192 -0.4105  0.6996
 9327SOL    HW139617   0.334   4.384   2.088  1.4457 -0.6841 -0.1644
 9327SOL    HW239618   0.389   4.520   2.080 -1.0986 -0.1480  1.2544
 9328SOL     OW39619   0.766   0.906   5.576  0.1052  0.4679 -0.0216
 9328SOL    HW139620   0.787   0.984   5.627 -2.4147  0.3223  1.2066
 9328SOL    HW239621   0.855   0.877   5.553 -0.2681  0.0828 -0.9746
 9329SOL     OW39622   1.675   4.636   9.193 -0.2214  0.0577  0.3916
 9329SOL    HW139623   1.637   4.655   9.278 -0.8233  0.8004 -0.0403
 9329SOL    HW239624   1.620   4.565   9.159  1.2035 -0.1647 -1.5032
 9330SOL     OW39625   4.408   4.719  15.195  0.3200 -0.1641 -0.5574
 9330SOL    HW139626   4.480   4.729  15.258  0.2351  0.7757 -0.6081
 9330SOL    HW239627   4.348   0.054  15.221  0.1811 -0.7927  0.7887
 9331SOL     OW39628   0.747   0.267   3.128  0.1725  0.2758 -0.4452
 9331SOL    HW139629   0.724   0.299   3.040  0.6532 -0.3389 -0.7983
 9331SOL    HW239630   0.808   0.195   3.111 -0.7666 -0.8898  1.2031
 9332SOL     OW39631   4.405   0.111   2.102 -0.2568  0.9358  0.2408
 9332SOL    HW139632   4.470   0.135   2.036 -1.5077  1.3840 -0.8141
 9332SOL    HW239633   4.460   0.050   2.151  1.2061  0.5836 -1.8288
 9333SOL     OW39634   2.769   1.741  12.856  0.2898  0.7278  0.1595
 9333SOL    HW139635   2.701   1.796  12.895 -1.1388 -1.7197  1.1450
 9333SOL    HW239636   2.843   1.801  12.850 -0.4514  1.8632  2.5462
 9334SOL     OW39637   2.376   0.050   2.004  0.8474  0.2555 -0.4584
 9334SOL    HW139638   2.346   0.140   2.017 -0.6606 -0.4940  1.1541
 9334SOL    HW239639   2.330   0.001   2.071  0.2618  1.0942 -0.2436
 9335SOL     OW39640   1.965   0.358   1.385  0.2433  0.6224  0.1487
 9335SOL    HW139641   1.936   0.442   1.422  1.9486  2.0014 -1.6445
 9335SOL    HW239642   1.966   0.300   1.461 -0.5297  1.5477  0.8720
 9336SOL     OW39643   0.220   1.661   0.264  0.0423 -0.1414  0.5098
 9336SOL    HW139644   0.244   1.694   0.177 -2.7194 -0.6953 -0.4566
 9336SOL    HW239645   0.159   1.593   0.235 -1.0050  0.5276  1.1348
 9337SOL     OW39646   2.988   0.756   4.948 -0.4494  0.2713 -0.3592
 9337SOL    HW139647   3.025   0.839   4.918 -1.2803  0.7973  0.0794
 9337SOL    HW239648   3.062   0.701   4.975 -1.0659 -1.0122 -1.2738
 9338SOL     OW39649   4.182   0.365   4.638  0.2512 -0.0624 -0.0005
 9338SOL    HW139650   4.133   0.350   4.718  1.9563 -2.2226  0.6266
 9338SOL    HW239651   4.269   0.344   4.670  0.8078  1.5837 -0.4161
 9339SOL     OW39652   0.962   2.069   7.693 -0.2083 -0.4551 -0.1087
 9339SOL    HW139653   0.991   2.150   7.651  0.3244 -1.7627 -2.2229
 9339SOL    HW239654   1.004   1.999   7.644  0.0114 -0.2254 -0.2525
 9340SOL     OW39655   4.126   0.015   7.060  0.9822 -0.3826 -0.7658
 9340SOL    HW139656   4.035   0.041   7.048  1.1330  1.2503  1.6339
 9340SOL    HW239657   4.169   0.026   6.975 -0.8399 -1.4381 -1.8199
 9341SOL     OW39658   3.246   4.349   3.514 -0.5387  0.1471  0.6575
 9341SOL    HW139659   3.270   4.421   3.456  1.5441 -1.3737 -0.3933
 9341SOL    HW239660   3.311   4.363   3.583  0.1124 -0.6958  0.2185
 9342SOL     OW39661   4.398   0.352   4.793 -0.7768 -0.4931  0.3445
 9342SOL    HW139662   4.457   0.278   4.804  0.4242  0.1971 -1.3366
 9342SOL    HW239663   4.453   0.430   4.801  0.2499 -1.2646  0.7269
 9343SOL     OW39664   0.670   3.583   5.896 -0.2032 -0.3093 -0.2022
 9343SOL    HW139665   0.650   3.640   5.970  1.7700  1.0065 -0.6863
 9343SOL    HW239666   0.733   3.526   5.938  1.1056  1.0989 -0.2673
 9344SOL     OW39667   3.455   1.386  14.688  0.2265 -0.0600  0.4342
 9344SOL    HW139668   3.492   1.303  14.659 -2.0922 -0.7997 -0.3926
 9344SOL    HW239669   3.369   1.376  14.646 -0.9443 -1.4463  3.1706
 9345SOL     OW39670   0.480   4.209   3.560  0.2529  0.1931 -0.0426
 9345SOL    HW139671   0.460   4.234   3.469  0.9856  1.8213  0.2410
 9345SOL    HW239672   0.450   4.119   3.549 -0.0236  0.0922  1.5276
 9346SOL     OW39673   2.126   4.047   9.635 -1.3360 -0.3152  0.7004
 9346SOL    HW139674   2.038   4.059   9.600 -0.9755 -1.8224 -0.7467
 9346SOL    HW239675   2.135   3.957   9.602  1.0818  0.0528  0.3874
 9347SOL     OW39676   1.658   3.892   5.936 -0.2823  0.2188 -0.3923
 9347SOL    HW139677   1.704   3.965   5.976 -1.0020 -0.5572  1.8674
 9347SOL    HW239678   1.639   3.842   6.015 -0.0653 -2.0356 -1.7462
 9348SOL     OW39679   1.452   1.474   9.532  0.2912 -0.0343 -0.5382
 9348SOL    HW139680   1.413   1.389   9.552  2.1743 -0.4823  1.2331
 9348SOL    HW239681   1.476   1.501   9.621 -2.4131  1.5627 -0.2908
 9349SOL     OW39682   3.929   3.295  17.251 -0.0800  0.4083  0.3245
 9349SOL    HW139683   3.856   3.239  17.222  1.0638 -1.5658  1.2036
 9349SOL    HW239684   3.994   3.226  17.260 -2.2074 -1.3206  2.5214
 9350SOL     OW39685   2.921   3.753   9.905  0.6514  0.0900  0.0432
 9350SOL    HW139686   2.840   3.759   9.854  0.5157 -1.1960  0.0902
 9350SOL    HW239687   2.946   3.845   9.904 -0.6141  0.4077 -2.0146
 9351SOL     OW39688   4.616   1.387  16.085  0.0668 -0.3511  0.0676
 9351SOL    HW139689   4.608   1.295  16.058 -0.4325  0.8189 -3.7574
 9351SOL    HW239690   4.632   1.432  16.003 -0.0858  1.0562  0.8214
 9352SOL     OW39691   0.073   0.471  17.007 -0.7652  0.2270 -0.5648
 9352SOL    HW139692   0.076   0.514  16.921 -0.1824 -2.0376 -1.6963
 9352SOL    HW239693   4.720   0.433  17.000 -0.9653  0.8135 -1.2157
 9353SOL     OW39694   2.429   1.772   2.659 -0.0181  0.4491 -0.9117
 9353SOL    HW139695   2.500   1.791   2.598  0.5387 -1.7154 -0.9371
 9353SOL    HW239696   2.447   1.681   2.679  1.7826  1.0062 -0.0589
 9354SOL     OW39697   1.379   0.728  11.264 -0.5838 -0.5492  0.6254
 9354SOL    HW139698   1.344   0.639  11.259 -3.4937  0.7090 -1.2859
 9354SOL    HW239699   1.396   0.737  11.357 -0.1664 -2.2292  0.7191
 9355SOL     OW39700   2.011   1.921   8.189  0.2308 -0.0376 -0.1059
 9355SOL    HW139701   2.098   1.909   8.227 -0.3434  0.8439  1.5176
 9355SOL    HW239702   1.971   1.984   8.249 -0.2559 -0.7838  0.3551
 9356SOL     OW39703   1.799   1.635  16.914  0.3138 -0.0642 -0.3713
 9356SOL    HW139704   1.884   1.606  16.881 -0.0357 -1.9518  0.3924
 9356SOL    HW239705   1.771   1.552  16.955  3.1211 -0.4879  0.7015
 9357SOL     OW39706   3.120   0.313  17.655  0.0258  0.0983 -0.6994
 9357SOL    HW139707   3.168   0.265  17.722 -0.6455  2.0109  1.1661
 9357SOL    HW239708   3.066   0.242  17.621 -0.3854 -0.1635  0.4752
 9358SOL     OW39709   4.622   4.152   9.288 -0.0585 -0.3591 -0.2718
 9358SOL    HW139710   4.606   4.179   9.197  0.1376 -1.8294 -0.7357
 9358SOL    HW239711   4.716   4.158   9.303 -0.4812  0.0481  2.3158
 9359SOL     OW39712   3.425   2.252   9.144  0.5884 -0.4685 -0.1330
 9359SOL    HW139713   3.510   2.238   9.102  1.0432 -0.4233  0.7810
 9359SOL    HW239714   3.375   2.192   9.089 -1.1968  0.3341  0.6329
 9360SOL     OW39715   0.718   2.069  12.108 -0.2777  0.9279  1.0975
 9360SOL    HW139716   0.661   2.140  12.080  0.4211  1.4149  0.8944
 9360SOL    HW239717   0.739   2.093  12.199  2.5865  0.5471  0.5375
 9361SOL     OW39718   3.637   3.667   9.542 -0.2319  0.1470  0.2952
 9361SOL    HW139719   3.652   3.580   9.579  0.6535  0.9210  1.7223
 9361SOL    HW239720   3.599   3.648   9.456 -1.5343  0.2694  0.8503
 9362SOL     OW39721   4.086   1.849  10.348 -0.5995  0.0057 -0.4079
 9362SOL    HW139722   4.081   1.777  10.286 -3.4867  0.1470 -0.3112
 9362SOL    HW239723   4.065   1.925  10.293  0.0366  2.1561  2.3478
 9363SOL     OW39724   0.144   0.899   9.005  0.6547 -0.0954  0.1785
 9363SOL    HW139725   0.153   0.804   9.013 -1.4558 -0.3773 -0.9209
 9363SOL    HW239726   0.229   0.924   9.040  0.7738 -0.3045  0.0336
 9364SOL     OW39727   4.188   1.695   0.914  0.1005 -0.0505  0.8632
 9364SOL    HW139728   4.276   1.689   0.876 -0.7322 -0.1358 -1.0945
 9364SOL    HW239729   4.146   1.670   0.831  1.0424  0.5646  0.1943
 9365SOL     OW39730   1.905   2.058   5.597 -0.3848  0.3032 -0.1084
 9365SOL    HW139731   1.900   1.964   5.615 -2.6597  0.5038  0.2242
 9365SOL    HW239732   1.920   2.052   5.503 -2.7918  0.4559 -0.5015
 9366SOL     OW39733   0.752   2.274  10.272 -0.3244 -0.1579 -0.3257
 9366SOL    HW139734   0.823   2.312  10.220  0.2311 -1.0550 -0.2255
 9366SOL    HW239735   0.688   2.256  10.203  0.2099  1.6374 -1.2917
 9367SOL     OW39736   2.465   0.243   7.571  0.6156  0.1314  0.5331
 9367SOL    HW139737   2.544   0.260   7.520  1.1897  0.6798  1.5925
 9367SOL    HW239738   2.402   0.288   7.515  0.3105 -1.4491 -0.4031
 9368SOL     OW39739   1.173   0.176   4.500  0.1695  0.6406  0.4168
 9368SOL    HW139740   1.202   0.258   4.459  1.4193 -0.5089 -0.9827
 9368SOL    HW239741   1.252   0.125   4.517  0.6316  0.7980 -1.3062
 9369SOL     OW39742   2.389   1.258  11.404 -0.2239  0.3014 -0.3042
 9369SOL    HW139743   2.363   1.305  11.325 -0.3467  0.7897  0.0219
 9369SOL    HW239744   2.315   1.201  11.422 -0.6197  0.6646 -0.7887
 9370SOL     OW39745   0.165   2.633   5.551  0.5356 -0.3522  0.7987
 9370SOL    HW139746   0.169   2.691   5.475 -1.2494 -1.1312  0.0963
 9370SOL    HW239747   0.071   2.615   5.562  0.6833 -1.8756 -0.3616
 9371SOL     OW39748   1.227   0.366  14.745 -0.0250 -0.1842  0.0113
 9371SOL    HW139749   1.180   0.402  14.669 -1.7238 -1.0238  0.6527
 9371SOL    HW239750   1.159   0.366  14.812  1.0853 -0.2363  1.1371
 9372SOL     OW39751   1.018   1.544  14.206  0.7519 -0.2429 -0.5732
 9372SOL    HW139752   0.952   1.597  14.251  0.7174 -0.1706 -0.7075
 9372SOL    HW239753   1.027   1.468  14.262  0.5884  0.9005  1.0046
 9373SOL     OW39754   3.294   1.310  14.487 -0.6503 -0.0846  0.2087
 9373SOL    HW139755   3.226   1.359  14.442 -1.6210 -1.3150  0.3256
 9373SOL    HW239756   3.375   1.311  14.436 -0.4400  0.8871  0.5575
 9374SOL     OW39757   1.222   1.970   6.350 -0.1140 -0.2543  0.0328
 9374SOL    HW139758   1.149   2.011   6.304  0.7262  0.5496 -0.5771
 9374SOL    HW239759   1.293   1.999   6.292  0.5586 -1.1271  0.4168
 9375SOL     OW39760   2.769   2.508   4.412 -0.1035 -0.3950 -0.3887
 9375SOL    HW139761   2.703   2.449   4.447  0.1547 -1.0788 -1.0381
 9375SOL    HW239762   2.850   2.483   4.456  0.1387 -0.1332 -0.6854
 9376SOL     OW39763   3.651   2.656  16.967 -0.1572 -0.3667  0.6762
 9376SOL    HW139764   3.649   2.561  16.975 -0.7368 -0.1939  2.5121
 9376SOL    HW239765   3.661   2.671  16.873  0.5952 -1.1522  0.6306
 9377SOL     OW39766   1.398   3.615   4.615 -0.2863 -0.1364 -0.3272
 9377SOL    HW139767   1.338   3.661   4.673 -0.9293 -2.5477  0.9149
 9377SOL    HW239768   1.353   3.646   4.536 -0.8656 -0.5374 -0.1579
 9378SOL     OW39769   4.056   4.650   8.400 -0.1235  0.1575 -0.9161
 9378SOL    HW139770   4.076   0.002   8.435 -1.4307  0.4516 -0.9109
 9378SOL    HW239771   3.997   4.684   8.333 -1.0733 -0.5357 -0.4235
 9379SOL     OW39772   1.500   0.806   3.899  0.0949  0.2931 -0.0769
 9379SOL    HW139773   1.548   0.863   3.960  2.5049  1.0424 -2.6676
 9379SOL    HW239774   1.447   0.747   3.952  1.3088 -0.6856  0.0602
 9380SOL     OW39775   0.286   3.696   5.324  0.3032  0.5353 -0.3611
 9380SOL    HW139776   0.331   3.612   5.312 -1.5980 -0.2455 -2.1774
 9380SOL    HW239777   0.210   3.685   5.266 -1.0361  0.5375  1.4012
 9381SOL     OW39778   0.029   2.018  16.804 -0.0550  0.2286 -0.0187
 9381SOL    HW139779   0.032   2.056  16.716  1.6142 -0.2909 -0.1748
 9381SOL    HW239780   0.069   1.932  16.790  3.4107  1.8254  0.1205
 9382SOL     OW39781   1.136   0.117   9.483  0.6722 -0.4503 -0.6483
 9382SOL    HW139782   1.197   0.089   9.551 -0.7594  2.1296  1.7044
 9382SOL    HW239783   1.123   0.042   9.425  3.4491 -0.9138 -0.6409
 9383SOL     OW39784   4.309   3.610   8.888  0.3591  0.1989  0.4718
 9383SOL    HW139785   4.373   3.590   8.957  1.1617  1.8459  0.2280
 9383SOL    HW239786   4.230   3.570   8.924  0.3996 -0.3247 -0.0349
 9384SOL     OW39787   3.797   2.740  17.336  0.1851 -0.2799 -0.3829
 9384SOL    HW139788   3.820   2.803  17.405  2.8072 -0.5026 -1.0419
 9384SOL    HW239789   3.716   2.774  17.299  1.0990  2.8549  0.5165
 9385SOL     OW39790   3.648   1.354   2.383  0.1538  0.8963 -0.4149
 9385SOL    HW139791   3.632   1.439   2.341  0.3377  0.2755 -1.7473
 9385SOL    HW239792   3.561   1.314   2.373  1.4325 -1.7363 -0.9485
 9386SOL     OW39793   0.038   4.071   2.124  0.3130  0.1432  0.3765
 9386SOL    HW139794   0.052   4.152   2.173 -1.2290  0.0173  1.0203
 9386SOL    HW239795   0.044   3.995   2.181 -2.8110  0.6933  1.4589
 9387SOL     OW39796   1.242   4.265   3.616 -0.0667  0.3103 -0.1456
 9387SOL    HW139797   1.336   4.278   3.626  0.0218 -0.1029 -0.4578
 9387SOL    HW239798   1.230   4.179   3.576  0.5749  0.2869 -0.2919
 9388SOL     OW39799   1.236   2.992   6.232  0.2329  0.2558  0.0981
 9388SOL    HW139800   1.293   2.927   6.274 -0.4875  0.4003  1.2992
 9388SOL    HW239801   1.288   3.072   6.227  3.0494 -1.4954  1.2567
 9389SOL     OW39802   0.709   2.917  15.572  0.6672 -0.2154  0.7712
 9389SOL    HW139803   0.680   2.999  15.532  0.6851 -1.1337 -1.1435
 9389SOL    HW239804   0.649   2.913  15.646 -1.8346 -1.0750 -1.2755
 9390SOL     OW39805   2.234   1.654   9.007  0.2004  0.0065 -0.2900
 9390SOL    HW139806   2.146   1.617   9.004 -1.0298  2.9918 -0.2502
 9390SOL    HW239807   2.283   1.572   9.021 -1.7393 -0.8302  1.4990
 9391SOL     OW39808   3.380   0.139   8.860  0.8824 -0.2448  0.1938
 9391SOL    HW139809   3.324   0.213   8.836  1.9945  0.6884  0.4980
 9391SOL    HW239810   3.399   0.100   8.775 -2.7435  0.2519 -0.8364
 9392SOL     OW39811   0.330   1.418   6.840  0.4994 -0.0337  0.3650
 9392SOL    HW139812   0.279   1.456   6.912 -1.5407  1.7972 -2.0473
 9392SOL    HW239813   0.259   1.419   6.776  0.9439 -0.6072 -0.1317
 9393SOL     OW39814   2.338   3.404   0.350 -0.8191 -0.4422 -0.4051
 9393SOL    HW139815   2.331   3.369   0.261  0.5985 -1.9089  0.0502
 9393SOL    HW239816   2.393   3.479   0.327 -0.4217 -1.4573 -2.7406
 9394SOL     OW39817   4.223   2.468   3.323 -0.1893  0.2216 -0.0652
 9394SOL    HW139818   4.245   2.450   3.415 -1.9510  1.5716  0.6215
 9394SOL    HW239819   4.141   2.422   3.304 -1.7603  3.1085 -0.1842
 9395SOL     OW39820   2.654   3.360  15.390 -0.4768 -0.3866  0.0413
 9395SOL    HW139821   2.646   3.385  15.298 -0.8219 -0.0148  0.1742
 9395SOL    HW239822   2.712   3.426  15.430 -1.7655  0.9106 -0.2366
 9396SOL     OW39823   1.443   4.352   4.943 -0.0679  0.3848 -0.1231
 9396SOL    HW139824   1.447   4.319   5.033  1.7702 -1.0357 -0.7048
 9396SOL    HW239825   1.466   4.273   4.894 -0.0487 -0.4446  1.2147
 9397SOL     OW39826   2.558   1.660   5.007 -0.5476  0.3444 -0.1085
 9397SOL    HW139827   2.525   1.655   4.917  0.8890 -0.2651 -0.6097
 9397SOL    HW239828   2.602   1.744   5.019 -2.1677  1.0657  0.7330
 9398SOL     OW39829   3.175   3.790  12.576 -0.4964 -0.1571  0.2156
 9398SOL    HW139830   3.152   3.713  12.524  1.1969 -1.1009  0.8425
 9398SOL    HW239831   3.192   3.857  12.510 -1.2752 -0.8569 -0.6994
 9399SOL     OW39832   2.037   0.100   1.540  0.5868  0.5387  0.1529
 9399SOL    HW139833   1.964   0.060   1.587  0.2854 -0.6297 -1.2734
 9399SOL    HW239834   2.077   0.020   1.504  0.6298  1.1086 -1.0797
 9400SOL     OW39835   3.014   2.917   2.201 -0.1056  0.1181  0.4379
 9400SOL    HW139836   3.097   2.958   2.177  0.9020 -0.5465  2.8211
 9400SOL    HW239837   2.948   2.979   2.169  0.6819  0.4941 -0.4536
 9401SOL     OW39838   0.699   0.586   1.270 -0.0089 -0.5859 -0.5966
 9401SOL    HW139839   0.670   0.509   1.221  1.1212 -3.6820  3.5721
 9401SOL    HW239840   0.713   0.645   1.197 -0.9957  0.9477  0.4535
 9402SOL     OW39841   1.756   4.171   5.710  0.8556  0.1929 -0.0822
 9402SOL    HW139842   1.769   4.203   5.621  1.3874  1.6537  0.5277
 9402SOL    HW239843   1.793   4.238   5.767  0.0855  0.9036 -0.4115
 9403SOL     OW39844   4.497   1.176   7.632 -0.7589 -0.5542 -0.1340
 9403SOL    HW139845   4.582   1.185   7.675 -0.0750  0.8448 -1.7968
 9403SOL    HW239846   4.497   1.258   7.584  4.1744 -1.4482 -1.6612
 9404SOL     OW39847   1.254   0.897   2.913 -0.2081 -0.4706  0.5897
 9404SOL    HW139848   1.327   0.850   2.873  1.1603  1.4734  0.8238
 9404SOL    HW239849   1.289   0.981   2.944  0.8192 -0.8219  0.3725
 9405SOL     OW39850   0.172   1.100   3.558  1.2295 -0.2221  0.4237
 9405SOL    HW139851   0.211   1.174   3.513 -1.7809  1.8530  1.2272
 9405SOL    HW239852   0.106   1.078   3.492  0.5144  0.1929  1.0042
 9406SOL     OW39853   0.456   1.467   0.169  0.2867 -0.2587 -0.3172
 9406SOL    HW139854   0.391   1.396   0.167 -0.6692  0.6135 -0.0278
 9406SOL    HW239855   0.417   1.534   0.113  1.6279 -0.4047 -1.4180
 9407SOL     OW39856   4.033   2.367  15.478 -0.3085  0.0066  0.2242
 9407SOL    HW139857   4.022   2.405  15.391 -3.3329  0.3922  0.7881
 9407SOL    HW239858   4.104   2.421  15.513 -1.3746  0.7873  1.1895
 9408SOL     OW39859   1.697   3.914   4.242  0.4179  0.5380 -0.0473
 9408SOL    HW139860   1.662   3.914   4.331  0.3563  2.0052 -0.0753
 9408SOL    HW239861   1.710   3.821   4.222 -0.5906  0.0156  1.6810
 9409SOL     OW39862   1.786   2.607   9.272  0.0733  0.0503 -0.4181
 9409SOL    HW139863   1.875   2.580   9.297 -0.1719  2.3171  2.9520
 9409SOL    HW239864   1.755   2.547   9.204 -0.0940 -2.2655  1.6990
 9410SOL     OW39865   0.097   3.886   7.060  0.2863 -0.1062 -0.0693
 9410SOL    HW139866   0.059   3.807   7.023  1.4993 -0.0810 -1.3573
 9410SOL    HW239867   0.191   3.869   7.052  0.1208 -0.0078 -2.2029
 9411SOL     OW39868   1.596   0.111   9.744 -0.0167 -0.3777 -0.0530
 9411SOL    HW139869   1.656   0.177   9.780  0.9438 -1.4501  0.3036
 9411SOL    HW239870   1.631   0.024   9.766 -0.3940 -1.0100 -2.0121
 9412SOL     OW39871   4.066   3.400   6.005 -0.4379  0.5654  0.1231
 9412SOL    HW139872   4.131   3.455   5.961  0.6012 -0.0214  0.9373
 9412SOL    HW239873   4.057   3.325   5.946 -2.6156 -1.5148  3.1028
 9413SOL     OW39874   4.067   4.019  15.907  0.2402  0.1790 -0.0933
 9413SOL    HW139875   4.094   3.927  15.905 -0.4208 -0.0578  2.1845
 9413SOL    HW239876   4.068   4.039  15.813  0.0272 -2.9307 -0.7504
 9414SOL     OW39877   3.290   1.778   9.285  0.3572  0.5419 -0.4311
 9414SOL    HW139878   3.379   1.784   9.251  2.3392  0.6246  4.7447
 9414SOL    HW239879   3.295   1.731   9.368 -0.1875  2.4556  0.6871
 9415SOL     OW39880   3.295   3.050   2.341  0.1296  0.3663  0.3351
 9415SOL    HW139881   3.281   3.022   2.250 -0.0422  1.2241  0.1007
 9415SOL    HW239882   3.265   3.140   2.327  1.6202  1.1845  2.4566
 9416SOL     OW39883   1.756   1.894   1.919  0.0966  0.2186  0.3597
 9416SOL    HW139884   1.790   1.946   1.991  0.3902 -0.0107  0.3883
 9416SOL    HW239885   1.762   1.805   1.954 -1.7164  0.8400  2.2375
 9417SOL     OW39886   0.943   3.216   0.350 -0.1859 -0.0447  0.9292
 9417SOL    HW139887   0.905   3.276   0.286  0.1366 -0.0547  0.7303
 9417SOL    HW239888   1.033   3.247   0.351 -0.1697 -0.1170  2.1916
 9418SOL     OW39889   1.366   0.542   2.905  0.1318  0.1102 -0.0256
 9418SOL    HW139890   1.416   0.622   2.887 -0.3058  0.1962 -0.8833
 9418SOL    HW239891   1.421   0.476   2.861 -0.3367  0.6837 -1.4562
 9419SOL     OW39892   2.082   0.911  13.087  0.2527 -0.1659 -0.8694
 9419SOL    HW139893   2.106   0.972  13.157 -1.8526 -0.2388 -0.1004
 9419SOL    HW239894   2.164   0.861  13.094 -0.7013 -1.6423 -0.2216
 9420SOL     OW39895   2.579   0.117   5.068  0.6814  0.2404  0.0240
 9420SOL    HW139896   2.656   0.064   5.083 -1.9135 -3.6225 -0.3926
 9420SOL    HW239897   2.598   0.170   4.990  0.4012 -1.3482 -1.1093
 9421SOL     OW39898   0.389   4.002  10.128  0.1960  0.4906 -0.5142
 9421SOL    HW139899   0.345   4.038  10.050 -0.0816  0.0057 -0.5801
 9421SOL    HW239900   0.316   3.956  10.169  0.4087  1.4668  0.9467
 9422SOL     OW39901   1.895   0.472  16.221  0.1727  0.1353 -0.1400
 9422SOL    HW139902   1.990   0.473  16.234  0.0145 -2.3228  1.0560
 9422SOL    HW239903   1.881   0.413  16.147  1.0916 -1.8775  1.3134
 9423SOL     OW39904   3.102   0.131   2.767 -0.9615 -0.9102 -0.4249
 9423SOL    HW139905   3.151   0.064   2.718 -2.1699 -1.1761 -1.2933
 9423SOL    HW239906   3.153   0.211   2.778 -0.6758 -0.6199 -3.8313
 9424SOL     OW39907   3.749   0.158  12.306  0.0650 -0.3626  0.1271
 9424SOL    HW139908   3.697   0.078  12.297 -0.0192  0.0696 -3.1657
 9424SOL    HW239909   3.689   0.225  12.274 -1.0917 -0.6520  1.7236
 9425SOL     OW39910   3.229   1.050   7.478  0.5679 -0.5649 -0.5616
 9425SOL    HW139911   3.232   0.993   7.556 -1.4597  1.6514  1.1546
 9425SOL    HW239912   3.165   1.115   7.506  1.9571  0.2646  0.6817
 9426SOL     OW39913   2.696   0.457   4.580  0.6850 -0.0892  0.2954
 9426SOL    HW139914   2.781   0.415   4.593  0.7913  0.3638  1.0956
 9426SOL    HW239915   2.719   0.538   4.626  1.2223  0.1019 -0.3157
 9427SOL     OW39916   4.522   0.222   2.755  0.2102 -0.3396  0.5917
 9427SOL    HW139917   4.443   0.252   2.799  0.3305  0.2077  0.4458
 9427SOL    HW239918   4.565   0.171   2.823  1.2198  2.8914  2.3805
 9428SOL     OW39919   2.578   2.377   2.663 -0.6927 -0.2302 -0.1053
 9428SOL    HW139920   2.561   2.289   2.697  0.0732 -0.4054 -0.1929
 9428SOL    HW239921   2.626   2.411   2.738 -1.5003  2.2017 -0.6802
 9429SOL     OW39922   2.185   4.503   8.848 -0.0826 -0.0564 -0.1194
 9429SOL    HW139923   2.174   4.450   8.928 -3.0663 -0.3047 -0.6834
 9429SOL    HW239924   2.263   4.556   8.863  0.3925 -0.7543 -0.1340
 9430SOL     OW39925   3.328   1.849   3.346 -0.1047 -0.4421  0.1880
 9430SOL    HW139926   3.356   1.813   3.430  0.1016  3.2489  1.7065
 9430SOL    HW239927   3.308   1.769   3.297 -1.2142  1.5562 -2.6621
 9431SOL     OW39928   3.716   4.649   4.371 -0.1227 -0.6241 -0.9614
 9431SOL    HW139929   3.696   4.732   4.329  1.5034 -0.9704 -2.4076
 9431SOL    HW239930   3.701   4.672   4.463 -2.2039 -2.5969 -0.7996
 9432SOL     OW39931   0.514   0.710   7.176  0.2013  0.2248  0.9649
 9432SOL    HW139932   0.502   0.671   7.263 -0.3463  1.2032  1.3227
 9432SOL    HW239933   0.551   0.795   7.198 -0.5639  0.5984  0.7887
 9433SOL     OW39934   4.031   3.940   5.526  0.6656  0.3786 -0.0044
 9433SOL    HW139935   4.017   3.845   5.533  0.3919  0.4547  0.4548
 9433SOL    HW239936   4.104   3.952   5.586 -1.4442 -0.9544  2.8633
 9434SOL     OW39937   4.282   2.928   9.091 -0.4976  0.2430 -0.5111
 9434SOL    HW139938   4.373   2.955   9.095 -0.0569 -1.2524 -0.2809
 9434SOL    HW239939   4.232   3.003   9.123  0.9246  1.7243 -1.7864
 9435SOL     OW39940   0.875   3.829   0.757 -0.7312 -0.0204 -0.1843
 9435SOL    HW139941   0.850   3.893   0.690  1.3070 -0.4452 -1.3348
 9435SOL    HW239942   0.959   3.857   0.792 -0.9643 -0.1035  0.4348
 9436SOL     OW39943   1.197   3.725   7.868 -0.6532  0.5787 -0.0145
 9436SOL    HW139944   1.281   3.696   7.904 -0.3216  0.6763 -0.6896
 9436SOL    HW239945   1.207   3.682   7.782 -1.1809 -1.8226  1.1290
 9437SOL     OW39946   1.460   0.998   5.219  0.1331 -0.2684  0.2919
 9437SOL    HW139947   1.541   1.022   5.174  0.2787 -1.2252  0.0421
 9437SOL    HW239948   1.432   0.919   5.173 -2.9670  0.8175  0.2838
 9438SOL     OW39949   0.082   2.912   0.637  0.0144 -0.5160 -0.0619
 9438SOL    HW139950   0.117   2.850   0.700  1.5979 -0.5663 -1.0061
 9438SOL    HW239951   0.012   2.855   0.606 -1.6833  0.7239  1.4835
 9439SOL     OW39952   1.051   3.294   2.551  0.3918 -0.3260 -0.0601
 9439SOL    HW139953   1.066   3.262   2.462 -0.5803 -0.3479 -0.2186
 9439SOL    HW239954   0.999   3.373   2.537 -0.4584 -0.9028 -0.1393
 9440SOL     OW39955   1.383   0.614   1.014  0.5340 -0.0350 -0.3026
 9440SOL    HW139956   1.346   0.552   1.077  0.4457  0.0831 -0.2389
 9440SOL    HW239957   1.419   0.679   1.074 -0.2375  1.9019 -1.9595
 9441SOL     OW39958   3.845   0.979   5.220  0.0112 -0.3139 -0.8569
 9441SOL    HW139959   3.838   1.061   5.171 -0.9730 -0.9728 -1.8316
 9441SOL    HW239960   3.906   0.931   5.164  2.2122 -1.3212  2.4106
 9442SOL     OW39961   0.865   2.628  10.019 -0.0009 -0.1840 -0.1368
 9442SOL    HW139962   0.913   2.550  10.048 -0.0338 -1.1832 -2.7130
 9442SOL    HW239963   0.828   2.661  10.100  0.6042 -0.3901  0.2241
 9443SOL     OW39964   2.926   1.512   5.779 -0.4348  0.1451  0.2633
 9443SOL    HW139965   2.848   1.568   5.780 -0.9045 -0.4845 -1.2974
 9443SOL    HW239966   2.908   1.468   5.696  1.3410 -1.0907  0.5350
 9444SOL     OW39967   1.249   2.145   7.923 -0.2703  0.3210 -0.0646
 9444SOL    HW139968   1.334   2.103   7.936  0.7284  1.5677 -2.6341
 9444SOL    HW239969   1.261   2.168   7.831  0.2499  0.7669  0.1133
 9445SOL     OW39970   2.338   1.303  11.800  0.0811  0.7319  0.1055
 9445SOL    HW139971   2.308   1.218  11.767  1.8327 -0.9431  2.7997
 9445SOL    HW239972   2.348   1.295  11.895  1.8006  2.2574  0.0573
 9446SOL     OW39973   3.752   0.477  14.943  0.3335  0.1589 -0.1852
 9446SOL    HW139974   3.735   0.556  14.892 -0.5214 -0.6644 -1.1883
 9446SOL    HW239975   3.822   0.448  14.884 -2.4597 -2.4946 -2.2451
 9447SOL     OW39976   2.529   1.577   2.958 -0.0071  0.0710 -0.1905
 9447SOL    HW139977   2.579   1.503   2.994  0.9855  0.7306 -0.2243
 9447SOL    HW239978   2.459   1.586   3.023  1.4768 -0.6243  1.4852
 9448SOL     OW39979   1.888   1.394   3.134 -0.3388  0.1477 -0.5609
 9448SOL    HW139980   1.964   1.446   3.107  0.2645 -0.1026  0.6248
 9448SOL    HW239981   1.847   1.379   3.049  0.3020  0.5994 -0.9488
 9449SOL     OW39982   3.188   2.162   2.209 -0.0777 -0.4854 -0.3007
 9449SOL    HW139983   3.162   2.180   2.300  0.4989 -3.6157  0.4910
 9449SOL    HW239984   3.116   2.113   2.169  0.8150  0.8982 -3.5700
 9450SOL     OW39985   3.643   1.803   2.813 -0.0705 -0.0223  0.2262
 9450SOL    HW139986   3.738   1.813   2.810 -0.4945  3.6112 -0.7122
 9450SOL    HW239987   3.616   1.881   2.861 -1.7344 -1.9420  2.3745
 9451SOL     OW39988   3.289   2.962   5.990  0.0619  0.1034 -0.0461
 9451SOL    HW139989   3.330   2.884   5.954  0.3042  0.1566  0.1143
 9451SOL    HW239990   3.234   2.930   6.061 -0.2710 -1.2017 -0.8950
 9452SOL     OW39991   3.920   3.319   8.497 -0.6608  0.1444  0.0819
 9452SOL    HW139992   4.001   3.277   8.468 -1.8938  0.3172 -3.5146
 9452SOL    HW239993   3.852   3.260   8.465 -0.1224 -0.6446  0.3869
 9453SOL     OW39994   2.809   1.272   1.071  0.2961  0.1124  0.1108
 9453SOL    HW139995   2.848   1.326   1.002 -1.8561  2.3186  0.6414
 9453SOL    HW239996   2.880   1.275   1.136  0.9758 -1.9324 -0.5281
 9454SOL     OW39997   2.084   3.282   1.454 -0.1004  0.1745  0.5951
 9454SOL    HW139998   2.091   3.236   1.370 -1.9022 -1.3885  1.2951
 9454SOL    HW239999   2.144   3.228   1.504 -0.5765 -1.1917 -0.3064
 9455SOL     OW40000   0.965   3.747  16.768  0.3726  0.3678 -0.1962
 9455SOL    HW140001   1.009   3.780  16.847  0.5259  0.7993 -0.4645
 9455SOL    HW240002   0.873   3.768  16.778  0.1233 -1.0997  0.4901
 9456SOL     OW40003   3.476   1.526   8.236 -0.1717 -0.0675  0.3638
 9456SOL    HW140004   3.509   1.600   8.186 -0.2954  0.3497  0.9044
 9456SOL    HW240005   3.428   1.568   8.307  0.7992  1.4317  0.1254
 9457SOL     OW40006   3.388   0.234   7.115  0.5300 -0.2687  0.7512
 9457SOL    HW140007   3.386   0.242   7.019  1.5637 -3.0417  0.5040
 9457SOL    HW240008   3.305   0.276   7.137  0.6751 -0.3205  1.3821
 9458SOL     OW40009   0.950   1.920   5.666  0.2360 -0.2352  0.2471
 9458SOL    HW140010   0.889   1.963   5.725 -0.0947 -0.9106  0.4030
 9458SOL    HW240011   0.897   1.855   5.619 -0.4654  0.1523  0.5030
 9459SOL     OW40012   3.931   4.579   5.831 -0.6890  0.3874 -0.2378
 9459SOL    HW140013   3.883   4.529   5.765 -0.8268  0.7526 -0.4156
 9459SOL    HW240014   3.968   4.653   5.784 -0.8066  0.4003 -0.3091
 9460SOL     OW40015   2.355   1.048  17.021  0.0394  0.1579  0.6748
 9460SOL    HW140016   2.389   1.114  16.960  1.6747  1.2599  2.7675
 9460SOL    HW240017   2.437   1.010  17.052 -0.8907 -3.7221 -1.6151
 9461SOL     OW40018   0.294   0.042   8.162 -0.4404  0.0991  0.4630
 9461SOL    HW140019   0.306   0.135   8.184 -0.6737  0.1381  0.4189
 9461SOL    HW240020   0.218   0.021   8.215 -2.5357  0.9350 -2.2186
 9462SOL     OW40021   4.101   3.892   4.611 -0.5213 -0.6912 -0.1173
 9462SOL    HW140022   4.005   3.897   4.609 -0.4218  1.3619  0.4120
 9462SOL    HW240023   4.121   3.911   4.519 -0.3052  1.0794  0.2949
 9463SOL     OW40024   1.201   0.091  13.659  0.5785  0.1569  0.2834
 9463SOL    HW140025   1.116   0.048  13.670  0.9206 -0.3452  0.9460
 9463SOL    HW240026   1.182   0.169  13.607  0.0773 -0.5102 -0.5392
 9464SOL     OW40027   3.472   3.875   2.938 -0.5339 -0.0410 -0.0762
 9464SOL    HW140028   3.455   3.868   3.032  0.8778 -3.1617 -0.0413
 9464SOL    HW240029   3.556   3.828   2.933 -0.4554 -0.0440  1.1961
 9465SOL     OW40030   1.542   1.569   4.462  0.5512 -0.5172  0.2230
 9465SOL    HW140031   1.574   1.493   4.414 -0.1977 -0.7314  0.0625
 9465SOL    HW240032   1.481   1.611   4.401  0.4811 -0.8705  0.0512
 9466SOL     OW40033   0.026   0.796   3.476 -0.5291  0.1128 -0.3581
 9466SOL    HW140034   0.073   0.755   3.549 -0.8611  2.0901  0.9694
 9466SOL    HW240035   0.100   0.823   3.420 -1.1040  0.7391 -0.8105
 9467SOL     OW40036   0.126   3.431  14.317 -0.5768 -0.0024 -0.1045
 9467SOL    HW140037   0.042   3.417  14.361  0.6058 -0.7761  1.8520
 9467SOL    HW240038   0.107   3.517  14.278  0.7457  1.0341  1.5613
 9468SOL     OW40039   3.569   3.799   3.904 -0.7536  0.1928  0.1270
 9468SOL    HW140040   3.592   3.805   3.997 -2.2583  0.9519  0.4625
 9468SOL    HW240041   3.655   3.792   3.863  0.3025 -0.0965  2.3378
 9469SOL     OW40042   4.191   2.560  12.544 -0.1890 -0.6331 -0.0702
 9469SOL    HW140043   4.096   2.543  12.539 -0.3730  0.3937  0.0117
 9469SOL    HW240044   4.210   2.627  12.479  0.2455 -0.1488  0.5622
 9470SOL     OW40045   2.331   3.593   9.758  0.1229  0.1761  0.0738
 9470SOL    HW140046   2.325   3.591   9.854  1.4983 -1.1829  0.1457
 9470SOL    HW240047   2.337   3.497   9.752 -0.8869  0.1193  0.1018
 9471SOL     OW40048   0.591   2.119   3.402 -0.1997  0.2598 -0.2262
 9471SOL    HW140049   0.559   2.061   3.471 -0.5964  1.1433  0.3334
 9471SOL    HW240050   0.681   2.088   3.408  0.1181  1.2746  0.1482
 9472SOL     OW40051   0.282   2.235   5.548 -0.0906  0.1485  0.0383
 9472SOL    HW140052   0.315   2.210   5.462  1.0965  0.0805  0.5049
 9472SOL    HW240053   0.194   2.266   5.527 -0.6134 -0.2213  1.6289
 9473SOL     OW40054   4.393   1.125   4.385  0.6720  0.4278  0.0178
 9473SOL    HW140055   4.312   1.151   4.430 -0.6175 -1.4771 -1.2397
 9473SOL    HW240056   4.427   1.201   4.338 -0.8831  0.1088 -1.6117
 9474SOL     OW40057   3.077   4.561   8.549 -0.2342 -0.1597 -0.3398
 9474SOL    HW140058   3.014   4.489   8.560  1.5002 -1.6786 -0.2157
 9474SOL    HW240059   3.159   4.519   8.574 -1.7949 -2.6061  0.7729
 9475SOL     OW40060   3.457   3.936   7.146 -0.1549 -0.5686  0.3802
 9475SOL    HW140061   3.547   3.967   7.150 -0.7266  1.1101  0.4231
 9475SOL    HW240062   3.457   3.847   7.183  0.0376 -0.4850  0.5806
 9476SOL     OW40063   4.361   3.136   8.714 -0.6894  0.2498  0.0160
 9476SOL    HW140064   4.430   3.154   8.651  0.6850 -1.0238  1.1670
 9476SOL    HW240065   4.389   3.061   8.768  1.1923  0.0086 -1.3052
 9477SOL     OW40066   3.179   2.163  14.580  0.2538  0.0256  0.5286
 9477SOL    HW140067   3.213   2.076  14.556  0.0964  0.5786 -1.7319
 9477SOL    HW240068   3.122   2.175  14.504  0.9130 -1.3358 -0.1884
 9478SOL     OW40069   0.187   1.412  12.601 -0.4847  0.2680 -0.0753
 9478SOL    HW140070   0.275   1.430  12.568 -1.0632  0.4939 -1.4990
 9478SOL    HW240071   0.191   1.401  12.696 -2.1626  2.8352  0.3072
 9479SOL     OW40072   4.206   3.719   8.616 -0.3232 -0.4143  0.1450
 9479SOL    HW140073   4.246   3.656   8.557  1.6404  1.6859 -0.7620
 9479SOL    HW240074   4.262   3.724   8.694 -0.4955  2.0448  0.1180
 9480SOL     OW40075   4.396   0.579   1.807 -0.1690 -0.6707  0.0340
 9480SOL    HW140076   4.380   0.506   1.866 -0.1543  0.4253  1.4064
 9480SOL    HW240077   4.361   0.542   1.726  0.7302  1.3373 -1.2742
 9481SOL     OW40078   0.842   3.279  13.286 -0.1620 -0.1271 -0.2380
 9481SOL    HW140079   0.834   3.360  13.337  1.1351  0.3066 -0.7183
 9481SOL    HW240080   0.875   3.313  13.203 -1.5679 -0.4762 -0.9436
 9482SOL     OW40081   2.398   1.639   8.219  0.2930  0.0378 -0.0716
 9482SOL    HW140082   2.466   1.611   8.157 -0.0204  0.8734 -0.8021
 9482SOL    HW240083   2.449   1.624   8.298  1.0276 -0.9740 -0.7309
 9483SOL     OW40084   0.110   4.136   4.862 -0.1453 -0.1662 -0.2993
 9483SOL    HW140085   0.041   4.193   4.830 -0.2047  0.0803  0.2689
 9483SOL    HW240086   0.155   4.179   4.934 -0.2927  2.6411 -1.9035
 9484SOL     OW40087   4.242   2.915   1.329 -0.1384  0.0261 -0.0289
 9484SOL    HW140088   4.236   3.010   1.334  0.3652 -0.1431  3.6453
 9484SOL    HW240089   4.228   2.881   1.418 -2.2699 -0.5437 -0.5580
 9485SOL     OW40090   2.086   1.826   1.557 -0.8185 -0.0574  0.2219
 9485SOL    HW140091   2.024   1.769   1.512 -1.3397  1.5075 -1.0445
 9485SOL    HW240092   2.023   1.869   1.614  0.0299  0.1002  1.0361
 9486SOL     OW40093   2.389   3.713  13.391 -0.1912 -0.2310  0.4338
 9486SOL    HW140094   2.436   3.676  13.317  1.2098  2.4447 -0.0131
 9486SOL    HW240095   2.355   3.791  13.348  1.5265 -0.1266 -0.7094
 9487SOL     OW40096   1.359   0.377  16.081 -0.2469  0.0774  0.3941
 9487SOL    HW140097   1.369   0.422  15.998 -1.1751  1.2735  0.9310
 9487SOL    HW240098   1.285   0.423  16.121  1.5977  3.1682  0.1654
 9488SOL     OW40099   3.528   2.928   7.653  0.0453 -0.2700  0.5598
 9488SOL    HW140100   3.609   2.877   7.654 -0.3876 -0.9547  2.4659
 9488SOL    HW240101   3.529   2.942   7.559 -0.9162 -2.1839  0.2610
 9489SOL     OW40102   3.513   0.962   5.613  0.4666  0.0367 -0.2521
 9489SOL    HW140103   3.531   1.048   5.650  0.4437 -0.4516  0.8800
 9489SOL    HW240104   3.428   0.947   5.655  0.3484 -1.8215 -1.1657
 9490SOL     OW40105   0.898   3.662  12.381  0.4707 -0.0379 -0.1948
 9490SOL    HW140106   0.855   3.747  12.374  0.7643  0.2670  1.6802
 9490SOL    HW240107   0.963   3.672  12.451  0.5158 -1.4562 -0.0315
 9491SOL     OW40108   0.678   1.777   8.009  0.0648  0.6468 -0.2937
 9491SOL    HW140109   0.676   1.778   7.913 -0.2546 -3.0707 -0.3202
 9491SOL    HW240110   0.587   1.762   8.037 -0.1430  2.5534  0.0397
 9492SOL     OW40111   2.904   1.574  17.550 -0.5734  0.1696 -0.2444
 9492SOL    HW140112   2.833   1.584  17.613 -0.7451 -0.7078 -0.3002
 9492SOL    HW240113   2.978   1.605  17.602 -2.1101  1.6448  1.0577
 9493SOL     OW40114   0.784   4.509  14.835  0.3671  0.3136 -0.2274
 9493SOL    HW140115   0.880   4.513  14.827  0.6379  1.0224  3.1800
 9493SOL    HW240116   0.775   4.570  14.909  3.1861  2.5791 -1.7255
 9494SOL     OW40117   2.503   3.031  14.208  0.5448  0.3221  0.2914
 9494SOL    HW140118   2.501   2.982  14.126 -0.7643  2.0044 -0.6885
 9494SOL    HW240119   2.432   2.995  14.261  1.5938  0.0787  1.5327
 9495SOL     OW40120   3.886   2.590   1.665  0.2560 -0.0037  0.1406
 9495SOL    HW140121   3.851   2.505   1.642  1.4959 -0.4967  0.0637
 9495SOL    HW240122   3.914   2.625   1.581 -0.3526  0.9295  0.3211
 9496SOL     OW40123   2.220   1.476   4.666 -0.0694 -0.8340  0.8707
 9496SOL    HW140124   2.300   1.523   4.644 -1.4079  1.1286  0.1315
 9496SOL    HW240125   2.213   1.422   4.587  0.5404  1.6553 -0.8747
 9497SOL     OW40126   1.747   3.526   5.226  0.1478  0.3482 -0.2466
 9497SOL    HW140127   1.714   3.436   5.231  2.1176 -0.4346 -1.3344
 9497SOL    HW240128   1.770   3.540   5.318 -0.3964  2.3109 -0.4192
 9498SOL     OW40129   4.539   3.705   5.529  0.3176 -0.1758 -0.4316
 9498SOL    HW140130   4.514   3.624   5.485  0.7856 -0.7002  0.2665
 9498SOL    HW240131   4.462   3.757   5.508  1.2998  1.0397 -1.0320
 9499SOL     OW40132   1.078   1.402   8.191  0.1859 -0.6210  0.8890
 9499SOL    HW140133   1.001   1.457   8.175 -0.0166 -0.4522  2.4818
 9499SOL    HW240134   1.035   1.333   8.241 -4.6162  1.1872 -0.6930
 9500SOL     OW40135   3.865   4.180  16.021 -0.1304 -0.2275 -0.3619
 9500SOL    HW140136   3.840   4.226  15.941 -1.9873  1.4003  1.1536
 9500SOL    HW240137   3.939   4.122  16.004  1.0949  0.8565  1.1669
 9501SOL     OW40138   1.736   4.391   7.076 -0.2994 -0.2199 -0.5645
 9501SOL    HW140139   1.688   4.402   7.158  0.3913  1.9198 -0.4319
 9501SOL    HW240140   1.829   4.399   7.098 -0.6249 -0.7385  0.9729
 9502SOL     OW40141   1.266   0.893   3.586  0.5909 -0.8581 -0.3974
 9502SOL    HW140142   1.267   0.916   3.679 -1.4863  1.2328 -0.9042
 9502SOL    HW240143   1.207   0.818   3.583  2.3282 -2.2773  0.1964
 9503SOL     OW40144   4.176   2.384   2.056 -0.2106 -0.4506  0.6055
 9503SOL    HW140145   4.136   2.422   1.978 -0.8843  2.8324  2.5797
 9503SOL    HW240146   4.206   2.460   2.106 -0.2658 -0.8128  1.1997
 9504SOL     OW40147   1.440   0.162  12.922 -0.0472  0.1210  0.6183
 9504SOL    HW140148   1.419   0.078  12.882 -0.7522  1.4523 -1.8448
 9504SOL    HW240149   1.499   0.141  12.994  0.0846  0.7002  0.6798
 9505SOL     OW40150   4.619   3.533   5.936  0.2008  0.2514  0.2756
 9505SOL    HW140151   4.656   3.605   5.885  0.2492  1.9847  2.7836
 9505SOL    HW240152   4.687   3.517   6.002 -1.5383  1.9210  2.4711
 9506SOL     OW40153   4.145   1.841   6.350  0.4115  0.1675  0.7559
 9506SOL    HW140154   4.092   1.855   6.428  2.0859 -1.3381  2.1439
 9506SOL    HW240155   4.118   1.752   6.327 -1.7926  0.9483  0.2435
 9507SOL     OW40156   4.540   1.087   7.021  0.4628  0.1307  0.1821
 9507SOL    HW140157   4.538   1.111   6.928 -0.0471  2.2199  0.7226
 9507SOL    HW240158   4.621   1.037   7.026  0.5853  0.3032 -0.1209
 9508SOL     OW40159   2.362   2.793  17.367  0.0719 -0.2164  0.4373
 9508SOL    HW140160   2.433   2.775  17.305  0.8945  2.4416  0.5929
 9508SOL    HW240161   2.299   2.842  17.314  0.0234 -1.2476 -0.4729
 9509SOL     OW40162   4.098   3.347   7.880  0.7370 -0.3404 -0.0097
 9509SOL    HW140163   4.020   3.312   7.838  1.3072 -0.6811 -0.7683
 9509SOL    HW240164   4.099   3.434   7.840 -0.8925 -0.7343 -0.9048
 9510SOL     OW40165   4.381   0.338   6.926 -0.3797 -0.2483 -0.3991
 9510SOL    HW140166   4.422   0.261   6.886  2.0756  0.6027  0.4838
 9510SOL    HW240167   4.447   0.376   6.984  0.7641 -2.2531 -0.3698
 9511SOL     OW40168   0.825   1.674   8.449  1.0302 -0.4949  0.5113
 9511SOL    HW140169   0.830   1.585   8.485 -0.7643 -0.6841  0.2900
 9511SOL    HW240170   0.912   1.683   8.410  1.0549  0.5334  0.8143
 9512SOL     OW40171   3.831   2.470   6.679  0.1573  0.5365 -0.3137
 9512SOL    HW140172   3.752   2.422   6.704 -0.0136  0.6091 -0.7199
 9512SOL    HW240173   3.855   2.434   6.594 -1.3184 -0.7322 -0.1906
 9513SOL     OW40174   1.984   2.609   1.458 -0.0662 -0.0936 -0.4653
 9513SOL    HW140175   1.946   2.696   1.474  0.0633  0.6205 -4.0317
 9513SOL    HW240176   2.042   2.607   1.534 -0.6071 -0.5464 -0.0712
 9514SOL     OW40177   3.121   2.482   5.730 -0.1522  0.1870 -0.4399
 9514SOL    HW140178   3.207   2.444   5.712  0.1042  0.1513  0.8749
 9514SOL    HW240179   3.132   2.517   5.818  0.0456 -0.4692 -0.2022
 9515SOL     OW40180   1.998   3.664   8.510 -0.0496  0.0314  0.2814
 9515SOL    HW140181   2.069   3.726   8.528  0.0045 -0.3163  1.2418
 9515SOL    HW240182   2.051   3.595   8.471  0.3639 -0.0448  0.9997
 9516SOL     OW40183   1.403   4.221  11.603 -0.5508  0.0459 -0.3249
 9516SOL    HW140184   1.362   4.167  11.534 -1.3829 -0.8113  0.8433
 9516SOL    HW240185   1.324   4.266  11.634 -1.8653 -2.2221 -0.4055
 9517SOL     OW40186   0.677   2.434   3.561  0.3859 -0.6028 -0.0357
 9517SOL    HW140187   0.586   2.422   3.534  0.0633  1.4557  0.1323
 9517SOL    HW240188   0.689   2.529   3.566  0.5329 -0.5952 -0.6027
 9518SOL     OW40189   4.508   3.906   3.899 -0.1818 -0.5639  0.0465
 9518SOL    HW140190   4.468   3.819   3.904  0.9413 -1.1445 -1.1155
 9518SOL    HW240191   4.542   3.899   3.810  1.0021  4.0704  0.1730
 9519SOL     OW40192   1.768   4.133   4.129 -0.0306 -0.5145  0.0287
 9519SOL    HW140193   1.749   4.047   4.167  0.9947 -1.0887 -0.7759
 9519SOL    HW240194   1.690   4.183   4.155  0.1277 -0.6655  0.7914
 9520SOL     OW40195   2.117   3.656   4.719  0.4867 -0.4617 -0.3297
 9520SOL    HW140196   2.046   3.701   4.672  0.2695 -0.4436  0.0159
 9520SOL    HW240197   2.067   3.602   4.780  0.4966 -0.4201 -0.2850
 9521SOL     OW40198   0.764   2.274   0.456  0.3838  0.5621 -0.5699
 9521SOL    HW140199   0.779   2.224   0.376  1.1431 -0.7968  0.4261
 9521SOL    HW240200   0.719   2.356   0.436 -0.4771 -0.0567 -1.1928
 9522SOL     OW40201   3.906   0.750   3.663  0.2702  0.0311 -0.0748
 9522SOL    HW140202   3.981   0.777   3.717  0.3659 -0.1046 -0.1403
 9522SOL    HW240203   3.827   0.774   3.712 -0.5403 -3.0682  0.1431
 9523SOL     OW40204   2.608   1.228   1.335 -0.0944 -0.6414 -0.0068
 9523SOL    HW140205   2.592   1.161   1.268  0.2847 -0.8100  0.0722
 9523SOL    HW240206   2.704   1.230   1.340 -0.0862 -0.8864 -0.0493
 9524SOL     OW40207   3.883   2.101   5.553 -0.6257  0.5008 -0.5389
 9524SOL    HW140208   3.826   2.178   5.560 -1.1844  0.2672 -2.4164
 9524SOL    HW240209   3.917   2.110   5.642  1.5340  1.3929 -1.4735
 9525SOL     OW40210   0.122   2.075   7.392 -0.0570 -0.2163 -0.5726
 9525SOL    HW140211   0.201   2.024   7.406  1.7837  2.6980 -0.4379
 9525SOL    HW240212   0.070   2.009   7.346 -2.2969  0.9416  0.2891
 9526SOL     OW40213   1.100   0.140   8.093 -0.1890  0.2467 -0.4975
 9526SOL    HW140214   1.074   0.120   8.183 -1.1349 -2.1707 -1.3253
 9526SOL    HW240215   1.119   0.234   8.091  3.5993 -0.4776  0.5592
 9527SOL     OW40216   2.074   3.295  12.016 -0.4124  0.0688  0.0103
 9527SOL    HW140217   2.064   3.348  12.095  0.9905 -1.4750  1.2166
 9527SOL    HW240218   1.997   3.295  11.959  0.6253  3.0390 -1.4235
 9528SOL     OW40219   3.229   3.308   9.503 -0.1030  0.0583  0.0447
 9528SOL    HW140220   3.290   3.288   9.574 -1.0307  0.1364  0.8647
 9528SOL    HW240221   3.198   3.394   9.532  0.1173  0.5403 -1.1594
 9529SOL     OW40222   3.334   3.323  10.007 -0.1323 -0.3650 -0.1840
 9529SOL    HW140223   3.310   3.311  10.099 -1.3614  0.0159 -0.4594
 9529SOL    HW240224   3.265   3.377   9.969 -0.1676  0.3843  0.9358
 9530SOL     OW40225   2.074   2.010   2.278  0.0163 -0.4023 -0.1997
 9530SOL    HW140226   2.050   1.992   2.369  1.2685  0.6643  0.3457
 9530SOL    HW240227   2.102   2.101   2.288  1.2518 -0.7673 -0.2760
 9531SOL     OW40228   4.435   2.969   7.109 -0.7742  0.0225  0.3486
 9531SOL    HW140229   4.364   3.028   7.084  0.7762  2.9781  2.8684
 9531SOL    HW240230   4.486   2.970   7.028 -0.0810  0.0449  0.7836
 9532SOL     OW40231   4.620   1.388   8.726 -1.0292 -0.3831 -0.3992
 9532SOL    HW140232   4.529   1.416   8.740 -0.5995  1.3308 -1.0609
 9532SOL    HW240233   4.611   1.308   8.674 -1.1650 -1.3097  1.0500
 9533SOL     OW40234   1.590   1.864   3.135  0.1475 -0.3370  0.2699
 9533SOL    HW140235   1.497   1.869   3.116  0.6461  1.4455 -1.7580
 9533SOL    HW240236   1.576   1.835   3.225 -0.3516  1.6174  0.8116
 9534SOL     OW40237   4.189   1.349   7.555 -0.6108  0.1731  0.5549
 9534SOL    HW140238   4.185   1.364   7.649  0.1165 -0.7000  0.7251
 9534SOL    HW240239   4.142   1.267   7.538 -0.8245  0.1861  1.0689
 9535SOL     OW40240   3.072   0.039   6.192 -0.0527  0.1789 -1.1643
 9535SOL    HW140241   3.056   0.107   6.127  2.5245  1.8763 -0.0498
 9535SOL    HW240242   3.161   0.062   6.221 -1.1195  0.9024  1.5687
 9536SOL     OW40243   4.279   4.537  16.893 -0.0790  0.3355  0.3884
 9536SOL    HW140244   4.192   4.563  16.920  0.1522  0.4547  1.0286
 9536SOL    HW240245   4.333   4.559  16.969  0.3937  0.1907  0.1000
 9537SOL     OW40246   4.668   4.363   0.946  0.0138  0.2518 -0.0609
 9537SOL    HW140247   4.712   4.445   0.966  1.8991 -1.1703  1.6136
 9537SOL    HW240248   0.007   4.303   0.957 -0.0541  0.1565 -0.1250
 9538SOL     OW40249   3.147   2.016   0.297 -0.5906 -0.1407  0.3879
 9538SOL    HW140250   3.075   2.006   0.235  0.2292 -0.4794 -0.5064
 9538SOL    HW240251   3.202   2.078   0.248  0.6872 -0.6857  1.1247
 9539SOL     OW40252   1.053   2.661  11.412  0.4006 -0.6094  0.3885
 9539SOL    HW140253   1.017   2.608  11.341  0.1935 -0.4413  0.3679
 9539SOL    HW240254   1.090   2.735  11.364 -0.1156  0.3051  1.4000
 9540SOL     OW40255   4.659   0.654   1.404 -0.2180 -0.0357 -0.1093
 9540SOL    HW140256   4.729   0.635   1.466 -0.8056  0.9078  0.8441
 9540SOL    HW240257   4.700   0.641   1.319  0.4335 -3.8564  0.8139
 9541SOL     OW40258   4.361   4.727   2.669  0.3283  0.6293 -0.1114
 9541SOL    HW140259   4.418   0.061   2.633 -1.3870  1.6469 -0.8728
 9541SOL    HW240260   4.424   4.655   2.663  0.0436  0.2642  1.1343
 9542SOL     OW40261   3.202   1.960  11.971 -0.0661  0.3426  0.2641
 9542SOL    HW140262   3.148   2.038  11.982 -0.2571  0.7422 -3.6329
 9542SOL    HW240263   3.140   1.893  11.999  0.8575  0.2208  2.0475
 9543SOL     OW40264   3.905   4.306   5.242  0.0222  0.1031 -0.5043
 9543SOL    HW140265   3.814   4.292   5.268 -0.0317 -1.1915 -1.3373
 9543SOL    HW240266   3.955   4.245   5.297 -2.0641 -1.9038 -0.8224
 9544SOL     OW40267   0.018   2.847   6.497  0.4179 -0.0465  0.0732
 9544SOL    HW140268   0.048   2.769   6.542  0.6153 -0.6476 -1.1176
 9544SOL    HW240269   0.099   2.895   6.513  0.7779 -0.7533  0.3319
 9545SOL     OW40270   4.081   2.231   3.712 -0.7444  0.5280  0.0584
 9545SOL    HW140271   4.001   2.282   3.703 -0.6458  0.5301 -0.8171
 9545SOL    HW240272   4.143   2.295   3.676 -0.9041  1.2123  0.9835
 9546SOL     OW40273   1.876   0.479   4.829 -0.3293 -0.2053 -0.1883
 9546SOL    HW140274   1.950   0.457   4.886 -0.2615  1.1508  0.2402
 9546SOL    HW240275   1.904   0.444   4.745  2.3619  1.2477  0.1154
 9547SOL     OW40276   1.790   0.155  10.102 -0.1753 -0.0336  0.3627
 9547SOL    HW140277   1.728   0.087  10.077  0.4361  0.4242 -2.3934
 9547SOL    HW240278   1.855   0.111  10.156  2.1748  2.3310 -0.5637
 9548SOL     OW40279   2.411   4.187  10.547 -0.1857  0.0360  0.2584
 9548SOL    HW140280   2.420   4.152  10.636 -1.3291  0.4404  0.5380
 9548SOL    HW240281   2.327   4.233  10.552  0.2668  0.8452  0.3558
 9549SOL     OW40282   2.500   4.234  10.295 -0.1489 -0.2146 -0.3456
 9549SOL    HW140283   2.414   4.253  10.333  0.2262 -0.8920  0.8835
 9549SOL    HW240284   2.539   4.225  10.382 -2.4219 -0.5858  0.6322
 9550SOL     OW40285   1.330   0.329   0.874  0.3467 -0.6275 -0.3084
 9550SOL    HW140286   1.319   0.400   0.937  1.5664  0.2651 -1.0940
 9550SOL    HW240287   1.383   0.265   0.923  2.3930  0.1729 -1.4643
 9551SOL     OW40288   0.899   3.418   5.623 -0.4745  0.3990 -0.0786
 9551SOL    HW140289   0.873   3.327   5.630 -3.0680  1.2611  1.1263
 9551SOL    HW240290   0.995   3.415   5.631 -0.6870 -0.5890  1.9635
 9552SOL     OW40291   3.250   2.910   7.436 -0.0453 -0.0630  0.6031
 9552SOL    HW140292   3.328   2.943   7.392 -1.9412  2.8898 -0.5722
 9552SOL    HW240293   3.244   2.822   7.401 -3.0329  0.0799  0.7397
 9553SOL     OW40294   2.507   3.547   2.909 -0.4242  0.0097 -1.4533
 9553SOL    HW140295   2.474   3.463   2.941  2.1555 -1.0996 -1.7585
 9553SOL    HW240296   2.570   3.576   2.975 -0.4517  0.2286 -1.5228
 9554SOL     OW40297   3.412   1.828   8.817 -0.4354  0.0417  0.6612
 9554SOL    HW140298   3.322   1.859   8.806 -0.5313 -0.1549  0.8886
 9554SOL    HW240299   3.431   1.837   8.911  3.3765 -2.1108  0.0746
 9555SOL     OW40300   0.829   2.047   6.745 -0.5745 -0.6700  0.0198
 9555SOL    HW140301   0.735   2.064   6.754 -0.7726 -1.0230 -1.3689
 9555SOL    HW240302   0.832   2.009   6.657  1.8747 -0.7312  0.1254
 9556SOL     OW40303   0.086   0.999   6.381 -0.0667 -0.7512 -0.0884
 9556SOL    HW140304   0.033   1.029   6.308 -1.8760 -0.4073  1.3658
 9556SOL    HW240305   0.040   1.022   6.462  0.2712 -0.1331 -0.0704
 9557SOL     OW40306   0.726   0.559  15.116  0.6883  0.0111 -0.0949
 9557SOL    HW140307   0.631   0.557  15.108  0.8699  0.3010 -2.1923
 9557SOL    HW240308   0.757   0.535  15.029 -1.4439 -0.1692 -0.7985
 9558SOL     OW40309   3.394   0.593  15.388 -0.0473  0.3756 -0.0659
 9558SOL    HW140310   3.422   0.576  15.298 -0.1208  1.0269 -0.2148
 9558SOL    HW240311   3.376   0.503  15.414  0.1048  0.3059 -0.1991
 9559SOL     OW40312   3.920   3.763   2.305  0.3633  0.3804  0.2146
 9559SOL    HW140313   3.962   3.716   2.378  2.1718  1.0506 -0.3996
 9559SOL    HW240314   3.828   3.740   2.318  0.5414 -0.6115 -0.2746
 9560SOL     OW40315   1.986   1.882   7.909 -0.2935 -0.1913  0.2077
 9560SOL    HW140316   2.010   1.918   7.994  3.0125 -1.0062 -0.3788
 9560SOL    HW240317   1.960   1.963   7.865 -1.1358  0.1574  1.3648
 9561SOL     OW40318   0.061   3.033  12.449  0.6411 -0.2239  0.3077
 9561SOL    HW140319   0.093   3.085  12.523  1.1412 -2.1158  1.4318
 9561SOL    HW240320   0.024   2.956  12.494  2.7003  0.4258  3.1512
 9562SOL     OW40321   4.423   4.338  14.613 -0.8871 -0.5509 -0.3178
 9562SOL    HW140322   4.381   4.348  14.698  0.4568  2.5508 -0.0031
 9562SOL    HW240323   4.512   4.337  14.646 -1.5323  3.2359  1.5449
 9563SOL     OW40324   3.998   3.225   5.498 -0.2837  0.0546  0.3511
 9563SOL    HW140325   3.976   3.212   5.406  5.0332 -2.2222 -0.5592
 9563SOL    HW240326   3.913   3.254   5.533 -0.7846 -1.1537  0.1446
 9564SOL     OW40327   4.702   3.539   4.650  0.1204 -0.2715  0.0047
 9564SOL    HW140328   4.690   3.539   4.555 -2.6326 -0.2349  0.3456
 9564SOL    HW240329   4.642   3.613   4.657 -1.0172 -1.0443 -1.5585
 9565SOL     OW40330   3.906   1.705  17.631 -0.6820  0.4091 -0.0386
 9565SOL    HW140331   3.887   1.655  17.552  1.4516  0.1830 -0.3999
 9565SOL    HW240332   3.991   1.746  17.622 -1.1289  1.4152  0.2757
 9566SOL     OW40333   3.298   1.960   1.461  0.2235  0.0384 -0.2759
 9566SOL    HW140334   3.375   2.002   1.424  1.2996 -0.6056  1.1823
 9566SOL    HW240335   3.333   1.908   1.534  2.0438  1.8245  0.1384
 9567SOL     OW40336   1.840   0.622   2.011  0.0682  0.3821 -0.0230
 9567SOL    HW140337   1.899   0.690   1.980  1.5802 -0.6248  0.6410
 9567SOL    HW240338   1.900   0.564   2.059 -0.1368  0.3171  0.1534
 9568SOL     OW40339   0.407   4.587   8.028  0.3314 -0.2226  0.0858
 9568SOL    HW140340   0.402   4.660   8.090  1.1053 -0.5836  0.5606
 9568SOL    HW240341   0.339   4.529   8.061 -0.2875 -0.0336 -0.8613
 9569SOL     OW40342   3.096   1.923   1.695 -0.0134 -0.5002  0.4848
 9569SOL    HW140343   3.025   1.871   1.658 -0.2128  1.0345 -1.2603
 9569SOL    HW240344   3.159   1.854   1.717  2.7241  2.3376  1.6152
   4.73467   4.73467  17.73765
