Membrane in water
40344
    1TMC1    C1    1   0.365   3.264  11.294 -0.6367 -0.2556 -0.7659
    1TMC1    C2    2   0.490   3.252  11.248 -0.4283  0.4206  0.0241
    1TMC1    C3    3   0.515   3.316  11.131  0.1212 -0.3228 -0.3501
    1TMC1    C4    4   0.272   3.337  11.228 -0.0033  0.0301 -0.3180
    1TMC1    C5    5   0.306   3.405  11.112 -0.8324 -0.0432  0.0938
    1TMC1    C6    6   0.429   3.399  11.062  0.1464 -0.3527  0.4218
    1TMC1     C    7   0.331   3.190  11.409  0.3870 -0.8872 -0.2428
    1TMC1     O    8   0.233   3.219  11.472 -0.2853 -0.2808  0.1594
    1TMC1     H    9   0.572   3.193  11.288 -0.8116  0.4191  0.7850
    1TMC1    H1   10   0.171   3.347  11.265  0.4081  2.5029  0.1623
    1TMC1    H2   11   0.470   3.436  10.969  0.5118 -0.1924  0.6453
    1TMC1    C7   12   0.199   3.433  11.019  0.9323 -0.1871 -0.7395
    1TMC1    C8   13   0.642   3.302  11.070 -0.3765 -0.0226 -0.5530
    1TMC1    O1   14   0.104   3.355  11.011 -0.3229  0.5417  0.0261
    1TMC1    O2   15   0.702   3.390  11.009  0.2791 -0.4135  0.2954
    1TMC1    O3   16   0.249   3.520  10.924 -0.3149 -0.5824 -0.4701
    1TMC1    H3   17   0.312   3.584  10.963 -1.2810  0.7584 -1.1037
    1TMC1    O5   18   0.671   3.169  11.068 -0.2553 -0.4736  0.0490
    1TMC1    H5   19   0.604   3.118  11.118  0.2892  0.6278  1.9193
    2MPD2     C   20   0.360   2.782  11.729 -0.7128 -0.3627 -0.2715
    2MPD2    C1   21   0.293   2.900  11.743  0.0210 -0.1125 -0.2037
    2MPD2    C2   22   0.298   2.995  11.641  0.2387  0.5652  0.0127
    2MPD2    C3   23   0.381   2.971  11.530  0.0700  0.3764 -0.1668
    2MPD2    C4   24   0.451   2.852  11.518 -0.4240  0.1161 -0.0612
    2MPD2    C5   25   0.431   2.756  11.613 -0.5482  0.0576  0.1312
    2MPD2     H   26   0.248   3.090  11.657  1.7604  1.6561 -1.6314
    2MPD2    H1   27   0.511   2.833  11.430 -0.7689  1.5834 -0.6144
    2MPD2    H2   28   0.357   2.701  11.801 -0.8285 -0.7546 -0.7142
    2MPD2    H3   29   0.491   2.665  11.608 -0.1364  0.3117  0.3616
    2MPD2     N   30   0.400   3.070  11.423  0.0760  0.2382 -0.2670
    2MPD2    H5   31   0.467   3.040  11.353 -0.3047 -0.1389 -0.4661
    2MPD2    N1   32   0.211   2.931  11.852 -0.3185 -0.0244  0.6468
    2MPD2    H7   33   0.169   3.022  11.866  1.0470  0.5472  1.1150
    3TMC1    C1   34   0.176   4.394  11.069 -0.1351 -0.0960  0.2921
    3TMC1    C2   35   0.291   4.343  11.123 -0.2686  0.3603  0.3063
    3TMC1    C3   36   0.402   4.424  11.126 -0.2797 -0.4707  0.3607
    3TMC1    C4   37   0.170   4.517  11.004  0.9119  0.4749 -0.2316
    3TMC1    C5   38   0.282   4.591  11.019  0.5557  0.3054  0.0983
    3TMC1    C6   39   0.393   4.556  11.082  0.1511  0.7958 -0.4457
    3TMC1     C   40   0.064   4.295  11.059  0.2899  0.3185 -0.1413
    3TMC1     O   41   0.094   4.176  11.069  0.5564  0.4843 -0.3861
    3TMC1     H   42   0.305   4.244  11.165 -0.3693  0.0590 -0.3778
    3TMC1    H1   43   0.094   4.536  10.929 -2.1369 -1.6666  2.3176
    3TMC1    H2   44   0.463   4.630  11.118 -0.5572  1.3146 -0.1302
    3TMC1    C7   45   0.274   4.735  10.992  0.5171 -0.9217  0.2736
    3TMC1    C8   46   0.510   4.385  11.210  0.3365  0.1354 -0.3071
    3TMC1    O1   47   0.374   0.065  10.998  0.1438 -0.1997  0.3539
    3TMC1    O2   48   0.483   4.357  11.327 -0.0065  0.4159 -0.1580
    3TMC1    O3   49   0.155   0.045  11.032  0.5981 -0.9415 -0.1055
    3TMC1    H3   50   0.084   4.714  11.039  0.3760 -0.4736  2.1910
    3TMC1    O5   51   0.618   4.461  11.175  0.5608 -0.2679  0.1955
    3TMC1    H5   52   0.624   4.459  11.077 -5.0745  1.2634 -0.2194
    4MPD2     C   53   4.306   4.162  11.114 -0.2808 -0.3750  0.1839
    4MPD2    C1   54   4.315   4.278  11.039 -0.0925  0.2217  0.3107
    4MPD2    C2   55   4.443   4.336  11.021 -0.7281 -0.1784  0.0573
    4MPD2    C3   56   4.555   4.283  11.074  0.0455 -0.2325 -1.1120
    4MPD2    C4   57   4.549   4.157  11.128 -0.0233  0.0986  0.1844
    4MPD2    C5   58   4.422   4.103  11.156  0.4775  0.1104  0.9709
    4MPD2     H   59   4.451   4.433  10.974  0.9960 -0.6372 -0.5801
    4MPD2    H1   60   4.630   4.107  11.180  0.2572 -1.4501 -1.7614
    4MPD2    H2   61   4.213   4.110  11.135 -1.1268  1.2886  0.5485
    4MPD2    H3   62   4.421   4.012  11.216  2.8222 -0.6844 -0.1909
    4MPD2     N   63   4.676   4.351  11.049 -0.5034 -0.3655 -0.2230
    4MPD2    H5   64   4.677   4.452  11.034  0.1721 -0.3241  0.1083
    4MPD2    N1   65   4.206   4.343  10.989 -0.4267  0.5453 -0.2858
    4MPD2    H7   66   4.225   4.429  10.939 -0.7788  0.1442 -1.1119
    5TCq1    O1   67   0.351   1.183  12.189 -0.2792  0.4710  0.0427
    5TCq1    C1   68   0.401   1.261  12.084 -0.2738 -0.5668  0.2951
    5TCq1    O2   69   0.506   1.249  12.015 -0.4079  0.0735  0.3532
    5TCq1    C2   70   0.308   1.372  12.064 -0.2689 -0.2372 -1.3232
    5TCq1    C3   71   0.227   1.407  12.165 -0.3713 -0.1794 -0.3997
    5TCq1    C4   72   0.115   1.486  12.140 -0.2982  0.4181 -0.1388
    5TCq1    C5   73   0.071   1.510  12.004 -0.8730 -0.5206  0.0290
    5TCq1    C6   74   0.152   1.453  11.903  0.0227  0.3692 -0.7261
    5TCq1    C7   75   0.268   1.386  11.937  0.2074  0.4080 -0.3055
    5TCq1    C8   76   0.115   1.468  11.755  0.0958 -0.1954  0.8014
    5TCq1    O4   77   0.184   1.415  11.670 -0.3272  0.2247  0.0143
    5TCq1    C9   78   0.039   1.542  12.254 -0.2708  0.1298  0.2155
    5TCq1    O5   79   4.677   1.617  12.231  0.0645  0.0838 -0.0162
    5TCq1    O6   80   0.064   1.496  12.371  0.1787  0.1344  0.0325
    5TCq1    H1   81   0.259   1.202  12.216 -0.6133  0.2252 -0.9566
    5TCq1    H2   82   0.247   1.385  12.269  1.9878  0.2935 -0.7532
    5TCq1    H3   83   4.708   1.547  11.983 -1.1880 -1.0030  0.6501
    5TCq1    H4   84   0.322   1.353  11.848 -0.1765 -0.5480 -0.1871
    6MPD2     C   85   4.589   1.670  11.630  0.4191 -0.6274  0.8328
    6MPD2    C1   86   4.688   1.577  11.617  0.1316 -0.3253 -0.4539
    6MPD2    C2   87   4.728   1.517  11.500  0.2637 -0.0575 -0.0011
    6MPD2    C3   88   4.629   1.537  11.396  0.5673  0.2158  0.0836
    6MPD2    C4   89   4.531   1.630  11.409 -0.3350 -0.2993 -0.4919
    6MPD2    C5   90   4.503   1.689  11.529 -0.1246 -0.0345  0.1478
    6MPD2     H   91   0.081   1.457  11.491  0.5271  0.2033  0.9356
    6MPD2    H1   92   4.455   1.649  11.334 -0.6278 -0.0048 -0.1214
    6MPD2    H2   93   4.562   1.713  11.726 -1.4370  0.2410 -0.0760
    6MPD2    H3   94   4.417   1.754  11.539 -0.6827 -0.9166  1.0249
    6MPD2     N   95   4.646   1.469  11.273 -0.2213 -0.8339  0.1646
    6MPD2    H5   96   4.721   1.401  11.276 -1.4365 -2.2840 -2.2976
    6MPD2    N1   97   0.014   1.555  11.741  0.3818  0.5963  0.6478
    6MPD2    H7   98   4.723   1.603  11.826 -1.0538  1.2900 -0.2202
    7TCq1    O1   99   2.480   0.126  12.698  0.4347 -0.3503  0.1020
    7TCq1    C1  100   2.406   0.018  12.712 -0.0728  0.7209 -0.3661
    7TCq1    O2  101   2.389   4.670  12.627  0.2801  0.2717  0.5106
    7TCq1    C2  102   2.315   0.030  12.830  0.8540 -0.7101 -0.3480
    7TCq1    C3  103   2.278   0.158  12.872  0.6035  0.0111  0.0617
    7TCq1    C4  104   2.222   0.159  12.998 -0.2126  0.4272  0.9146
    7TCq1    C5  105   2.196   0.042  13.062  0.1911  0.1751  0.2360
    7TCq1    C6  106   2.229   4.658  13.008  0.5460  0.1424 -0.3309
    7TCq1    C7  107   2.284   4.648  12.883  0.5596  0.2820 -0.6099
    7TCq1    C8  108   2.221   4.547  13.093 -0.6105 -0.2387 -0.4687
    7TCq1    O4  109   2.217   4.564  13.214  0.0814 -0.1614  0.5010
    7TCq1    C9  110   2.204   0.286  13.063 -0.6560 -0.1653 -0.6375
    7TCq1    O5  111   2.156   0.290  13.178 -0.0035  0.0701 -0.5028
    7TCq1    O6  112   2.226   0.383  12.984  0.4065  0.3288 -0.3419
    7TCq1    H1  113   2.494   0.176  12.782 -0.0286  2.7174 -1.6337
    7TCq1    H2  114   2.295   0.251  12.819  1.0084 -1.7064 -2.8111
    7TCq1    H3  115   2.139   0.042  13.154  1.7323 -2.8138  1.1809
    7TCq1    H4  116   2.308   4.555  12.833  0.2576  0.1950 -0.5937
    8MPD2     C  117   2.106   4.037  13.157  1.0835 -1.2907  0.4479
    8MPD2    C1  118   2.138   4.132  13.247 -0.1899 -0.0437  0.9281
    8MPD2    C2  119   2.167   4.259  13.205 -0.5083 -0.4606  0.9904
    8MPD2    C3  120   2.165   4.298  13.073 -0.1612 -0.0100 -0.5537
    8MPD2    C4  121   2.152   4.194  12.983 -0.1614 -0.1219 -0.0593
    8MPD2    C5  122   2.123   4.065  13.024 -0.2054 -0.3958  0.3684
    8MPD2     H  123   2.201   4.335  13.274 -0.7056  0.2762  0.2855
    8MPD2    H1  124   2.173   4.210  12.878  2.7153  0.8337  0.6638
    8MPD2    H2  125   2.076   3.939  13.192 -1.0975 -0.5974  0.5527
    8MPD2    H3  126   2.126   3.984  12.951  1.8984 -1.5908  1.7437
    8MPD2     N  127   2.183   4.434  13.026 -0.2682  0.6044  0.8597
    8MPD2    H5  128   2.174   4.452  12.927 -0.1016  0.6597  0.8551
    8MPD2    N1  129   2.145   4.086  13.382 -0.0201 -0.4503  0.1699
    8MPD2    H7  130   2.136   3.986  13.393  2.9426 -0.6412  0.8444
    9TMC1    C1  131   3.953   4.724  11.589 -0.6942  0.2139  0.0498
    9TMC1    C2  132   3.896   0.102  11.545 -0.2190 -0.2190  1.0977
    9TMC1    C3  133   3.763   0.103  11.509 -0.0983 -0.2892  0.4250
    9TMC1    C4  134   3.882   4.609  11.611  0.2735  0.5519  0.3139
    9TMC1    C5  135   3.749   4.614  11.577  0.2459  0.3455  0.2423
    9TMC1    C6  136   3.686   4.728  11.529 -0.1098  0.2185  0.3933
    9TMC1     C  137   4.103   4.718  11.591  0.3794  0.2623 -0.0897
    9TMC1     O  138   4.154   0.091  11.566  0.1511 -0.3194 -0.3321
    9TMC1     H  139   3.945   0.198  11.557 -0.2763 -0.2597  1.6707
    9TMC1    H1  140   3.932   4.523  11.652  0.7064  1.0107  0.7553
    9TMC1    H2  141   3.579   4.726  11.512 -0.2100 -2.6134  1.3959
    9TMC1    C7  142   3.671   4.515  11.633 -0.1892  0.0899 -0.6889
    9TMC1    C8  143   3.693   0.229  11.498  0.1672  0.1203  0.2923
    9TMC1    O1  144   3.558   4.536  11.672 -0.6040 -0.4671 -0.0175
    9TMC1    O2  145   3.731   0.338  11.548 -0.8314  0.3137  0.0309
    9TMC1    O3  146   3.704   4.404  11.564 -0.3632 -0.4962  0.0067
    9TMC1    H3  147   3.782   4.420  11.506 -1.1911  2.3563 -0.3345
    9TMC1    O5  148   3.622   0.224  11.386  0.2789  0.7000 -0.1339
    9TMC1    H5  149   3.592   0.133  11.363  2.2155  0.5094 -1.8522
   10MPD2     C  150   4.386   4.639  11.579 -0.0444 -0.9960 -0.8154
   10MPD2    C1  151   4.288   4.564  11.639 -0.3408 -0.7566  0.1451
   10MPD2    C2  152   4.325   4.454  11.718  0.2009 -0.2448  0.0377
   10MPD2    C3  153   4.455   4.426  11.748 -0.2065  0.5994 -0.3034
   10MPD2    C4  154   4.556   4.503  11.704  0.1887  0.3129 -0.3063
   10MPD2    C5  155   4.520   4.605  11.613 -0.3356 -0.0390 -0.3276
   10MPD2     H  156   4.243   4.395  11.757  0.7180 -1.2343 -0.3478
   10MPD2    H1  157   4.662   4.488  11.725 -0.0230 -0.9438 -0.1357
   10MPD2    H2  158   4.375   4.717  11.504 -1.2682 -1.2120 -0.8506
   10MPD2    H3  159   4.598   4.674  11.583  0.5455 -0.6537  0.5526
   10MPD2     N  160   4.498   4.321  11.832  0.2947 -0.1530  0.2088
   10MPD2    H5  161   4.598   4.308  11.848  0.5740  1.5630 -0.0921
   10MPD2    N1  162   4.152   4.596  11.634 -0.1595 -0.3766 -0.2741
   10MPD2    H7  163   4.089   4.540  11.690  1.1861 -1.5778  0.0342
   11TCq1    O1  164   1.154   3.736  14.423  0.3995 -0.1097 -0.7438
   11TCq1    C1  165   1.178   3.743  14.558 -0.7787 -0.5940  0.4111
   11TCq1    O2  166   1.234   3.646  14.613 -0.3284  0.4017 -0.2409
   11TCq1    C2  167   1.071   3.817  14.619 -0.1598  0.1383 -0.3494
   11TCq1    C3  168   1.099   3.863  14.745  0.0554 -0.0993  0.0543
   11TCq1    C4  169   1.019   3.959  14.812  0.1359 -0.1809 -0.6474
   11TCq1    C5  170   0.913   4.009  14.734  0.0693  0.0022  0.0379
   11TCq1    C6  171   0.890   3.969  14.605 -0.0738 -0.2622 -0.4302
   11TCq1    C7  172   0.958   3.860  14.553 -0.2055 -0.2923 -0.1215
   11TCq1    C8  173   0.784   4.042  14.533  0.1641 -0.3835  0.1257
   11TCq1    O4  174   0.752   4.154  14.565 -0.1027  0.0060  0.2197
   11TCq1    C9  175   1.054   3.997  14.947 -0.3542 -0.4703 -0.5031
   11TCq1    O5  176   0.992   4.092  15.004 -0.4378  0.5114 -1.0086
   11TCq1    O6  177   1.162   3.945  14.990  0.0723  0.4487 -0.8226
   11TCq1    H1  178   1.125   3.823  14.390 -2.3780 -1.1077 -0.9914
   11TCq1    H2  179   1.191   3.836  14.796 -0.8352 -2.0719  0.6197
   11TCq1    H3  180   0.852   4.088  14.778  0.3331  0.1509  0.1346
   11TCq1    H4  181   0.933   3.814  14.458 -0.4819  1.6274 -0.9846
   12MPD2     C  182   0.564   4.120  14.335 -0.0492 -0.6353  0.9812
   12MPD2    C1  183   0.645   4.012  14.332 -0.6254  0.0991  0.0888
   12MPD2    C2  184   0.622   3.924  14.232  0.7731 -0.5384 -0.4101
   12MPD2    C3  185   0.538   3.954  14.122 -0.0070 -0.0041 -0.3377
   12MPD2    C4  186   0.471   4.077  14.122 -0.3445  0.7861  0.1451
   12MPD2    C5  187   0.472   4.151  14.240 -0.3297 -0.4597 -0.1238
   12MPD2     H  188   0.677   3.831  14.227 -2.2262 -2.3030 -0.7523
   12MPD2    H1  189   0.402   4.097  14.041  1.2398  2.3520 -0.8070
   12MPD2    H2  190   0.565   4.184  14.423 -0.9381 -0.0058  0.5311
   12MPD2    H3  191   0.420   4.246  14.240  0.2254 -0.1603  0.9395
   12MPD2     N  192   0.525   3.871  14.005 -0.2743  0.1099  0.0831
   12MPD2    H5  193   0.451   3.895  13.941 -1.1445  1.4518  1.5743
   12MPD2    N1  194   0.743   3.974  14.427  0.3654 -0.3546 -0.4248
   12MPD2    H7  195   0.793   3.887  14.410  2.3992  0.1033  3.1556
   13TCq1    O1  196   0.636   0.076  11.550  0.0684  0.6741 -0.4852
   13TCq1    C1  197   0.607   4.733  11.446 -0.0570  0.3389  0.1984
   13TCq1    O2  198   0.646   4.619  11.445  0.7437 -0.4695  0.1248
   13TCq1    C2  199   0.471   0.024  11.437 -0.0066 -0.1379  0.5057
   13TCq1    C3  200   0.446   0.155  11.380  0.3930  0.2054 -0.2244
   13TCq1    C4  201   0.322   0.178  11.330  0.1860  0.0375  0.1013
   13TCq1    C5  202   0.228   0.078  11.343 -0.2227  0.5815 -0.2017
   13TCq1    C6  203   0.257   4.686  11.399  0.4941 -0.4284 -0.2074
   13TCq1    C7  204   0.381   4.661  11.449 -0.4461 -0.1813 -0.4822
   13TCq1    C8  205   0.146   4.582  11.394 -0.3664 -0.1276 -0.0780
   13TCq1    O4  206   0.036   4.622  11.360 -0.5552  0.4433 -0.2268
   13TCq1    C9  207   0.303   0.299  11.260 -0.1721 -0.6066  0.3101
   13TCq1    O5  208   0.394   0.384  11.269  0.7268 -0.0126  0.5806
   13TCq1    O6  209   0.179   0.316  11.232  0.4277  0.0808 -0.2798
   13TCq1    H1  210   0.562   0.140  11.562  1.0526  1.2342  2.7627
   13TCq1    H2  211   0.527   0.224  11.363 -0.1828  1.2270  1.1759
   13TCq1    H3  212   0.127   0.099  11.310 -0.1550  0.4681 -0.4849
   13TCq1    H4  213   0.416   4.570  11.496 -2.4777 -0.0601  1.2321
   14MPD2     C  214   0.186   4.210  11.440 -0.2946  0.0431 -0.1436
   14MPD2    C1  215   0.119   4.335  11.449  0.0584  0.4078 -0.2838
   14MPD2    C2  216   4.723   4.339  11.464 -0.0746  0.2084 -0.5113
   14MPD2    C3  217   4.644   4.222  11.469  0.6620  0.2835 -0.5690
   14MPD2    C4  218   4.713   4.100  11.456 -0.1121 -0.0231  0.2560
   14MPD2    C5  219   0.115   4.094  11.439 -0.4000  0.1601 -0.0213
   14MPD2     H  220   4.665   4.431  11.461  0.8899  0.8826  1.5683
   14MPD2    H1  221   4.662   4.005  11.465  1.4602 -0.8472  0.6104
   14MPD2    H2  222   0.294   4.210  11.433 -0.5468 -0.5923 -3.7383
   14MPD2    H3  223   0.178   4.006  11.426  1.0083  1.4710 -2.1223
   14MPD2     N  224   4.504   4.231  11.480  0.1773 -0.3972 -0.4742
   14MPD2    H5  225   4.465   4.325  11.477  0.2498 -0.3619 -0.2676
   14MPD2    N1  226   0.198   4.452  11.424  1.2411  0.3480 -0.1868
   14MPD2    H7  227   0.299   4.436  11.426  0.9340 -1.9341 -1.9924
   15TCq1    O1  228   2.653   2.740   1.509  0.0508  0.3481  0.2562
   15TCq1    C1  229   2.645   2.603   1.530 -0.1922 -0.0352 -0.3711
   15TCq1    O2  230   2.731   2.518   1.538  0.3734 -0.4440  0.4882
   15TCq1    C2  231   2.506   2.573   1.491  0.0559  0.2599 -0.1129
   15TCq1    C3  232   2.406   2.647   1.540 -0.2744  0.0688  0.3608
   15TCq1    C4  233   2.283   2.602   1.532  0.2005 -0.0635  0.2368
   15TCq1    C5  234   2.249   2.480   1.465 -0.1007 -0.5085  0.4857
   15TCq1    C6  235   2.354   2.409   1.415  0.2904 -0.3352 -0.3408
   15TCq1    C7  236   2.483   2.459   1.422 -0.2774  0.1674  0.4416
   15TCq1    C8  237   2.323   2.293   1.336  0.1682  0.4388 -0.5726
   15TCq1    O4  238   2.391   2.194   1.350  0.2188  0.0670 -0.0364
   15TCq1    C9  239   2.186   2.647   1.628 -0.4598  0.6664  0.1339
   15TCq1    O5  240   2.067   2.618   1.600 -0.3481  0.5917 -0.1333
   15TCq1    O6  241   2.228   2.723   1.718 -0.0797  0.4922  0.2531
   15TCq1    H1  242   2.577   2.798   1.487  0.4563  1.0701  0.7551
   15TCq1    H2  243   2.434   2.730   1.604  0.3678  0.2864 -0.2005
   15TCq1    H3  244   2.150   2.439   1.481 -0.1424 -0.9416 -0.9436
   15TCq1    H4  245   2.562   2.404   1.372  0.2014 -0.1669  1.5696
   16MPD2     C  246   2.019   2.279   1.140 -0.3208 -0.5592 -0.0445
   16MPD2    C1  247   2.127   2.227   1.201  0.3966 -0.3614  0.2342
   16MPD2    C2  248   2.156   2.095   1.192 -0.2763 -0.3172 -0.4709
   16MPD2    C3  249   2.059   2.013   1.141  0.7668 -0.4628  0.2186
   16MPD2    C4  250   1.951   2.062   1.079  0.1125  0.2002 -0.0244
   16MPD2    C5  251   1.935   2.201   1.069 -0.4413 -0.2833  0.5247
   16MPD2     H  252   2.244   2.054   1.240  0.3911  0.9442 -0.6187
   16MPD2    H1  253   1.872   1.998   1.041 -0.4459  1.6291 -1.3007
   16MPD2    H2  254   1.985   2.381   1.151 -0.3447 -0.3438 -2.1217
   16MPD2    H3  255   1.843   2.246   1.032  2.1883  1.5275 -3.7751
   16MPD2     N  256   2.088   1.873   1.148 -0.7255 -0.3019 -0.6520
   16MPD2    H5  257   2.173   1.842   1.193 -0.8920  1.7270  1.0342
   16MPD2    N1  258   2.210   2.314   1.268  0.4397 -0.3763 -0.5990
   16MPD2    H7  259   2.172   2.408   1.269  0.5428 -0.3272 -1.1481
   17TMC1    C1  260   4.499   2.617  10.632 -0.6548 -0.1259 -0.6932
   17TMC1    C2  261   4.508   2.615  10.771  0.4045  0.5570 -1.1413
   17TMC1    C3  262   4.463   2.507  10.837  0.3087 -0.4745  0.3314
   17TMC1    C4  263   4.446   2.511  10.556  0.2822 -0.1955 -0.1463
   17TMC1    C5  264   4.398   2.411  10.633  0.3981  0.9915 -0.1304
   17TMC1    C6  265   4.395   2.407  10.775 -0.2264  0.4771  1.0532
   17TMC1     C  266   4.554   2.723  10.556 -0.3140  0.2645  0.1976
   17TMC1     O  267   4.520   2.723  10.440  0.2812  0.6868 -0.3889
   17TMC1     H  268   4.543   2.699  10.830  2.4436 -0.2063 -1.2436
   17TMC1    H1  269   4.437   2.504  10.448 -0.3309  1.3128 -0.1936
   17TMC1    H2  270   4.368   2.316  10.826 -1.1696  0.8607  1.2445
   17TMC1    C7  271   4.339   2.293  10.565  0.9446  0.4614 -0.1953
   17TMC1    C8  272   4.449   2.530  10.976  0.6240  0.5159 -0.1186
   17TMC1    O1  273   4.368   2.259  10.450  0.5227 -0.2302  0.6812
   17TMC1    O2  274   4.488   2.442  11.057  0.3159 -0.1770  0.2588
   17TMC1    O3  275   4.223   2.268  10.632  0.0675 -0.3032  0.2869
   17TMC1    H3  276   4.201   2.342  10.693 -0.7173 -1.7224  1.7258
   17TMC1    O5  277   4.331   2.596  10.989 -0.7861  0.1369 -0.1711
   17TMC1    H5  278   4.315   2.647  10.907 -2.0322  0.3089  0.1781
   18MPD2     C  279   4.653   2.967  10.444 -0.1273  0.0831  0.1305
   18MPD2    C1  280   4.699   2.917  10.562  0.2542  0.3112 -0.5418
   18MPD2    C2  281   0.058   2.988  10.631 -0.4683 -0.3350 -0.0528
   18MPD2    C3  282   0.091   3.120  10.597 -0.0466  0.0408  0.3659
   18MPD2    C4  283   0.027   3.173  10.493 -0.1711 -0.4608 -0.6191
   18MPD2    C5  284   4.673   3.098  10.423  0.3028  0.1577 -1.0349
   18MPD2     H  285   0.098   2.946  10.723 -1.4394  3.4764  2.1445
   18MPD2    H1  286   0.043   3.274  10.456 -0.1606  0.4417  1.8499
   18MPD2    H2  287   4.578   2.921  10.380 -1.4976  2.3875  0.0691
   18MPD2    H3  288   4.604   3.146  10.355  1.4004  3.7853  0.4440
   18MPD2     N  289   0.197   3.195  10.660 -0.1035 -0.4657  0.4572
   18MPD2    H5  290   0.213   3.290  10.629 -1.1588 -0.1838  0.7753
   18MPD2    N1  291   4.645   2.801  10.615  0.1843 -1.1487 -0.4153
   18MPD2    H7  292   4.680   2.790  10.710  0.4350  0.4174 -0.3138
   19TMC2    C1  293   1.803   3.690  14.469  0.2059  0.1683 -0.3654
   19TMC2    C2  294   1.754   3.813  14.501 -0.4778 -0.3523  1.2146
   19TMC2    C3  295   1.616   3.818  14.526  0.3175 -0.8297 -0.4786
   19TMC2    C4  296   1.738   3.568  14.485  0.2836 -0.1365  0.4001
   19TMC2    C5  297   1.602   3.573  14.499 -0.3368  0.0766  0.0275
   19TMC2    C6  298   1.542   3.700  14.522  0.6383 -0.0457  0.1012
   19TMC2     C  299   1.948   3.697  14.445 -0.1311 -0.4079  0.0677
   19TMC2     O  300   1.996   3.805  14.434 -0.6283 -0.2442 -0.4231
   19TMC2     H  301   1.792   3.914  14.495 -1.6317 -0.1077 -2.4671
   19TMC2    H1  302   1.789   3.478  14.454  0.1544  0.3088 -1.1270
   19TMC2    H2  303   1.435   3.714  14.521  0.7362  0.7512  0.9136
   19TMC2    C7  304   1.526   3.457  14.460  0.3576  0.9688 -0.5830
   19TMC2    C8  305   1.552   3.945  14.500 -0.0543  0.7130  0.6619
   19TMC2    O1  306   1.593   3.362  14.418  0.6595 -0.2919  0.3845
   19TMC2    O2  307   1.588   4.025  14.414 -0.4389  0.0082  0.5586
   19TMC2    O5  308   1.429   3.946  14.562 -0.2670  0.3614 -0.0622
   19TMC2    H5  309   1.439   3.878  14.632  0.5716 -1.2005 -1.6885
   20MPD2     C  310   2.245   3.658  14.434  0.2961 -0.2061 -0.1852
   20MPD2    C1  311   2.148   3.555  14.445  0.3864  0.7741  0.0526
   20MPD2    C2  312   2.188   3.423  14.449  0.1751  0.2831 -0.8706
   20MPD2    C3  313   2.323   3.390  14.447 -0.6896  0.1923  0.4370
   20MPD2    C4  314   2.416   3.484  14.429 -0.2809 -0.0194  0.1108
   20MPD2    C5  315   2.379   3.620  14.426  0.3020 -0.6688  0.7160
   20MPD2     H  316   2.107   3.354  14.469  0.6366  0.2808  0.9441
   20MPD2    H1  317   2.521   3.455  14.428 -0.7243 -1.5939 -0.8893
   20MPD2    H2  318   2.216   3.760  14.454  0.7050 -0.2962  0.8415
   20MPD2    H3  319   2.454   3.698  14.427 -1.0008  0.5736  1.7582
   20MPD2     N  320   2.371   3.258  14.459  0.3094 -0.1684 -0.1406
   20MPD2    H5  321   2.472   3.258  14.470  0.1327  1.8412  1.5862
   20MPD2    N1  322   2.011   3.579  14.453 -0.0593  1.0857 -0.4600
   20MPD2    H7  323   1.959   3.494  14.469 -0.5226  1.7392  1.4832
   21TMC2    C1  324   4.165   3.290  14.342  0.3522 -0.9636 -0.5277
   21TMC2    C2  325   4.218   3.174  14.400 -0.3595 -0.0885 -0.1765
   21TMC2    C3  326   4.204   3.151  14.537  0.3699 -0.2077 -0.5794
   21TMC2    C4  327   4.096   3.377  14.419 -0.2902 -0.8622  0.2737
   21TMC2    C5  328   4.087   3.349  14.558  0.1043  0.6942  0.0265
   21TMC2    C6  329   4.137   3.241  14.616 -0.0029  0.5877  0.0448
   21TMC2     C  330   4.245   3.355  14.239  0.6072 -0.4931  0.4400
   21TMC2     O  331   4.352   3.294  14.205  0.1785  0.2923  0.0371
   21TMC2     H  332   4.294   3.117  14.348 -1.4177 -1.7504  0.1342
   21TMC2    H1  333   4.075   3.477  14.381  0.9163 -0.5628  0.4080
   21TMC2    H2  334   4.135   3.222  14.723 -0.0076  1.0724  0.1318
   21TMC2    C7  335   4.016   3.434  14.647 -1.1228 -0.4435 -0.2055
   21TMC2    C8  336   4.294   3.056  14.609 -0.6823  0.1424  0.5901
   21TMC2    O1  337   4.034   3.411  14.766 -0.3082  0.8696  0.0773
   21TMC2    O2  338   4.305   3.058  14.730 -0.5659  0.4619 -0.3949
   21TMC2    O5  339   4.330   2.963  14.524 -0.1279 -0.4777 -0.4044
   21TMC2    H5  340   4.264   2.951  14.452 -1.1598  1.6783  0.1770
   22MPD2     C  341   4.392   3.751  13.947 -0.1033 -1.3840 -0.6894
   22MPD2    C1  342   4.460   3.653  14.011  0.2989 -0.7478  0.4775
   22MPD2    C2  343   4.395   3.558  14.085 -0.6166 -0.9559  0.6135
   22MPD2    C3  344   4.257   3.555  14.092 -0.7474 -0.2901  0.1056
   22MPD2    C4  345   4.186   3.651  14.023 -0.5248  0.7548  0.4337
   22MPD2    C5  346   4.252   3.754  13.953  0.5004 -0.1627  0.4925
   22MPD2     H  347   4.452   3.483  14.141  1.2104  1.1694  1.6010
   22MPD2    H1  348   4.078   3.664  14.027 -0.7908 -0.8066 -1.4467
   22MPD2    H2  349   4.436   3.822  13.877 -1.3408 -0.5843 -0.6447
   22MPD2    H3  350   4.182   3.823  13.908 -1.1241 -1.3072  1.2659
   22MPD2     N  351   4.199   3.470  14.188  0.2949  0.0895  0.2744
   22MPD2    H5  352   4.102   3.486  14.211 -0.5491 -0.7321 -2.6772
   22MPD2    N1  353   4.603   3.660  14.024  0.0183 -0.1916  0.5246
   22MPD2    H7  354   4.646   3.582  14.072  1.4278  0.4491  0.3337
   23TMC2    C1  355   0.436   0.625  14.946 -0.2554  0.5963  0.2111
   23TMC2    C2  356   0.390   0.755  14.955 -0.7884 -0.0163 -0.0013
   23TMC2    C3  357   0.274   0.773  14.886  0.0103  0.2396  0.0430
   23TMC2    C4  358   0.368   0.521  14.885 -0.2525 -0.5174 -0.1269
   23TMC2    C5  359   0.251   0.550  14.815 -0.1591  0.0441 -0.6777
   23TMC2    C6  360   0.204   0.675  14.821  0.5747  0.0268  0.0955
   23TMC2     C  361   0.555   0.587  15.018 -0.0277 -0.0242  0.3839
   23TMC2     O  362   0.578   0.648  15.125  0.1001 -0.0298 -0.4328
   23TMC2     H  363   0.450   0.828  15.008 -1.3036 -1.9766  3.3040
   23TMC2    H1  364   0.407   0.421  14.899  0.1803 -0.1548  1.2404
   23TMC2    H2  365   0.114   0.699  14.766  0.7826 -0.2995 -0.3855
   23TMC2    C7  366   0.173   0.428  14.776  0.4262  0.0228 -0.0943
   23TMC2    C8  367   0.207   0.907  14.875  0.0972 -0.2529 -0.4365
   23TMC2    O1  368   0.234   0.325  14.788  0.1178 -0.1385 -0.1206
   23TMC2    O2  369   0.092   0.920  14.842 -0.4008  0.0807  0.0933
   23TMC2    O5  370   0.302   1.002  14.871  0.1633  0.3033 -0.0118
   23TMC2    H5  371   0.390   0.970  14.901 -0.0375 -0.7841 -0.5748
   24MPD2     C  372   0.941   0.259  15.094 -0.2672 -0.9517 -0.4748
   24MPD2    C1  373   0.866   0.324  15.188  0.0606  0.0441 -0.9974
   24MPD2    C2  374   0.766   0.402  15.137  0.2333  0.6887  0.0923
   24MPD2    C3  375   0.744   0.421  15.005  0.2285 -0.4426 -0.1837
   24MPD2    C4  376   0.826   0.352  14.913  1.0176 -0.4156 -0.9739
   24MPD2    C5  377   0.924   0.268  14.958 -0.3009 -0.4605 -0.1336
   24MPD2     H  378   0.706   0.467  15.201 -1.4366 -2.2345  1.4895
   24MPD2    H1  379   0.812   0.367  14.806 -0.5309 -1.1227 -0.8667
   24MPD2    H2  380   1.008   0.184  15.134 -0.9416 -1.5608 -0.5011
   24MPD2    H3  381   0.984   0.204  14.895 -0.4698 -0.4661 -0.2883
   24MPD2     N  382   0.632   0.495  14.950 -0.2388 -0.2758  0.1399
   24MPD2    H5  383   0.614   0.483  14.851  1.1593 -1.7147  0.0512
   24MPD2    N1  384   0.893   0.300  15.326 -0.0480 -0.1715  0.3867
   24MPD2    H7  385   0.978   0.247  15.342 -1.1935 -1.9876  0.4254
   25TMC2    C1  386   4.193   2.646  11.422  0.5085 -0.5078  0.5582
   25TMC2    C2  387   4.297   2.650  11.336 -0.1613  0.1200 -0.7729
   25TMC2    C3  388   4.421   2.630  11.388 -0.8001 -1.1083 -0.3448
   25TMC2    C4  389   4.213   2.613  11.554  0.7655  0.4331 -0.5059
   25TMC2    C5  390   4.336   2.581  11.599 -0.8078  0.3693 -0.4036
   25TMC2    C6  391   4.446   2.604  11.517 -0.2836 -0.1929 -0.3881
   25TMC2     C  392   4.058   2.634  11.365  0.2518 -0.4174 -0.1631
   25TMC2     O  393   4.024   2.728  11.290 -0.0444 -0.2025 -0.2143
   25TMC2     H  394   4.276   2.684  11.236  1.7786 -1.1964 -1.6059
   25TMC2    H1  395   4.122   2.610  11.612 -0.1081 -0.7894 -1.9402
   25TMC2    H2  396   4.547   2.605  11.556 -0.1834 -0.7218 -0.6308
   25TMC2    C7  397   4.349   2.557  11.741 -0.3195 -0.4425  0.0690
   25TMC2    C8  398   4.532   2.668  11.307 -0.0101  0.1372  0.3359
   25TMC2    O1  399   4.252   2.585  11.811  0.3611  0.3526 -0.2606
   25TMC2    O2  400   4.637   2.603  11.306 -0.1071 -0.1243  0.2424
   25TMC2    O5  401   4.512   2.787  11.239 -0.5697  0.1079  0.5223
   25TMC2    H5  402   4.427   2.824  11.270 -0.5672  0.2009  0.4178
   26MPD2     C  403   3.681   2.360  11.145  0.5600  0.3320  0.0572
   26MPD2    C1  404   3.765   2.276  11.211 -0.4248  0.1529  0.5349
   26MPD2    C2  405   3.877   2.332  11.275 -0.2298  0.1017  0.0258
   26MPD2    C3  406   3.897   2.462  11.280  0.4465  0.1426 -0.3243
   26MPD2    C4  407   3.808   2.547  11.216  0.4441  0.2763 -0.3161
   26MPD2    C5  408   3.695   2.498  11.161 -0.5268  0.4060  0.0732
   26MPD2     H  409   3.953   2.266  11.314 -1.4591 -1.5046 -0.2860
   26MPD2    H1  410   3.821   2.654  11.220  0.0282  0.3037  0.3050
   26MPD2    H2  411   3.606   2.321  11.078  2.2899 -3.8089  0.5342
   26MPD2    H3  412   3.624   2.563  11.110  0.8558  0.9390 -1.1652
   26MPD2     N  413   4.006   2.507  11.363 -0.4524 -0.3502 -0.1134
   26MPD2    H5  414   4.049   2.436  11.422 -1.5483 -0.5839  0.3979
   26MPD2    N1  415   3.740   2.140  11.203  0.3184 -0.4046  0.0749
   26MPD2    H7  416   3.663   2.114  11.143 -0.5410  0.3446  0.8404
   27TMC2    C1  417   3.486   4.308  12.188  0.2404 -0.2699 -0.1053
   27TMC2    C2  418   3.607   4.349  12.139  0.0002 -0.0366 -0.6116
   27TMC2    C3  419   3.697   4.407  12.226 -0.5062  1.0061  0.1532
   27TMC2    C4  420   3.452   4.322  12.318  0.9128  0.3306  0.3012
   27TMC2    C5  421   3.541   4.375  12.404  0.0385 -0.4937 -0.3280
   27TMC2    C6  422   3.663   4.429  12.356  0.5968 -0.2749  0.0104
   27TMC2     C  423   3.376   4.304  12.094  0.1250 -0.3103 -0.1805
   27TMC2     O  424   3.405   4.286  11.975 -0.4457  0.3529  0.0369
   27TMC2     H  425   3.627   4.339  12.033 -0.7026 -2.7659 -0.4825
   27TMC2    H1  426   3.367   4.265  12.354  0.4631  1.3313  0.8091
   27TMC2    H2  427   3.738   4.470  12.422  1.4540  0.5260 -1.4819
   27TMC2    C7  428   3.496   4.387  12.543  0.2027 -0.3893  0.0170
   27TMC2    C8  429   3.821   4.460  12.173  0.3985  0.3241  0.5348
   27TMC2    O1  430   3.409   4.304  12.576  0.0438  0.3580 -0.0135
   27TMC2    O2  431   3.851   4.436  12.057 -0.2907  0.3954  0.0030
   27TMC2    O5  432   3.854   4.562  12.249 -0.1044 -0.3207 -0.4340
   27TMC2    H5  433   3.796   4.586  12.325 -0.1189  0.4966 -0.7038
   28MPD2     C  434   2.873   4.235  12.070 -0.1354  0.1422 -0.2136
   28MPD2    C1  435   2.901   4.304  12.190  0.0600 -0.2379 -0.0910
   28MPD2    C2  436   3.036   4.336  12.214  0.2944 -0.4220 -0.3015
   28MPD2    C3  437   3.135   4.318  12.120 -0.0339 -0.4377  0.0562
   28MPD2    C4  438   3.100   4.260  12.004 -0.1636  0.5619  0.6226
   28MPD2    C5  439   2.969   4.217  11.978  0.8592  0.3335  0.6992
   28MPD2     H  440   3.064   4.376  12.311  1.9996 -0.4669 -0.7882
   28MPD2    H1  441   3.172   4.249  11.924 -0.2502 -0.4273  0.6711
   28MPD2    H2  442   2.769   4.212  12.051 -0.8618  1.5900  1.9214
   28MPD2    H3  443   2.955   4.172  11.881 -0.2866  1.0551  0.5400
   28MPD2     N  444   3.266   4.343  12.157 -0.3919 -0.3546 -0.4018
   28MPD2    H5  445   3.278   4.373  12.253  1.3682  0.9439 -1.0186
   28MPD2    N1  446   2.796   4.332  12.282 -0.1428 -0.2549 -0.4286
   28MPD2    H7  447   2.701   4.308  12.255  0.3425  0.7504 -3.0486
   29TMC2    C1  448   2.473   2.147  14.608  0.2841  0.2002 -0.2317
   29TMC2    C2  449   2.459   2.185  14.738  0.0120 -0.1957 -0.1788
   29TMC2    C3  450   2.486   2.320  14.761  0.2663  0.6235  0.3860
   29TMC2    C4  451   2.537   2.225  14.514  1.0799  0.0108  0.1252
   29TMC2    C5  452   2.585   2.346  14.552 -0.2501  0.6418 -0.2327
   29TMC2    C6  453   2.550   2.404  14.672 -0.2076  0.9286  0.9545
   29TMC2     C  454   2.424   2.018  14.566 -0.0531  0.0521 -0.0500
   29TMC2     O  455   2.421   1.923  14.640 -0.1405  0.4474 -0.6322
   29TMC2     H  456   2.427   2.109  14.808  0.5286  0.3135  0.6160
   29TMC2    H1  457   2.577   2.190  14.420  1.5211 -1.4011  0.8306
   29TMC2    H2  458   2.569   2.510  14.688  1.5991  0.5321  1.4560
   29TMC2    C7  459   2.664   2.420  14.453  0.2351  0.3741 -0.0380
   29TMC2    C8  460   2.458   2.363  14.899 -0.2758 -0.0986  0.3488
   29TMC2    O1  461   2.619   2.401  14.339  0.1971  0.5260 -0.2350
   29TMC2    O2  462   2.420   2.282  14.982 -0.3347  0.6151 -0.1165
   29TMC2    O5  463   2.431   2.497  14.906  0.2668  0.3096  0.1436
   29TMC2    H5  464   2.441   2.545  14.821  0.3483  0.3751  0.1907
   30MPD2     C  465   2.286   1.718  14.171  0.4746 -0.4314  0.0762
   30MPD2    C1  466   2.313   1.682  14.298 -0.2333 -0.2085  0.9734
   30MPD2    C2  467   2.350   1.783  14.379  0.2320 -0.4741 -0.0523
   30MPD2    C3  468   2.354   1.915  14.345 -1.0002 -0.7763  0.4473
   30MPD2    C4  469   2.316   1.956  14.218  0.8381 -0.2220  0.1018
   30MPD2    C5  470   2.293   1.848  14.134 -0.5060  0.4233 -0.8493
   30MPD2     H  471   2.377   1.765  14.482 -0.4437  1.9238  0.5419
   30MPD2    H1  472   2.311   2.061  14.192  0.7999 -0.0768  0.6900
   30MPD2    H2  473   2.265   1.650  14.089  0.4649 -0.9247  0.4894
   30MPD2    H3  474   2.270   1.875  14.032 -1.4249 -0.4224 -0.8682
   30MPD2     N  475   2.384   2.023  14.437 -0.4834 -0.4103  0.3763
   30MPD2    H5  476   2.376   2.119  14.405 -2.2175 -0.1959  1.4258
   30MPD2    N1  477   2.299   1.546  14.339 -0.6047  0.1579  0.2300
   30MPD2    H7  478   2.337   1.527  14.431 -1.9449  2.1936  1.2221
   31TMC2    C1  479   0.179   1.059  15.566  0.0254  0.0944  0.4699
   31TMC2    C2  480   0.052   1.022  15.541  0.8441 -0.3642 -0.1658
   31TMC2    C3  481   4.727   0.936  15.619  0.1625 -0.1683 -0.0283
   31TMC2    C4  482   0.257   0.992  15.664  0.3372  0.6690 -0.7520
   31TMC2    C5  483   0.188   0.903  15.741 -0.1045  0.0139 -0.0756
   31TMC2    C6  484   0.059   0.864  15.713  0.1216 -0.2686 -0.6073
   31TMC2     C  485   0.239   1.165  15.484  0.0747 -0.1762 -0.8638
   31TMC2     O  486   0.162   1.214  15.403 -0.5446 -0.3843 -0.6298
   31TMC2     H  487   0.003   1.070  15.457  1.7832 -0.4778 -0.7753
   31TMC2    H1  488   0.359   1.017  15.689 -0.0234  0.7320  0.6245
   31TMC2    H2  489   0.004   0.804  15.784  0.8143 -0.7340 -0.4663
   31TMC2    C7  490   0.213   0.877  15.876 -0.2502 -0.6390  0.2330
   31TMC2    C8  491   4.582   0.916  15.606 -0.2002 -0.2834  0.1023
   31TMC2    O1  492   0.169   0.775  15.930 -0.0485  0.0394 -0.6949
   31TMC2    O2  493   4.516   0.878  15.703  0.3364  0.5504  0.0262
   31TMC2    O5  494   4.536   0.926  15.482  0.8238 -0.5187 -0.1282
   31TMC2    H5  495   4.604   0.946  15.414 -1.4593 -1.2930 -2.6598
   32MPD2     C  496   0.635   1.362  15.225  0.4852  0.2980  0.6672
   32MPD2    C1  497   0.500   1.366  15.195  0.1521 -0.1554  0.3727
   32MPD2    C2  498   0.408   1.309  15.286  0.5209  0.1562 -0.0728
   32MPD2    C3  499   0.458   1.241  15.401  0.0101  0.5724 -0.2808
   32MPD2    C4  500   0.593   1.239  15.428  0.3508  0.2946 -0.5552
   32MPD2    C5  501   0.675   1.295  15.337  0.1453 -0.1413 -0.4980
   32MPD2     H  502   0.301   1.328  15.283  0.5077  0.4613  2.0806
   32MPD2    H1  503   0.640   1.198  15.517 -0.9699  0.1573  0.0813
   32MPD2    H2  504   0.712   1.403  15.162  1.0790 -1.0831  0.4833
   32MPD2    H3  505   0.780   1.287  15.363  0.1585 -0.2239 -0.5759
   32MPD2     N  506   0.376   1.178  15.498  0.8107 -0.1289  0.0920
   32MPD2    H5  507   0.418   1.118  15.567 -2.8834 -0.7800  1.7441
   32MPD2    N1  508   0.460   1.451  15.087  0.3543  0.6043  0.0837
   32MPD2    H7  509   0.531   1.499  15.033 -0.4123 -1.5584 -2.8605
   33TMC2    C1  510   0.292   4.207  10.415  0.4971  0.5817  0.7956
   33TMC2    C2  511   0.158   4.220  10.439  0.1652 -0.2240 -0.0931
   33TMC2    C3  512   0.099   4.321  10.380  1.1478  0.6145 -0.9052
   33TMC2    C4  513   0.358   4.281  10.319 -0.0419  0.4722  0.2005
   33TMC2    C5  514   0.290   4.378  10.258 -0.3347 -0.4420 -0.4756
   33TMC2    C6  515   0.163   4.411  10.301  0.1991  0.2147 -0.1333
   33TMC2     C  516   0.355   4.077  10.444  0.9138 -0.4044 -0.0634
   33TMC2     O  517   0.282   3.988  10.486 -0.2004  0.6270  0.2086
   33TMC2     H  518   0.097   4.145  10.488  2.7566 -1.5369  1.1358
   33TMC2    H1  519   0.466   4.275  10.310  0.0677 -0.9423  2.3933
   33TMC2    H2  520   0.113   4.503  10.273 -0.8966 -0.5583 -0.7123
   33TMC2    C7  521   0.367   4.489  10.210  0.2428  0.7083  1.1160
   33TMC2    C8  522   4.708   4.360  10.437  0.1232 -1.0089 -0.1869
   33TMC2    O1  523   0.484   4.498  10.242 -0.2594  0.1901 -0.7216
   33TMC2    O2  524   4.663   4.310  10.540 -0.0200  0.0116 -0.2866
   33TMC2    O5  525   4.642   4.371  10.325  0.0272 -0.2448 -0.0417
   33TMC2    H5  526   4.684   4.413  10.247  0.7260  2.0047  1.5624
   34MPD2     C  527   0.783   3.808  10.563  0.3037 -0.1335  0.0315
   34MPD2    C1  528   0.651   3.772  10.572 -0.4131 -0.0155  0.2837
   34MPD2    C2  529   0.552   3.865  10.535  0.2508  0.1636 -0.5207
   34MPD2    C3  530   0.585   3.990  10.490 -0.3264  0.2182  0.4793
   34MPD2    C4  531   0.721   4.018  10.475 -0.3439 -0.1906  0.1048
   34MPD2    C5  532   0.814   3.925  10.505  0.0543 -0.1236  0.0480
   34MPD2     H  533   0.445   3.848  10.545  0.4394 -1.6456 -1.7772
   34MPD2    H1  534   0.761   4.104  10.421 -0.0669 -0.0824  0.4884
   34MPD2    H2  535   0.851   3.736  10.607 -0.6730 -0.7931  0.4423
   34MPD2    H3  536   0.917   3.942  10.478 -0.4241  1.6084 -0.6623
   34MPD2     N  537   0.495   4.082  10.450  0.8733 -0.1568  0.0528
   34MPD2    H5  538   0.534   4.174  10.430 -2.6985  0.9629 -1.7359
   34MPD2    N1  539   0.625   3.638  10.602  0.2756 -0.4199  0.9861
   34MPD2    H7  540   0.706   3.582  10.629 -0.2624 -2.1189 -0.9422
   35TMC2    C1  541   1.952   0.024  11.090 -0.3905  0.0953 -0.1661
   35TMC2    C2  542   1.892   0.127  11.021  0.1162 -0.5320  0.0860
   35TMC2    C3  543   1.762   0.157  11.053 -0.2523 -0.2313  0.3265
   35TMC2    C4  544   1.875   4.675  11.167  0.1963  0.3871  0.5908
   35TMC2    C5  545   1.747   4.713  11.200  0.5869 -0.2223 -0.6441
   35TMC2    C6  546   1.693   0.087  11.144  1.1845  0.7956  0.3802
   35TMC2     C  547   2.088   4.734  11.050 -0.7089 -0.5704 -0.5346
   35TMC2     O  548   2.126   0.035  10.939  0.1899 -0.2830 -0.7287
   35TMC2     H  549   1.955   0.186  10.956 -0.7281 -1.0035 -1.1844
   35TMC2    H1  550   1.900   4.580  11.213  0.2171 -0.9871 -2.2666
   35TMC2    H2  551   1.586   0.097  11.134  0.8067 -2.3954  1.2208
   35TMC2    C7  552   1.669   4.623  11.286  0.2488  0.2601  0.0408
   35TMC2    C8  553   1.704   0.283  10.998  0.5877 -0.0719 -0.3365
   35TMC2    O1  554   1.696   4.503  11.273 -0.4616 -0.3744 -0.0747
   35TMC2    O2  555   1.743   0.344  10.901  0.2243 -0.0352 -0.0072
   35TMC2    O5  556   1.678   0.358  11.107  0.5459 -0.0136  0.5014
   35TMC2    H5  557   1.672   0.303  11.188  1.6489  0.6163  1.0060
   36MPD2     C  558   2.561   4.715  11.237  0.4860  0.1077 -0.0926
   36MPD2    C1  559   2.480   4.664  11.331  0.0642 -0.1262 -0.1198
   36MPD2    C2  560   2.346   4.661  11.303  0.0144 -0.7699  0.8421
   36MPD2    C3  561   2.298   4.686  11.174  0.4772  0.3932  0.0327
   36MPD2    C4  562   2.380   0.010  11.082  0.2815  0.2088 -0.4860
   36MPD2    C5  563   2.515   0.019  11.114  0.2128 -0.2850 -0.7283
   36MPD2     H  564   2.283   4.650  11.391  0.6476 -0.8216  1.2917
   36MPD2    H1  565   2.353   0.030  10.979  0.1260 -1.8320 -0.8455
   36MPD2    H2  566   2.667   4.736  11.250  0.6071 -0.7748  0.3563
   36MPD2    H3  567   2.579   0.070  11.042 -0.3073  2.1555  0.5192
   36MPD2     N  568   2.157   4.690  11.160 -0.3450  0.4988  0.4582
   36MPD2    H5  569   2.103   4.657  11.240 -1.1511 -3.1159 -1.5680
   36MPD2    N1  570   2.537   4.621  11.458  0.2230  0.1340 -0.0903
   36MPD2    H7  571   2.638   4.623  11.468  0.0399 -0.7233  1.9367
   37TMC2    C1  572   4.072   0.255  12.250  0.0583  0.6323 -0.2582
   37TMC2    C2  573   3.994   0.159  12.191  0.1531 -0.1910  0.5101
   37TMC2    C3  574   3.978   0.155  12.054 -0.3395  0.2884  0.5492
   37TMC2    C4  575   4.126   0.355  12.175 -0.0116  0.1732 -0.5558
   37TMC2    C5  576   4.090   0.354  12.043  0.3616  0.4539 -0.1508
   37TMC2    C6  577   4.021   0.256  11.976  0.1047 -0.2486  0.6864
   37TMC2     C  578   4.100   0.235  12.390 -0.8103 -0.1748 -0.4447
   37TMC2     O  579   4.021   0.154  12.439  0.1875 -0.1685 -0.0032
   37TMC2     H  580   3.956   0.075  12.248  1.9913 -0.2217  1.6770
   37TMC2    H1  581   4.184   0.437  12.216 -0.4715 -0.2633  0.9738
   37TMC2    H2  582   3.999   0.263  11.870  2.3126  2.4060  0.4107
   37TMC2    C7  583   4.151   0.449  11.957 -0.1038 -0.5103 -0.7421
   37TMC2    C8  584   3.890   0.047  11.995  0.2605 -0.6930 -0.1902
   37TMC2    O1  585   4.247   0.507  12.006  0.3396  0.0287  0.0770
   37TMC2    O2  586   3.770   0.060  11.981 -0.3540 -0.9234 -0.2370
   37TMC2    O5  587   3.969   0.019  11.889  0.0045  0.1743 -0.4395
   37TMC2    H5  588   4.065   0.040  11.900  0.1872 -0.5844 -0.5702
   38MPD2     C  589   4.341   0.292  12.834  0.4480  0.5025  0.1429
   38MPD2    C1  590   4.431   0.324  12.739  0.0463 -0.1364 -0.1582
   38MPD2    C2  591   4.385   0.313  12.609 -0.0176 -0.0299  0.0922
   38MPD2    C3  592   4.252   0.279  12.578 -0.2850  0.3926  0.5490
   38MPD2    C4  593   4.168   0.246  12.678  0.0993  0.4666  0.7709
   38MPD2    C5  594   4.210   0.248  12.809 -1.1312 -0.1878  0.6973
   38MPD2     H  595   4.462   0.327  12.534 -1.0438 -0.9828 -1.1269
   38MPD2    H1  596   4.070   0.205  12.658 -0.2472  2.4181 -1.5251
   38MPD2    H2  597   4.366   0.316  12.937 -1.2950  2.4199  0.1250
   38MPD2    H3  598   4.150   0.210  12.891 -0.9781 -0.6027  0.6177
   38MPD2     N  599   4.213   0.291  12.440 -0.3955 -0.1425  0.3554
   38MPD2    H5  600   4.280   0.331  12.376  0.0934 -0.6960  0.5167
   38MPD2    N1  601   4.564   0.363  12.770 -0.5602 -0.2177  0.0186
   38MPD2    H7  602   4.622   0.403  12.698 -0.4841 -0.8905 -0.2939
   39TMC2    C1  603   3.009   0.869   1.531 -0.4926  0.3860 -0.2855
   39TMC2    C2  604   3.019   0.839   1.665  0.0677 -0.0705 -0.5512
   39TMC2    C3  605   3.145   0.837   1.719  0.3338  0.7305 -0.5307
   39TMC2    C4  606   3.124   0.887   1.453  0.3989 -0.7326  0.3422
   39TMC2    C5  607   3.247   0.882   1.510 -0.1277  0.4645 -0.0859
   39TMC2    C6  608   3.263   0.851   1.646 -0.1532 -0.7109  0.4329
   39TMC2     C  609   2.873   0.879   1.469  0.5502  0.1700  0.2018
   39TMC2     O  610   2.773   0.893   1.541 -0.6349 -0.3671 -0.0319
   39TMC2     H  611   2.924   0.817   1.712 -0.0890  1.1829 -0.2680
   39TMC2    H1  612   3.116   0.914   1.349  0.7250 -1.7426  0.0561
   39TMC2    H2  613   3.358   0.843   1.697  1.0153 -0.7879 -1.7631
   39TMC2    C7  614   3.363   0.946   1.445  0.0008 -0.6184 -0.6222
   39TMC2    C8  615   3.167   0.813   1.860 -0.1020  0.1399 -0.1117
   39TMC2    O1  616   3.469   0.926   1.500 -0.0793  0.0529 -0.2908
   39TMC2    O2  617   3.264   0.737   1.883  0.4685 -0.3747  0.2522
   39TMC2    O5  618   3.042   0.813   1.908  0.0446 -0.2271  0.1394
   39TMC2    H5  619   3.002   0.893   1.868  0.9299  0.0567 -0.1857
   40MPD2     C  620   2.822   0.799   1.110  1.0592 -0.5240 -0.4107
   40MPD2    C1  621   2.799   0.867   1.231 -0.7405 -0.0577  0.0589
   40MPD2    C2  622   2.674   0.926   1.246 -0.9813 -0.0704 -0.0008
   40MPD2    C3  623   2.589   0.929   1.138  0.4698  0.0528  0.2665
   40MPD2    C4  624   2.620   0.874   1.012  0.6012 -0.4051 -0.8640
   40MPD2    C5  625   2.733   0.798   1.006 -0.9453  0.7942 -0.3621
   40MPD2     H  626   2.651   0.981   1.337  0.0410 -0.6527  0.6119
   40MPD2    H1  627   2.552   0.880   0.928  1.8368 -2.1085 -1.9845
   40MPD2    H2  628   2.914   0.746   1.086  0.5819 -0.6130 -2.0498
   40MPD2    H3  629   2.731   0.736   0.917 -0.8259 -0.4513  0.5051
   40MPD2     N  630   2.464   1.001   1.147 -0.0708  0.2585  0.2495
   40MPD2    H5  631   2.421   1.020   1.057  2.9087 -0.7697 -1.4027
   40MPD2    N1  632   2.894   0.849   1.337  0.2504 -0.7695  0.2561
   40MPD2    H7  633   2.987   0.822   1.307  0.9253  1.0747  0.6805
   41TMC2    C1  634   1.835   0.171  13.082  0.1227  0.4397 -0.1527
   41TMC2    C2  635   1.834   0.308  13.095  0.1067  0.4248 -0.9923
   41TMC2    C3  636   1.888   0.379  12.991 -0.5079  0.3037 -0.2173
   41TMC2    C4  637   1.861   0.109  12.966  0.7661 -0.4000  0.6054
   41TMC2    C5  638   1.889   0.183  12.858 -0.4409 -0.1073  0.3733
   41TMC2    C6  639   1.919   0.316  12.873 -0.0468  0.1613 -0.0017
   41TMC2     C  640   1.849   0.092  13.202 -0.1896  0.1480 -0.3864
   41TMC2     O  641   1.881   4.712  13.194 -0.4243 -0.2837 -0.2635
   41TMC2     H  642   1.836   0.356  13.192  5.8433 -0.7451 -0.5381
   41TMC2    H1  643   1.868   0.001  12.965 -0.2768 -0.4793  1.6138
   41TMC2    H2  644   1.949   0.370  12.784 -0.6847  0.2267 -0.1762
   41TMC2    C7  645   1.938   0.123  12.735  0.3697 -0.5321  0.4390
   41TMC2    C8  646   1.901   0.524  12.997 -0.8586  0.3236  0.6501
   41TMC2    O1  647   2.024   0.187  12.680 -0.0507 -0.3644 -0.0605
   41TMC2    O2  648   1.803   0.596  13.020  0.0289  0.5313  0.3766
   41TMC2    O5  649   2.013   0.551  12.934 -0.2465  0.0353 -0.4978
   41TMC2    H5  650   2.074   0.474  12.938 -0.3326  0.0851  1.4948
   42MPD2     C  651   1.838   4.733  13.480  0.6655  0.2693  0.1713
   42MPD2    C1  652   1.763   0.108  13.433  0.2878  0.5167 -0.4551
   42MPD2    C2  653   1.672   0.164  13.525  0.3706 -0.2242 -0.1127
   42MPD2    C3  654   1.655   0.117  13.650 -0.6602  0.0065  0.3676
   42MPD2    C4  655   1.734   0.014  13.695  0.2819  0.3081  0.2369
   42MPD2    C5  656   1.823   4.693  13.614 -0.0159  0.0249 -0.0228
   42MPD2     H  657   1.613   0.250  13.495 -0.9201 -1.1627 -0.2698
   42MPD2    H1  658   1.722   4.714  13.797 -2.5933 -0.0917 -0.2670
   42MPD2    H2  659   1.906   4.677  13.416 -0.9157 -0.9086 -0.4980
   42MPD2    H3  660   1.890   4.618  13.653  2.0591  1.3121 -1.1055
   42MPD2     N  661   1.553   0.169  13.734  0.6535  0.8075  0.3743
   42MPD2    H5  662   1.554   0.139  13.831 -1.9306 -1.2530 -0.2390
   42MPD2    N1  663   1.779   0.153  13.302 -0.2755  0.0778  0.6466
   42MPD2    H7  664   1.729   0.238  13.280 -2.0431 -0.6108  2.1005
   43TMC2    C1  665   2.766   2.203   1.466  0.0429 -0.2012  0.4176
   43TMC2    C2  666   2.683   2.095   1.474 -0.0643 -0.1595  0.3905
   43TMC2    C3  667   2.647   2.056   1.599 -0.0293 -0.1782 -0.0892
   43TMC2    C4  668   2.822   2.249   1.582  0.1839  0.2718 -0.0395
   43TMC2    C5  669   2.793   2.191   1.700 -0.2121  0.1387  0.4678
   43TMC2    C6  670   2.720   2.079   1.712  0.4308  0.3642 -0.2685
   43TMC2     C  671   2.830   2.242   1.339  0.2835 -0.0721  0.0119
   43TMC2     O  672   2.837   2.155   1.253 -0.7729  0.1989 -0.1196
   43TMC2     H  673   2.636   2.054   1.386 -2.5280  1.8765  0.7569
   43TMC2    H1  674   2.889   2.334   1.580  0.0893  0.3183 -1.0789
   43TMC2    H2  675   2.699   2.022   1.802  1.0021 -1.7862 -1.5246
   43TMC2    C7  676   2.815   2.261   1.825  0.0445  0.0183 -0.2731
   43TMC2    C8  677   2.563   1.943   1.609 -0.0064 -0.2614 -0.2074
   43TMC2    O1  678   2.825   2.196   1.928  0.2730  0.1144  0.1218
   43TMC2    O2  679   2.563   1.855   1.696  0.0440 -0.0387 -0.7178
   43TMC2    O5  680   2.462   1.977   1.541 -0.4452  0.0293  0.3774
   43TMC2    H5  681   2.475   2.054   1.481  0.6664 -0.2700  0.2441
   44MPD2     C  682   3.059   2.614   1.060  0.0320  0.3381  0.3549
   44MPD2    C1  683   3.058   2.480   1.047 -0.2389 -0.1598 -0.1503
   44MPD2    C2  684   3.000   2.395   1.144 -0.5788  0.2748  0.4948
   44MPD2    C3  685   2.917   2.450   1.241 -0.3413 -0.4388  0.4507
   44MPD2    C4  686   2.909   2.589   1.251  0.2191 -0.1790 -0.2457
   44MPD2    C5  687   2.987   2.673   1.167  0.1236  0.5384 -0.8740
   44MPD2     H  688   3.017   2.288   1.137  1.6491  0.5686  1.6391
   44MPD2    H1  689   2.849   2.638   1.327  0.9978  1.2553 -0.5602
   44MPD2    H2  690   3.100   2.683   0.987 -0.8390  1.0729  0.5634
   44MPD2    H3  691   2.981   2.781   1.168  0.4697  0.5650 -1.2241
   44MPD2     N  692   2.847   2.381   1.336  0.3722 -0.2665  0.5950
   44MPD2    H5  693   2.802   2.431   1.412 -1.8370 -1.4471  0.0633
   44MPD2    N1  694   3.125   2.409   0.937 -0.5222 -0.0438 -0.4659
   44MPD2    H7  695   3.103   2.311   0.932  2.2552 -0.6572 -0.8922
   45TMC2    C1  696   3.519   0.058   9.848 -0.8456 -0.1850  0.0427
   45TMC2    C2  697   3.513   0.014   9.719  0.6007 -0.3803 -0.0330
   45TMC2    C3  698   3.466   0.101   9.624  0.0939  0.1972 -0.5281
   45TMC2    C4  699   3.467   0.178   9.891  0.6336 -0.2885 -0.3573
   45TMC2    C5  700   3.420   0.260   9.800  0.1565  0.4038 -0.5596
   45TMC2    C6  701   3.424   0.225   9.663  0.5471 -0.5095 -0.3681
   45TMC2     C  702   3.539   4.700   9.955 -0.9199 -0.2583 -0.4104
   45TMC2     O  703   3.546   0.005  10.073  0.2261  0.4339  0.1679
   45TMC2     H  704   3.573   4.667   9.685  0.8931  0.1089 -0.7263
   45TMC2    H1  705   3.442   0.185   9.996 -0.3319 -1.1014 -0.5431
   45TMC2    H2  706   3.380   0.294   9.592 -0.5373  0.1420  0.9367
   45TMC2    C7  707   3.402   0.398   9.847 -0.3546 -0.4122  0.1994
   45TMC2    C8  708   3.406   0.058   9.495 -0.2516 -0.2724  0.4109
   45TMC2    O1  709   3.436   0.409   9.966  0.4081 -0.3260 -0.2077
   45TMC2    O2  710   3.372   0.137   9.408 -0.0420  0.1518  0.4349
   45TMC2    O5  711   3.338   4.681   9.535 -0.5219  0.5868 -0.3673
   45TMC2    H5  712   3.375   4.629   9.609  0.9314  1.0002 -0.7953
   46MPD2     C  713   3.672   4.491  10.109  0.0834 -0.1574  0.0076
   46MPD2    C1  714   3.589   4.467  10.002  0.3057 -0.2235  0.4628
   46MPD2    C2  715   3.560   4.338   9.967 -0.7825 -0.2902  0.6698
   46MPD2    C3  716   3.585   4.235  10.053 -0.6815 -0.1977 -0.8653
   46MPD2    C4  717   3.659   4.263  10.167 -0.2108  1.0320 -0.3696
   46MPD2    C5  718   3.712   4.387  10.190 -0.5713 -0.0243 -0.4537
   46MPD2     H  719   3.508   4.314   9.875 -1.5763  1.8168  0.5732
   46MPD2    H1  720   3.692   4.186  10.235  0.1962  0.0056 -1.7317
   46MPD2    H2  721   3.713   4.590  10.124  0.1630 -0.0450 -1.0009
   46MPD2    H3  722   3.782   4.411  10.269  1.1715 -0.0018 -1.9887
   46MPD2     N  723   3.554   4.103  10.006 -0.0307 -0.3112  0.8332
   46MPD2    H5  724   3.523   4.102   9.910 -1.7596 -1.1595  1.3936
   46MPD2    N1  725   3.547   4.572   9.917 -0.4591  0.1262 -0.2031
   46MPD2    H7  726   3.513   4.553   9.823  1.0039  0.0293 -0.7116
   47TMC2    C1  727   0.717   0.629   9.125  0.2766  1.0350 -0.3202
   47TMC2    C2  728   0.787   0.573   9.014 -1.2524 -0.6699  0.3286
   47TMC2    C3  729   0.722   0.547   8.899  0.5111 -0.9596  0.8596
   47TMC2    C4  730   0.584   0.647   9.118 -0.3871 -0.5164  0.4146
   47TMC2    C5  731   0.516   0.618   8.997 -0.2118 -0.0811  0.1583
   47TMC2    C6  732   0.586   0.562   8.885 -0.3486 -0.7349  0.2160
   47TMC2     C  733   0.793   0.738   9.189  0.0991  0.1589  0.0258
   47TMC2     O  734   0.742   0.846   9.176 -0.3197  0.3475 -0.0893
   47TMC2     H  735   0.895   0.563   9.021 -1.4443 -2.6979  0.2676
   47TMC2    H1  736   0.529   0.698   9.196  0.8046  2.0479 -0.4173
   47TMC2    H2  737   0.526   0.531   8.800  0.9005 -0.3045 -0.8368
   47TMC2    C7  738   0.385   0.556   9.011  0.3479 -0.0995  0.2294
   47TMC2    C8  739   0.795   0.477   8.793  0.4204 -0.0306 -0.8867
   47TMC2    O1  740   0.368   0.529   9.130  0.1977  0.2970  0.0974
   47TMC2    O2  741   0.757   0.479   8.677  0.3930  0.4095 -0.1660
   47TMC2    O5  742   0.913   0.425   8.835  0.1073 -0.1648 -0.4436
   47TMC2    H5  743   0.917   0.402   8.930 -0.2849  1.5168 -0.0162
   48MPD2     C  744   1.020   0.932   9.213 -0.4501 -0.3031  0.4690
   48MPD2    C1  745   1.034   0.793   9.220  0.0443  0.5722 -0.5133
   48MPD2    C2  746   1.156   0.737   9.237  0.0982  0.6083 -0.1889
   48MPD2    C3  747   1.272   0.813   9.241 -0.8905 -0.2421 -0.3666
   48MPD2    C4  748   1.258   0.951   9.230 -0.5363  0.3502 -0.0865
   48MPD2    C5  749   1.135   1.007   9.210  0.2119 -0.1600 -0.0785
   48MPD2     H  750   1.164   0.629   9.242 -0.3899  0.6781  1.9314
   48MPD2    H1  751   1.342   1.018   9.244  0.3840 -0.4398 -1.9367
   48MPD2    H2  752   0.926   0.986   9.207 -1.0309 -1.5949 -1.9228
   48MPD2    H3  753   1.115   1.113   9.201 -1.0354 -0.2060  2.0356
   48MPD2     N  754   1.389   0.750   9.292 -0.0311 -0.3734  0.2353
   48MPD2    H5  755   1.380   0.660   9.339 -4.2442  0.0102  0.1708
   48MPD2    N1  756   0.925   0.704   9.212  0.0335 -0.1984  0.0954
   48MPD2    H7  757   0.952   0.607   9.220 -0.3852 -0.2614  0.7491
   49TMC2    C1  758   4.221   2.911  10.358  1.0025  0.2161  0.6457
   49TMC2    C2  759   4.197   2.950  10.226 -0.0818 -0.3475 -0.4483
   49TMC2    C3  760   4.133   2.865  10.149  0.3388 -0.0866  0.1880
   49TMC2    C4  761   4.196   2.784  10.393 -0.6799  0.0088  0.0176
   49TMC2    C5  762   4.137   2.694  10.302  0.0636  0.1855  0.2340
   49TMC2    C6  763   4.095   2.734  10.178 -0.1290  0.1449 -0.6203
   49TMC2     C  764   4.230   3.017  10.456 -0.0257  0.0004 -0.2171
   49TMC2     O  765   4.172   3.125  10.440 -0.0892  0.0734  0.0023
   49TMC2     H  766   4.233   3.046  10.189 -0.3830  0.6214  1.7198
   49TMC2    H1  767   4.235   2.748  10.488  1.8610  0.3151 -0.8963
   49TMC2    H2  768   4.052   2.665  10.105 -1.4658 -0.4416  0.7199
   49TMC2    C7  769   4.096   2.571  10.352  0.1634  0.5251  0.1336
   49TMC2    C8  770   4.102   2.911  10.017 -0.0331 -0.1942 -0.2122
   49TMC2    O1  771   4.100   2.558  10.474  0.1962 -0.2624  0.0207
   49TMC2    O2  772   4.092   3.029   9.997  0.2984 -0.3551 -0.5317
   49TMC2    O5  773   4.153   2.828   9.924 -0.1653 -0.1691  0.2001
   49TMC2    H5  774   4.180   2.748   9.974 -0.6902  0.2057  1.0882
   50MPD2     C  775   4.252   3.167  10.710 -0.7933  0.2682  0.3347
   50MPD2    C1  776   4.331   3.054  10.679  0.0396 -0.1614 -0.1270
   50MPD2    C2  777   4.425   3.003  10.769  0.1659  0.0473 -0.2382
   50MPD2    C3  778   4.439   3.060  10.895  0.1610 -0.3026  0.0000
   50MPD2    C4  779   4.354   3.172  10.924 -0.0066  1.0297 -0.5684
   50MPD2    C5  780   4.271   3.231  10.832  0.2863 -0.6427 -0.0148
   50MPD2     H  781   4.468   2.906  10.745  0.1617 -0.2014  0.7609
   50MPD2    H1  782   4.372   3.219  11.019  0.1698 -0.3360  0.0822
   50MPD2    H2  783   4.180   3.208  10.640 -0.9449 -0.1704  0.2310
   50MPD2    H3  784   4.210   3.316  10.858  0.8200 -0.8020  1.7722
   50MPD2     N  785   4.534   3.019  10.994 -0.3407  0.2193  0.6219
   50MPD2    H5  786   4.527   3.069  11.082  2.2591  0.8848  0.4661
   50MPD2    N1  787   4.310   2.978  10.556  0.2579 -0.1008  1.1361
   50MPD2    H7  788   4.364   2.894  10.540  1.3984  1.2950 -2.2869
   51TMC2    C1  789   0.174   0.612   1.513  0.2932  0.1680  0.0224
   51TMC2    C2  790   0.082   0.599   1.415 -0.5435 -0.7658  0.2215
   51TMC2    C3  791   0.064   0.707   1.332  0.0653  0.0073  0.5673
   51TMC2    C4  792   0.243   0.734   1.533 -0.0551  0.0200  0.3649
   51TMC2    C5  793   0.220   0.837   1.447 -0.0732 -0.5343  0.1519
   51TMC2    C6  794   0.125   0.826   1.350  0.2978  0.2127  0.1645
   51TMC2     C  795   0.265   0.500   1.517 -0.3491  0.3543  0.4630
   51TMC2     O  796   0.385   0.530   1.509  0.9175  0.0182 -0.1976
   51TMC2     H  797   0.030   0.507   1.392  0.4881 -2.2125  3.6048
   51TMC2    H1  798   0.307   0.744   1.621  0.1667  4.7415 -0.3809
   51TMC2    H2  799   0.102   0.900   1.273  0.4306  1.3996  1.2617
   51TMC2    C7  800   0.328   0.929   1.428 -0.1726 -0.5585  0.0860
   51TMC2    C8  801   0.006   0.681   1.207 -0.5765 -0.7531 -0.2149
   51TMC2    O1  802   0.314   1.003   1.334 -0.4210 -0.7267  0.3005
   51TMC2    O2  803   0.010   0.561   1.169  0.2364 -0.2614 -0.3121
   51TMC2    O5  804   4.630   0.761   1.204 -0.0500  0.2615  0.2987
   51TMC2    H5  805   4.625   0.816   1.284 -1.6932 -0.5655  0.7560
   52MPD2     C  806   0.397   4.731   1.484 -0.5679  0.2588 -0.3392
   52MPD2    C1  807   0.463   0.110   1.446  0.0182 -0.5289  0.5470
   52MPD2    C2  808   0.402   0.235   1.459 -0.4342  0.6440  0.0745
   52MPD2    C3  809   0.272   0.251   1.513 -0.5825  0.0950  0.0794
   52MPD2    C4  810   0.202   0.134   1.546 -0.0876 -0.7341  0.2366
   52MPD2    C5  811   0.270   0.014   1.532 -0.0867 -0.7309  0.6125
   52MPD2     H  812   0.455   0.326   1.436  1.7969  0.0690  2.9666
   52MPD2    H1  813   0.106   0.132   1.597 -0.7977  0.9512 -1.0265
   52MPD2    H2  814   0.454   4.640   1.499 -0.6255  0.0055 -1.6534
   52MPD2    H3  815   0.214   4.665   1.570  0.9851 -1.3509  0.7907
   52MPD2     N  816   0.200   0.375   1.529  0.2598  0.3948 -0.5714
   52MPD2    H5  817   0.103   0.380   1.558  0.4385  1.5377 -0.1532
   52MPD2    N1  818   0.595   0.112   1.391  0.4995 -1.0034  0.7013
   52MPD2    H7  819   0.630   0.198   1.350  1.3671 -2.0117 -0.6838
   53TMC2    C1  820   4.695   0.779  11.630  0.6960  0.0096  0.2136
   53TMC2    C2  821   0.075   0.729  11.584 -0.7364 -0.3397  0.2762
   53TMC2    C3  822   0.158   0.678  11.679  0.8690 -0.0975 -0.8366
   53TMC2    C4  823   4.665   0.784  11.766  0.0023 -0.0744 -0.2068
   53TMC2    C5  824   0.019   0.735  11.852 -0.0388 -0.4132 -0.3391
   53TMC2    C6  825   0.140   0.689  11.812  0.1891 -0.1926  0.1547
   53TMC2     C  826   4.577   0.726  11.548  0.6859  0.0370 -0.1984
   53TMC2     O  827   4.582   0.728  11.427  0.3051 -0.2991 -0.2798
   53TMC2     H  828   0.093   0.705  11.480  1.6228  3.2659 -0.1526
   53TMC2    H1  829   4.584   0.838  11.812  1.6525 -1.2291  4.0183
   53TMC2    H2  830   0.210   0.640  11.879  2.5986  3.7726  0.5217
   53TMC2    C7  831   4.711   0.717  11.991  0.1297  0.2646 -0.4511
   53TMC2    C8  832   0.287   0.617  11.641  0.8806 -0.8636  0.0851
   53TMC2    O1  833   4.589   0.692  12.008  0.1707  0.0849  0.2960
   53TMC2    O2  834   0.359   0.570  11.724 -0.5325 -0.0711  0.0214
   53TMC2    O5  835   0.330   0.717  11.562  0.0213  0.3333  0.5331
   53TMC2    H5  836   0.260   0.761  11.509 -2.6618 -3.0720  1.2928
   54MPD2     C  837   4.287   0.626  11.491 -0.0650 -0.4371 -0.3469
   54MPD2    C1  838   4.354   0.622  11.614 -0.4364 -0.3043  0.3253
   54MPD2    C2  839   4.288   0.566  11.721  0.2654  0.0258 -0.6098
   54MPD2    C3  840   4.165   0.514  11.718  0.1060  0.3176  0.4100
   54MPD2    C4  841   4.098   0.515  11.596 -0.1283 -0.7208 -0.5575
   54MPD2    C5  842   4.159   0.573  11.484 -0.2037  0.0433 -0.2309
   54MPD2     H  843   4.350   0.566  11.810  0.4802 -0.1364 -0.7604
   54MPD2    H1  844   4.001   0.468  11.581 -0.0696 -0.7232 -0.9434
   54MPD2    H2  845   4.344   0.664  11.407  1.2072 -1.9109 -0.1604
   54MPD2    H3  846   4.108   0.575  11.389  0.2520  0.8020 -0.4593
   54MPD2     N  847   4.097   0.459  11.828  0.5491 -0.0809  0.4064
   54MPD2    H5  848   4.002   0.434  11.805  1.4115 -0.3774 -2.8998
   54MPD2    N1  849   4.481   0.682  11.634  0.5500 -0.0935 -1.0049
   54MPD2    H7  850   4.517   0.685  11.729 -1.2475  0.8082 -0.3564
   55TMC2    C1  851   0.931   2.546   0.040 -0.3576  0.1833 -0.1427
   55TMC2    C2  852   0.879   2.514  17.659  0.0815  0.2150  0.4177
   55TMC2    C3  853   0.883   2.381  17.620 -0.9788  0.5124  0.2279
   55TMC2    C4  854   0.955   2.445   0.134 -1.2552 -0.6866  0.4947
   55TMC2    C5  855   0.942   2.317   0.096  0.9400  0.0861 -0.4338
   55TMC2    C6  856   0.915   2.281  17.708 -0.0937 -0.6868  0.0338
   55TMC2     C  857   0.953   2.676   0.097 -0.5371 -0.4950  0.4889
   55TMC2     O  858   0.959   2.679   0.218  0.8862 -0.5948 -0.9091
   55TMC2     H  859   0.835   2.592  17.599 -0.0674  0.2854  0.6182
   55TMC2    H1  860   0.997   2.476   0.229 -0.5966  0.7369 -0.2514
   55TMC2    H2  861   0.891   2.179  17.681 -0.4113 -0.5413 -0.2277
   55TMC2    C7  862   0.962   2.218   0.196 -0.3947 -0.5301 -0.6025
   55TMC2    C8  863   0.818   2.333  17.497  0.3454 -0.1199  0.9184
   55TMC2    O1  864   1.020   2.115   0.160  0.6573 -0.0746 -0.3691
   55TMC2    O2  865   0.802   2.215  17.468  0.4032 -0.2865  0.8636
   55TMC2    O5  866   0.832   2.427  17.406 -0.0984  0.3011 -0.5433
   55TMC2    H5  867   0.881   2.506  17.437 -0.1624  0.6774 -1.4041
   56MPD2     C  868   0.965   2.994  17.654  0.7351 -0.3326  0.7091
   56MPD2    C1  869   0.957   2.915   0.025 -0.0231  0.0327  0.2794
   56MPD2    C2  870   0.939   2.964   0.152  0.1006  0.0093 -0.2328
   56MPD2    C3  871   0.915   3.102   0.161  0.4070  0.7214  0.2182
   56MPD2    C4  872   0.921   3.182   0.050  0.5987  0.0423 -0.1989
   56MPD2    C5  873   0.947   3.129  17.672 -0.1912  0.5165  0.3298
   56MPD2     H  874   0.916   2.894   0.232  0.9404  1.8112  1.5835
   56MPD2    H1  875   0.888   3.285   0.054  2.4963  0.7266 -2.2342
   56MPD2    H2  876   0.974   2.948  17.557  1.5726  1.2158  0.0519
   56MPD2    H3  877   0.946   3.192  17.584 -1.1611 -1.5195 -1.1255
   56MPD2     N  878   0.875   3.148   0.287 -0.0656  0.2998 -0.3592
   56MPD2    H5  879   0.884   3.078   0.360 -0.9146  2.1772  1.5149
   56MPD2    N1  880   0.955   2.776   0.008 -0.1869  1.0200  0.3837
   56MPD2    H7  881   0.955   2.741  17.657 -0.1588  2.6138 -0.2181
   57TMC2    C1  882   4.688   3.899  13.598  0.1153 -0.5584  0.4692
   57TMC2    C2  883   0.048   3.971  13.665  0.0338  0.4544  0.7442
   57TMC2    C3  884   0.180   3.940  13.643 -0.0186 -0.3450  0.4079
   57TMC2    C4  885   4.727   3.807  13.505  0.3938 -0.9818  0.2156
   57TMC2    C5  886   0.127   3.779  13.495  0.1771 -0.5139  0.3190
   57TMC2    C6  887   0.224   3.843  13.561  0.1388 -0.5785 -0.8771
   57TMC2     C  888   4.546   3.938  13.611  0.1284 -0.4478 -0.0467
   57TMC2     O  889   4.474   3.918  13.515  0.2601 -0.8728  0.0779
   57TMC2     H  890   0.023   4.044  13.740 -1.3325 -1.6486  2.3399
   57TMC2    H1  891   4.658   3.736  13.461 -1.6688  0.7417  0.7220
   57TMC2    H2  892   0.332   3.839  13.557  0.2077 -0.4152  0.8238
   57TMC2    C7  893   0.163   3.655  13.431  0.2420 -0.2653  0.5013
   57TMC2    C8  894   0.278   3.977  13.744 -0.8705  0.5296 -0.0997
   57TMC2    O1  895   0.078   3.577  13.391  0.3534  0.1669  0.3391
   57TMC2    O2  896   0.402   3.965  13.728 -0.3165 -0.4564 -0.2510
   57TMC2    O5  897   0.214   3.933  13.860 -0.1194  0.3627  0.3530
   57TMC2    H5  898   0.118   3.943  13.844 -0.3490 -0.3831  1.2422
   58MPD2     C  899   4.129   4.136  13.838 -0.2656 -0.5686  0.2381
   58MPD2    C1  900   4.166   4.119  13.705  0.0034  0.0561  0.1551
   58MPD2    C2  901   4.296   4.100  13.674  0.8333 -0.6618  0.3953
   58MPD2    C3  902   4.393   4.059  13.764  0.2095 -0.2766 -0.8443
   58MPD2    C4  903   4.359   4.074  13.895 -0.1991 -0.2694 -0.4731
   58MPD2    C5  904   4.230   4.108  13.930 -0.5023 -0.2953  0.1273
   58MPD2     H  905   4.309   4.086  13.567  0.9466 -0.2587  0.3547
   58MPD2    H1  906   4.429   4.052  13.975  0.9443  1.4398 -1.0148
   58MPD2    H2  907   4.027   4.154  13.872  1.1506  2.8588  2.6478
   58MPD2    H3  908   4.205   4.121  14.034  1.5894 -2.6621  0.9441
   58MPD2     N  909   4.514   4.001  13.734 -0.3724  0.0806  0.6600
   58MPD2    H5  910   4.578   3.983  13.811  2.3209 -4.0232 -2.5435
   58MPD2    N1  911   4.069   4.122  13.601  0.6442 -0.0908  1.0227
   58MPD2    H7  912   4.114   4.086  13.517 -2.0891 -0.2112 -0.3983
   59TMC2    C1  913   2.480   3.801  12.730 -0.7527  0.2175 -0.6716
   59TMC2    C2  914   2.351   3.831  12.742 -0.8395 -0.1566  0.7243
   59TMC2    C3  915   2.287   3.853  12.621  0.2783  0.2463 -0.3402
   59TMC2    C4  916   2.556   3.797  12.616  0.4796 -0.0131  0.3615
   59TMC2    C5  917   2.479   3.815  12.504 -1.1914  0.1527  0.1041
   59TMC2    C6  918   2.345   3.832  12.498 -0.0265 -0.3522 -0.0019
   59TMC2     C  919   2.530   3.734  12.845  0.1061 -0.1725 -0.4719
   59TMC2     O  920   2.456   3.653  12.899 -0.0572 -0.0071  0.5958
   59TMC2     H  921   2.304   3.832  12.840 -2.3891  1.5220 -0.0538
   59TMC2    H1  922   2.660   3.768  12.622  1.1543  2.0039 -1.7755
   59TMC2    H2  923   2.295   3.851  12.404 -0.2345 -1.0391 -0.0271
   59TMC2    C7  924   2.541   3.804  12.380 -0.1699  0.5491  0.1644
   59TMC2    C8  925   2.146   3.833  12.631 -0.0265 -0.0770 -0.5392
   59TMC2    O1  926   2.642   3.735  12.370 -0.6159 -0.7277 -0.2507
   59TMC2    O2  927   2.093   3.860  12.740 -0.1509  0.0384 -0.2290
   59TMC2    O5  928   2.121   3.719  12.568  0.4669 -0.3591  0.5954
   59TMC2    H5  929   2.196   3.703  12.506 -0.9174 -0.1315 -1.1543
   60MPD2     C  930   2.672   3.635  13.086 -0.2276 -0.4705 -0.2623
   60MPD2    C1  931   2.716   3.743  13.013 -0.5296 -0.5205 -0.2283
   60MPD2    C2  932   2.821   3.810  13.060 -0.1021  0.7849  0.0362
   60MPD2    C3  933   2.875   3.779  13.184 -0.0066  0.2839  0.5128
   60MPD2    C4  934   2.836   3.670  13.254 -0.0270  0.4929 -0.0298
   60MPD2    C5  935   2.727   3.597  13.209  0.5085 -0.2156  0.0246
   60MPD2     H  936   2.863   3.892  13.003 -3.9558  2.3100 -0.6197
   60MPD2    H1  937   2.887   3.646  13.347 -1.1994  0.9818  0.7491
   60MPD2    H2  938   2.607   3.560  13.041 -0.7691 -1.3921  2.0321
   60MPD2    H3  939   2.704   3.504  13.260 -1.3384 -0.3719 -1.0906
   60MPD2     N  940   2.986   3.852  13.236  0.8584  0.5678 -0.2797
   60MPD2    H5  941   2.993   3.853  13.337  0.4913 -0.3034 -0.2454
   60MPD2    N1  942   2.653   3.784  12.890  0.8013  0.0732  0.2032
   60MPD2    H7  943   2.687   3.868  12.843  2.9529 -1.8052 -1.5725
   61TMC2    C1  944   1.935   0.183  15.498 -0.4266  0.3196 -0.5653
   61TMC2    C2  945   1.902   0.056  15.544 -0.1392  0.2286  0.4937
   61TMC2    C3  946   1.766   0.029  15.549  0.2123  0.1174 -0.4494
   61TMC2    C4  947   1.835   0.274  15.467 -0.3237  0.3232 -0.0247
   61TMC2    C5  948   1.702   0.242  15.484  0.6810  0.0218  0.2904
   61TMC2    C6  949   1.663   0.115  15.515 -0.7016 -0.3157  0.5462
   61TMC2     C  950   2.065   0.212  15.447  0.4582  0.6256 -0.6005
   61TMC2     O  951   2.160   0.142  15.481  0.2603  0.2455  0.0214
   61TMC2     H  952   1.973   4.718  15.578  0.0663  0.0384 -0.3467
   61TMC2    H1  953   1.851   0.380  15.451  1.0239 -0.0116 -0.8609
   61TMC2    H2  954   1.557   0.092  15.524 -1.3710  2.8830  1.0401
   61TMC2    C7  955   1.595   0.345  15.465  0.5927  0.5079 -0.4352
   61TMC2    C8  956   1.738   4.629  15.560 -0.6041 -0.4339 -0.8491
   61TMC2    O1  957   1.621   0.431  15.384 -0.5667  0.1068 -0.8269
   61TMC2    O2  958   1.650   4.580  15.625  0.0234 -0.3770 -0.2185
   61TMC2    O5  959   1.772   4.574  15.442 -0.1147 -0.0216 -0.2443
   61TMC2    H5  960   1.814   4.638  15.380 -2.7889 -0.2330 -2.2592
   62MPD2     C  961   2.306   0.310  15.290  0.0552 -0.3865  0.2591
   62MPD2    C1  962   2.173   0.344  15.259  0.2498  0.2169  0.3439
   62MPD2    C2  963   2.152   0.426  15.151  0.0583  0.1681  0.0323
   62MPD2    C3  964   2.244   0.457  15.059  0.3574 -0.3336 -0.0445
   62MPD2    C4  965   2.381   0.424  15.084 -0.2432  0.5832 -0.5789
   62MPD2    C5  966   2.409   0.353  15.202  0.4334  0.4551 -0.3058
   62MPD2     H  967   2.047   0.451  15.135 -0.0178  0.3203  0.7581
   62MPD2    H1  968   2.462   0.450  15.017 -0.2077  2.1436  0.0654
   62MPD2    H2  969   2.332   0.243  15.371 -1.7334  0.5190  1.5650
   62MPD2    H3  970   2.512   0.323  15.214 -0.3312 -2.5327 -1.1880
   62MPD2     N  971   2.212   0.497  14.930  0.4368  0.5020  0.3234
   62MPD2    H5  972   2.280   0.523  14.859  0.1792  0.2531 -0.0144
   62MPD2    N1  973   2.062   0.307  15.341  0.3308  0.3470  0.7526
   62MPD2    H7  974   1.972   0.321  15.295  1.7384  1.3388 -1.6677
   63TMC2    C1  975   1.431   0.976  10.231  0.4353 -0.2141 -0.5904
   63TMC2    C2  976   1.546   1.033  10.191 -0.1000  0.9049 -0.5852
   63TMC2    C3  977   1.549   1.106  10.077 -0.5519  0.5269  0.0546
   63TMC2    C4  978   1.315   0.979  10.157 -0.3940  0.5888  0.4918
   63TMC2    C5  979   1.326   1.055  10.043 -0.4543 -0.1836  0.6865
   63TMC2    C6  980   1.443   1.118   9.994 -0.2316  0.4104 -0.0317
   63TMC2     C  981   1.419   0.956  10.378  1.0154  0.5073  0.2869
   63TMC2     O  982   1.488   1.017  10.457 -0.6552  0.0386 -0.3443
   63TMC2     H  983   1.635   1.022  10.251 -0.4364  0.1159 -0.2356
   63TMC2    H1  984   1.214   0.956  10.188 -0.2125  1.8344  1.9868
   63TMC2    H2  985   1.453   1.166   9.898 -0.8559  1.4021  0.3992
   63TMC2    C7  986   1.198   1.076   9.963  0.0277 -0.3552  0.0345
   63TMC2    C8  987   1.676   1.160  10.048 -0.0963 -0.9263  0.3081
   63TMC2    O1  988   1.096   1.045  10.023  0.5855  0.3963 -0.5113
   63TMC2    O2  989   1.789   1.122  10.086 -0.3768  0.5106  0.3268
   63TMC2    O5  990   1.646   1.279   9.994 -0.1269 -0.7364 -0.5067
   63TMC2    H5  991   1.555   1.315  10.005  0.4576  1.0272 -1.5277
   64MPD2     C  992   1.130   0.757  10.743  0.0849 -0.3455  0.0796
   64MPD2    C1  993   1.096   0.701  10.621  0.3811 -0.3817 -0.2326
   64MPD2    C2  994   1.161   0.731  10.501  0.2374 -0.2261  0.3385
   64MPD2    C3  995   1.264   0.817  10.510  0.0898  0.1042 -0.3360
   64MPD2    C4  996   1.299   0.878  10.628  0.2619 -1.1063  0.1236
   64MPD2    C5  997   1.232   0.850  10.742  0.0484 -0.2694 -0.3424
   64MPD2     H  998   1.134   0.689  10.405  0.8568  0.7472 -0.2562
   64MPD2    H1  999   1.384   0.943  10.649  1.9609 -3.3513  0.1396
   64MPD2    H2 1000   1.078   0.739  10.836 -1.3290  1.5541 -0.3179
   64MPD2    H3 1001   1.264   0.895  10.835 -1.6901  1.4248 -0.5641
   64MPD2     N 1002   1.314   0.866  10.393 -0.3169  0.2995 -0.2467
   64MPD2    H5 1003   1.280   0.831  10.304 -2.1995  0.0191  0.5926
   64MPD2    N1 1004   1.012   0.588  10.626  0.1341  0.4178  0.1064
   64MPD2    H7 1005   1.019   0.524  10.548  0.6096  0.2803  0.2604
   65TMC2    C1 1006   2.740   0.158  15.818  0.7452  0.0528  0.3632
   65TMC2    C2 1007   2.746   0.099  15.691  0.7763 -0.1760  0.5209
   65TMC2    C3 1008   2.736   0.179  15.580  0.0217  0.4175 -0.0338
   65TMC2    C4 1009   2.741   0.292  15.833  0.7210  0.6913 -0.6068
   65TMC2    C5 1010   2.750   0.363  15.718 -0.0415  0.0829 -0.0702
   65TMC2    C6 1011   2.747   0.314  15.592  0.3360  0.8015  0.0178
   65TMC2     C 1012   2.713   0.078  15.936  0.2143 -0.2965  0.7551
   65TMC2     O 1013   2.695   0.138  16.043  0.6707  0.5273  0.2154
   65TMC2     H 1014   2.758   4.728  15.682 -0.2820 -0.1843 -0.8323
   65TMC2    H1 1015   2.738   0.341  15.930  0.4969 -0.9231  0.1987
   65TMC2    H2 1016   2.766   0.378  15.506  1.3453 -1.6797 -1.5957
   65TMC2    C7 1017   2.763   0.505  15.720 -0.3162 -0.1552 -0.2929
   65TMC2    C8 1018   2.743   0.128  15.453 -0.5812  0.3834 -0.8993
   65TMC2    O1 1019   2.792   0.563  15.613 -0.1311 -0.1161  0.3915
   65TMC2    O2 1020   2.803   0.187  15.366  0.3009  0.6046 -0.0020
   65TMC2    O5 1021   2.620   0.070  15.435  0.1902 -0.1369 -0.3848
   65TMC2    H5 1022   2.570   0.056  15.519  0.7095  0.9875  0.1025
   66MPD2     C 1023   2.756   4.600  16.135 -0.8126  0.4316 -0.3965
   66MPD2    C1 1024   2.718   4.578  16.005  0.8100  0.2332  0.9895
   66MPD2    C2 1025   2.690   4.453  15.958  0.7117  0.0813  0.2230
   66MPD2    C3 1026   2.697   4.348  16.047 -0.2170 -0.2615 -0.6942
   66MPD2    C4 1027   2.733   4.373  16.181  0.6325 -0.2076  0.2849
   66MPD2    C5 1028   2.757   4.497  16.224 -0.2837  0.5838 -0.7069
   66MPD2     H 1029   2.642   4.448  15.861 -1.7047  0.1772  1.4327
   66MPD2    H1 1030   2.718   4.304  16.262 -0.2041  0.1489  0.4318
   66MPD2    H2 1031   2.784   4.697  16.176 -1.3750  0.8459 -0.9980
   66MPD2    H3 1032   2.786   4.508  16.328  1.9058 -4.3935 -0.8114
   66MPD2     N 1033   2.652   4.214  16.021 -0.1189 -0.5292 -0.4401
   66MPD2    H5 1034   2.658   4.146  16.096 -1.0877  0.3615  0.4453
   66MPD2    N1 1035   2.706   4.679  15.909 -0.6357  0.2947 -0.5840
   66MPD2    H7 1036   2.692   4.662  15.810 -0.0497  1.0484 -0.7909
   67TMC2    C1 1037   2.869   4.076  14.615  0.9722  0.1488 -0.5997
   67TMC2    C2 1038   2.798   4.192  14.628 -0.0012 -0.3666 -0.0096
   67TMC2    C3 1039   2.849   4.286  14.710 -0.0111  0.3454 -0.7062
   67TMC2    C4 1040   2.990   4.059  14.664  0.0434 -0.2450 -0.2005
   67TMC2    C5 1041   3.045   4.165  14.743 -0.7838  0.4856  0.1313
   67TMC2    C6 1042   2.970   4.269  14.778  0.5606 -0.3590 -0.0532
   67TMC2     C 1043   2.818   3.977  14.516 -0.0019  0.1922 -0.3029
   67TMC2     O 1044   2.903   3.903  14.475 -0.3644 -0.5214 -0.7581
   67TMC2     H 1045   2.706   4.209  14.573  0.2132  0.4779 -0.1063
   67TMC2    H1 1046   3.041   3.968  14.637  2.2622  1.2498 -1.1051
   67TMC2    H2 1047   3.005   4.353  14.837  1.3860 -1.6735  1.2962
   67TMC2    C7 1048   3.162   4.119  14.821 -0.0622  0.0445  0.8054
   67TMC2    C8 1049   2.766   4.405  14.737 -0.4128  0.2011 -0.1147
   67TMC2    O1 1050   3.259   4.066  14.769 -0.1466 -0.2412  0.2230
   67TMC2    O2 1051   2.780   4.480  14.833 -0.1591 -0.0272  0.6527
   67TMC2    O5 1052   2.675   4.417  14.644  0.1901  0.6079 -0.2056
   67TMC2    H5 1053   2.623   4.497  14.664 -0.2727  0.6464 -1.5330
   68MPD2     C 1054   2.692   3.811  14.313  0.3169  0.6344  0.8893
   68MPD2    C1 1055   2.630   3.919  14.376 -0.3723 -0.4426  0.1182
   68MPD2    C2 1056   2.513   3.960  14.324 -0.3057  0.0572 -0.4993
   68MPD2    C3 1057   2.453   3.898  14.216  0.6085  0.3089  0.5054
   68MPD2    C4 1058   2.502   3.779  14.157  0.6983 -0.0406  0.2401
   68MPD2    C5 1059   2.625   3.738  14.209  0.1500 -0.4620 -0.3691
   68MPD2     H 1060   2.460   4.042  14.371 -1.0390 -0.2199 -0.8322
   68MPD2    H1 1061   2.461   3.731  14.069 -1.0565  1.7522  0.0911
   68MPD2    H2 1062   2.792   3.775  14.330 -0.1082 -0.7797  0.3794
   68MPD2    H3 1063   2.668   3.657  14.150  2.4934  0.1254  0.5393
   68MPD2     N 1064   2.335   3.962  14.174 -0.6004  0.0623 -0.0403
   68MPD2    H5 1065   2.303   4.045  14.223  0.9679  0.9307 -0.4685
   68MPD2    N1 1066   2.688   3.997  14.472 -0.0530  0.1087 -0.2513
   68MPD2    H7 1067   2.639   4.080  14.504 -1.6039 -0.1005 -2.0837
   69TMC2    C1 1068   4.729   1.117  12.632 -0.2681  1.1885  0.4768
   69TMC2    C2 1069   4.666   1.232  12.673 -0.0175  0.2409  0.2025
   69TMC2    C3 1070   4.612   1.312  12.576 -0.5303  0.2844 -0.1864
   69TMC2    C4 1071   4.722   1.070  12.501 -0.4530 -0.2344  0.0055
   69TMC2    C5 1072   4.662   1.144  12.409  0.6207  1.0054 -0.4411
   69TMC2    C6 1073   4.611   1.270  12.447 -0.0795 -0.3234  0.1397
   69TMC2     C 1074   0.044   1.028  12.737 -0.3069 -0.5869 -0.9612
   69TMC2     O 1075   4.714   1.031  12.838  0.1104 -0.2375  0.0713
   69TMC2     H 1076   4.649   1.257  12.777 -0.5685 -0.9444  0.4048
   69TMC2    H1 1077   0.039   0.978  12.481 -1.2690 -0.7083  0.0167
   69TMC2    H2 1078   4.555   1.328  12.374  2.0131 -0.6001 -1.6796
   69TMC2    C7 1079   4.724   1.136  12.279 -0.1063 -0.0619  0.4090
   69TMC2    C8 1080   4.565   1.444  12.611  0.0152 -0.1401 -0.7008
   69TMC2    O1 1081   0.108   1.116  12.279 -0.1559  0.6612 -0.1388
   69TMC2    O2 1082   4.498   1.472  12.710  0.2749  0.0522 -0.1181
   69TMC2    O5 1083   4.584   1.525  12.504 -0.0113  0.3665 -0.5076
   69TMC2    H5 1084   4.658   1.498  12.446  0.5600  2.3495 -0.6957
   70MPD2     C 1085   0.335   0.801  12.738  0.1973  0.1659  0.2008
   70MPD2    C1 1086   0.216   0.848  12.781  0.2407 -0.2704 -0.1677
   70MPD2    C2 1087   0.157   0.792  12.890 -0.0674 -0.2328  0.1553
   70MPD2    C3 1088   0.233   0.710  12.972 -0.1943  0.3099 -0.2456
   70MPD2    C4 1089   0.369   0.680  12.941  0.3422 -0.0820 -0.4837
   70MPD2    C5 1090   0.418   0.724  12.819  0.1597  0.2240  0.2961
   70MPD2     H 1091   0.059   0.823  12.926  0.3447  0.3946  0.7515
   70MPD2    H1 1092   0.451   0.631  12.992  0.6358  0.0613 -0.8204
   70MPD2    H2 1093   0.366   0.840  12.642 -0.2891  0.2244  0.0701
   70MPD2    H3 1094   0.514   0.697  12.778 -0.7671 -2.6847  0.0679
   70MPD2     N 1095   0.181   0.646  13.091 -0.0078 -0.2959 -0.2408
   70MPD2    H5 1096   0.253   0.592  13.137 -0.5104 -0.9839 -0.2664
   70MPD2    N1 1097   0.153   0.949  12.703  0.0583 -0.0754  0.3155
   70MPD2    H7 1098   0.203   0.966  12.615 -2.7058  0.3907 -1.1576
   71TMC2    C1 1099   2.545   0.384   1.177 -0.0611  0.2180  0.6075
   71TMC2    C2 1100   2.660   0.437   1.227 -0.3746  0.8699 -0.4879
   71TMC2    C3 1101   2.672   0.438   1.362 -0.2089  0.5431 -0.1770
   71TMC2    C4 1102   2.445   0.336   1.253 -0.2229  0.2583 -0.3012
   71TMC2    C5 1103   2.452   0.351   1.388  0.0985  0.1397 -0.1174
   71TMC2    C6 1104   2.568   0.396   1.443  0.3587  0.6366  1.2010
   71TMC2     C 1105   2.517   0.420   1.037 -0.2814  0.1594  0.1002
   71TMC2     O 1106   2.399   0.417   1.003 -0.2053  0.2095 -0.4434
   71TMC2     H 1107   2.737   0.493   1.175  0.8017 -1.4946 -1.2597
   71TMC2    H1 1108   2.357   0.293   1.205 -0.9458  1.1638  0.2182
   71TMC2    H2 1109   2.580   0.409   1.550 -0.9779 -0.3121  1.4678
   71TMC2    C7 1110   2.352   0.304   1.484  0.3715  0.1507 -0.2123
   71TMC2    C8 1111   2.784   0.507   1.421 -0.0699  0.2978 -0.8382
   71TMC2    O1 1112   2.370   0.334   1.598  0.1071 -0.2343  0.0152
   71TMC2    O2 1113   2.895   0.515   1.363  0.4424 -0.1694 -0.2478
   71TMC2    O5 1114   2.748   0.577   1.528 -0.0910 -0.6016  0.0775
   71TMC2    H5 1115   2.658   0.556   1.560 -0.2032 -0.9918 -0.5187
   72MPD2     C 1116   2.659   0.529   0.562 -0.5415  0.6473  0.7683
   72MPD2    C1 1117   2.543   0.562   0.634  0.2843  0.5401  0.5605
   72MPD2    C2 1118   2.545   0.544   0.770  0.1095  0.1678 -0.5108
   72MPD2    C3 1119   2.647   0.481   0.836 -0.6603  0.7029  0.0072
   72MPD2    C4 1120   2.760   0.450   0.764 -0.2364 -0.0891 -0.1658
   72MPD2    C5 1121   2.768   0.486   0.633  0.3267  0.0050 -0.0668
   72MPD2     H 1122   2.451   0.566   0.822  0.7225  2.3246 -0.3110
   72MPD2    H1 1123   2.851   0.409   0.808  1.3329  2.9497 -0.5300
   72MPD2    H2 1124   2.662   0.535   0.454  0.6635 -1.0244  0.7048
   72MPD2    H3 1125   2.858   0.462   0.578  0.6838  1.3173 -0.0433
   72MPD2     N 1126   2.633   0.429   0.965  0.1632  0.0764  0.6704
   72MPD2    H5 1127   2.717   0.410   1.019  1.4979  1.8693 -0.8046
   72MPD2    N1 1128   2.427   0.623   0.575  0.4367 -0.4996  0.5272
   72MPD2    H7 1129   2.361   0.673   0.633  0.6526 -0.1475  0.4697
   73TMC2    C1 1130   1.745   3.014  14.216  0.7831 -0.5656  0.2686
   73TMC2    C2 1131   1.701   3.047  14.345  0.1206  0.0207  0.4855
   73TMC2    C3 1132   1.736   2.957  14.442 -0.0450  0.1157 -0.3714
   73TMC2    C4 1133   1.812   2.898  14.188  0.0978  0.2585  0.6246
   73TMC2    C5 1134   1.859   2.822  14.298 -0.2938  1.2081 -0.4698
   73TMC2    C6 1135   1.810   2.846  14.423 -0.0981  0.1095  0.5830
   73TMC2     C 1136   1.818   3.126  14.167 -0.1320  0.0640  0.4163
   73TMC2     O 1137   1.929   3.092  14.122  0.4527  0.3475  0.6328
   73TMC2     H 1138   1.629   3.128  14.360  0.1539  0.0879  0.2798
   73TMC2    H1 1139   1.832   2.867  14.087  1.7888 -0.2106  1.1071
   73TMC2    H2 1140   1.849   2.792  14.509  0.8070  0.1693  0.2139
   73TMC2    C7 1141   1.988   2.757  14.286 -0.0315 -0.5692  0.1361
   73TMC2    C8 1142   1.674   2.982  14.573  0.6355 -0.7832  0.6346
   73TMC2    O1 1143   2.033   2.698  14.385 -0.0071  0.5182  0.4155
   73TMC2    O2 1144   1.649   2.892  14.653  0.2559 -0.2274 -0.1162
   73TMC2    O5 1145   1.663   3.112  14.594  0.1898 -0.5107 -0.5989
   73TMC2    H5 1146   1.704   3.162  14.521 -0.6858  1.6610  0.3934
   74MPD2     C 1147   1.939   3.620  14.067 -0.9069 -0.1252 -0.6311
   74MPD2    C1 1148   2.028   3.519  14.105  0.7425 -0.4150 -0.4154
   74MPD2    C2 1149   1.967   3.399  14.145 -0.5686  0.1114 -0.1395
   74MPD2    C3 1150   1.827   3.376  14.136 -0.3780 -0.4200 -0.8905
   74MPD2    C4 1151   1.747   3.482  14.103 -0.3841 -0.0988  0.7084
   74MPD2    C5 1152   1.803   3.603  14.084 -0.4813 -0.3848 -0.4023
   74MPD2     H 1153   2.032   3.322  14.185 -0.4938 -1.6288 -3.6171
   74MPD2    H1 1154   1.639   3.485  14.102 -0.3794  0.1265  1.3749
   74MPD2    H2 1155   1.986   3.696  14.006 -1.8104 -0.2432 -1.4663
   74MPD2    H3 1156   1.728   3.677  14.059 -0.7235 -0.5002 -0.0097
   74MPD2     N 1157   1.763   3.255  14.174 -0.0482 -0.4785 -0.0320
   74MPD2    H5 1158   1.662   3.264  14.169 -0.3951 -4.0525  0.6820
   74MPD2    N1 1159   2.161   3.537  14.074  0.2136 -0.1676  0.7128
   74MPD2    H7 1160   2.184   3.635  14.062 -1.2954  0.1965  0.8567
   75TMC2    C1 1161   2.107   3.954  14.106  0.2866  0.5275  0.3344
   75TMC2    C2 1162   2.066   3.978  14.235  0.3977 -0.1636  0.0660
   75TMC2    C3 1163   1.946   4.038  14.253 -0.0859  0.7529 -1.0075
   75TMC2    C4 1164   2.018   3.971  14.000  0.3417 -0.2212  0.3063
   75TMC2    C5 1165   1.897   4.032  14.028  0.1171  0.1870  0.3448
   75TMC2    C6 1166   1.855   4.064  14.156  0.3195 -0.4288  0.0998
   75TMC2     C 1167   2.239   3.901  14.089 -0.0174  0.6188 -1.1761
   75TMC2     O 1168   2.244   3.806  14.018  0.2618 -0.0493  0.0849
   75TMC2     H 1169   2.140   3.981  14.314  0.3975  1.2820  0.0132
   75TMC2    H1 1170   2.052   3.956  13.898  1.4053  1.9077  0.3472
   75TMC2    H2 1171   1.763   4.121  14.166  0.3087 -0.3491 -0.4216
   75TMC2    C7 1172   1.846   4.113  13.921 -0.1006 -0.5205 -0.1866
   75TMC2    C8 1173   1.930   4.116  14.375 -0.8314  0.1922 -0.1036
   75TMC2    O1 1174   1.818   4.231  13.954  1.0870 -0.5652  0.8231
   75TMC2    O2 1175   1.891   4.232  14.368  0.1032 -0.2668 -0.8382
   75TMC2    O5 1176   2.000   4.063  14.472  0.2087 -0.2160  0.2352
   75TMC2    H5 1177   1.996   3.966  14.461  1.4173 -0.4439  1.7449
   76TMC2    C1 1178   0.421   0.022  12.060 -0.5955  0.3575 -0.0767
   76TMC2    C2 1179   0.308   0.031  12.138 -0.6699  0.1069  0.4723
   76TMC2    C3 1180   0.280   4.659  12.212 -0.4081 -0.3667  0.5341
   76TMC2    C4 1181   0.507   4.654  12.071  0.3816  0.7559  0.5194
   76TMC2    C5 1182   0.468   4.545  12.150  0.0754 -0.5392 -0.2091
   76TMC2    C6 1183   0.353   4.538  12.220 -0.1290 -0.0402  0.6558
   76TMC2     C 1184   0.465   0.129  11.980 -0.2476 -0.1976  0.1878
   76TMC2     O 1185   0.384   0.193  11.915 -0.6293 -0.4810  0.0405
   76TMC2     H 1186   0.245   0.118  12.129  0.1255  0.5098 -1.1683
   76TMC2    H1 1187   0.590   4.647  12.002 -1.3539 -0.9680 -1.4182
   76TMC2    H2 1188   0.322   4.456  12.284 -0.0779 -0.8519 -0.3748
   76TMC2    C7 1189   0.541   4.420  12.139  0.6414 -0.7373  0.1139
   76TMC2    C8 1190   0.179   4.687  12.313 -0.3925  0.6540 -0.3389
   76TMC2    O1 1191   0.477   4.322  12.185 -0.7963 -1.0421  0.0816
   76TMC2    O2 1192   0.092   0.036  12.304  0.0297  0.0096  0.3752
   76TMC2    O5 1193   0.238   4.658  12.429  0.0581 -0.7034 -0.1165
   76TMC2    H5 1194   0.326   4.615  12.419 -0.0482 -0.7627 -0.8158
   77MPD2     C 1195   0.838   0.461  11.869 -0.3788  0.1995 -0.2523
   77MPD2    C1 1196   0.704   0.485  11.876  0.3730 -0.4896 -0.3325
   77MPD2    C2 1197   0.621   0.379  11.919  0.2053 -0.0220 -0.1634
   77MPD2    C3 1198   0.669   0.263  11.971 -0.3810 -0.1098 -0.4220
   77MPD2    C4 1199   0.809   0.254  11.985 -0.0748  0.1327 -0.2698
   77MPD2    C5 1200   0.889   0.344  11.924 -0.1642  0.6224  0.5490
   77MPD2     H 1201   0.515   0.397  11.902  0.3773  1.7102  0.5832
   77MPD2    H1 1202   0.855   0.158  12.003 -0.7219  0.0779  1.0888
   77MPD2    H2 1203   0.904   0.527  11.813 -0.5322 -0.0495 -0.7296
   77MPD2    H3 1204   0.995   0.318  11.922 -1.1236 -3.3487  0.9677
   77MPD2     N 1205   0.596   0.148  12.003 -0.4586 -0.6639 -0.4844
   77MPD2    H5 1206   0.642   0.076  12.058  0.1546  1.2120  1.4349
   77MPD2    N1 1207   0.643   0.601  11.823 -0.7119  0.4529 -0.1530
   77MPD2    H7 1208   0.542   0.604  11.830 -0.6683  0.7264  0.2967
   78TMC2    C1 1209   2.182   4.726   0.814 -0.4780 -0.1428  0.2995
   78TMC2    C2 1210   2.133   0.104   0.762  0.4374  0.2042 -0.6652
   78TMC2    C3 1211   2.214   0.210   0.761 -0.5839  0.1384 -0.4539
   78TMC2    C4 1212   2.311   4.716   0.868 -0.2261 -0.6014  0.3324
   78TMC2    C5 1213   2.391   0.089   0.864  0.4323 -0.6469 -0.2846
   78TMC2    C6 1214   2.341   0.207   0.813 -0.0051 -0.3409 -1.1319
   78TMC2     C 1215   2.092   4.613   0.850 -0.1352 -0.0436  0.6110
   78TMC2     O 1216   2.138   4.527   0.929  0.4073 -0.0396  0.0893
   78TMC2     H 1217   2.030   0.109   0.728  0.3201 -3.4584 -0.9125
   78TMC2    H1 1218   2.343   4.619   0.904 -1.3580 -0.9616  0.3574
   78TMC2    H2 1219   2.408   0.288   0.791  0.9537 -0.7270  0.4018
   78TMC2    C7 1220   2.534   0.072   0.882 -0.5026 -0.4390  0.0975
   78TMC2    C8 1221   2.153   0.335   0.714  0.5384 -0.0214 -0.0910
   78TMC2    O1 1222   2.606   0.138   0.812  0.1309  0.5912 -0.6670
   78TMC2    O2 1223   2.052   0.346   0.645 -0.6189 -0.5348 -0.1760
   78TMC2    O5 1224   2.194   0.425   0.804  0.8927  0.3314  0.2274
   78TMC2    H5 1225   2.255   0.391   0.873 -0.1054  0.2893  1.0913
   79MPD1     C 1226   1.640   4.373   0.843  0.4490  0.5807 -1.0982
   79MPD1    C1 1227   1.753   4.335   0.905  0.0864 -0.1286 -0.2630
   79MPD1    C2 1228   1.857   4.430   0.898  0.1956  0.3054  0.1272
   79MPD1    C3 1229   1.857   4.540   0.814  0.2011  0.4956  0.0143
   79MPD1    C4 1230   1.738   4.566   0.747  0.1571  0.3985  0.2326
   79MPD1    C5 1231   1.632   4.476   0.751 -0.4314 -0.0539  0.0941
   79MPD1     H 1232   1.953   4.401   0.938  2.0036  0.5143 -4.0129
   79MPD1    H1 1233   1.728   4.656   0.688 -4.5039  1.5364  2.8270
   79MPD1    H2 1234   1.550   4.312   0.843 -0.8759  2.5177  0.0807
   79MPD1    H3 1235   1.533   4.485   0.708 -0.2773 -3.6458 -0.9873
   79MPD1     N 1236   1.960   4.634   0.799  0.7456  0.2461 -0.1885
   79MPD1    H5 1237   1.938   4.708   0.733  0.2964  0.2746 -0.0088
   79MPD1    N1 1238   1.760   4.224   0.998  0.2259 -0.2862 -0.2093
   79MPD1    H6 1239   1.857   4.199   1.015 -0.0480 -2.3939 -1.7369
   79MPD1    H7 1240   1.708   4.141   0.970 -0.7315 -0.0902  0.9812
   80TMC2    C1 1241   4.602   0.322  11.904  0.2886  0.4362 -0.3897
   80TMC2    C2 1242   4.575   0.362  11.779  0.4796 -0.0737  0.5023
   80TMC2    C3 1243   4.469   0.304  11.707  0.5062 -0.7097 -0.7420
   80TMC2    C4 1244   4.546   0.212  11.963 -0.1486  0.0843  0.5040
   80TMC2    C5 1245   4.450   0.153  11.885  0.0164 -0.2083  0.3472
   80TMC2    C6 1246   4.410   0.196  11.764 -0.2005  0.0449  0.4644
   80TMC2     C 1247   4.733   0.367  11.954  0.4283  0.2493 -0.3308
   80TMC2     O 1248   0.072   0.409  11.870 -0.1434  0.3680 -0.4915
   80TMC2     H 1249   4.642   0.435  11.734  0.1897 -1.3191 -1.9327
   80TMC2    H1 1250   4.591   0.162  12.048  1.9133  0.9493 -0.0853
   80TMC2    H2 1251   4.342   0.122  11.723 -0.7463  0.7581  0.0933
   80TMC2    C7 1252   4.373   0.046  11.945  0.9401 -0.3083  0.8880
   80TMC2    C8 1253   4.477   0.305  11.560  0.3178 -0.2840  0.0356
   80TMC2    O1 1254   4.253   0.038  11.917 -0.1277  0.2140  0.9712
   80TMC2    O2 1255   4.560   0.376  11.509  0.7295 -0.1536 -0.2098
   80TMC2    O5 1256   4.353   0.274  11.511  0.0886 -0.2072  0.1226
   80TMC2    H5 1257   4.295   0.226  11.574  1.4057 -0.4948  1.1153
   81MPD2     C 1258   0.252   0.411  12.099  0.0825  0.3237 -0.0003
   81MPD2    C1 1259   0.130   0.377  12.165 -0.2910 -0.2523 -0.2945
   81MPD2    C2 1260   0.131   0.378  12.301 -1.1004  0.6399  1.0297
   81MPD2    C3 1261   0.245   0.412  12.370  0.9160 -0.3221 -0.0552
   81MPD2    C4 1262   0.359   0.458  12.302 -0.0948 -0.6421 -0.3014
   81MPD2    C5 1263   0.359   0.454  12.167 -0.1835 -0.2089  0.6704
   81MPD2     H 1264   0.040   0.347  12.351 -0.6079 -0.5910  1.1693
   81MPD2    H1 1265   0.448   0.492  12.354 -1.9851 -0.2226  2.6468
   81MPD2    H2 1266   0.260   0.414  11.991  1.9577 -2.4959  0.0641
   81MPD2    H3 1267   0.451   0.478  12.115 -1.8121  0.8194 -1.6915
   81MPD2     N 1268   0.255   0.421  12.509 -0.2251  0.2035  1.2935
   81MPD2    H5 1269   0.337   0.469  12.545 -0.4618  1.5937 -0.0034
   81MPD2    N1 1270   0.014   0.352  12.090  0.1653  0.1115  0.6999
   81MPD2    H7 1271   4.677   0.306  12.143 -0.8462  0.7954 -0.1204
   82TMC2    C1 1272   2.594   3.696  10.653 -0.7142  0.0287 -0.5991
   82TMC2    C2 1273   2.712   3.730  10.603 -0.0395  0.0422  0.1530
   82TMC2    C3 1274   2.825   3.681  10.663  0.2732  0.5230  0.1676
   82TMC2    C4 1275   2.579   3.620  10.761 -0.0873  0.4460 -0.4671
   82TMC2    C5 1276   2.693   3.579  10.828 -0.2395  0.0739  0.0309
   82TMC2    C6 1277   2.814   3.607  10.773  0.5571 -0.1955 -0.2037
   82TMC2     C 1278   2.476   3.725  10.577  0.1624  0.6058 -0.1154
   82TMC2     O 1279   2.374   3.763  10.634  0.2776 -0.2018  0.4130
   82TMC2     H 1280   2.724   3.780  10.508  0.2185  0.3577  0.3515
   82TMC2    H1 1281   2.474   3.597  10.777 -0.1015 -0.2032 -1.4876
   82TMC2    H2 1282   2.905   3.555  10.802 -0.9991 -1.5202  2.2620
   82TMC2    C7 1283   2.686   3.479  10.933  0.3433 -0.0268  0.0063
   82TMC2    C8 1284   2.955   3.706  10.594 -0.1671 -0.3476 -0.2249
   82TMC2    O1 1285   2.788   3.447  10.989 -0.0628 -0.2622 -0.1681
   82TMC2    O2 1286   2.961   3.696  10.474  0.0353  0.1489 -0.1997
   82TMC2    O5 1287   3.057   3.694  10.681 -0.4291 -0.4436  0.1864
   82TMC2    H5 1288   3.024   3.712  10.772 -2.5130 -0.7187 -0.5048
   83MPD2     C 1289   2.245   3.790  10.130 -0.3215 -0.0631  0.7113
   83MPD2    C1 1290   2.187   3.791  10.257 -0.2471 -0.5162 -0.7841
   83MPD2    C2 1291   2.270   3.755  10.357  0.0392 -0.1047 -0.1219
   83MPD2    C3 1292   2.402   3.721  10.339 -0.2352  0.0100  0.3251
   83MPD2    C4 1293   2.447   3.710  10.210 -0.4233  0.6396  0.2528
   83MPD2    C5 1294   2.369   3.750  10.103 -0.6050  0.3451  0.3168
   83MPD2     H 1295   2.232   3.743  10.457  0.4626 -1.3804 -0.1108
   83MPD2    H1 1296   2.548   3.679  10.187 -0.9066 -0.0093 -0.9985
   83MPD2    H2 1297   2.182   3.839  10.057  0.8064  0.1974 -0.0908
   83MPD2    H3 1298   2.402   3.760  10.000  0.6929  2.0261  0.8865
   83MPD2     N 1299   2.494   3.695  10.444  0.0080 -0.5276 -0.7154
   83MPD2    H5 1300   2.588   3.674  10.410  1.0227  1.6847  0.7015
   83MPD2    N1 1301   2.059   3.850  10.266  0.3204  0.3359 -0.0696
   83MPD2    H7 1302   2.029   3.899  10.183 -1.4260  0.2621  0.5121
   84TMC2    C1 1303   0.030   2.975  11.310 -0.3228  0.3985 -0.6651
   84TMC2    C2 1304   0.123   2.875  11.315 -0.5867  0.0432 -0.0645
   84TMC2    C3 1305   0.149   2.813  11.196  0.4392 -0.0760 -0.3349
   84TMC2    C4 1306   4.707   3.019  11.191 -0.0618 -0.4491  0.1120
   84TMC2    C5 1307   0.004   2.948  11.076  0.4037 -0.1927 -0.7524
   84TMC2    C6 1308   0.096   2.847  11.073  0.0271 -0.1299 -0.7232
   84TMC2     C 1309   4.700   3.025  11.429 -0.2021  0.4337  0.0047
   84TMC2     O 1310   4.646   3.134  11.424  0.0864 -0.3076 -0.2477
   84TMC2     H 1311   0.178   2.850  11.405  2.3995  1.9411 -1.3626
   84TMC2    H1 1312   4.629   3.092  11.209  0.9619  1.0373 -1.5145
   84TMC2    H2 1313   0.134   2.805  10.981 -0.1002 -1.7872 -0.0172
   84TMC2    C7 1314   4.639   2.933  10.973 -0.3164 -0.1556  0.4426
   84TMC2    C8 1315   0.265   2.727  11.192 -0.2823 -0.4066 -0.0769
   84TMC2    O1 1316   4.671   2.869  10.875 -0.2960 -0.6502  0.3278
   84TMC2    O2 1317   0.315   2.703  11.082 -0.0667  0.2045  0.3615
   84TMC2    O5 1318   0.275   2.662  11.309  0.2123  0.0184 -0.5130
   84TMC2    H5 1319   0.210   2.702  11.370  1.1340 -1.1747  1.2395
   85TMC2    C1 1320   0.035   1.175  16.127 -0.3347 -0.3792  0.7057
   85TMC2    C2 1321   4.681   1.172  16.019 -0.2769 -0.0205  0.1497
   85TMC2    C3 1322   4.660   1.287  15.947  0.2737  0.0495  0.1335
   85TMC2    C4 1323   0.110   1.290  16.149  0.1548  0.8149  0.1206
   85TMC2    C5 1324   0.069   1.400  16.086 -0.2279  0.0922 -0.4103
   85TMC2    C6 1325   4.726   1.399  15.979  0.7398 -0.0327  0.0746
   85TMC2     C 1326   0.017   1.085  16.233 -0.3871  0.3615  0.5317
   85TMC2     O 1327   0.072   1.118  16.338 -0.0600  0.3834  0.0924
   85TMC2     H 1328   4.626   1.083  15.989 -2.2249  1.3554 -0.3500
   85TMC2    H1 1329   0.179   1.297  16.232  0.0328 -2.1685  0.4658
   85TMC2    H2 1330   4.712   1.490  15.922 -1.4421 -0.5835 -0.2561
   85TMC2    C7 1331   0.178   1.496  16.062 -0.3631  0.3292  0.7565
   85TMC2    C8 1332   4.605   1.256  15.816  0.0295  0.3682  0.7493
   85TMC2    O1 1333   0.283   1.445  16.022  0.4689  0.3997 -0.3726
   85TMC2    O2 1334   4.535   1.159  15.806 -0.5564 -0.3851 -0.1045
   85TMC2    O5 1335   4.677   1.315  15.718 -0.3967 -0.3140  0.3265
   85TMC2    H5 1336   0.011   1.379  15.744  0.0837  0.2146 -2.2260
   86MPD2     C 1337   4.512   0.703  16.481 -0.4221  0.0079  0.7558
   86MPD2    C1 1338   4.442   0.732  16.364 -0.1505  0.0169  0.9821
   86MPD2    C2 1339   4.499   0.823  16.273  0.5880 -0.2306  0.2385
   86MPD2    C3 1340   4.607   0.896  16.306  0.1292 -0.7831 -0.5764
   86MPD2    C4 1341   4.677   0.870  16.422  0.5296  0.7891  0.6909
   86MPD2    C5 1342   4.622   0.777  16.511 -0.1785 -0.2243  0.0238
   86MPD2     H 1343   4.444   0.842  16.182 -0.2518 -0.2177  0.7537
   86MPD2    H1 1344   0.030   0.926  16.445  0.6325  0.4880  1.0202
   86MPD2    H2 1345   4.472   0.631  16.551  0.0685  0.2729  1.3116
   86MPD2    H3 1346   4.667   0.762  16.609 -3.6721 -1.9655  1.3507
   86MPD2     N 1347   4.654   0.986  16.212 -0.5110 -0.4849 -1.6999
   86MPD2    H5 1348   4.605   0.990  16.123 -2.0164  0.7615 -0.7958
   86MPD2    N1 1349   4.310   0.689  16.342  0.6133  0.7706 -0.2563
   86MPD2    H7 1350   4.263   0.723  16.259 -0.5459  3.6722  1.5564
   87TMC2    C1 1351   3.128   3.594   1.220 -0.1027  0.1314 -0.0151
   87TMC2    C2 1352   3.159   3.588   1.354 -0.2375  0.6356  0.4842
   87TMC2    C3 1353   3.163   3.694   1.436 -0.2778 -0.0918  0.7470
   87TMC2    C4 1354   3.079   3.711   1.174 -0.0513  0.6082  0.0074
   87TMC2    C5 1355   3.081   3.822   1.251 -0.1000 -0.0604 -0.0238
   87TMC2    C6 1356   3.126   3.820   1.381  0.2818  1.1394  0.0213
   87TMC2     C 1357   3.103   3.468   1.146  0.2899 -0.1412  0.0870
   87TMC2     O 1358   3.166   3.374   1.192  0.1191  0.0877  0.2568
   87TMC2     H 1359   3.210   3.498   1.385 -2.4893 -1.1448 -0.8785
   87TMC2    H1 1360   3.047   3.719   1.071 -0.2543 -1.0157 -0.0573
   87TMC2    H2 1361   3.122   3.900   1.454  0.8580  0.5466  0.7105
   87TMC2    C7 1362   3.062   3.951   1.181 -0.0707  0.1069  0.0933
   87TMC2    C8 1363   3.236   3.670   1.560 -0.4410  0.0109 -0.3818
   87TMC2    O1 1364   3.022   3.954   1.063 -0.7274 -0.2482 -0.4175
   87TMC2    O2 1365   3.234   3.560   1.617  0.4111  0.2516 -0.5277
   87TMC2    O5 1366   3.323   3.772   1.582 -0.0271 -0.0914  0.0265
   87TMC2    H5 1367   3.327   3.846   1.519 -0.7750  0.0517  0.1437
   88MPD2     C 1368   3.214   4.268   1.292  0.8817  0.0787 -0.3378
   88MPD2    C1 1369   3.133   4.189   1.214 -0.4220 -0.3063 -0.4572
   88MPD2    C2 1370   3.048   4.241   1.118  0.1707 -0.3642 -0.0577
   88MPD2    C3 1371   3.050   4.379   1.099  0.4723  0.5408 -1.0345
   88MPD2    C4 1372   3.131   4.463   1.164 -0.0957 -0.0598  0.2941
   88MPD2    C5 1373   3.220   4.401   1.261  0.1364 -0.0133  0.3089
   88MPD2     H 1374   2.981   4.181   1.056  1.7145 -0.6435 -1.4678
   88MPD2    H1 1375   3.142   4.567   1.134 -0.7465 -0.5293 -1.5516
   88MPD2    H2 1376   3.288   4.231   1.361  0.8307  2.5439  1.0344
   88MPD2    H3 1377   3.302   4.459   1.301  0.9067 -0.0514 -1.2241
   88MPD2     N 1378   2.973   4.444   0.997 -0.1726  0.5766  0.0165
   88MPD2    H5 1379   2.980   4.545   0.993 -1.9359  0.6586 -0.9975
   88MPD2    N1 1380   3.133   4.055   1.244 -0.0625 -0.2036 -0.5291
   88MPD2    H7 1381   3.178   4.032   1.331  2.9202 -0.4599 -2.1619
   89TMC2    C1 1382   3.438   1.692   1.116  0.3299 -0.0220  0.7171
   89TMC2    C2 1383   3.300   1.697   1.100 -0.1304  0.1994  0.1036
   89TMC2    C3 1384   3.246   1.825   1.087 -0.2850 -0.3731 -0.0972
   89TMC2    C4 1385   3.518   1.811   1.108 -0.3263 -0.0006  0.4729
   89TMC2    C5 1386   3.456   1.932   1.090 -0.0448 -0.0840  1.1040
   89TMC2    C6 1387   3.322   1.939   1.111  1.2262  0.4174 -0.1223
   89TMC2     C 1388   3.511   1.571   1.133 -0.0905  0.1528  0.4332
   89TMC2     O 1389   3.633   1.569   1.135 -0.2222  0.8372 -0.1181
   89TMC2     H 1390   3.243   1.608   1.077  0.3498  0.1405 -0.8424
   89TMC2    H1 1391   3.624   1.800   1.093 -0.3065  3.0213 -1.6878
   89TMC2    H2 1392   3.268   2.033   1.108  1.4259  0.5157 -0.8346
   89TMC2    C7 1393   3.537   2.045   1.054 -0.4333  0.1657  0.3870
   89TMC2    C8 1394   3.099   1.845   1.040  0.6643  0.1790 -0.4023
   89TMC2    O1 1395   3.652   2.024   1.008  0.8072  0.9814  0.4366
   89TMC2    O2 1396   3.039   1.950   1.060 -0.0079 -0.7550 -0.6303
   89TMC2    O5 1397   3.062   1.749   0.948  0.1296 -0.8720  0.2686
   89TMC2    H5 1398   3.133   1.690   0.914 -0.7105 -0.6344 -1.8484
   90MPD2     C 1399   3.550   1.088   1.268  0.5993 -0.3819  0.1846
   90MPD2    C1 1400   3.426   1.120   1.287  0.3149  0.5014 -0.2330
   90MPD2    C2 1401   3.385   1.245   1.237  0.0772 -0.3853  0.5117
   90MPD2    C3 1402   3.477   1.336   1.184  0.4889 -0.6497 -0.4395
   90MPD2    C4 1403   3.603   1.290   1.164  0.1171 -0.5337 -0.3656
   90MPD2    C5 1404   3.645   1.173   1.210 -0.1175  0.5614  0.0164
   90MPD2     H 1405   3.284   1.273   1.264  0.3615  0.0642  1.0976
   90MPD2    H1 1406   3.674   1.340   1.098  0.0609 -0.4851 -0.3896
   90MPD2    H2 1407   3.587   0.990   1.297  0.9838 -0.1773  0.3814
   90MPD2    H3 1408   3.741   1.129   1.184 -1.8734 -1.5648 -2.8142
   90MPD2     N 1409   3.431   1.462   1.150  0.0594 -0.2152  0.1594
   90MPD2    H5 1410   3.334   1.485   1.172 -0.6134 -3.4882  0.4934
   90MPD2    N1 1411   3.334   1.038   1.347  0.2669  0.4036  0.1320
   90MPD2    H7 1412   3.236   1.061   1.338 -0.0651 -1.8547 -2.0687
   91TMC2    C1 1413   4.433   2.619  16.260 -0.6774  0.0303  0.7947
   91TMC2    C2 1414   4.497   2.666  16.370 -0.5726  0.4054  0.0274
   91TMC2    C3 1415   4.417   2.706  16.474 -0.2999 -0.0737  0.9129
   91TMC2    C4 1416   4.299   2.599  16.255  0.5223  0.0919 -0.8460
   91TMC2    C5 1417   4.224   2.624  16.365 -0.3109 -0.3779  0.3148
   91TMC2    C6 1418   4.278   2.680  16.475  0.0422  0.0070  0.1043
   91TMC2     C 1419   4.506   2.600  16.134  0.1918 -0.3950 -0.3347
   91TMC2     O 1420   4.434   2.605  16.036  0.2087  0.0345 -0.4891
   91TMC2     H 1421   4.598   2.705  16.360 -0.1628 -0.7514 -0.2979
   91TMC2    H1 1422   4.248   2.569  16.165  1.4511 -3.0924 -0.2938
   91TMC2    H2 1423   4.216   2.671  16.564  0.1198  1.6091  0.3332
   91TMC2    C7 1424   4.081   2.607  16.373  1.3665  0.3692 -0.1501
   91TMC2    C8 1425   4.485   2.755  16.589  0.1288  1.2216 -0.4510
   91TMC2    O1 1426   4.026   2.669  16.465 -0.2866  0.5665 -0.7835
   91TMC2    O2 1427   4.607   2.747  16.591  0.6564 -0.0454 -0.4537
   91TMC2    O5 1428   4.406   2.850  16.643  0.1053 -0.4778 -0.0413
   91TMC2    H5 1429   4.312   2.853  16.616 -0.2614 -0.2684  1.2430
   92MPD2     C 1430   4.693   2.548  15.909 -0.0760 -0.4236 -0.1951
   92MPD2    C1 1431   0.000   2.563  16.040  0.1023  0.5919 -0.6347
   92MPD2    C2 1432   0.134   2.549  16.075  0.7197  0.0434 -0.5321
   92MPD2    C3 1433   0.230   2.524  15.984 -0.2139 -0.0415 -0.0470
   92MPD2    C4 1434   0.191   2.522  15.850 -0.2552  0.0794  0.5160
   92MPD2    C5 1435   0.055   2.534  15.810  0.0932 -0.1488  0.2456
   92MPD2     H 1436   0.163   2.557  16.179 -0.6890  2.3284 -0.3319
   92MPD2    H1 1437   0.263   2.530  15.769 -2.4088  1.9466 -1.1764
   92MPD2    H2 1438   4.589   2.567  15.884 -0.1229  0.7001  0.8335
   92MPD2    H3 1439   0.037   2.524  15.704 -0.4672 -2.4985  0.5658
   92MPD2     N 1440   0.368   2.515  16.017 -0.2973  0.0889 -0.3595
   92MPD2    H5 1441   0.387   2.529  16.116  0.2853 -1.3255 -0.2744
   92MPD2    N1 1442   4.643   2.587  16.141  0.2350 -0.2581  0.2535
   92MPD2    H7 1443   4.675   2.581  16.237  0.7927  0.6742  0.1281
   93TMC2    C1 1444   1.793   1.815  13.806 -0.2391 -0.1766 -0.7549
   93TMC2    C2 1445   1.821   1.692  13.745 -0.2831  0.4154  0.4856
   93TMC2    C3 1446   1.954   1.667  13.701  0.3950 -0.8960  0.0706
   93TMC2    C4 1447   1.883   1.915  13.813  0.6110 -0.0650  0.1339
   93TMC2    C5 1448   2.005   1.892  13.763  0.5091  0.5904  0.2254
   93TMC2    C6 1449   2.049   1.767  13.717  0.0415 -0.6065  0.7184
   93TMC2     C 1450   1.667   1.827  13.877 -0.3242 -0.3797 -0.8448
   93TMC2     O 1451   1.642   1.736  13.956 -0.3848 -0.0214  0.3726
   93TMC2     H 1452   1.763   1.602  13.764  2.1052 -1.2484 -0.1656
   93TMC2    H1 1453   1.857   2.004  13.870 -0.8242  0.2179 -0.9419
   93TMC2    H2 1454   2.149   1.736  13.689  0.7196  1.3215  1.0297
   93TMC2    C7 1455   2.107   1.983  13.784 -0.1477  0.3070 -0.1246
   93TMC2    C8 1456   2.003   1.535  13.658  0.4185  0.0171  0.0040
   93TMC2    O1 1457   2.217   1.939  13.779 -0.6875 -0.1447 -0.4313
   93TMC2    O2 1458   2.113   1.488  13.693  0.0961 -0.1846  0.2371
   93TMC2    O5 1459   1.898   1.463  13.616  0.1159 -0.4721  0.4591
   93TMC2    H5 1460   1.845   1.508  13.547  1.1366 -0.5510 -0.3828
   94MPD2     C 1461   1.395   1.924  13.969 -0.2510 -0.0692  0.1131
   94MPD2    C1 1462   1.480   1.991  13.880 -0.1404  0.2325 -0.1092
   94MPD2    C2 1463   1.427   2.098  13.806  0.6793  0.0738  0.1210
   94MPD2    C3 1464   1.306   2.150  13.836  0.4262 -0.5037  0.3393
   94MPD2    C4 1465   1.233   2.094  13.940  0.1722 -0.4872  0.8999
   94MPD2    C5 1466   1.280   1.991  14.008  0.1284 -0.3210  0.0981
   94MPD2     H 1467   1.491   2.143  13.730 -0.6735  0.7678 -0.5961
   94MPD2    H1 1468   1.135   2.135  13.960  0.1577 -0.0282 -0.0993
   94MPD2    H2 1469   1.436   1.837  14.019  0.6145 -0.6008 -1.5439
   94MPD2    H3 1470   1.229   1.936  14.086 -2.0222  2.1915  0.4436
   94MPD2     N 1471   1.245   2.254  13.754 -0.6068 -0.0971 -0.4918
   94MPD2    H5 1472   1.161   2.302  13.786 -0.9121 -0.8931 -0.1054
   94MPD2    N1 1473   1.601   1.936  13.826 -0.4494 -0.3383  0.3050
   94MPD2    H7 1474   1.635   1.987  13.746 -2.7622  0.7269 -0.0020
   95TMC2    C1 1475   2.159   4.066  16.883 -0.4476  0.6821 -0.0134
   95TMC2    C2 1476   2.161   3.957  16.974  0.1507  0.3228 -0.1423
   95TMC2    C3 1477   2.173   3.986  17.103  0.3487  0.4346 -0.0212
   95TMC2    C4 1478   2.178   4.196  16.928 -0.0405 -0.1083 -0.2295
   95TMC2    C5 1479   2.190   4.213  17.059 -0.4435 -0.5274 -0.2622
   95TMC2    C6 1480   2.185   4.111  17.155  0.4190  0.0045  0.0342
   95TMC2     C 1481   2.146   4.048  16.737 -0.2818 -0.6404  0.6486
   95TMC2     O 1482   2.176   4.133  16.658 -0.1186 -0.3234 -0.0234
   95TMC2     H 1483   2.146   3.853  16.948  2.7800 -0.4928  1.6387
   95TMC2    H1 1484   2.190   4.274  16.854  1.9829 -0.2008 -0.0044
   95TMC2    H2 1485   2.213   4.125  17.259  0.7256 -1.8595  0.2064
   95TMC2    C7 1486   2.222   4.346  17.110  0.3275 -0.1550  0.1530
   95TMC2    C8 1487   2.152   3.881  17.192  0.7514  0.0223  0.1664
   95TMC2    O1 1488   2.286   4.413  17.033  0.4196  0.3089  0.7902
   95TMC2    O2 1489   2.179   3.764  17.160  0.1206 -0.4412 -0.8339
   95TMC2    O5 1490   2.091   3.914  17.310 -0.3538  0.1713  0.9616
   95TMC2    H5 1491   2.057   4.005  17.322  0.8030  0.5811  1.1509
   96MPD2     C 1492   2.021   3.723  16.360  0.8135  0.4770 -0.8424
   96MPD2    C1 1493   2.121   3.817  16.360  0.4610 -0.5830 -0.2201
   96MPD2    C2 1494   2.139   3.890  16.479 -0.0265  0.4217 -0.6056
   96MPD2    C3 1495   2.071   3.863  16.593  0.7902  0.0999 -0.3153
   96MPD2    C4 1496   1.973   3.768  16.583  0.2715 -1.1919 -0.0076
   96MPD2    C5 1497   1.944   3.702  16.472 -0.6609 -0.2476  0.0351
   96MPD2     H 1498   2.223   3.958  16.488  2.1925 -2.3269 -0.5299
   96MPD2    H1 1499   1.921   3.735  16.673  0.8939  0.4605  0.9445
   96MPD2    H2 1500   1.998   3.669  16.269  2.0370  1.3759 -1.6842
   96MPD2    H3 1501   1.863   3.630  16.478 -1.3569  0.6431  1.3197
   96MPD2     N 1502   2.086   3.927  16.717  0.2024  0.5927 -0.0388
   96MPD2    H5 1503   2.036   3.882  16.792 -1.9679  0.7460 -1.3941
   96MPD2    N1 1504   2.208   3.830  16.246  0.0374  0.0630  0.1890
   96MPD2    H7 1505   2.201   3.766  16.167 -2.8842  1.4511 -0.6786
   97TMC2    C1 1506   4.237   1.582   0.271  0.4539  0.1725 -0.1230
   97TMC2    C2 1507   4.123   1.560   0.197  0.4880  0.5156  0.1869
   97TMC2    C3 1508   4.098   1.652   0.093  1.3610  0.6690 -0.3162
   97TMC2    C4 1509   4.304   1.703   0.265  0.4171  0.0792 -0.4514
   97TMC2    C5 1510   4.270   1.795   0.170  0.1150  0.4813 -0.6027
   97TMC2    C6 1511   4.162   1.772   0.080  0.3785 -0.5162  0.0681
   97TMC2     C 1512   4.276   1.474   0.365  0.0760  0.0086 -0.0783
   97TMC2     O 1513   4.187   1.396   0.391 -0.0558 -0.2153 -0.8187
   97TMC2     H 1514   4.061   1.471   0.200  1.3504 -0.1028 -0.3875
   97TMC2    H1 1515   4.375   1.726   0.344  0.5031 -0.6731 -0.3069
   97TMC2    H2 1516   4.120   1.843   0.010 -0.3383  1.8015  2.8088
   97TMC2    C7 1517   4.336   1.929   0.186 -0.1740  0.0905  0.1757
   97TMC2    C8 1518   4.017   1.614  17.718 -0.0208 -0.0158 -0.0147
   97TMC2    O1 1519   4.395   1.951   0.294  0.0110  0.0924  0.1780
   97TMC2    O2 1520   4.012   1.688  17.625 -0.2889 -0.4488 -0.0200
   97TMC2    O5 1521   3.958   1.489  17.728  0.2951  0.4212  0.4407
   97TMC2    H5 1522   4.009   1.435   0.048  0.9796  1.0602  0.4351
   98MPD2     C 1523   4.575   1.084   0.486  0.1937  0.0245  0.0488
   98MPD2    C1 1524   4.444   1.107   0.514 -0.2537 -0.1799 -0.5506
   98MPD2    C2 1525   4.392   1.232   0.495  0.4290 -0.2579  0.2626
   98MPD2    C3 1526   4.465   1.344   0.442  0.0501 -0.5107 -0.0861
   98MPD2    C4 1527   4.602   1.325   0.431  0.1981  0.2010 -0.4363
   98MPD2    C5 1528   4.655   1.198   0.446 -0.6485  0.3033  0.0530
   98MPD2     H 1529   4.287   1.252   0.517  0.2613 -0.9251  0.0794
   98MPD2    H1 1530   4.671   1.398   0.392  1.9863 -2.7176 -2.7175
   98MPD2    H2 1531   4.619   0.985   0.486 -0.2598 -0.1948 -3.0906
   98MPD2    H3 1532   0.026   1.190   0.431 -1.1278  0.0685 -3.1409
   98MPD2     N 1533   4.412   1.460   0.387 -0.5701 -0.6266 -0.0770
   98MPD2    H5 1534   4.475   1.517   0.331  0.1142 -1.8173 -0.5215
   98MPD2    N1 1535   4.358   1.009   0.579 -0.1399  0.0753 -0.8513
   98MPD2    H7 1536   4.268   1.047   0.605 -0.0291  0.0781 -0.4661
   99TMC2    C1 1537   3.100   3.049   1.865 -0.1318  0.4167 -0.0142
   99TMC2    C2 1538   3.225   3.107   1.873 -0.3655  0.1165  0.0905
   99TMC2    C3 1539   3.241   3.232   1.816  0.1078 -0.5388 -0.1144
   99TMC2    C4 1540   2.985   3.108   1.817 -0.5536 -0.4828  0.1409
   99TMC2    C5 1541   3.012   3.230   1.764  0.4869 -0.1986  0.4604
   99TMC2    C6 1542   3.134   3.295   1.761 -0.2792 -0.1284 -0.3364
   99TMC2     C 1543   3.090   2.918   1.926 -0.4500  0.6824 -0.0623
   99TMC2     O 1544   3.162   2.886   2.020 -0.7996 -0.5095  0.4859
   99TMC2     H 1545   3.314   3.052   1.900 -0.3444  0.2256  0.2417
   99TMC2    H1 1546   2.886   3.065   1.826 -0.7835  0.1574  0.6587
   99TMC2    H2 1547   3.140   3.395   1.719 -1.7975  0.5842  1.1321
   99TMC2    C7 1548   2.898   3.308   1.710  0.8112  0.3806 -0.2204
   99TMC2    C8 1549   3.376   3.299   1.835 -0.6413  1.1813 -0.3442
   99TMC2    O1 1550   2.910   3.433   1.716 -0.2733 -0.0711  0.0816
   99TMC2    O2 1551   3.467   3.257   1.904  0.3751 -0.3507  0.1956
   99TMC2    O5 1552   3.358   3.429   1.819 -0.4375 -0.1696  0.3044
   99TMC2    H5 1553   3.305   3.458   1.742  1.4068  0.7271 -0.6370
  100MPD2     C 1554   2.966   2.683   2.074  0.3985 -0.6888 -0.5752
  100MPD2    C1 1555   2.942   2.720   1.938 -0.2921  0.0197  0.0076
  100MPD2    C2 1556   2.881   2.625   1.857  0.5678  0.6996  0.7667
  100MPD2    C3 1557   2.863   2.492   1.899  0.5926  0.0297  0.2717
  100MPD2    C4 1558   2.888   2.461   2.028  0.0818  0.0088 -0.4548
  100MPD2    C5 1559   2.936   2.556   2.112 -0.8696 -1.1144 -0.9774
  100MPD2     H 1560   2.884   2.650   1.751  0.2466 -1.3825  0.2652
  100MPD2    H1 1561   2.869   2.362   2.067  0.0434  0.6330  1.0892
  100MPD2    H2 1562   3.029   2.739   2.142 -1.1049 -2.1571  2.0209
  100MPD2    H3 1563   2.964   2.526   2.213  0.9315  0.7224 -0.9221
  100MPD2     N 1564   2.818   2.397   1.802 -0.1515 -0.5126 -0.0969
  100MPD2    H5 1565   2.799   2.429   1.707  0.6658 -0.1745 -0.1412
  100MPD2    N1 1566   2.991   2.840   1.877  0.5441 -0.6145  0.3542
  100MPD2    H7 1567   2.949   2.866   1.788 -0.2663  1.8254  1.4615
  101TMC2    C1 1568   3.827   0.111  13.591  1.2270  0.4436 -0.4754
  101TMC2    C2 1569   3.902   0.065  13.699  0.1895 -0.3499 -0.6029
  101TMC2    C3 1570   4.020   0.127  13.711 -0.1855  0.2006  0.0380
  101TMC2    C4 1571   3.869   0.205  13.508  0.4267 -0.8501  0.2388
  101TMC2    C5 1572   3.999   0.254  13.520 -0.1679 -0.3042 -0.2206
  101TMC2    C6 1573   4.078   0.212  13.625 -0.4588  0.4445  0.1519
  101TMC2     C 1574   3.744   0.005  13.538 -0.5220 -0.3101  0.0935
  101TMC2     O 1575   3.665   4.692  13.619 -0.4402  0.5134  0.0231
  101TMC2     H 1576   3.882   4.712  13.756  0.8097 -0.2726 -0.2654
  101TMC2    H1 1577   3.804   0.246  13.431 -0.2793  0.7118  1.6755
  101TMC2    H2 1578   4.183   0.237  13.635 -0.5952  0.3562  1.7878
  101TMC2    C7 1579   4.054   0.362  13.424  0.3875 -0.6229  0.1049
  101TMC2    C8 1580   4.092   0.089  13.830  0.1944 -0.7672  0.2117
  101TMC2    O1 1581   3.989   0.380  13.320 -0.2504  0.3027  0.0757
  101TMC2    O2 1582   4.213   0.096  13.838  0.0402  0.3490 -0.1826
  101TMC2    O5 1583   4.016   0.087  13.931  0.0774  0.5733 -0.0118
  101TMC2    H5 1584   3.937   0.144  13.921  1.0358  1.6519 -1.5183
  102MPD2     C 1585   3.817   4.580  13.221 -0.4852  0.0401  0.1961
  102MPD2    C1 1586   3.742   4.608  13.332 -0.3784  0.0936  0.1057
  102MPD2    C2 1587   3.623   4.539  13.351  0.2279 -0.2643  0.0396
  102MPD2    C3 1588   3.577   4.440  13.263  0.2833 -0.3580  0.3085
  102MPD2    C4 1589   3.665   4.418  13.151  1.1650  0.3634  0.0255
  102MPD2    C5 1590   3.779   4.489  13.137 -0.2183  0.5955 -0.1253
  102MPD2     H 1591   3.554   4.563  13.431 -0.5751 -1.8152 -0.2016
  102MPD2    H1 1592   3.652   4.346  13.071  0.3458 -0.3377  0.7993
  102MPD2    H2 1593   3.901   4.638  13.187 -1.2889  1.0655 -0.0504
  102MPD2    H3 1594   3.835   4.463  13.048 -0.4279 -2.4899  0.6465
  102MPD2     N 1595   3.458   4.374  13.287  0.4185  0.1014 -0.3241
  102MPD2    H5 1596   3.416   4.399  13.375  2.5032 -2.3756  1.3577
  102MPD2    N1 1597   3.795   4.705  13.417 -0.0318 -0.2831 -0.9562
  102MPD2    H7 1598   3.870   0.028  13.382  1.2474 -0.3427  1.6802
  103TMC2    C1 1599   1.343   4.308  12.163  0.5511 -0.6318 -0.1729
  103TMC2    C2 1600   1.383   4.183  12.121 -0.0226 -0.2365 -0.1311
  103TMC2    C3 1601   1.506   4.149  12.173  0.1706  0.4286  0.1045
  103TMC2    C4 1602   1.422   4.395  12.237  0.0367 -0.0633  0.0041
  103TMC2    C5 1603   1.547   4.357  12.274 -0.0998  0.4131 -0.0191
  103TMC2    C6 1604   1.595   4.234  12.240  0.2410  0.6944  0.5117
  103TMC2     C 1605   1.212   4.363  12.124 -0.4627 -0.3262 -0.0888
  103TMC2     O 1606   1.188   4.482  12.148  0.1593 -0.2292  0.3492
  103TMC2     H 1607   1.343   4.123  12.041  2.5805 -1.9012 -0.1768
  103TMC2    H1 1608   1.385   4.496  12.255 -0.8831 -0.4814  0.4601
  103TMC2    H2 1609   1.698   4.200  12.249 -0.1595 -0.1606  1.9144
  103TMC2    C7 1610   1.621   4.457  12.347  0.3827  0.6280  0.2496
  103TMC2    C8 1611   1.565   4.024  12.132  0.1054  0.3997 -0.3286
  103TMC2    O1 1612   1.550   4.537  12.407 -0.7494 -0.6526  0.1682
  103TMC2    O2 1613   1.633   3.950  12.202 -0.4691  0.1753 -0.2237
  103TMC2    O5 1614   1.579   4.045  11.998 -0.2436  0.0692 -0.4621
  103TMC2    H5 1615   1.546   4.132  11.967  0.1760  0.0209 -1.0503
  104MPD2     C 1616   0.941   4.118  12.100 -0.2811  0.0686 -0.5047
  104MPD2    C1 1617   0.986   4.248  12.113 -0.4555  0.6658 -0.4455
  104MPD2    C2 1618   0.898   4.350  12.125  0.4536 -0.2241 -0.3515
  104MPD2    C3 1619   0.763   4.326  12.115 -0.1713 -0.2487  0.0712
  104MPD2    C4 1620   0.712   4.196  12.099  0.1794 -0.4204 -0.2126
  104MPD2    C5 1621   0.801   4.093  12.084  0.0770  0.6112  0.5402
  104MPD2     H 1622   0.932   4.452  12.137 -1.3816  0.4254 -0.7093
  104MPD2    H1 1623   0.606   4.175  12.089 -0.5183  3.2857 -0.6922
  104MPD2    H2 1624   1.011   4.035  12.099  0.8758  1.0745 -2.9534
  104MPD2    H3 1625   0.771   3.991  12.062  0.1519  0.5109  0.9007
  104MPD2     N 1626   0.678   4.437  12.115 -0.0035 -0.9507  0.6440
  104MPD2    H5 1627   0.720   4.529  12.122 -0.3461 -0.7361 -0.1463
  104MPD2    N1 1628   1.124   4.258  12.107 -0.2248  0.6365 -0.8043
  104MPD2    H7 1629   1.171   4.168  12.112 -0.1895  0.6085 -1.5356
  105TMC2    C1 1630   2.474   3.250   0.475  0.4377  0.0565 -0.5204
  105TMC2    C2 1631   2.341   3.278   0.466 -0.2294 -0.1391  0.2009
  105TMC2    C3 1632   2.285   3.313   0.586  0.6051  0.1344 -0.4798
  105TMC2    C4 1633   2.554   3.258   0.590 -0.6506 -1.0296  0.0558
  105TMC2    C5 1634   2.492   3.301   0.702 -0.4659  0.5062 -0.3030
  105TMC2    C6 1635   2.353   3.315   0.704 -0.0428  0.3378 -0.3139
  105TMC2     C 1636   2.541   3.230   0.350 -0.1813  0.1640  0.4334
  105TMC2     O 1637   2.470   3.180   0.261  0.4898 -0.1095  0.5506
  105TMC2     H 1638   2.275   3.269   0.380 -2.1655 -0.0639  1.6776
  105TMC2    H1 1639   2.660   3.236   0.580 -0.3962  0.2159  0.0172
  105TMC2    H2 1640   2.300   3.353   0.790  0.5868  0.0629  0.1901
  105TMC2    C7 1641   2.568   3.304   0.824 -0.1610 -0.3054 -0.2179
  105TMC2    C8 1642   2.144   3.332   0.594  0.3058  0.1786  0.2354
  105TMC2    O1 1643   2.528   3.368   0.922 -0.2226  0.5495 -0.2379
  105TMC2    O2 1644   2.086   3.320   0.698 -0.0833 -0.0820 -0.3909
  105TMC2    O5 1645   2.100   3.417   0.497  0.7177 -0.0181 -0.4191
  105TMC2    H5 1646   2.160   3.451   0.427  1.1383 -1.8904 -0.9719
  106MPD2     C 1647   2.913   3.295   0.033 -0.3892  0.1637 -0.2668
  106MPD2    C1 1648   2.943   3.375   0.141  0.5877 -0.6413 -0.0103
  106MPD2    C2 1649   2.858   3.366   0.247  0.3236 -0.0714 -0.4066
  106MPD2    C3 1650   2.749   3.283   0.245 -0.7318 -0.6093 -0.6615
  106MPD2    C4 1651   2.727   3.199   0.138 -0.2534  0.1258  0.3203
  106MPD2    C5 1652   2.813   3.204   0.032  1.0831  0.1356  0.8012
  106MPD2     H 1653   2.901   3.403   0.339  2.1439 -1.2709 -0.7722
  106MPD2    H1 1654   2.651   3.124   0.126  0.0113 -0.0184 -0.4879
  106MPD2    H2 1655   2.970   3.311  17.686 -0.0069 -2.8565 -0.5566
  106MPD2    H3 1656   2.790   3.143  17.689  0.8759 -1.3817  1.9327
  106MPD2     N 1657   2.668   3.279   0.356  0.0357 -0.3495  0.8603
  106MPD2    H5 1658   2.682   3.337   0.438 -1.2708 -0.5884  1.2532
  106MPD2    N1 1659   3.048   3.465   0.144 -0.8163 -0.3350  1.0256
  106MPD2    H7 1660   3.042   3.539   0.213 -0.3927  0.4967  0.1701
  107TMC2    C1 1661   4.087   3.473  11.981 -0.3080  0.3691  0.1281
  107TMC2    C2 1662   4.154   3.578  11.919  0.3540  0.3234 -0.7456
  107TMC2    C3 1663   4.271   3.546  11.858 -0.6941 -0.0247 -0.1542
  107TMC2    C4 1664   4.113   3.340  11.969  0.0131 -0.3246  0.2670
  107TMC2    C5 1665   4.228   3.316  11.898  0.1587  0.7202 -0.2670
  107TMC2    C6 1666   4.309   3.416  11.840 -0.0005  0.9100 -0.3156
  107TMC2     C 1667   3.983   3.501  12.082 -0.8317 -1.0144  0.4301
  107TMC2     O 1668   3.908   3.410  12.110  0.1838 -0.1224 -0.9215
  107TMC2     H 1669   4.104   3.674  11.922  0.4131  0.3579 -0.8624
  107TMC2    H1 1670   4.048   3.266  12.015  0.1078 -1.4197 -1.3747
  107TMC2    H2 1671   4.410   3.398  11.806  0.1501  0.4319  0.3686
  107TMC2    C7 1672   4.277   3.178  11.896 -0.0916 -0.0244  0.1215
  107TMC2    C8 1673   4.363   3.648  11.812  0.0178 -0.3288 -0.7449
  107TMC2    O1 1674   4.230   3.100  11.980  0.0834  0.4136 -0.1442
  107TMC2    O2 1675   4.481   3.616  11.793 -0.8532  0.3586  0.3233
  107TMC2    O5 1676   4.294   3.753  11.749  0.0983 -0.7375 -0.0529
  107TMC2    H5 1677   4.200   3.730  11.735 -0.6658  1.4034  1.5440
  108MPD2     C 1678   3.998   3.773  12.326  0.0610 -0.5746  0.5377
  108MPD2    C1 1679   3.942   3.665  12.261 -0.3042 -0.4305 -0.2150
  108MPD2    C2 1680   3.840   3.592  12.327  0.6312 -0.2568  0.2043
  108MPD2    C3 1681   3.798   3.633  12.456  0.0722 -0.0038 -0.7529
  108MPD2    C4 1682   3.850   3.744  12.514  0.3289 -0.2466  0.1300
  108MPD2    C5 1683   3.951   3.814  12.446  0.1038 -0.0052 -0.8308
  108MPD2     H 1684   3.782   3.515  12.279  0.5232  1.2396 -2.0593
  108MPD2    H1 1685   3.807   3.765  12.612 -1.1998 -0.8454 -0.4088
  108MPD2    H2 1686   4.088   3.823  12.291 -1.0471  0.5308 -0.7626
  108MPD2    H3 1687   4.002   3.893  12.501  1.4947 -0.9475 -0.7647
  108MPD2     N 1688   3.693   3.569  12.520  0.4054  0.2345 -0.3451
  108MPD2    H5 1689   3.635   3.614  12.590 -0.9884  1.0074 -1.9912
  108MPD2    N1 1690   4.002   3.619  12.142  0.0621  0.4486 -0.4159
  108MPD2    H7 1691   4.080   3.671  12.103  1.9287 -2.1488 -0.1289
  109TMC2    C1 1692   3.303   0.931   0.224  0.3517  0.9073 -0.3399
  109TMC2    C2 1693   3.242   0.890   0.108  0.1134  0.0640  0.3292
  109TMC2    C3 1694   3.305   0.782   0.047 -0.7030  0.2598  0.0087
  109TMC2    C4 1695   3.417   0.866   0.264  0.4112 -0.2146  0.0984
  109TMC2    C5 1696   3.461   0.748   0.215  0.7908 -0.1901  0.4088
  109TMC2    C6 1697   3.410   0.710   0.093 -0.3275  0.1551  0.3339
  109TMC2     C 1698   3.228   0.985   0.329 -0.0936  0.2834  0.2660
  109TMC2     O 1699   3.128   1.051   0.298  0.4637 -0.2983  1.0110
  109TMC2     H 1700   3.142   0.928   0.093  0.3761  0.7079  0.1675
  109TMC2    H1 1701   3.483   0.913   0.335 -0.7873  2.1229 -0.3375
  109TMC2    H2 1702   3.447   0.630   0.031 -1.3813 -0.0643 -0.0128
  109TMC2    C7 1703   3.528   0.667   0.318  0.0352  0.2179  0.2912
  109TMC2    C8 1704   3.224   0.719  17.685 -1.1053 -0.5139  0.1092
  109TMC2    O1 1705   3.550   0.717   0.425  0.7013  0.6771 -0.4948
  109TMC2    O2 1706   3.157   0.796  17.621 -0.3807  0.0013 -0.7122
  109TMC2    O5 1707   3.190   0.594  17.714  0.2580 -0.4843  0.0144
  109TMC2    H5 1708   3.246   0.574   0.048  0.4293  0.6410  0.1902
  110MPD2     C 1709   3.050   0.889   0.814  0.6829  0.5501 -0.5770
  110MPD2    C1 1710   3.146   0.797   0.774  0.4298 -0.2139  0.1595
  110MPD2    C2 1711   3.213   0.802   0.652  0.6510 -0.3876 -0.9629
  110MPD2    C3 1712   3.193   0.909   0.572 -0.0919  0.0826  0.3895
  110MPD2    C4 1713   3.105   1.013   0.612  0.0699 -0.1342 -0.3241
  110MPD2    C5 1714   3.041   1.005   0.735 -0.6411  0.2119 -0.4378
  110MPD2     H 1715   3.264   0.712   0.621  1.1944 -0.1052 -0.8886
  110MPD2    H1 1716   3.081   1.099   0.551  0.5266  0.9050  0.9657
  110MPD2    H2 1717   2.988   0.875   0.902  0.6840  3.4233 -0.1020
  110MPD2    H3 1718   2.969   1.082   0.758  0.5213 -0.1737  4.5490
  110MPD2     N 1719   3.257   0.906   0.444 -0.3088 -0.0894 -0.0445
  110MPD2    H5 1720   3.310   0.820   0.432  0.0523 -0.1630  2.2026
  110MPD2    N1 1721   3.172   0.698   0.873  0.2223  0.0228  0.3178
  110MPD2    H7 1722   3.114   0.693   0.957 -0.3947  1.8814 -0.0103
  111TMC2    C1 1723   3.456   0.239  11.961 -0.4783  0.4824 -0.9259
  111TMC2    C2 1724   3.403   0.136  12.035 -0.4310  0.1530 -0.1939
  111TMC2    C3 1725   3.441   0.132  12.167  1.1034  0.7308  0.2302
  111TMC2    C4 1726   3.529   0.337  12.019  0.0029  0.3150  0.0705
  111TMC2    C5 1727   3.569   0.322  12.150  0.4721 -0.2230 -0.0877
  111TMC2    C6 1728   3.518   0.227  12.229 -1.4227  0.1563  0.2602
  111TMC2     C 1729   3.396   0.265  11.830 -0.0571 -0.1168  0.2870
  111TMC2     O 1730   3.417   0.373  11.782 -0.1265  0.2765  0.1672
  111TMC2     H 1731   3.323   0.071  11.999 -0.3802 -1.4469  2.5566
  111TMC2    H1 1732   3.593   0.397  11.955  2.1116 -0.7797  1.1381
  111TMC2    H2 1733   3.542   0.228  12.334  0.1326 -0.9784 -0.0851
  111TMC2    C7 1734   3.680   0.399  12.201  0.5760 -0.4060 -0.1327
  111TMC2    C8 1735   3.435   0.012  12.248 -0.8118 -0.3762 -0.4416
  111TMC2    O1 1736   3.732   0.360  12.307  0.3367  0.3204  0.4387
  111TMC2    O2 1737   3.449   0.010  12.373  0.3319  0.0417 -0.1740
  111TMC2    O5 1738   3.415   4.630  12.174  0.0295 -0.6840 -0.2401
  111TMC2    H5 1739   3.440   4.629  12.079 -1.4628 -0.1551 -0.6291
  112MPD2     C 1740   3.246   0.038  11.387 -0.0834 -0.1068  0.7614
  112MPD2    C1 1741   3.297   0.165  11.401 -0.4394  0.4278 -1.0820
  112MPD2    C2 1742   3.334   0.215  11.529  0.0591 -0.2431 -0.4183
  112MPD2    C3 1743   3.333   0.122  11.636 -0.1259 -1.0012 -0.3817
  112MPD2    C4 1744   3.295   4.728  11.614  0.2759 -0.7080  0.8083
  112MPD2    C5 1745   3.252   4.688  11.494  0.7358 -0.0318  0.2174
  112MPD2     H 1746   3.364   0.317  11.553 -0.9078 -0.2461  0.8017
  112MPD2    H1 1747   3.311   4.646  11.683 -1.0474  1.0187  3.1651
  112MPD2    H2 1748   3.216   4.728  11.294 -0.9951 -0.6663  1.3291
  112MPD2    H3 1749   3.230   4.582  11.479 -1.3546  0.1979  1.4954
  112MPD2     N 1750   3.370   0.142  11.770  0.4313  0.4157 -0.1204
  112MPD2    H5 1751   3.338   0.067  11.830 -0.7196  1.6969  0.8653
  112MPD2    N1 1752   3.305   0.256  11.288 -1.0969  0.4292 -0.2747
  112MPD2    H7 1753   3.324   0.350  11.320 -0.5875  0.4004 -0.4955
  113TMC2    C1 1754   1.885   3.075   0.928  0.0917 -0.3880 -0.3642
  113TMC2    C2 1755   1.823   3.190   0.962  0.0343  0.4504 -0.8017
  113TMC2    C3 1756   1.694   3.185   0.947  0.2204 -0.0441 -0.9662
  113TMC2    C4 1757   1.816   2.954   0.911  0.1237 -0.1398  0.2870
  113TMC2    C5 1758   1.679   2.957   0.908 -0.1760  0.3021 -0.1038
  113TMC2    C6 1759   1.614   3.077   0.927 -0.0645 -0.2650 -0.8562
  113TMC2     C 1760   2.024   3.075   0.963 -0.2698  0.4039 -0.2648
  113TMC2     O 1761   2.063   3.148   1.053 -0.1862 -0.3284  0.9402
  113TMC2     H 1762   1.881   3.281   0.965  1.3618 -0.3263 -2.2599
  113TMC2    H1 1763   1.859   2.855   0.899  0.4704  0.1356 -0.7463
  113TMC2    H2 1764   1.506   3.077   0.921 -0.1556 -1.5912  1.0210
  113TMC2    C7 1765   1.600   2.835   0.898  0.1503  0.2614 -0.6901
  113TMC2    C8 1766   1.613   3.296   1.003 -0.2446 -0.0228  0.8951
  113TMC2    O1 1767   1.484   2.855   0.862 -0.0038  0.3355  0.1472
  113TMC2    O2 1768   1.494   3.299   0.986  0.0922  0.1192 -0.1015
  113TMC2    O5 1769   1.684   3.381   1.080 -0.1986 -0.1712 -0.3546
  113TMC2    H5 1770   1.779   3.362   1.097 -0.2991 -3.9238 -4.0192
  114MPD2     C 1771   2.482   2.861   0.885  0.6306  0.3938  0.5634
  114MPD2    C1 1772   2.442   2.975   0.964 -0.7593 -0.0243  0.7194
  114MPD2    C2 1773   2.315   3.021   0.951 -0.3787  0.4998  0.1780
  114MPD2    C3 1774   2.226   2.953   0.876  1.0084 -1.4154 -0.0138
  114MPD2    C4 1775   2.268   2.849   0.789 -0.8132  0.0239  0.1149
  114MPD2    C5 1776   2.396   2.800   0.799  0.0937 -0.6570  0.1445
  114MPD2     H 1777   2.290   3.102   1.019  0.4357  1.5997 -0.8393
  114MPD2    H1 1778   2.202   2.801   0.719 -0.1987 -2.2578  1.0982
  114MPD2    H2 1779   2.584   2.823   0.890  0.6727  0.3630 -0.5990
  114MPD2    H3 1780   2.425   2.730   0.722 -3.2219 -0.7564 -0.9905
  114MPD2     N 1781   2.088   2.974   0.891  0.2589 -0.5622  0.1014
  114MPD2    H5 1782   2.036   2.922   0.821  3.0710 -0.3853 -2.1279
  114MPD2    N1 1783   2.522   3.036   1.060  0.0671  0.3686  0.4477
  114MPD2    H7 1784   2.480   3.117   1.104  0.3892  0.2607  0.9490
  115TMC2    C1 1785   2.855   1.296   0.101  0.4811 -1.1489 -0.2573
  115TMC2    C2 1786   2.984   1.256   0.105 -0.6491  0.9875 -1.0265
  115TMC2    C3 1787   3.074   1.359   0.125 -0.5514 -0.2503 -0.3386
  115TMC2    C4 1788   2.816   1.428   0.115  0.2380  0.5225  0.4478
  115TMC2    C5 1789   2.901   1.521   0.155  0.2706 -0.6186  0.2937
  115TMC2    C6 1790   3.037   1.488   0.156 -0.4085 -0.4761 -0.1376
  115TMC2     C 1791   2.753   1.194   0.090  0.1474  1.4024 -0.5064
  115TMC2     O 1792   2.780   1.104   0.015  0.5239  0.2040  0.0053
  115TMC2     H 1793   3.000   1.149   0.102 -0.1820  1.0572 -1.0842
  115TMC2    H1 1794   2.714   1.464   0.108  0.1335 -0.1424 -1.3399
  115TMC2    H2 1795   3.118   1.559   0.173 -0.7625 -0.1826  0.3382
  115TMC2    C7 1796   2.852   1.656   0.189  0.6383 -0.4676  0.8972
  115TMC2    C8 1797   3.213   1.326   0.127  0.6126 -0.3522 -0.3332
  115TMC2    O1 1798   2.739   1.663   0.238 -0.1395 -0.0182  0.0406
  115TMC2    O2 1799   3.293   1.397   0.187  0.2582 -0.8426  0.7623
  115TMC2    O5 1800   3.231   1.223   0.049 -0.3114  0.0900  0.0626
  115TMC2    H5 1801   3.148   1.191   0.007  0.8039 -1.3905 -0.9917
  116MPD2     C 1802   2.259   1.093  17.727  0.5011 -0.8781 -0.4225
  116MPD2    C1 1803   2.364   1.003  17.712 -0.1087 -0.3660 -0.3981
  116MPD2    C2 1804   2.490   1.048   0.019 -0.0741 -0.1288  0.1091
  116MPD2    C3 1805   2.502   1.171   0.087  0.0365 -0.1442 -0.0770
  116MPD2    C4 1806   2.390   1.251   0.104  0.4338  0.7151 -0.1941
  116MPD2    C5 1807   2.275   1.212   0.055  0.9279 -0.2131 -0.3456
  116MPD2     H 1808   2.577   0.986   0.001  0.0015  0.1801 -0.5532
  116MPD2    H1 1809   2.400   1.353   0.141 -2.7724  1.1293 -0.5321
  116MPD2    H2 1810   2.156   1.065  17.711  0.0725  0.6031 -0.2509
  116MPD2    H3 1811   2.187   1.275   0.060  1.2194  0.2998 -1.7962
  116MPD2     N 1812   2.626   1.231   0.130  0.3176  0.0439 -0.2106
  116MPD2    H5 1813   2.617   1.321   0.175  1.9118 -0.5529  1.2913
  116MPD2    N1 1814   2.343   0.893  17.635 -0.4057  0.0380 -0.1296
  116MPD2    H7 1815   2.250   0.882  17.596 -1.1423  1.2111  1.2852
  117TMC2    C1 1816   1.239   2.913  13.818  0.0926 -0.5374 -1.0535
  117TMC2    C2 1817   1.311   2.802  13.837 -0.4080 -0.5779  0.4041
  117TMC2    C3 1818   1.436   2.814  13.895 -0.1417 -0.0597 -0.0261
  117TMC2    C4 1819   1.266   3.028  13.886 -0.3559  0.2565  0.0905
  117TMC2    C5 1820   1.380   3.031  13.960  0.0839 -0.0856  0.1146
  117TMC2    C6 1821   1.472   2.930  13.957  0.5277 -0.0242 -0.3853
  117TMC2     C 1822   1.110   2.895  13.755  0.1710 -0.5590  0.1261
  117TMC2     O 1823   1.067   2.780  13.754  0.3343 -0.4219  0.2462
  117TMC2     H 1824   1.282   2.705  13.800 -3.2625  0.1539  0.7031
  117TMC2    H1 1825   1.200   3.114  13.880 -2.5277 -1.4113  0.1687
  117TMC2    H2 1826   1.537   2.920  14.043  0.3644  0.6599 -0.1802
  117TMC2    C7 1827   1.382   3.124  14.070  0.2798  0.2624 -0.0291
  117TMC2    C8 1828   1.517   2.699  13.930  0.3849 -0.1412  0.2530
  117TMC2    O1 1829   1.491   3.160  14.113 -0.1267 -0.0729  0.6493
  117TMC2    O2 1830   1.630   2.710  13.975  0.5007  0.3871  0.3641
  117TMC2    O5 1831   1.444   2.586  13.949 -0.0799  0.1841 -0.0214
  117TMC2    H5 1832   1.347   2.597  13.938 -0.0105 -1.2295 -2.2564
  118MPD2     C 1833   1.108   3.205  14.310  0.2271  0.4033 -0.2784
  118MPD2    C1 1834   1.233   3.209  14.253  0.2912 -0.4617  0.0755
  118MPD2    C2 1835   1.328   3.285  14.314  0.5746  0.0882  0.5484
  118MPD2    C3 1836   1.295   3.373  14.421 -0.1713 -0.7217  1.0353
  118MPD2    C4 1837   1.168   3.375  14.473  0.8684  0.2680  0.2042
  118MPD2    C5 1838   1.077   3.293  14.410 -0.0239  0.1888  0.2537
  118MPD2     H 1839   1.419   3.304  14.260 -0.9612  1.6255 -1.5144
  118MPD2    H1 1840   1.132   3.443  14.550 -0.9515 -1.3480  0.7782
  118MPD2    H2 1841   1.036   3.135  14.270  0.8368 -1.5761  2.1290
  118MPD2    H3 1842   0.978   3.291  14.453  0.1882 -1.0694  0.6705
  118MPD2     N 1843   1.390   3.466  14.477 -0.1499  0.0544 -0.0882
  118MPD2    H5 1844   1.350   3.537  14.538 -0.4030 -1.1941  1.2014
  118MPD2    N1 1845   1.258   3.135  14.128  0.0003  0.1058  0.1978
  118MPD2    H7 1846   1.182   3.080  14.090  0.9283 -0.2422 -1.1724
  119TMC2    C1 1847   4.029   3.567  12.783 -0.3170  0.6541 -0.4948
  119TMC2    C2 1848   4.148   3.511  12.748  0.9756 -0.1637  0.1965
  119TMC2    C3 1849   4.153   3.378  12.724  0.2609  0.3178  0.0700
  119TMC2    C4 1850   3.919   3.486  12.804 -0.2410 -0.8946  0.5073
  119TMC2    C5 1851   3.930   3.345  12.792 -0.6990  0.3617  0.4870
  119TMC2    C6 1852   4.048   3.291  12.745  0.0555 -0.7930 -0.6523
  119TMC2     C 1853   4.027   3.713  12.817 -0.6928  0.6952 -0.0879
  119TMC2     O 1854   3.913   3.759  12.835 -0.4129  0.6433  0.1289
  119TMC2     H 1855   4.240   3.567  12.729  0.2474  0.9762  0.0111
  119TMC2    H1 1856   3.832   3.535  12.846 -0.6217  0.1385 -1.5316
  119TMC2    H2 1857   4.053   3.184  12.727 -0.4950 -0.6089 -1.9135
  119TMC2    C7 1858   3.824   3.266  12.843  0.0938 -0.1115 -0.1325
  119TMC2    C8 1859   4.277   3.328  12.675 -0.1809 -0.1345 -0.6573
  119TMC2    O1 1860   3.831   3.145  12.820 -0.0236  0.0212  0.5070
  119TMC2    O2 1861   4.391   3.362  12.712 -0.7533 -0.1727  0.0831
  119TMC2    O5 1862   4.244   3.227  12.592  0.4501  0.5523  0.6247
  119TMC2    H5 1863   4.151   3.221  12.564  0.1437  1.7938  1.3919
  120MPD2     C 1864   4.237   4.139  13.040 -0.0663  0.4186 -0.2675
  120MPD2    C1 1865   4.100   4.103  13.028 -1.2574  0.7986  1.0449
  120MPD2    C2 1866   4.070   3.988  12.956  0.5260 -0.1671  0.1480
  120MPD2    C3 1867   4.166   3.911  12.887  0.3801 -0.6325  0.5628
  120MPD2    C4 1868   4.293   3.953  12.898  0.1657  0.2322 -0.2041
  120MPD2    C5 1869   4.333   4.066  12.976  0.0910  0.4479 -0.4015
  120MPD2     H 1870   3.971   3.943  12.952  0.0470  0.9414 -0.4506
  120MPD2    H1 1871   4.377   3.903  12.851 -0.9024 -0.6017 -1.2129
  120MPD2    H2 1872   4.268   4.214  13.112 -2.4931  0.6355  0.5495
  120MPD2    H3 1873   4.436   4.098  12.988  0.3203 -0.0208 -1.0862
  120MPD2     N 1874   4.146   3.782  12.835 -0.1590 -0.1982  0.5086
  120MPD2    H5 1875   4.229   3.727  12.819  0.5662  1.1267 -0.3362
  120MPD2    N1 1876   4.009   4.157  13.125 -0.1603 -0.5644 -0.0548
  120MPD2    H7 1877   4.049   4.219  13.195  0.9511 -2.0502  0.6318
  121TMC2    C1 1878   0.640   0.981  14.472 -0.0500 -0.5533 -0.3153
  121TMC2    C2 1879   0.654   1.116  14.481  0.3196 -0.0272  0.1903
  121TMC2    C3 1880   0.537   1.193  14.511  0.2170  0.6659  0.2403
  121TMC2    C4 1881   0.524   0.915  14.489  0.1611  0.7175  0.3316
  121TMC2    C5 1882   0.412   0.993  14.525 -0.4181  0.2007 -0.2133
  121TMC2    C6 1883   0.416   1.131  14.539 -0.1819 -0.4147  0.1558
  121TMC2     C 1884   0.758   0.906  14.442  1.1929  0.4395  0.0557
  121TMC2     O 1885   0.772   0.790  14.481  0.4322  0.0092  0.0785
  121TMC2     H 1886   0.746   1.170  14.468  0.1129  0.5383  1.0960
  121TMC2    H1 1887   0.527   0.807  14.483  0.1408  0.6845  0.9115
  121TMC2    H2 1888   0.322   1.178  14.566 -1.5703 -3.0527 -0.0192
  121TMC2    C7 1889   0.289   0.922  14.528  0.6438  0.4593  0.2299
  121TMC2    C8 1890   0.556   1.342  14.517 -0.4748 -0.1295 -0.0991
  121TMC2    O1 1891   0.297   0.802  14.522 -0.1041 -0.0216 -0.2918
  121TMC2    O2 1892   0.635   1.394  14.442 -0.4879 -0.0896 -0.6943
  121TMC2    O5 1893   0.457   1.406  14.585  0.7901  0.5463 -0.5264
  121TMC2    H5 1894   0.418   1.350  14.656  1.0977  1.4192  0.3250
  122MPD2     C 1895   1.053   0.870  14.376 -0.2439  0.0511 -0.6396
  122MPD2    C1 1896   0.965   0.954  14.313  0.1871  0.2649 -0.3633
  122MPD2    C2 1897   1.011   1.026  14.196 -0.3550 -0.0064 -0.7816
  122MPD2    C3 1898   1.140   0.992  14.138 -0.2932  0.9111 -0.3856
  122MPD2    C4 1899   1.228   0.924  14.218 -0.6202 -0.2857 -0.2646
  122MPD2    C5 1900   1.184   0.854  14.329  0.4864 -0.3756 -0.1445
  122MPD2     H 1901   0.946   1.098  14.148  2.8007  2.6012 -1.1594
  122MPD2    H1 1902   1.331   0.903  14.192 -0.4628 -1.9275  1.6373
  122MPD2    H2 1903   1.014   0.825  14.466  0.7160  1.5405  0.5124
  122MPD2    H3 1904   1.249   0.793  14.391  0.8159  0.0382 -0.0824
  122MPD2     N 1905   1.182   1.049  14.019  0.3681 -0.2123 -0.2310
  122MPD2    H5 1906   1.281   1.040  14.001  0.3182 -0.6887 -0.2518
  122MPD2    N1 1907   0.836   0.985  14.358 -0.1123  0.0255  0.0918
  122MPD2    H7 1908   0.796   1.068  14.316 -0.0061  0.8044  1.5118
  123TMC2    C1 1909   4.149   0.006  10.163  0.0309 -0.4644  0.3805
  123TMC2    C2 1910   4.149   0.140  10.118 -0.2279  0.5950 -0.3118
  123TMC2    C3 1911   4.242   0.171  10.015  0.5084  0.4807 -0.1587
  123TMC2    C4 1912   4.244   4.653  10.124  0.2041 -0.3356 -0.0092
  123TMC2    C5 1913   4.328   4.682  10.022 -0.3041 -0.0338 -0.1742
  123TMC2    C6 1914   4.328   0.071   9.965 -0.2844  0.8979 -0.3144
  123TMC2     C 1915   4.053   4.704  10.260  0.0084  0.0742  0.3537
  123TMC2     O 1916   3.953   0.041  10.258 -0.1244 -0.1200  0.3022
  123TMC2     H 1917   4.073   0.201  10.163  0.2125  0.5766  0.4476
  123TMC2    H1 1918   4.248   4.550  10.156  1.3840 -1.1353 -2.6894
  123TMC2    H2 1919   4.400   0.099   9.890  0.4009  0.1246  0.0625
  123TMC2    C7 1920   4.408   4.574   9.963  0.2591 -0.1827 -0.5968
  123TMC2    C8 1921   4.283   0.308   9.985  0.0756 -0.2952  0.4000
  123TMC2    O1 1922   4.395   4.462  10.013 -0.2012 -0.8503  0.7296
  123TMC2    O2 1923   4.372   0.325   9.903 -0.4459 -0.4734 -0.2301
  123TMC2    O5 1924   4.282   0.367  10.106  0.1870 -0.2834 -0.1892
  123TMC2    H5 1925   4.203   0.349  10.161 -0.3004  2.0950 -0.0793
  124MPD2     C 1926   3.819   4.347  10.543 -0.1573 -0.0835 -0.0109
  124MPD2    C1 1927   3.934   4.294  10.498 -0.2228  0.3097 -0.1384
  124MPD2    C2 1928   4.024   4.378  10.434  0.2099 -0.2474 -0.1743
  124MPD2    C3 1929   3.994   4.517  10.407 -0.2048 -0.3170  0.5612
  124MPD2    C4 1930   3.883   4.570  10.463 -0.0039  0.0949 -0.8374
  124MPD2    C5 1931   3.798   4.483  10.537 -0.3180 -0.3178  0.6049
  124MPD2     H 1932   4.112   4.339  10.385  1.9810  1.5845  1.5330
  124MPD2    H1 1933   3.853   4.673  10.450 -1.9102 -0.3854 -0.2328
  124MPD2    H2 1934   3.743   4.283  10.586 -0.5471  0.8676  0.7163
  124MPD2    H3 1935   3.701   4.509  10.578  0.0194  0.3304  0.9828
  124MPD2     N 1936   4.079   4.583  10.315 -0.3555  0.4445 -0.1447
  124MPD2    H5 1937   4.166   4.535  10.298  0.7029  2.1697  0.4271
  124MPD2    N1 1938   3.963   4.157  10.526  0.5246  1.0073  0.2227
  124MPD2    H7 1939   3.897   4.101  10.579 -0.4185  1.9765  0.0739
  125TMC2    C1 1940   4.516   0.495   9.530  0.1046 -0.0795 -0.7402
  125TMC2    C2 1941   4.427   0.397   9.575 -0.4703 -0.4935 -0.0500
  125TMC2    C3 1942   4.391   0.302   9.482 -0.1448  0.3206  0.9700
  125TMC2    C4 1943   4.547   0.519   9.398  0.3535  0.4939  0.4560
  125TMC2    C5 1944   4.487   0.431   9.309 -0.2714  0.3386  0.2008
  125TMC2    C6 1945   4.421   0.319   9.348 -0.3406  0.2495  0.1620
  125TMC2     C 1946   4.580   0.582   9.621  0.5531  0.9634  0.0792
  125TMC2     O 1947   4.668   0.652   9.577 -0.6231 -0.7264 -0.3229
  125TMC2     H 1948   4.423   0.365   9.679 -1.5173  0.8513  0.3342
  125TMC2    H1 1949   4.604   0.604   9.363 -1.5518  0.4909 -2.7316
  125TMC2    H2 1950   4.409   0.247   9.268 -0.7262  0.1205  0.3355
  125TMC2    C7 1951   4.503   0.455   9.168 -0.3818  0.1431  0.1271
  125TMC2    C8 1952   4.378   0.167   9.537 -0.0508  0.2761 -0.5606
  125TMC2    O1 1953   4.425   0.421   9.084  0.0783  0.1471  0.2463
  125TMC2    O2 1954   4.430   0.070   9.480  0.3715  0.2150 -0.1267
  125TMC2    O5 1955   4.270   0.169   9.621 -0.0694 -0.8685 -0.0448
  125TMC2    H5 1956   4.221   0.254   9.624  0.7025 -0.3083 -2.9531
  126MPD1     C 1957   4.667   0.803  10.066  0.3305  0.4697 -0.8265
  126MPD1    C1 1958   4.577   0.704  10.092  0.2111  0.9383 -0.4800
  126MPD1    C2 1959   4.531   0.635   9.980 -0.2777  0.0335  0.6531
  126MPD1    C3 1960   4.577   0.657   9.855  0.3258  0.7233  0.6243
  126MPD1    C4 1961   4.672   0.755   9.831 -0.6000  0.9678  0.6805
  126MPD1    C5 1962   4.720   0.822   9.940 -0.6509 -0.5072 -0.1179
  126MPD1     H 1963   4.448   0.567   9.997 -0.5703  0.1994 -0.1013
  126MPD1    H1 1964   4.720   0.781   9.738 -0.4076 -1.8824 -0.0354
  126MPD1    H2 1965   4.700   0.866  10.148  0.3761 -1.1223  0.3860
  126MPD1    H3 1966   0.053   0.904   9.925  0.5071 -1.4758 -0.0580
  126MPD1     N 1967   4.531   0.577   9.745  0.0830  0.2785 -0.1793
  126MPD1    H5 1968   4.462   0.504   9.756 -1.1879  1.4481 -0.5064
  126MPD1    N1 1969   4.497   0.709  10.205  0.3140  0.3219  0.0390
  126MPD1    H6 1970   4.453   0.617  10.213 -0.1326  0.5953  0.7175
  126MPD1    H7 1971   4.554   0.731  10.286  0.5027 -1.9878  0.5361
  127TMC2    C1 1972   0.994   0.437  10.010  0.0943  0.3310  0.3680
  127TMC2    C2 1973   1.003   0.436  10.147  0.1443  0.1784  0.1059
  127TMC2    C3 1974   0.889   0.400  10.219  0.1672  0.1079 -0.2470
  127TMC2    C4 1975   0.877   0.403   9.944  0.2655  0.5553 -0.2555
  127TMC2    C5 1976   0.773   0.362  10.019 -0.3206 -0.6697  0.0579
  127TMC2    C6 1977   0.775   0.362  10.157 -0.5169 -0.0142 -0.0474
  127TMC2     C 1978   1.112   0.443   9.927  0.6050 -0.3840 -0.0073
  127TMC2     O 1979   1.089   0.470   9.808 -0.0389  0.2787 -0.2231
  127TMC2     H 1980   1.087   0.482  10.198  0.0119 -0.5223  0.9435
  127TMC2    H1 1981   0.871   0.408   9.836 -0.4310  2.4515 -0.1455
  127TMC2    H2 1982   0.699   0.325  10.225 -0.6898 -2.0583 -1.3265
  127TMC2    C7 1983   0.657   0.304   9.960  0.2127 -0.5702  0.3970
  127TMC2    C8 1984   0.900   0.402  10.364  0.7796 -0.0608  0.5927
  127TMC2    O1 1985   0.635   0.336   9.846 -0.4741 -0.1284 -0.8737
  127TMC2    O2 1986   1.005   0.399  10.422  0.4600 -0.1707 -0.1236
  127TMC2    O5 1987   0.789   0.463  10.414 -0.0580 -0.9840  0.5694
  127TMC2    H5 1988   0.712   0.464  10.353  0.3639 -2.2730  0.0126
  128MPD2     C 1989   1.442   0.287   9.996  0.0085 -0.1917 -0.2892
  128MPD2    C1 1990   1.352   0.370   9.932 -0.2565 -0.3729 -0.2866
  128MPD2    C2 1991   1.404   0.452   9.833  0.6425 -0.6536  0.7495
  128MPD2    C3 1992   1.534   0.457   9.799  0.5711  0.9822 -0.2127
  128MPD2    C4 1993   1.621   0.377   9.871  0.1293 -0.2765 -0.3380
  128MPD2    C5 1994   1.579   0.291   9.966  0.1859 -0.1897  0.4094
  128MPD2     H 1995   1.333   0.515   9.781  0.8049 -0.6890  0.4854
  128MPD2    H1 1996   1.728   0.376   9.854 -0.2432 -0.3497 -2.8086
  128MPD2    H2 1997   1.409   0.227  10.080  2.5203  1.1068  1.6009
  128MPD2    H3 1998   1.649   0.224  10.013 -0.5438 -1.0946  0.2091
  128MPD2     N 1999   1.579   0.534   9.689 -0.2208  0.5782  0.1910
  128MPD2    H5 2000   1.513   0.588   9.633  0.1599  0.8049 -0.0359
  128MPD2    N1 2001   1.221   0.373   9.983 -0.2561  0.2062 -0.2805
  128MPD2    H7 2002   1.208   0.326  10.072  0.1386 -0.6842 -0.6916
  129TMC2    C1 2003   1.283   3.860   1.390  0.2684 -0.3155 -0.2379
  129TMC2    C2 2004   1.353   3.793   1.479 -0.7347 -0.0607 -0.4463
  129TMC2    C3 2005   1.294   3.687   1.544 -0.4033  0.2465  0.0709
  129TMC2    C4 2006   1.156   3.822   1.353 -0.5335 -0.3737  0.4442
  129TMC2    C5 2007   1.101   3.714   1.414 -0.3098  0.5352 -0.4322
  129TMC2    C6 2008   1.168   3.642   1.511  0.5490  0.4563 -0.6793
  129TMC2     C 2009   1.347   3.972   1.323 -0.2232  0.0918 -0.1420
  129TMC2     O 2010   1.469   3.982   1.322 -0.8018  0.5713 -0.2526
  129TMC2     H 2011   1.456   3.822   1.496 -0.7317  0.3162 -1.1191
  129TMC2    H1 2012   1.105   3.856   1.265 -0.1157 -2.4977 -0.6296
  129TMC2    H2 2013   1.123   3.565   1.573 -0.9675  1.3780 -0.6647
  129TMC2    C7 2014   0.963   3.676   1.371  0.0411  0.3700 -0.5955
  129TMC2    C8 2015   1.388   3.604   1.614 -1.4676 -0.1578  0.1754
  129TMC2    O1 2016   0.887   3.761   1.332  0.0542  0.1930 -0.2078
  129TMC2    O2 2017   1.500   3.634   1.651  0.2569  0.0450  0.1725
  129TMC2    O5 2018   1.347   3.478   1.577  0.3081  0.4547  0.4493
  129TMC2    H5 2019   1.257   3.478   1.538 -0.5490  0.2030  2.3966
  130MPD2     C 2020   1.405   4.236   1.200 -0.0616 -0.6809  0.4096
  130MPD2    C1 2021   1.279   4.202   1.248  0.3322  0.6108  0.4653
  130MPD2    C2 2022   1.177   4.297   1.247  1.0330  0.3710 -0.2964
  130MPD2    C3 2023   1.204   4.426   1.198 -0.0524  0.7935 -0.6071
  130MPD2    C4 2024   1.335   4.455   1.155  0.1936  0.3212 -0.2587
  130MPD2    C5 2025   1.430   4.362   1.148 -1.1286  0.3463  0.1081
  130MPD2     H 2026   1.077   4.279   1.284  1.2306 -1.2964 -0.5715
  130MPD2    H1 2027   1.366   4.556   1.130 -1.7036  1.1086  0.5872
  130MPD2    H2 2028   1.484   4.162   1.201  0.0818 -0.4996  3.7834
  130MPD2    H3 2029   1.529   4.379   1.108 -0.7504  3.4417  2.3382
  130MPD2     N 2030   1.086   4.509   1.193  0.1334 -0.0897  0.1575
  130MPD2    H5 2031   0.999   4.470   1.227 -0.5988  1.8140  0.4662
  130MPD2    N1 2032   1.249   4.074   1.294  0.0146 -0.4561  0.8559
  130MPD2    H7 2033   1.157   4.039   1.319 -0.6571 -0.3818 -1.5124
  131TMC2    C1 2034   3.922   4.339   9.633  0.6007 -0.2851  0.3128
  131TMC2    C2 2035   3.897   4.420   9.736  0.2153 -0.0034  0.8582
  131TMC2    C3 2036   3.943   4.550   9.731  0.8360 -0.0413 -0.2931
  131TMC2    C4 2037   3.978   4.384   9.516  0.5006  0.4029  0.0465
  131TMC2    C5 2038   4.022   4.515   9.517 -0.5490  0.2682  0.4852
  131TMC2    C6 2039   4.009   4.595   9.621 -0.2603  0.0769 -0.7520
  131TMC2     C 2040   3.849   4.210   9.633  0.2414 -0.0798  0.4383
  131TMC2     O 2041   3.786   4.156   9.543  0.1481 -0.7331  0.2116
  131TMC2     H 2042   3.844   4.388   9.824 -1.2185  0.1908  0.0537
  131TMC2    H1 2043   3.990   4.307   9.441  2.2756  0.5367  0.1994
  131TMC2    H2 2044   4.041   4.698   9.624 -2.5874  0.7582  0.9464
  131TMC2    C7 2045   4.039   4.574   9.387 -0.4737  0.4877 -0.3077
  131TMC2    C8 2046   3.912   4.651   9.830  0.0881  0.5561 -0.7179
  131TMC2    O1 2047   4.080   4.498   9.299  0.1014 -0.2488  0.3738
  131TMC2    O2 2048   3.939   0.034   9.812  0.5835  0.2400  0.0611
  131TMC2    O5 2049   3.909   4.598   9.950  0.0385 -0.0615  0.1913
  131TMC2    H5 2050   3.933   4.504   9.963 -0.3471 -0.2142 -0.2374
  132MPD2     C 2051   3.778   3.945   9.741  0.1058  1.0839  0.4431
  132MPD2    C1 2052   3.835   4.037   9.817  0.0540  0.7240 -0.4029
  132MPD2    C2 2053   3.858   4.020   9.943  0.0905  1.1561 -0.6550
  132MPD2    C3 2054   3.846   3.892  10.003  0.4500 -0.1530  1.0760
  132MPD2    C4 2055   3.798   3.790   9.923 -0.0135 -0.5852 -0.0821
  132MPD2    C5 2056   3.761   3.820   9.795 -0.8012  0.2174  0.4321
  132MPD2     H 2057   3.879   4.097  10.017 -1.9247 -0.6601  1.8148
  132MPD2    H1 2058   3.775   3.694   9.969  0.4973  0.2351  1.8684
  132MPD2    H2 2059   3.740   3.968   9.642 -2.6656 -3.2786  0.4593
  132MPD2    H3 2060   3.717   3.740   9.735  0.5038 -0.7720  0.7810
  132MPD2     N 2061   3.887   3.887  10.140 -0.4834  0.3261  0.0167
  132MPD2    H5 2062   3.925   3.975  10.172 -2.7343  0.0173  3.5761
  132MPD2    N1 2063   3.856   4.169   9.766 -0.0891 -0.0179  0.2674
  132MPD2    H7 2064   3.896   4.235   9.832 -2.0240  1.5230 -0.0850
  133TMC2    C1 2065   3.227   2.963  10.375  1.0703  0.3539 -0.3363
  133TMC2    C2 2066   3.288   2.870  10.458 -0.2417 -0.3080 -0.7131
  133TMC2    C3 2067   3.216   2.763  10.501 -0.2603 -0.0909 -0.3963
  133TMC2    C4 2068   3.100   2.940  10.326  0.0619 -0.0209 -0.0578
  133TMC2    C5 2069   3.034   2.827  10.369  0.4074 -0.4552  0.2401
  133TMC2    C6 2070   3.089   2.749  10.469  0.7966 -0.6457 -0.4122
  133TMC2     C 2071   3.303   3.075  10.317 -0.2847 -0.0032  0.6857
  133TMC2     O 2072   3.257   3.138  10.220 -0.0541  0.8872 -0.0051
  133TMC2     H 2073   3.397   2.869  10.465 -0.4641 -3.0848  2.4563
  133TMC2    H1 2074   3.054   3.019  10.268 -0.5888 -0.5655 -0.2743
  133TMC2    H2 2075   3.032   2.660  10.494  0.6862 -0.8659 -1.4326
  133TMC2    C7 2076   2.933   2.771  10.295 -0.5457  0.4514  0.2568
  133TMC2    C8 2077   3.274   2.667  10.593 -0.0096  0.0605 -0.2893
  133TMC2    O1 2078   2.867   2.681  10.353  0.3167 -0.7600  0.0709
  133TMC2    O2 2079   3.214   2.562  10.619 -0.1799 -0.0528 -0.3635
  133TMC2    O5 2080   3.339   2.744  10.685 -0.3581  0.0787 -0.1572
  133TMC2    H5 2081   3.332   2.836  10.653  1.1517 -0.0048 -0.7302
  134MPD2     C 2082   3.610   3.231  10.449  0.0844 -0.0103 -0.3763
  134MPD2    C1 2083   3.507   3.208  10.353  0.3198  0.5217 -0.3532
  134MPD2    C2 2084   3.499   3.289  10.236 -0.1761  0.4969  0.0691
  134MPD2    C3 2085   3.589   3.400  10.222 -0.0524  0.3147  0.1258
  134MPD2    C4 2086   3.684   3.418  10.322 -0.1771  0.3408 -0.6001
  134MPD2    C5 2087   3.696   3.332  10.433 -0.5096  0.2863  0.1545
  134MPD2     H 2088   3.413   3.282  10.170 -1.1030 -0.0377  1.3326
  134MPD2    H1 2089   3.737   3.513  10.324 -0.7745  0.7015 -1.8272
  134MPD2    H2 2090   3.625   3.169  10.537  0.8473  1.4894  0.5466
  134MPD2    H3 2091   3.779   3.336  10.502 -2.5410  0.5030  2.6100
  134MPD2     N 2092   3.581   3.508  10.125  0.6309  0.2350 -0.1359
  134MPD2    H5 2093   3.644   3.586  10.143 -0.9947  1.6367 -0.4450
  134MPD2    N1 2094   3.415   3.106  10.385  0.2853 -0.2427  0.2582
  134MPD2    H7 2095   3.434   3.060  10.474 -0.5505  1.7218  1.4522
  135TMC2    C1 2096   0.087   1.261   9.414 -0.7742  0.1284 -0.1918
  135TMC2    C2 2097   4.699   1.273   9.351 -0.7457 -0.0820  0.8471
  135TMC2    C3 2098   4.591   1.279   9.437  0.7591 -0.0355 -0.0294
  135TMC2    C4 2099   0.099   1.230   9.547 -0.1184 -0.2660  0.6735
  135TMC2    C5 2100   4.719   1.239   9.620 -0.3080 -0.2948  0.4359
  135TMC2    C6 2101   4.601   1.272   9.572  0.6433  0.3484  0.2228
  135TMC2     C 2102   0.200   1.266   9.322  0.6983 -0.2682  0.2871
  135TMC2     O 2103   0.182   1.231   9.202 -0.0956  0.1824  0.8209
  135TMC2     H 2104   4.689   1.290   9.244 -0.8612  0.4236  0.9378
  135TMC2    H1 2105   0.188   1.193   9.597  0.5740 -0.3293 -0.5861
  135TMC2    H2 2106   4.513   1.280   9.636 -1.7085 -1.6495 -2.7201
  135TMC2    C7 2107   0.012   1.266   9.762  0.0106 -0.7071 -0.1324
  135TMC2    C8 2108   4.466   1.319   9.379 -0.4695 -0.4062 -0.1082
  135TMC2    O1 2109   0.129   1.306   9.784 -0.2527  0.1459 -0.5667
  135TMC2    O2 2110   4.392   1.231   9.350  0.2361 -0.2085 -0.2284
  135TMC2    O5 2111   4.514   1.413   9.294  0.0515  0.2525 -0.4951
  135TMC2    H5 2112   4.573   1.461   9.356 -1.6276 -1.3975  2.3505
  136MPD2     C 2113   0.463   1.339   9.181 -0.3102  0.4470  0.5211
  136MPD2    C1 2114   0.433   1.362   9.313  0.1607 -0.3702  0.6298
  136MPD2    C2 2115   0.536   1.415   9.387  0.1372  0.1046  0.5069
  136MPD2    C3 2116   0.665   1.442   9.343 -0.6032  0.6837 -0.0623
  136MPD2    C4 2117   0.686   1.431   9.209  0.4991 -0.6903 -0.5857
  136MPD2    C5 2118   0.584   1.376   9.131 -0.1105  0.3500 -0.0961
  136MPD2     H 2119   0.511   1.429   9.492 -0.6933 -0.7174  0.4201
  136MPD2    H1 2120   0.767   1.470   9.147  1.1071  0.8503  1.1534
  136MPD2    H2 2121   0.398   1.292   9.108  0.6466  0.8867 -0.5978
  136MPD2    H3 2122   0.607   1.355   9.027  2.6417  0.7260  0.4401
  136MPD2     N 2123   0.768   1.505   9.422  0.2372 -0.8445 -0.4641
  136MPD2    H5 2124   0.856   1.522   9.375  0.4804  1.7185  0.9037
  136MPD2    N1 2125   0.312   1.331   9.375 -0.1092  0.4129  0.0385
  136MPD2    H7 2126   0.306   1.351   9.475  1.0151  1.1130 -0.0331
  137TMC2    C1 2127   0.347   0.734   9.417 -0.1311  0.7492 -0.6764
  137TMC2    C2 2128   0.450   0.817   9.462  0.3053 -0.2172 -1.1254
  137TMC2    C3 2129   0.485   0.924   9.374  0.1704 -0.2634  0.6124
  137TMC2    C4 2130   0.277   0.756   9.299  0.3788  1.0136  0.2911
  137TMC2    C5 2131   0.310   0.861   9.232  0.2972 -0.0064  0.1084
  137TMC2    C6 2132   0.422   0.941   9.248 -1.1114  0.3810 -0.2552
  137TMC2     C 2133   0.298   0.631   9.501 -0.1594 -0.4546  0.1439
  137TMC2     O 2134   0.329   0.622   9.617  0.2974  0.2918  0.0944
  137TMC2     H 2135   0.495   0.818   9.561 -3.0500  0.0270  0.4337
  137TMC2    H1 2136   0.189   0.698   9.272  0.7471 -1.0497  3.6065
  137TMC2    H2 2137   0.429   1.031   9.188 -1.3457  0.9050  0.4979
  137TMC2    C7 2138   0.211   0.918   9.136  0.1086 -0.4917 -0.8186
  137TMC2    C8 2139   0.568   1.032   9.430 -0.0655 -0.1697 -0.0969
  137TMC2    O1 2140   0.241   0.966   9.030 -0.3946 -0.4427  0.6552
  137TMC2    O2 2141   0.554   1.075   9.543  0.0833  0.3770  0.2229
  137TMC2    O5 2142   0.669   1.059   9.346 -0.2981  0.0722 -0.1487
  137TMC2    H5 2143   0.668   1.030   9.253  2.5426 -1.3599  0.2647
  138MPD2     C 2144   0.144   0.328   9.373  0.5945 -0.5156  0.1620
  138MPD2    C1 2145   0.177   0.421   9.460 -0.5394  0.1688  0.3179
  138MPD2    C2 2146   0.118   0.423   9.587 -0.9075  0.0637  0.6035
  138MPD2    C3 2147   0.055   0.309   9.629  0.4818  0.1491 -0.0694
  138MPD2    C4 2148   0.027   0.207   9.542 -0.5143 -0.2597  0.4501
  138MPD2    C5 2149   0.070   0.220   9.413  0.1472 -0.1698 -0.3444
  138MPD2     H 2150   0.141   0.506   9.653 -1.0491  1.5145 -1.1898
  138MPD2    H1 2151   4.724   0.112   9.574  2.1868 -0.9403  1.7509
  138MPD2    H2 2152   0.183   0.336   9.272  0.1525  2.8690  0.2689
  138MPD2    H3 2153   0.053   0.140   9.342  1.5849  0.0389 -0.9240
  138MPD2     N 2154   0.033   0.301   9.770 -0.3001  0.1701 -0.1178
  138MPD2    H5 2155   0.052   0.389   9.816  1.6364 -1.2775  1.8584
  138MPD2    N1 2156   0.259   0.531   9.416  0.2350 -0.2362  0.0726
  138MPD2    H7 2157   0.274   0.541   9.316 -0.9354  0.9940  0.0056
  139TMC2    C1 2158   0.842   3.918  13.676 -0.5118  0.4234  0.0939
  139TMC2    C2 2159   0.788   3.872  13.562  0.6905  0.1082  0.7855
  139TMC2    C3 2160   0.687   3.947  13.510  0.0082 -0.0681  0.6892
  139TMC2    C4 2161   0.796   4.027  13.748 -0.3910  0.4724 -0.8971
  139TMC2    C5 2162   0.695   4.101  13.679  0.1539  0.0421 -0.7631
  139TMC2    C6 2163   0.631   4.055  13.571  0.0872 -0.5987 -0.3813
  139TMC2     C 2164   0.963   3.852  13.717 -0.6327 -0.1978 -0.0580
  139TMC2     O 2165   1.025   3.805  13.623 -0.1223  0.7213  0.4310
  139TMC2     H 2166   0.827   3.787  13.507  2.1626 -0.2452  2.3592
  139TMC2    H1 2167   0.866   4.068  13.820 -1.0158  0.3214 -0.2021
  139TMC2    H2 2168   0.552   4.112  13.524 -0.1143 -1.1222 -0.6770
  139TMC2    C7 2169   0.664   4.226  13.724  0.1943  0.0339  0.5566
  139TMC2    C8 2170   0.585   3.869  13.444  0.2272  0.1254 -0.1485
  139TMC2    O1 2171   0.613   4.304  13.644  0.0730 -0.4511 -0.1256
  139TMC2    O2 2172   0.488   3.906  13.375  0.1136  0.1331  0.2446
  139TMC2    O5 2173   0.582   3.767  13.529  0.0477 -0.2941 -0.6261
  139TMC2    H5 2174   0.666   3.731  13.565 -0.7547 -1.8617 -0.3135
  140MPD2     C 2175   1.064   3.709  14.035 -0.0662  0.5505  0.7486
  140MPD2    C1 2176   1.080   3.751  13.906  0.5327  0.1452 -0.4887
  140MPD2    C2 2177   1.190   3.708  13.839 -0.1548 -0.0605 -0.1702
  140MPD2    C3 2178   1.282   3.622  13.901  0.6729 -0.2756  0.0373
  140MPD2    C4 2179   1.256   3.564  14.020  0.1109 -0.5304  0.3974
  140MPD2    C5 2180   1.147   3.612  14.089 -0.3332  0.4206 -0.5751
  140MPD2     H 2181   1.213   3.746  13.740 -0.2183  3.6998  1.2361
  140MPD2    H1 2182   1.315   3.487  14.070 -1.9025 -2.2039  0.1811
  140MPD2    H2 2183   0.982   3.744  14.097 -1.4123 -1.0183 -0.1503
  140MPD2    H3 2184   1.130   3.573  14.189  1.0897  1.1296 -0.0607
  140MPD2     N 2185   1.399   3.599  13.823 -0.2373 -0.0686  0.0254
  140MPD2    H5 2186   1.412   3.652  13.738 -3.0554 -1.7664 -1.4408
  140MPD2    N1 2187   0.975   3.828  13.851 -0.2787 -0.3986  0.2437
  140MPD2    H7 2188   0.899   3.857  13.912 -2.2999 -1.0148 -1.9738
  141TMC2    C1 2189   1.346   0.282  13.767 -0.3174 -0.0412  0.6648
  141TMC2    C2 2190   1.228   0.335  13.717 -0.3364  0.0353  0.3484
  141TMC2    C3 2191   1.148   0.404  13.799  0.9123  0.1174  0.2547
  141TMC2    C4 2192   1.371   0.292  13.904  0.1708 -0.6268  1.0808
  141TMC2    C5 2193   1.284   0.357  13.989 -0.2170  0.3498  0.2212
  141TMC2    C6 2194   1.168   0.410  13.935  0.0176  0.2442  0.4627
  141TMC2     C 2195   1.435   0.213  13.675 -0.1251 -0.3302  0.0413
  141TMC2     O 2196   1.393   0.209  13.560 -0.0286  0.4146 -0.0021
  141TMC2     H 2197   1.200   0.316  13.614  0.5305 -1.1823  0.3351
  141TMC2    H1 2198   1.465   0.252  13.941  1.0612 -0.2426 -0.7145
  141TMC2    H2 2199   1.099   0.467  13.996 -1.8863 -1.5328 -0.0085
  141TMC2    C7 2200   1.302   0.366  14.130 -1.0987  0.8111 -0.5571
  141TMC2    C8 2201   1.016   0.375  13.774  1.0378  0.3768 -0.3212
  141TMC2    O1 2202   1.197   0.379  14.192 -0.2187  0.3965  0.1018
  141TMC2    O2 2203   0.931   0.450  13.815  0.0872 -0.2281 -0.4026
  141TMC2    O5 2204   0.998   0.251  13.729 -0.0990  0.7897  0.1523
  141TMC2    H5 2205   1.080   0.199  13.741 -0.2199  0.5220 -0.1877
  142TMC2    C1 2206   4.635   3.766   9.848 -0.2905  0.5934 -0.1454
  142TMC2    C2 2207   0.010   3.692   9.847 -0.3085  0.6459  0.2546
  142TMC2    C3 2208   0.124   3.757   9.793  0.0206  0.3266  0.1852
  142TMC2    C4 2209   4.621   3.887   9.789  0.3880 -0.6464  0.1770
  142TMC2    C5 2210   4.730   3.931   9.728  0.4931  0.6580  0.1388
  142TMC2    C6 2211   0.109   3.867   9.715 -0.5676 -0.6837 -0.1592
  142TMC2     C 2212   4.519   3.703   9.906 -0.4034 -0.2829 -0.8678
  142TMC2     O 2213   4.404   3.744   9.879 -0.0296 -0.6910  0.1312
  142TMC2     H 2214   0.024   3.599   9.902 -2.3321 -1.3972 -2.6778
  142TMC2    H1 2215   4.523   3.933   9.785  0.3546 -0.7407 -0.1065
  142TMC2    H2 2216   0.193   3.913   9.664 -1.5043 -0.3434 -1.4259
  142TMC2    C7 2217   0.004   4.065   9.670 -0.7886  0.1711 -0.7931
  142TMC2    C8 2218   0.248   3.688   9.773  0.0197 -0.3838 -0.4586
  142TMC2    O1 2219   0.064   4.083   9.565  0.4751 -0.3208  0.0135
  142TMC2    O2 2220   0.358   3.740   9.771  0.5338  0.0742 -0.1711
  142TMC2    O5 2221   0.227   3.558   9.789  1.0078  0.4193 -0.0062
  142TMC2    H5 2222   0.132   3.532   9.785  0.8357  1.0651 -0.0163
  143MPD2     C 2223   4.307   3.409  10.265  0.1638 -0.6166 -0.2694
  143MPD2    C1 2224   4.249   3.456  10.156 -0.0172  0.0102 -0.3589
  143MPD2    C2 2225   4.324   3.532  10.070 -1.0364  0.4079 -1.1403
  143MPD2    C3 2226   4.464   3.543  10.096  0.1266 -0.0719 -0.7310
  143MPD2    C4 2227   4.522   3.495  10.214  0.2429  0.5222  0.1738
  143MPD2    C5 2228   4.440   3.426  10.300  0.5501  0.2774  0.8669
  143MPD2     H 2229   4.278   3.587   9.988 -2.7692 -0.8033 -0.9914
  143MPD2    H1 2230   4.626   3.497  10.244  0.6404 -2.6574 -1.0738
  143MPD2    H2 2231   4.250   3.349  10.335  0.5026 -0.0691  0.4764
  143MPD2    H3 2232   4.475   3.382  10.393  2.4389  0.2386  0.1362
  143MPD2     N 2233   4.552   3.612  10.008  0.2808  0.1879 -0.6517
  143MPD2    H5 2234   4.651   3.595  10.017  0.0438 -1.3822 -1.0616
  143MPD2    N1 2235   4.115   3.414  10.128  0.3252  0.6566  0.7807
  143MPD2    H7 2236   4.069   3.352  10.193  2.4960 -0.7439  0.9854
  144TMC2    C1 2237   2.209   1.844   0.766  0.1859  0.2830 -0.0760
  144TMC2    C2 2238   2.281   1.735   0.718  0.3027  0.2110  0.5696
  144TMC2    C3 2239   2.408   1.723   0.745  0.5722  0.8293 -0.1031
  144TMC2    C4 2240   2.262   1.942   0.849 -0.3894  0.0889  0.6079
  144TMC2    C5 2241   2.392   1.934   0.866  1.1259 -0.3382  0.6752
  144TMC2    C6 2242   2.468   1.823   0.820 -0.5221  0.3656 -0.1165
  144TMC2     C 2243   2.068   1.843   0.726 -0.5937  0.2089 -0.1571
  144TMC2     O 2244   2.019   1.742   0.670  0.0367 -0.3115  0.5491
  144TMC2     H 2245   2.235   1.677   0.638  2.7828 -0.8065 -0.1136
  144TMC2    H1 2246   2.208   2.026   0.891  0.1641 -0.0198  1.5407
  144TMC2    H2 2247   2.573   1.804   0.841 -0.4997 -0.0789 -0.6397
  144TMC2    C7 2248   2.482   2.045   0.896  0.2485 -0.4346  0.0132
  144TMC2    C8 2249   2.468   1.591   0.769 -0.3582  0.5274 -0.2796
  144TMC2    O1 2250   2.600   2.027   0.891 -0.2065  0.5621  0.6486
  144TMC2    O2 2251   2.537   1.560   0.863 -0.2766  0.7032  0.6711
  144TMC2    O5 2252   2.417   1.510   0.671  0.0159  0.6798  0.1631
  144TMC2    H5 2253   2.366   1.548   0.596 -0.5395 -0.0327  0.1810
  145MPD2     C 2254   1.638   2.071   0.575  0.2838 -0.0197 -0.2546
  145MPD2    C1 2255   1.708   1.967   0.517  0.7276 -0.3645  0.3539
  145MPD2    C2 2256   1.830   1.924   0.576 -0.7537  0.6218 -0.0808
  145MPD2    C3 2257   1.876   1.991   0.690 -0.1438 -0.6612 -0.0020
  145MPD2    C4 2258   1.811   2.098   0.739 -0.3012 -0.2415 -0.5402
  145MPD2    C5 2259   1.688   2.130   0.690 -0.5819  0.4133 -0.1361
  145MPD2     H 2260   1.894   1.855   0.523  0.1237 -0.9076  2.9206
  145MPD2    H1 2261   1.848   2.159   0.820  1.5204 -0.4193 -1.2371
  145MPD2    H2 2262   1.542   2.108   0.541  0.1415 -0.0979  0.0665
  145MPD2    H3 2263   1.636   2.209   0.742 -2.0631 -0.0655 -0.8813
  145MPD2     N 2264   2.000   1.960   0.746 -0.6439 -0.3392 -0.2013
  145MPD2    H5 2265   2.043   2.027   0.808 -1.2991  1.3175 -1.5393
  145MPD2    N1 2266   1.664   1.893   0.400 -0.0482  0.3265 -0.6300
  145MPD2    H7 2267   1.732   1.831   0.356  1.2588  0.9809  0.4397
  146TMC2    C1 2268   3.589   1.127  12.511 -0.9688 -0.1140 -0.0079
  146TMC2    C2 2269   3.540   1.084  12.390  0.0006 -0.2883  0.5065
  146TMC2    C3 2270   3.621   1.040  12.294  0.0708  0.3456 -1.0997
  146TMC2    C4 2271   3.721   1.103  12.551 -0.2481  0.3118 -0.7518
  146TMC2    C5 2272   3.803   1.048  12.454 -0.4829 -0.5947  0.3391
  146TMC2    C6 2273   3.754   1.028  12.324  0.2221  0.2567 -0.1383
  146TMC2     C 2274   3.499   1.186  12.614  0.1249 -0.0806  0.4242
  146TMC2     O 2275   3.406   1.254  12.567  0.5763  0.3686 -0.0282
  146TMC2     H 2276   3.437   1.103  12.365  0.3281  0.7083 -0.1112
  146TMC2    H1 2277   3.768   1.144  12.639 -2.0081 -0.9637  0.7764
  146TMC2    H2 2278   3.823   0.981  12.254  1.2225  1.2322  0.1846
  146TMC2    C7 2279   3.946   1.042  12.464  0.4354  0.0379 -0.6116
  146TMC2    C8 2280   3.568   0.958  12.186 -0.6092  0.5443  0.5728
  146TMC2    O1 2281   4.022   1.036  12.368 -0.4666 -0.1453 -0.5041
  146TMC2    O2 2282   3.465   0.898  12.203  0.6509  0.5636  0.4030
  146TMC2    O5 2283   3.650   0.945  12.080  0.2039 -0.8231  0.4154
  146TMC2    H5 2284   3.741   0.983  12.080 -0.2528  0.2598 -0.0566
  147MPD2     C 2285   4.348   1.020  12.768 -0.9155 -0.0935 -0.3128
  147MPD2    C1 2286   4.233   0.992  12.849 -0.2535  0.3137  0.0140
  147MPD2    C2 2287   4.112   0.995  12.788 -1.1444 -0.2622 -0.7522
  147MPD2    C3 2288   4.102   1.016  12.649  0.5664  0.2693 -0.1410
  147MPD2    C4 2289   4.216   1.048  12.578 -0.0794 -0.1150 -0.0610
  147MPD2    C5 2290   4.338   1.039  12.635  0.0918  0.5216  0.1439
  147MPD2     H 2291   4.024   0.987  12.851 -0.3857  0.3829  0.3910
  147MPD2    H1 2292   4.221   1.060  12.471  0.5686 -0.2015 -0.0385
  147MPD2    H2 2293   4.440   1.030  12.824 -0.8115  1.0871 -0.6928
  147MPD2    H3 2294   4.424   1.061  12.572  0.4225  0.7650  0.6820
  147MPD2     N 2295   3.974   1.029  12.598 -0.0714  0.0923  0.4448
  147MPD2    H5 2296   3.900   1.030  12.667 -0.2976 -3.2299  0.2524
  147MPD2    N1 2297   4.256   0.989  12.992  0.5597  1.3239  0.1245
  147MPD2    H7 2298   4.348   1.012  13.030 -0.1035  1.5687  1.5820
  148TMC2    C1 2299   2.977   4.383  10.342 -1.0156  0.7140  0.5414
  148TMC2    C2 2300   2.997   4.513  10.383 -0.3010  0.0547 -0.7123
  148TMC2    C3 2301   3.080   4.539  10.489  0.0343  0.3418 -0.5543
  148TMC2    C4 2302   3.031   4.281  10.418  0.1804 -0.1317  0.2013
  148TMC2    C5 2303   3.111   4.310  10.521  0.2130 -0.2740 -0.2446
  148TMC2    C6 2304   3.138   4.437  10.561  0.7521 -0.5215 -0.0231
  148TMC2     C 2305   2.865   4.361  10.247  0.2925 -0.0664 -0.3448
  148TMC2     O 2306   2.824   4.464  10.195  0.6454  0.1886  0.1474
  148TMC2     H 2307   2.965   4.601  10.329  1.2457  0.3388 -1.1825
  148TMC2    H1 2308   2.998   4.178  10.410 -0.7767  0.2713 -1.1287
  148TMC2    H2 2309   3.214   4.456  10.636  0.0981 -0.8141  0.7246
  148TMC2    C7 2310   3.177   4.199  10.576  0.3687  0.2243  0.4585
  148TMC2    C8 2311   3.138   4.672  10.492  0.0330 -0.4297  0.4414
  148TMC2    O1 2312   3.210   4.110  10.499  0.9252  0.0321  0.1377
  148TMC2    O2 2313   3.135   0.002  10.391  0.3155  0.1592 -0.0971
  148TMC2    O5 2314   3.179   4.706  10.616 -0.1042  0.1535  0.0999
  148TMC2    H5 2315   3.172   4.632  10.681  1.6445 -0.1490 -0.0405
  149MPD2     C 2316   2.631   4.266  10.107 -0.4470  0.1884  0.0105
  149MPD2    C1 2317   2.737   4.189  10.136  0.2683  1.0029 -0.1704
  149MPD2    C2 2318   2.755   4.074  10.066 -0.0751 -0.3349 -0.0380
  149MPD2    C3 2319   2.667   4.039   9.966 -0.6490 -0.0395 -0.5094
  149MPD2    C4 2320   2.563   4.124   9.933  0.1393 -0.1426  0.6076
  149MPD2    C5 2321   2.546   4.246   9.996  0.0512 -0.1985  0.0798
  149MPD2     H 2322   2.841   4.012  10.087 -1.8312 -2.8415 -0.2985
  149MPD2    H1 2323   2.489   4.088   9.861  0.2578 -0.2428  0.5375
  149MPD2    H2 2324   2.612   4.359  10.160 -0.1402  1.0211 -1.3463
  149MPD2    H3 2325   2.461   4.310   9.974  0.7851  1.2311  1.3872
  149MPD2     N 2326   2.685   3.914   9.906  0.0179 -0.4140  0.1532
  149MPD2    H5 2327   2.636   3.885   9.821 -0.6882 -0.4259  0.5611
  149MPD2    N1 2328   2.841   4.230  10.228  0.5517  0.1695  0.2003
  149MPD2    H7 2329   2.909   4.158  10.248 -1.0955 -1.4813 -0.1160
  150TMC2    C1 2330   0.694   4.219  12.441  0.6891 -0.2320  0.8529
  150TMC2    C2 2331   0.627   4.331  12.453  0.1307 -0.2812  0.2993
  150TMC2    C3 2332   0.694   4.451  12.455 -0.0181  0.3888  0.1048
  150TMC2    C4 2333   0.833   4.213  12.440 -0.7301  0.4875 -0.6571
  150TMC2    C5 2334   0.897   4.339  12.443  0.8120 -0.0744 -0.0568
  150TMC2    C6 2335   0.830   4.463  12.440  0.6303 -0.0678  0.0593
  150TMC2     C 2336   0.634   4.090  12.445  0.7515 -0.2489  0.5081
  150TMC2     O 2337   0.692   3.996  12.493  0.7825 -0.1271  0.1511
  150TMC2     H 2338   0.520   4.331  12.471 -0.0734 -1.2052 -0.8730
  150TMC2    H1 2339   0.885   4.119  12.435  0.4709  1.0421  1.4350
  150TMC2    H2 2340   0.886   4.555  12.435  0.0870  0.5481  5.0151
  150TMC2    C7 2341   1.035   4.343  12.439  0.8428 -0.7676  0.0168
  150TMC2    C8 2342   0.613   4.562  12.487  0.7203 -0.2251  0.0233
  150TMC2    O1 2343   1.087   4.457  12.437  0.0172  0.2088  0.2669
  150TMC2    O2 2344   0.491   4.556  12.475 -0.0156 -0.5071  0.2351
  150TMC2    O5 2345   0.695   4.660  12.521  0.1445 -0.5140  0.3106
  150TMC2    H5 2346   0.782   4.629  12.553  0.8618  1.0913 -0.0631
  151MPD2     C 2347   0.204   3.809  12.367 -0.5946  0.2316 -0.9110
  151MPD2    C1 2348   0.189   3.930  12.307  0.3660 -0.7922 -0.5810
  151MPD2    C2 2349   0.284   4.027  12.317 -0.3398  0.1430  0.0161
  151MPD2    C3 2350   0.410   3.998  12.371 -0.3875 -0.3289  0.7318
  151MPD2    C4 2351   0.418   3.874  12.431  0.0043  0.2733 -0.3533
  151MPD2    C5 2352   0.316   3.784  12.431 -0.2080 -0.0754  0.2387
  151MPD2     H 2353   0.276   4.123  12.267 -0.6960 -0.3263 -0.8258
  151MPD2    H1 2354   0.504   3.836  12.485 -0.1306 -1.1023 -1.1047
  151MPD2    H2 2355   0.134   3.727  12.353 -0.4986  0.0763 -0.4720
  151MPD2    H3 2356   0.334   3.685  12.472 -1.8691  0.2956  1.8827
  151MPD2     N 2357   0.513   4.091  12.373  0.6114 -0.3748 -0.4730
  151MPD2    H5 2358   0.500   4.180  12.327 -1.0624 -1.7650 -2.6910
  151MPD2    N1 2359   0.066   3.947  12.239 -0.2645  0.0574 -0.3304
  151MPD2    H7 2360   0.015   3.861  12.221 -0.2800 -0.1968  0.9010
  152TMC2    C1 2361   0.454   3.565  13.043 -0.0361 -0.2762 -0.4828
  152TMC2    C2 2362   0.511   3.468  12.963  0.6507  0.4527  0.9924
  152TMC2    C3 2363   0.641   3.487  12.919  0.1672 -0.2709 -0.5339
  152TMC2    C4 2364   0.519   3.681  13.076 -0.7033 -0.5035 -0.0670
  152TMC2    C5 2365   0.641   3.702  13.021  0.0177 -0.6369 -0.3929
  152TMC2    C6 2366   0.698   3.610  12.939  0.1592 -0.2868 -0.3831
  152TMC2     C 2367   0.316   3.584  13.016  0.7256 -0.3536 -0.1132
  152TMC2     O 2368   0.263   3.685  13.062 -0.4395 -0.9270 -0.5371
  152TMC2     H 2369   0.461   3.372  12.960  0.4443  0.5975  0.0424
  152TMC2    H1 2370   0.465   3.761  13.127 -1.1102  1.5303 -3.6529
  152TMC2    H2 2371   0.793   3.628  12.889 -0.0939  0.5873 -0.5487
  152TMC2    C7 2372   0.716   3.814  13.074 -0.0012  0.0356 -0.4195
  152TMC2    C8 2373   0.700   3.408  12.810  0.7340 -0.2414  0.8378
  152TMC2    O1 2374   0.646   3.890  13.142  0.5054 -0.3489  0.8456
  152TMC2    O2 2375   0.773   3.458  12.726  0.0795  0.1796  0.5637
  152TMC2    O5 2376   0.717   3.281  12.863  0.7836 -0.1430  0.1651
  152TMC2    H5 2377   0.646   3.260  12.927  0.2864 -0.1622 -0.3922
  153MPD2     C 2378   0.120   3.482  12.728  0.1344 -0.9276  0.7216
  153MPD2    C1 2379   0.168   3.572  12.823  0.6750 -0.6894 -0.7384
  153MPD2    C2 2380   0.133   3.709  12.807 -0.6140  0.0880 -0.5555
  153MPD2    C3 2381   0.046   3.743  12.708  0.0173 -0.5586 -0.2938
  153MPD2    C4 2382   4.729   3.653  12.626 -0.3348  0.2692  0.0760
  153MPD2    C5 2383   0.026   3.523  12.637 -0.4263 -0.3255  0.0128
  153MPD2     H 2384   0.172   3.780  12.878  1.5386  1.8491 -3.4850
  153MPD2    H1 2385   4.672   3.681  12.538  0.4511 -0.5762 -0.7072
  153MPD2    H2 2386   0.137   3.375  12.722 -1.5641 -1.0966 -0.9653
  153MPD2    H3 2387   4.718   3.461  12.560  0.7709 -1.3584  0.1579
  153MPD2     N 2388   0.023   3.883  12.687 -0.3580  0.6398 -0.3052
  153MPD2    H5 2389   0.062   3.942  12.760  0.3747 -0.1170 -0.0822
  153MPD2    N1 2390   0.274   3.522  12.904  0.2883 -0.6383 -0.4475
  153MPD2    H7 2391   0.324   3.438  12.876 -0.5989 -1.9985  2.0778
  154TMC2    C1 2392   1.909   2.813   0.448 -0.6500 -0.4028 -0.0104
  154TMC2    C2 2393   2.015   2.742   0.488  0.4798 -0.1185 -0.1118
  154TMC2    C3 2394   2.056   2.639   0.404 -0.0181  0.8682 -0.0287
  154TMC2    C4 2395   1.848   2.792   0.324 -0.1338  0.2698 -0.0907
  154TMC2    C5 2396   1.896   2.701   0.243 -0.3080 -0.1705  0.5871
  154TMC2    C6 2397   1.994   2.608   0.282  0.2927  0.0837 -0.4873
  154TMC2     C 2398   1.871   2.927   0.530  0.2225 -0.3075  0.0033
  154TMC2     O 2399   1.968   2.968   0.599 -0.5114  0.0506 -0.1348
  154TMC2     H 2400   2.056   2.761   0.587  1.4318  2.2360 -0.9632
  154TMC2    H1 2401   1.767   2.859   0.293  1.0999  1.1232 -1.4833
  154TMC2    H2 2402   2.030   2.523   0.226  2.1388 -0.6170  1.7458
  154TMC2    C7 2403   1.834   2.667   0.114  0.3103 -0.1328  0.0067
  154TMC2    C8 2404   2.190   2.590   0.446  0.3876  1.3075  0.1116
  154TMC2    O1 2405   1.884   2.567   0.057  0.6423  0.1701  0.2343
  154TMC2    O2 2406   2.265   2.653   0.519  0.0768 -0.8069 -0.1678
  154TMC2    O5 2407   2.227   2.495   0.363 -0.2046  0.3616 -0.3374
  154TMC2    H5 2408   2.161   2.449   0.307  0.0997  0.4472 -0.7707
  155MPD2     C 2409   1.551   3.112   0.552 -0.6652 -0.8706  0.4913
  155MPD2    C1 2410   1.685   3.089   0.561 -0.2014  0.3476 -0.0614
  155MPD2    C2 2411   1.768   3.185   0.615  0.2318  0.5804  0.6214
  155MPD2    C3 2412   1.717   3.304   0.658 -0.5901 -0.3393  0.1490
  155MPD2    C4 2413   1.581   3.328   0.645 -0.1236  0.1280 -0.1548
  155MPD2    C5 2414   1.502   3.227   0.598  0.6585 -1.1534 -0.2739
  155MPD2     H 2415   1.875   3.173   0.627 -0.1445 -1.0643  2.3466
  155MPD2    H1 2416   1.546   3.423   0.683  1.4258  0.8303 -0.4677
  155MPD2    H2 2417   1.478   3.036   0.526 -0.8251 -0.5844  0.1137
  155MPD2    H3 2418   1.395   3.245   0.602  0.8579  0.5830 -3.1968
  155MPD2     N 2419   1.811   3.399   0.703  0.4013  0.8565  0.1237
  155MPD2    H5 2420   1.911   3.385   0.695 -0.1677 -2.7759 -0.7142
  155MPD2    N1 2421   1.738   2.962   0.525 -0.1985  0.3521 -0.0809
  155MPD2    H7 2422   1.682   2.893   0.474  0.8326  1.2562 -2.4247
  156TMC2    C1 2423   0.717   1.380  11.467 -0.4167 -0.4912  0.2401
  156TMC2    C2 2424   0.779   1.327  11.360  0.1357 -0.9121  0.3350
  156TMC2    C3 2425   0.714   1.327  11.236 -0.1731  0.9409 -0.2984
  156TMC2    C4 2426   0.598   1.450  11.446 -0.0948 -1.1475  0.0399
  156TMC2    C5 2427   0.544   1.458  11.318  0.4873 -0.1790 -0.6648
  156TMC2    C6 2428   0.597   1.399  11.213  0.2621  0.3489  0.1171
  156TMC2     C 2429   0.772   1.377  11.599 -0.3259  0.0754 -0.3735
  156TMC2     O 2430   0.695   1.403  11.693  0.1538 -0.1521 -0.0637
  156TMC2     H 2431   0.872   1.272  11.370 -1.1596 -2.4238  3.7991
  156TMC2    H1 2432   0.550   1.492  11.534  2.2157 -1.7843  1.5953
  156TMC2    H2 2433   0.562   1.426  11.114  3.7273  1.2792 -0.8358
  156TMC2    C7 2434   0.441   1.552  11.295 -0.1717  0.4345  0.4028
  156TMC2    C8 2435   0.801   1.315  11.121  0.9637 -0.4050  0.2542
  156TMC2    O1 2436   0.344   1.499  11.243 -0.4486 -0.0329  0.2846
  156TMC2    O2 2437   0.769   1.270  11.012 -0.0354  0.1580  0.2520
  156TMC2    O5 2438   0.926   1.337  11.165  0.3446 -0.1614 -0.6375
  156TMC2    H5 2439   0.939   1.401  11.239 -3.1353  1.0557 -1.0757
  157MPD2     C 2440   1.099   1.266  11.719 -0.1888  0.2714  0.3994
  157MPD2    C1 2441   0.977   1.320  11.729 -0.4156 -0.2413 -0.9895
  157MPD2    C2 2442   0.935   1.364  11.856 -0.6689  0.0475 -0.4855
  157MPD2    C3 2443   1.013   1.359  11.966 -0.5707  0.1694  0.2022
  157MPD2    C4 2444   1.142   1.316  11.945 -0.2671 -0.4918  0.2557
  157MPD2    C5 2445   1.181   1.266  11.822 -0.4663 -0.0136  0.8374
  157MPD2     H 2446   0.839   1.413  11.864 -0.5356  0.2440 -0.1229
  157MPD2    H1 2447   1.211   1.319  12.028 -0.4072  1.2544  0.2999
  157MPD2    H2 2448   1.136   1.232  11.623  1.1315 -0.8002  1.2747
  157MPD2    H3 2449   1.284   1.240  11.800  0.0359  0.8601  2.1207
  157MPD2     N 2450   0.956   1.410  12.082 -1.0156 -0.0661  0.2006
  157MPD2    H5 2451   0.873   1.467  12.077  0.0611  1.5143  0.3368
  157MPD2    N1 2452   0.899   1.329  11.610  0.0471 -0.0419 -0.1821
  157MPD2    H7 2453   0.956   1.302  11.531  0.0781  1.1311 -0.5611
  158TMC2    C1 2454   1.449   4.676  13.197  0.3976 -0.6004 -0.2366
  158TMC2    C2 2455   1.490   4.635  13.072  0.1424  0.0175  0.0827
  158TMC2    C3 2456   1.486   4.733  12.972 -0.6072 -0.2884 -0.6739
  158TMC2    C4 2457   1.406   0.068  13.227 -0.1519 -0.0024  0.0802
  158TMC2    C5 2458   1.406   0.156  13.123  0.3091  0.8597  0.0643
  158TMC2    C6 2459   1.445   0.126  12.996  0.0600  0.2276 -0.2666
  158TMC2     C 2460   1.471   4.580  13.299 -0.0689 -0.1274 -0.0995
  158TMC2     O 2461   1.537   4.478  13.270  0.4011 -0.4679 -0.5714
  158TMC2     H 2462   1.515   4.533  13.048  0.8254  0.3635 -0.6918
  158TMC2    H1 2463   1.394   0.101  13.330  0.8698  0.1260  0.1616
  158TMC2    H2 2464   1.441   0.197  12.914  0.6900  0.2583 -0.2725
  158TMC2    C7 2465   1.318   0.268  13.129  0.5102  0.2480 -0.7256
  158TMC2    C8 2466   1.554   4.700  12.848 -0.5658  0.5265  0.6846
  158TMC2    O1 2467   1.298   0.322  13.019 -0.3647  0.0044 -0.9020
  158TMC2    O2 2468   1.545   0.037  12.753  0.3856 -0.2681 -0.1610
  158TMC2    O5 2469   1.673   4.640  12.875 -0.0815 -0.3120 -0.2202
  158TMC2    H5 2470   1.692   4.591  12.958 -0.0642  0.5058  0.2553
  159MPD2     C 2471   1.431   4.446  13.792 -0.0978  0.0550  0.4677
  159MPD2    C1 2472   1.361   4.551  13.780  0.5204 -0.8152 -0.0614
  159MPD2    C2 2473   1.352   4.610  13.653  0.0278  1.0494  0.0437
  159MPD2    C3 2474   1.428   4.561  13.546 -0.5463 -0.1237 -0.1232
  159MPD2    C4 2475   1.515   4.457  13.573 -0.9174  0.0172  0.3013
  159MPD2    C5 2476   1.514   4.404  13.700 -0.9260  0.0894  1.0050
  159MPD2     H 2477   1.282   4.692  13.634 -0.4654  0.4081 -0.9017
  159MPD2    H1 2478   1.595   4.414  13.514 -0.3554  0.3799  0.8112
  159MPD2    H2 2479   1.435   4.386  13.882  0.9445 -0.4914  0.0549
  159MPD2    H3 2480   1.577   4.318  13.719 -0.2391  0.1459 -1.1082
  159MPD2     N 2481   1.416   4.623  13.420 -0.6722 -0.4402  0.6941
  159MPD2    H5 2482   1.351   4.700  13.412 -0.8212 -0.4249  1.9816
  159MPD2    N1 2483   1.288   4.592  13.893  0.0755  0.3439  0.2599
  159MPD2    H7 2484   1.290   4.535  13.977 -3.0876  0.5809  0.5189
  160TMC2    C1 2485   0.504   2.442   1.639  0.1307 -0.2890 -0.8955
  160TMC2    C2 2486   0.431   2.343   1.703 -0.8295 -0.8461  0.5914
  160TMC2    C3 2487   0.468   2.215   1.668 -0.5648  0.7865  0.1439
  160TMC2    C4 2488   0.606   2.419   1.549 -0.0808  0.3506  0.5673
  160TMC2    C5 2489   0.642   2.289   1.540 -0.0805 -0.3355 -0.0402
  160TMC2    C6 2490   0.573   2.182   1.587 -0.6311 -0.0256 -0.3549
  160TMC2     C 2491   0.462   2.581   1.671  0.3154  0.2982 -0.0061
  160TMC2     O 2492   0.404   2.602   1.777 -0.1857 -0.3234 -0.0109
  160TMC2     H 2493   0.356   2.367   1.777  0.0124  0.3199  1.0573
  160TMC2    H1 2494   0.652   2.501   1.496  1.4563 -1.6470 -1.1935
  160TMC2    H2 2495   0.598   2.080   1.560 -0.0673 -0.1644  0.7030
  160TMC2    C7 2496   0.739   2.253   1.440  0.1852  0.2864  0.3319
  160TMC2    C8 2497   0.378   2.107   1.699  0.6187  0.2458 -0.3292
  160TMC2    O1 2498   0.723   2.148   1.379  0.3838 -0.3336  0.2486
  160TMC2    O2 2499   0.422   2.001   1.740 -0.2796  0.3980  0.0461
  160TMC2    O5 2500   0.260   2.159   1.742  0.3232  0.2846  0.3079
  160TMC2    H5 2501   0.243   2.247   1.702 -1.1728 -0.9270 -1.6925
  161MPD2     C 2502   0.407   2.874   1.663  0.2140  0.0926  0.0274
  161MPD2    C1 2503   0.433   2.795   1.555  0.4692 -0.3284  0.4272
  161MPD2    C2 2504   0.418   2.860   1.436 -0.1105  0.3819  0.4857
  161MPD2    C3 2505   0.372   2.991   1.420  0.3749  0.1035 -0.0696
  161MPD2    C4 2506   0.333   3.055   1.531  0.9381  0.1725 -0.4398
  161MPD2    C5 2507   0.350   3.001   1.657  0.1066  0.7810 -0.4326
  161MPD2     H 2508   0.447   2.794   1.355 -1.4402  1.0688 -0.5466
  161MPD2    H1 2509   0.293   3.154   1.513 -0.5254  0.2633  3.3206
  161MPD2    H2 2510   0.416   2.835   1.764  1.6824  0.8758  0.2027
  161MPD2    H3 2511   0.325   3.042   1.755 -0.0271  0.6111 -0.3931
  161MPD2     N 2512   0.342   3.059   1.297 -0.1798  0.1584 -0.2936
  161MPD2    H5 2513   0.311   3.155   1.295  3.1661  1.2754  1.3244
  161MPD2    N1 2514   0.469   2.658   1.556 -0.6661  0.9636 -0.4010
  161MPD2    H7 2515   0.491   2.617   1.466  1.3593  1.3239 -0.0669
  162TMC2    C1 2516   4.408   4.614   1.378 -0.0065 -0.2346 -0.2683
  162TMC2    C2 2517   4.354   4.694   1.473 -0.3159 -0.0962  0.2210
  162TMC2    C3 2518   4.409   4.703   1.601 -0.0898  0.0765 -0.4632
  162TMC2    C4 2519   4.500   4.524   1.419 -0.1492  1.0027 -0.2149
  162TMC2    C5 2520   4.545   4.528   1.549 -0.0257 -0.3682  0.2224
  162TMC2    C6 2521   4.505   4.618   1.642 -0.1653 -0.6565  0.6886
  162TMC2     C 2522   4.362   4.647   1.244  0.0281 -0.3994 -0.5352
  162TMC2     O 2523   4.249   4.694   1.233 -0.7085  0.0600  0.5778
  162TMC2     H 2524   4.276   0.027   1.443  0.1818  0.0833 -0.6543
  162TMC2    H1 2525   4.545   4.459   1.345 -2.9393 -1.0118 -0.1527
  162TMC2    H2 2526   4.541   4.621   1.744 -1.1824  0.9737  0.9934
  162TMC2    C7 2527   4.676   4.464   1.564  0.0358  0.2129 -0.5509
  162TMC2    C8 2528   4.404   0.090   1.672  0.0802 -0.3326 -0.0496
  162TMC2    O1 2529   0.022   4.510   1.643  0.4582 -0.1274 -0.0391
  162TMC2    O2 2530   4.355   0.086   1.785 -0.3825  0.2952  0.2727
  162TMC2    O5 2531   4.536   0.127   1.659  0.0406 -0.5090 -0.3621
  162TMC2    H5 2532   4.565   0.106   1.567 -1.1778  0.6730 -1.0213
  163MPD2     C 2533   4.394   4.664   0.732  0.3789 -0.0996 -0.5018
  163MPD2    C1 2534   4.287   4.636   0.813  0.4144 -0.8596 -0.3253
  163MPD2    C2 2535   4.317   4.634   0.949  0.2188 -0.8944  0.6480
  163MPD2    C3 2536   4.441   4.650   1.002  0.0974 -0.3300  0.7063
  163MPD2    C4 2537   4.549   4.666   0.919  0.4896 -0.5428 -0.1397
  163MPD2    C5 2538   4.522   4.678   0.783  0.3378  0.2698 -0.6580
  163MPD2     H 2539   4.231   4.628   1.015 -1.6885 -1.5442 -1.9349
  163MPD2    H1 2540   4.649   4.677   0.958 -0.1082  0.5493  1.0581
  163MPD2    H2 2541   4.373   4.674   0.626  1.6834  0.0386 -0.7402
  163MPD2    H3 2542   4.603   4.717   0.723 -1.0386  2.1521 -1.2970
  163MPD2     N 2543   4.462   4.636   1.147  0.4682 -0.4192 -0.7636
  163MPD2    H5 2544   4.559   4.625   1.173  0.2365  0.9679  0.6958
  163MPD2    N1 2545   4.160   4.619   0.754  0.8051 -0.8135  0.0504
  163MPD2    H7 2546   4.155   4.623   0.653 -0.9984 -1.9812  0.0958
  164TMC2    C1 2547   3.985   4.395  10.927 -0.2013  0.3920 -0.1717
  164TMC2    C2 2548   4.041   4.495  10.846  0.7232 -0.2428  0.0896
  164TMC2    C3 2549   3.965   4.598  10.808 -0.6477  0.0042  0.1007
  164TMC2    C4 2550   3.853   4.404  10.969 -0.7711 -0.4891 -0.0204
  164TMC2    C5 2551   3.776   4.501  10.914 -0.2626 -0.3567  0.3603
  164TMC2    C6 2552   3.828   4.598  10.826  0.3541  0.2323 -0.2497
  164TMC2     C 2553   4.073   4.307  11.001 -0.2779  0.3128  0.7803
  164TMC2     O 2554   4.019   4.223  11.068  0.0767 -0.1927 -0.5456
  164TMC2     H 2555   4.142   4.494  10.808  1.2885 -0.9769  1.6003
  164TMC2    H1 2556   3.816   4.327  11.035  0.3849 -0.1583  1.0211
  164TMC2    H2 2557   3.766   4.679  10.790  1.6316  0.4956 -1.8476
  164TMC2    C7 2558   3.636   4.517  10.953 -0.9165  0.3177  0.1578
  164TMC2    C8 2559   4.040   4.697  10.728 -0.4981  0.1319 -0.2236
  164TMC2    O1 2560   3.567   4.585  10.877 -0.5211  0.7710  0.0078
  164TMC2    O2 2561   4.153   4.680  10.683 -0.1785 -0.2625  0.1660
  164TMC2    O5 2562   3.984   0.076  10.754  0.2667  0.3707  0.3023
  164TMC2    H5 2563   3.909   0.080  10.817 -0.3721 -1.4448 -0.3281
  165TMC2    C1 2564   0.657   1.492   1.230 -0.3993  0.6125 -0.1286
  165TMC2    C2 2565   0.585   1.529   1.116 -0.3686  0.3311 -0.2229
  165TMC2    C3 2566   0.631   1.641   1.049 -0.4683 -0.8858  0.5799
  165TMC2    C4 2567   0.765   1.562   1.275  0.2499  0.0548  0.0242
  165TMC2    C5 2568   0.809   1.667   1.201  0.6207  0.5449  0.2475
  165TMC2    C6 2569   0.735   1.720   1.092 -0.3809  0.3550 -1.0792
  165TMC2     C 2570   0.610   1.371   1.294 -0.3543 -0.6253 -0.2156
  165TMC2     O 2571   0.493   1.346   1.283  0.4137  0.5637  0.2961
  165TMC2     H 2572   0.505   1.463   1.087  0.4947  0.0698 -2.0014
  165TMC2    H1 2573   0.807   1.526   1.368 -1.9473 -1.2601  0.5131
  165TMC2    H2 2574   0.761   1.818   1.053 -1.6326  0.9117 -0.5159
  165TMC2    C7 2575   0.908   1.753   1.257  0.7821  0.0038  0.6347
  165TMC2    C8 2576   0.542   1.694   0.955  0.1383 -0.0301 -0.5225
  165TMC2    O1 2577   0.979   1.818   1.180 -0.2513  0.0111 -0.4281
  165TMC2    O2 2578   0.432   1.643   0.934 -0.1599  0.3206  0.2251
  165TMC2    O5 2579   0.579   1.816   0.913 -0.3138  0.5134 -0.0373
  165TMC2    H5 2580   0.670   1.837   0.941 -0.4596  0.3847  0.5369
  166MPD2     C 2581   0.653   0.966   1.609 -0.5025  0.6479 -0.5828
  166MPD2    C1 2582   0.554   0.997   1.519 -0.0689 -0.1578  0.4772
  166MPD2    C2 2583   0.568   1.108   1.437  0.3267  0.2352 -0.4590
  166MPD2    C3 2584   0.684   1.184   1.439  0.2514  0.3145  0.2539
  166MPD2    C4 2585   0.785   1.155   1.527 -0.3079  0.2816  0.1589
  166MPD2    C5 2586   0.766   1.044   1.608 -0.7687  0.0571  0.0948
  166MPD2     H 2587   0.486   1.137   1.373 -0.8886 -1.3687  0.3678
  166MPD2    H1 2588   0.873   1.215   1.543  0.3378 -1.1718  1.9778
  166MPD2    H2 2589   0.641   0.885   1.680 -1.2848 -0.4983 -2.0221
  166MPD2    H3 2590   0.851   1.022   1.671 -0.3108  2.3828  0.2828
  166MPD2     N 2591   0.706   1.309   1.366  0.0329  0.3495 -0.5823
  166MPD2    H5 2592   0.796   1.356   1.365  0.4994 -0.5166  1.6427
  166MPD2    N1 2593   0.437   0.916   1.518 -0.7261  0.1831  0.3694
  166MPD2    H7 2594   0.440   0.839   1.584 -1.9669  1.4166  1.8616
  167TMC2    C1 2595   3.070   4.412  13.106 -0.0765  0.3580  0.1622
  167TMC2    C2 2596   3.004   4.421  13.219 -0.0744 -0.5477  0.7771
  167TMC2    C3 2597   2.897   4.337  13.236 -0.6586  0.4613  0.4181
  167TMC2    C4 2598   3.032   4.336  12.999  0.0379  1.2448 -0.2529
  167TMC2    C5 2599   2.920   4.260  13.016 -0.0128 -0.4455 -0.0796
  167TMC2    C6 2600   2.859   4.260  13.131 -0.5234  0.6847 -0.6922
  167TMC2     C 2601   3.190   4.498  13.093  0.5493 -0.8013  0.0074
  167TMC2     O 2602   3.202   4.588  13.177 -0.3827  0.5869 -0.2159
  167TMC2     H 2603   3.035   4.490  13.296 -0.4834  1.3230 -0.7487
  167TMC2    H1 2604   3.077   4.346  12.901 -0.4412  1.5722 -0.4409
  167TMC2    H2 2605   2.778   4.190  13.146 -1.5440  1.6022 -1.8497
  167TMC2    C7 2606   2.868   4.179  12.910  0.0069  0.2352 -0.8090
  167TMC2    C8 2607   2.872   4.271  13.362  0.7773 -0.2996  0.3297
  167TMC2    O1 2608   2.754   4.137  12.923  0.3438 -0.4712  0.5532
  167TMC2    O2 2609   2.837   4.155  13.365 -0.1259  0.9818  0.2044
  167TMC2    O5 2610   2.940   4.329  13.465 -0.1534  0.0254 -0.3689
  167TMC2    H5 2611   2.952   4.426  13.459 -1.3057  0.1725 -0.3312
  168MPD2     C 2612   3.442   4.640  13.000  0.0732 -0.9762 -0.2975
  168MPD2    C1 2613   3.373   4.531  12.934 -0.0242  0.3186  0.0265
  168MPD2    C2 2614   3.413   4.477  12.814  0.0563 -0.1635  0.0982
  168MPD2    C3 2615   3.515   4.541  12.743 -0.1185  0.6778  0.0375
  168MPD2    C4 2616   3.581   4.654  12.795 -0.1386 -0.4394 -0.1074
  168MPD2    C5 2617   3.545   4.690  12.922  0.0893 -0.0337  0.5160
  168MPD2     H 2618   3.350   4.403  12.765  0.5510 -2.0905  2.3546
  168MPD2    H1 2619   3.658   4.715  12.749  0.5408 -1.3811 -0.2113
  168MPD2    H2 2620   3.413   4.668  13.100  1.5297  0.7745 -0.3657
  168MPD2    H3 2621   3.604   0.035  12.963  0.8877  0.2146 -1.1287
  168MPD2     N 2622   3.542   4.499  12.612 -0.3851  0.3112 -0.1260
  168MPD2    H5 2623   3.599   4.563  12.557 -0.3532  0.0024 -0.4563
  168MPD2    N1 2624   3.265   4.459  12.985  0.7491 -0.6495  0.7449
  168MPD2    H7 2625   3.229   4.390  12.919  0.3513 -0.4709  0.7769
  169MPD1     C 2626   0.150   4.043   8.998  0.5766  0.3896  0.3012
  169MPD1    C1 2627   0.093   3.995   9.109  0.0493 -0.4372 -0.6018
  169MPD1    C2 2628   0.150   4.057   9.223  0.1552  0.3295 -0.3331
  169MPD1    C3 2629   0.256   4.142   9.222 -0.6109 -0.1685 -0.5017
  169MPD1    C4 2630   0.314   4.178   9.101  0.1023 -0.4713 -0.3925
  169MPD1    C5 2631   0.265   4.117   8.992 -0.3461  0.4798  0.0678
  169MPD1     H 2632   0.106   4.032   9.319 -1.0870  0.4851 -0.8661
  169MPD1    H1 2633   0.391   4.254   9.088  0.1229 -0.8126 -2.2526
  169MPD1    H2 2634   0.101   4.021   8.904  1.0898 -0.0595  0.1379
  169MPD1    H3 2635   0.298   4.136   8.891  1.1888 -1.0937  0.2722
  169MPD1     N 2636   0.295   4.202   9.347 -1.0100  0.6033  0.1606
  169MPD1    H5 2637   0.243   4.182   9.431  1.3739  1.0776  1.7319
  169MPD1    N1 2638   4.696   3.937   9.109  0.1423  0.0136 -0.1190
  169MPD1    H6 2639   4.682   3.862   9.041  1.1343  0.3600 -0.7102
  169MPD1    H7 2640   4.668   3.901   9.200  0.9115  1.4525  0.6757
  170MPD1     C 2641   3.534   2.162  13.581  0.5026  0.6555  0.1329
  170MPD1    C1 2642   3.638   2.125  13.662  0.0964  0.0403  1.0757
  170MPD1    C2 2643   3.723   2.222  13.702 -0.0611  0.5177 -0.3034
  170MPD1    C3 2644   3.711   2.356  13.662  1.0282  0.0648  0.7653
  170MPD1    C4 2645   3.595   2.396  13.594 -0.6051 -0.2860 -0.3297
  170MPD1    C5 2646   3.510   2.294  13.551  0.7023 -0.6632 -0.4304
  170MPD1     H 2647   3.801   2.195  13.773 -2.0944  0.7264  2.0129
  170MPD1    H1 2648   3.561   2.497  13.575  0.7870  0.5646  1.6826
  170MPD1    H2 2649   3.457   2.089  13.558  1.0895  0.0309  0.1357
  170MPD1    H3 2650   3.418   2.322  13.501 -0.3633  0.2189  2.0446
  170MPD1     N 2651   3.821   2.442  13.692 -0.6719 -0.9949  0.3198
  170MPD1    H5 2652   3.901   2.400  13.739  0.3997  1.2034  0.4689
  170MPD1    N1 2653   3.648   1.995  13.710 -0.0134 -0.5818 -0.1311
  170MPD1    H6 2654   3.601   1.920  13.660 -1.9255  0.3126  0.3341
  170MPD1    H7 2655   3.744   1.974  13.739  0.5658  2.2702  0.0715
  171MPD1     C 2656   2.568   3.508  15.626  0.2502  0.3679 -0.0250
  171MPD1    C1 2657   2.608   3.413  15.544 -0.1023  0.1057  0.1026
  171MPD1    C2 2658   2.680   3.300  15.584 -0.1832  0.1822  0.3901
  171MPD1    C3 2659   2.693   3.280  15.718  0.4512  0.6106 -0.2502
  171MPD1    C4 2660   2.662   3.386  15.804 -0.9470 -0.2943 -0.3957
  171MPD1    C5 2661   2.596   3.494  15.757 -0.3161  0.5718 -0.4669
  171MPD1     H 2662   2.725   3.233  15.511  2.4187  0.5933  1.6142
  171MPD1    H1 2663   2.663   3.381  15.912 -0.5854  0.6626 -0.3592
  171MPD1    H2 2664   2.516   3.600  15.599 -0.7131  0.7930  3.3149
  171MPD1    H3 2665   2.574   3.582  15.817 -0.8899 -1.4960  2.3711
  171MPD1     N 2666   2.752   3.167  15.772  0.7739 -0.1013  0.7153
  171MPD1    H5 2667   2.771   3.173  15.872  0.2393  3.1832  0.6177
  171MPD1    N1 2668   2.593   3.448  15.410 -0.2210 -0.6384 -0.1381
  171MPD1    H6 2669   2.594   3.374  15.340  0.1540  0.4632 -1.3034
  171MPD1    H7 2670   2.501   3.490  15.397  0.9082  0.9397 -3.0819
  172MPD1     C 2671   2.070   1.448  17.653  0.4100  0.0104  0.2116
  172MPD1    C1 2672   1.965   1.503  17.720 -0.3092  1.1407 -0.3574
  172MPD1    C2 2673   1.979   1.620   0.047 -0.4728  0.3668 -0.0990
  172MPD1    C3 2674   2.104   1.679   0.046  0.4301 -0.5696 -0.2184
  172MPD1    C4 2675   2.209   1.626  17.727  0.5825  0.1568 -0.7537
  172MPD1    C5 2676   2.191   1.510  17.658  0.3520  0.3806 -0.6006
  172MPD1     H 2677   1.900   1.665   0.106 -2.5099 -1.5211 -1.3471
  172MPD1    H1 2678   2.305   1.677  17.724 -0.3161  1.8457 -0.9806
  172MPD1    H2 2679   2.050   1.353  17.604  2.6178 -0.3004 -0.0935
  172MPD1    H3 2680   2.271   1.453  17.613 -1.2079 -0.7583 -1.9300
  172MPD1     N 2681   2.130   1.801   0.119  0.8215 -0.1995 -0.4719
  172MPD1    H5 2682   2.218   1.851   0.109  0.8498  0.2563  1.9948
  172MPD1    N1 2683   1.840   1.436  17.717 -0.0496  0.4329  0.0974
  172MPD1    H6 2684   1.767   1.480   0.029 -2.3220 -3.6771  0.4361
  172MPD1    H7 2685   1.840   1.334  17.725 -1.6645  0.4629  0.5958
  173MPD1     C 2686   3.908   2.200  14.409  0.2214  0.3945 -0.4406
  173MPD1    C1 2687   3.835   2.082  14.419  0.2983 -0.2397  0.1064
  173MPD1    C2 2688   3.698   2.077  14.386  0.0992  0.6200 -0.1398
  173MPD1    C3 2689   3.637   2.196  14.352  0.6410 -0.0365 -0.4451
  173MPD1    C4 2690   3.712   2.306  14.342 -0.1465 -0.8928 -0.0421
  173MPD1    C5 2691   3.840   2.313  14.373  0.2483  0.4368 -0.4165
  173MPD1     H 2692   3.634   1.989  14.389  1.5824 -0.4019  2.2913
  173MPD1    H1 2693   3.653   2.396  14.326  0.1997 -0.3237  1.8219
  173MPD1    H2 2694   4.012   2.209  14.435  0.0575 -1.1780  0.7647
  173MPD1    H3 2695   3.887   2.411  14.360 -1.6470  1.4659  0.5504
  173MPD1     N 2696   3.499   2.182  14.322  0.1379 -0.2649 -0.4546
  173MPD1    H5 2697   3.467   2.086  14.330  0.6385 -0.3463  0.5951
  173MPD1    N1 2698   3.900   1.959  14.431 -0.3080 -0.0319 -0.4528
  173MPD1    H6 2699   3.987   1.969  14.482  0.4793 -0.5447 -1.7160
  173MPD1    H7 2700   3.841   1.887  14.473 -1.9128  1.4965 -0.0994
  174MPD1     C 2701   3.147   1.478  13.867  0.0769 -0.4597 -0.3329
  174MPD1    C1 2702   3.051   1.530  13.953  0.6271  0.3930 -0.0934
  174MPD1    C2 2703   3.071   1.654  14.013 -0.0768 -0.1652  0.4410
  174MPD1    C3 2704   3.187   1.722  13.994  0.1773  0.2592  1.2896
  174MPD1    C4 2705   3.278   1.671  13.908  0.2141  0.4090  0.0872
  174MPD1    C5 2706   3.256   1.557  13.837  0.3357  0.2359 -0.6592
  174MPD1     H 2707   2.987   1.700  14.065 -0.3088 -0.9063  0.7283
  174MPD1    H1 2708   3.370   1.727  13.896  0.4128  0.4552  1.7470
  174MPD1    H2 2709   3.132   1.382  13.820  1.0130 -0.0134 -1.5108
  174MPD1    H3 2710   3.325   1.510  13.768  0.5374 -2.3815  1.3383
  174MPD1     N 2711   3.221   1.844  14.063  0.5877 -0.6345  0.0310
  174MPD1    H5 2712   3.301   1.897  14.029 -1.5875  0.5821 -3.1761
  174MPD1    N1 2713   2.929   1.456  13.960  0.4493 -0.8728  0.2704
  174MPD1    H6 2714   2.865   1.479  14.036 -1.4761 -0.5962 -1.4464
  174MPD1    H7 2715   2.932   1.357  13.937  0.7335 -1.1056  1.2929
  175MPD1     C 2716   1.989   3.569  15.871  0.8798  0.0790 -0.0749
  175MPD1    C1 2717   2.002   3.435  15.857 -0.3846 -0.0198  0.6719
  175MPD1    C2 2718   1.968   3.350  15.967 -0.5942  0.2345  0.0665
  175MPD1    C3 2719   1.896   3.392  16.076 -0.2363  0.3920  0.5530
  175MPD1    C4 2720   1.870   3.528  16.074 -0.4986  0.4649  0.2925
  175MPD1    C5 2721   1.907   3.610  15.969 -0.7230 -0.2214  0.0755
  175MPD1     H 2722   2.004   3.249  15.953 -4.4711 -0.9091 -1.6380
  175MPD1    H1 2723   1.811   3.565  16.158 -1.0286  1.3650 -0.4696
  175MPD1    H2 2724   2.019   3.638  15.792 -0.3844  0.0881 -0.5364
  175MPD1    H3 2725   1.895   3.717  15.977  1.1949  0.2178 -3.0846
  175MPD1     N 2726   1.851   3.318  16.187 -0.0736  0.1780  0.0444
  175MPD1    H5 2727   1.785   3.357  16.254  1.1325  0.5947  0.9804
  175MPD1    N1 2728   2.066   3.380  15.746 -0.0731 -0.8355 -0.5906
  175MPD1    H6 2729   2.041   3.283  15.724  1.7929 -0.8832 -2.5095
  175MPD1    H7 2730   2.053   3.440  15.666 -0.6508  0.0502  0.1672
  176MPD1     C 2731   3.482   0.392  17.461 -0.9008  0.6950  0.3826
  176MPD1    C1 2732   3.481   0.490  17.370  0.9019  0.2848 -0.3620
  176MPD1    C2 2733   3.540   0.606  17.401 -0.0764  0.0181  0.5652
  176MPD1    C3 2734   3.613   0.620  17.518 -0.0912  0.6341  0.4222
  176MPD1    C4 2735   3.634   0.505  17.596 -0.4018  0.8159 -0.2919
  176MPD1    C5 2736   3.561   0.392  17.568  0.1101  0.0082  0.4142
  176MPD1     H 2737   3.523   0.685  17.328 -0.2533 -0.4838  0.0616
  176MPD1    H1 2738   3.711   0.514  17.672 -0.3178 -0.9227 -0.1859
  176MPD1    H2 2739   3.421   0.303  17.446  1.8672 -0.8774 -1.5572
  176MPD1    H3 2740   3.580   0.303  17.627  2.9417 -0.6267 -1.4725
  176MPD1     N 2741   3.675   0.748  17.549 -0.4188  0.4379  0.4160
  176MPD1    H5 2742   3.679   0.818  17.475 -0.6612 -1.5346 -1.4630
  176MPD1    N1 2743   3.391   0.480  17.262  0.1718  0.3427 -0.8356
  176MPD1    H6 2744   3.378   0.382  17.238  0.2760  0.2980 -0.7075
  176MPD1    H7 2745   3.411   0.523  17.171  3.0694 -0.3179 -0.5249
  177MPD1     C 2746   2.463   0.607   9.292  0.0549  0.8595  0.4645
  177MPD1    C1 2747   2.408   0.530   9.392  0.1262  0.3637  1.0962
  177MPD1    C2 2748   2.289   0.580   9.438  0.6843  1.1481  0.1556
  177MPD1    C3 2749   2.211   0.681   9.371  0.3113  0.5537  0.0603
  177MPD1    C4 2750   2.275   0.754   9.272  0.1302 -0.9446 -0.1553
  177MPD1    C5 2751   2.404   0.720   9.242  0.2886  1.1289  0.5813
  177MPD1     H 2752   2.253   0.524   9.523 -0.2038 -0.5428 -1.3276
  177MPD1    H1 2753   2.226   0.842   9.233  1.5987  1.0667  2.4877
  177MPD1    H2 2754   2.559   0.587   9.246 -0.9749  0.5934 -1.5721
  177MPD1    H3 2755   2.453   0.784   9.169 -1.6095  0.9496 -0.8615
  177MPD1     N 2756   2.075   0.706   9.398 -0.0434 -0.6926  0.1821
  177MPD1    H5 2757   2.023   0.640   9.456 -0.5110  0.5607  1.1869
  177MPD1    N1 2758   2.480   0.425   9.460  0.7232  0.5184  0.3654
  177MPD1    H6 2759   2.555   0.376   9.413 -1.3014 -1.4312 -0.8236
  177MPD1    H7 2760   2.404   0.363   9.488  0.6350 -0.7790 -2.7390
  178MPD1     C 2761   3.918   0.985   0.452  0.4399 -0.4527 -0.6642
  178MPD1    C1 2762   4.036   1.050   0.432  0.4186 -0.9343 -0.1367
  178MPD1    C2 2763   4.125   0.996   0.336 -0.0202  0.6058  0.2496
  178MPD1    C3 2764   4.091   0.882   0.263  0.0777 -0.2644  0.2271
  178MPD1    C4 2765   3.973   0.814   0.288  0.0351  0.5021 -0.2809
  178MPD1    C5 2766   3.887   0.872   0.383 -0.1795 -0.1610 -0.2886
  178MPD1     H 2767   4.215   1.054   0.326 -0.5060  1.4555  0.7549
  178MPD1    H1 2768   3.948   0.720   0.240 -1.3204 -0.1731  1.7833
  178MPD1    H2 2769   3.854   1.009   0.536  1.6884 -0.2811  0.2442
  178MPD1    H3 2770   3.800   0.813   0.408  0.9413 -1.3388  0.8062
  178MPD1     N 2771   4.171   0.839   0.155  0.4695 -0.3604  0.5454
  178MPD1    H5 2772   4.138   0.755   0.107  0.8630  0.5999 -1.3920
  178MPD1    N1 2773   4.070   1.153   0.521  0.0391 -0.1416  0.8994
  178MPD1    H6 2774   3.989   1.206   0.552 -0.5075  0.3155 -1.3561
  178MPD1    H7 2775   4.123   1.221   0.467  0.1636  0.6431  2.0111
  179MPD1     C 2776   4.169   3.553  15.397 -0.7651 -0.1297  0.4391
  179MPD1    C1 2777   4.150   3.558  15.535 -0.1484 -0.7275  0.0392
  179MPD1    C2 2778   4.041   3.621  15.591 -0.2479 -0.2894 -0.9824
  179MPD1    C3 2779   3.954   3.683  15.507 -0.0233 -0.2175  0.5150
  179MPD1    C4 2780   3.987   3.691  15.369 -0.3667 -0.6348  0.1409
  179MPD1    C5 2781   4.083   3.617  15.318 -0.4813  0.8467  0.6357
  179MPD1     H 2782   4.027   3.606  15.698  1.3580  2.1900 -0.4041
  179MPD1    H1 2783   3.922   3.747  15.303 -0.3463  0.4613  1.0336
  179MPD1    H2 2784   4.258   3.514  15.348 -0.4196 -1.5316  2.1545
  179MPD1    H3 2785   4.111   3.617  15.213 -0.8297 -2.2745  0.5349
  179MPD1     N 2786   3.835   3.749  15.556 -0.2000  0.8436  0.8398
  179MPD1    H5 2787   3.790   3.811  15.490 -1.6350 -0.4924  0.5607
  179MPD1    N1 2788   4.245   3.495  15.616  0.0650 -0.3366  0.4289
  179MPD1    H6 2789   4.247   3.539  15.708  1.6732  0.9321 -0.2111
  179MPD1    H7 2790   4.341   3.508  15.586 -0.4189 -1.7840 -1.7612
  180MPD1     C 2791   2.535   0.885  14.224  0.6127 -0.4827 -0.0095
  180MPD1    C1 2792   2.645   0.928  14.295  0.1660  0.4321  0.0320
  180MPD1    C2 2793   2.704   0.832  14.377  0.8230  0.0299 -0.2621
  180MPD1    C3 2794   2.653   0.704  14.387 -0.7986 -0.7666  0.0101
  180MPD1    C4 2795   2.533   0.667  14.325  0.7649 -0.2071  0.4530
  180MPD1    C5 2796   2.488   0.756  14.232 -0.2990  0.4299 -0.0574
  180MPD1     H 2797   2.797   0.849  14.432  0.0470  2.1952  0.3548
  180MPD1    H1 2798   2.490   0.567  14.331  0.0652  0.0117 -0.7352
  180MPD1    H2 2799   2.498   0.951  14.146  0.8218 -1.1263 -0.6556
  180MPD1    H3 2800   2.411   0.734  14.159 -0.9637 -1.3514  1.1993
  180MPD1     N 2801   2.718   0.617  14.480  0.8550 -0.5682  0.2248
  180MPD1    H5 2802   2.789   0.657  14.540  1.2130 -1.5259  0.4400
  180MPD1    N1 2803   2.697   1.062  14.288 -0.4294 -0.0107  0.3088
  180MPD1    H6 2804   2.733   1.097  14.377  1.4330  0.9198 -0.8017
  180MPD1    H7 2805   2.640   1.126  14.234  1.0265  2.2228  1.3949
  181MPD1     C 2806   0.351   3.234  10.371  0.5363 -0.3722  0.4448
  181MPD1    C1 2807   0.381   3.103  10.383  0.1849  0.0872 -0.1886
  181MPD1    C2 2808   0.519   3.063  10.377 -0.3881 -0.7496  0.0653
  181MPD1    C3 2809   0.622   3.161  10.378  0.0292 -0.1412  0.8856
  181MPD1    C4 2810   0.582   3.296  10.371  0.1683  0.5703  0.2160
  181MPD1    C5 2811   0.452   3.326  10.377  0.2759  0.9701 -0.0648
  181MPD1     H 2812   0.538   2.956  10.381  0.5757 -0.6109 -0.7344
  181MPD1    H1 2813   0.656   3.374  10.354 -0.0549  0.2096 -2.4182
  181MPD1    H2 2814   0.249   3.270  10.374  0.0704 -1.6629  0.1830
  181MPD1    H3 2815   0.425   3.431  10.377  0.0394  0.9152 -1.5768
  181MPD1     N 2816   0.759   3.131  10.365 -0.2155  0.0604 -0.7436
  181MPD1    H5 2817   0.821   3.210  10.355  1.5769 -0.9877  1.8306
  181MPD1    N1 2818   0.278   3.012  10.361  0.7078  0.1737  0.1527
  181MPD1    H6 2819   0.191   3.036  10.408  0.1184  3.0879 -2.4462
  181MPD1    H7 2820   0.303   2.918  10.392 -0.8160 -0.0540  0.6871
  182MPD1     C 2821   1.902   0.881   1.385  0.8093  0.3433 -0.5496
  182MPD1    C1 2822   1.843   1.003   1.420 -0.6136 -0.3629 -0.1020
  182MPD1    C2 2823   1.764   1.075   1.336 -0.5203 -0.0768  0.3922
  182MPD1    C3 2824   1.735   1.017   1.210  0.3359  0.6755 -0.3601
  182MPD1    C4 2825   1.774   0.890   1.180  0.6897  0.3873  0.0170
  182MPD1    C5 2826   1.863   0.821   1.270 -0.1512  0.0729 -0.4099
  182MPD1     H 2827   1.714   1.166   1.366  0.6447  0.7705 -0.2667
  182MPD1    H1 2828   1.760   0.853   1.079  0.2515 -0.7703  0.4969
  182MPD1    H2 2829   1.966   0.827   1.454  2.1036  0.4379 -1.6594
  182MPD1    H3 2830   1.893   0.721   1.241  1.4173  0.4566 -0.1159
  182MPD1     N 2831   1.646   1.077   1.115  0.5601  0.7346 -0.0668
  182MPD1    H5 2832   1.630   1.029   1.026  0.1128  2.1722 -0.7601
  182MPD1    N1 2833   1.875   1.061   1.544 -0.5230 -0.4191  0.0606
  182MPD1    H6 2834   1.856   1.161   1.538  0.4954 -0.2588 -0.3983
  182MPD1    H7 2835   1.971   1.039   1.570 -0.0157  2.3514  0.5479
  183MPD1     C 2836   1.194   1.846   9.075  0.2400 -0.1696 -0.2818
  183MPD1    C1 2837   1.316   1.903   9.104  0.1643 -0.3620  0.6389
  183MPD1    C2 2838   1.424   1.821   9.109 -0.6457 -0.7166 -0.5886
  183MPD1    C3 2839   1.422   1.701   9.045 -0.0202 -0.0270  0.3574
  183MPD1    C4 2840   1.295   1.648   9.016  0.1202 -0.2327  0.2247
  183MPD1    C5 2841   1.181   1.722   9.020 -0.9702 -0.7375 -0.1998
  183MPD1     H 2842   1.521   1.858   9.141 -2.2878  2.6022  0.4446
  183MPD1    H1 2843   1.282   1.550   8.972 -0.2508 -0.4665  0.8460
  183MPD1    H2 2844   1.103   1.905   9.081  0.2563  0.0274 -1.8231
  183MPD1    H3 2845   1.082   1.688   8.993 -1.1126 -0.8164  0.4283
  183MPD1     N 2846   1.541   1.623   9.046  0.3942  0.1581  0.6006
  183MPD1    H5 2847   1.621   1.669   9.086 -0.5003  0.2439  2.2669
  183MPD1    N1 2848   1.327   2.031   9.169  0.1345  0.2200  0.0116
  183MPD1    H6 2849   1.246   2.092   9.163 -1.2731 -1.6919 -0.5578
  183MPD1    H7 2850   1.413   2.075   9.138  0.0139 -0.1207 -0.8153
  184MPD1     C 2851   0.712   0.786  10.463 -0.7674 -0.3093 -0.2372
  184MPD1    C1 2852   0.599   0.759  10.387 -0.3886  0.0250 -0.3536
  184MPD1    C2 2853   0.620   0.739  10.248  0.1473 -0.2630 -0.1643
  184MPD1    C3 2854   0.743   0.768  10.189  0.3257  0.0933  0.4132
  184MPD1    C4 2855   0.851   0.809  10.270  0.9002  0.2612 -0.6287
  184MPD1    C5 2856   0.835   0.803  10.407 -0.0900 -0.1421 -0.1649
  184MPD1     H 2857   0.536   0.696  10.194 -0.0565 -0.9323  0.6762
  184MPD1    H1 2858   0.952   0.827  10.236  1.3160 -0.0900  0.4407
  184MPD1    H2 2859   0.716   0.777  10.570 -0.3678  0.4457 -0.1832
  184MPD1    H3 2860   0.918   0.814  10.476 -1.6824  2.3456  1.3313
  184MPD1     N 2861   0.777   0.748  10.051 -0.1911 -0.2896 -0.9331
  184MPD1    H5 2862   0.875   0.759  10.031 -0.0902 -3.4742 -2.1802
  184MPD1    N1 2863   0.473   0.723  10.440 -0.4639 -0.5134 -0.1594
  184MPD1    H6 2864   0.387   0.749  10.393 -0.3886 -3.0168 -1.7025
  184MPD1    H7 2865   0.458   0.760  10.534  1.6973  1.7967 -0.7411
  185MPD1     C 2866   0.405   0.090   9.362 -0.2836 -0.0176  0.2856
  185MPD1    C1 2867   0.443   0.208   9.296 -0.1136  0.7138  0.2056
  185MPD1    C2 2868   0.517   0.305   9.368  0.1849 -0.4515  0.1664
  185MPD1    C3 2869   0.553   0.290   9.500  0.1346 -0.2156 -0.1319
  185MPD1    C4 2870   0.515   0.173   9.563  0.5393  0.0164  0.5638
  185MPD1    C5 2871   0.445   0.073   9.493  0.2543  0.0523 -0.1179
  185MPD1     H 2872   0.566   0.386   9.315 -0.1606  0.9805  2.0591
  185MPD1    H1 2873   0.529   0.164   9.670 -0.4294  0.5095  0.7277
  185MPD1    H2 2874   0.351   0.005   9.321  1.2672 -1.7723  1.8631
  185MPD1    H3 2875   0.409   4.723   9.548  1.4275 -0.4166 -0.0994
  185MPD1     N 2876   0.615   0.389   9.579 -0.5325  0.6644 -0.1730
  185MPD1    H5 2877   0.613   0.370   9.679  0.5886  0.2131 -0.2318
  185MPD1    N1 2878   0.432   0.217   9.153  0.1108 -0.3728 -0.5750
  185MPD1    H6 2879   0.439   0.313   9.120 -0.0759 -0.2629 -0.2943
  185MPD1    H7 2880   0.344   0.176   9.123 -0.2690 -0.5450  0.7906
  186MPD1     C 2881   4.115   3.983  15.679  0.5099  0.4602 -0.0913
  186MPD1    C1 2882   4.209   3.934  15.771  0.0261  0.2980 -0.0510
  186MPD1    C2 2883   4.234   4.018  15.879  0.0192 -0.5875 -0.0833
  186MPD1    C3 2884   4.178   4.147  15.892  0.1811 -0.0655 -0.1878
  186MPD1    C4 2885   4.101   4.197  15.790 -0.5461 -0.4250  0.0140
  186MPD1    C5 2886   4.072   4.108  15.691 -0.7886 -0.4186  0.2991
  186MPD1     H 2887   4.297   3.984  15.961  3.1018  0.4568 -1.9974
  186MPD1    H1 2888   4.068   4.299  15.776 -0.6172 -0.5159 -0.4983
  186MPD1    H2 2889   4.069   3.922  15.602 -0.1889  0.7997  0.0558
  186MPD1    H3 2890   4.001   4.138  15.614  2.0044  1.2986 -1.6104
  186MPD1     N 2891   4.190   4.226  16.006 -0.2914  0.2114 -0.1576
  186MPD1    H5 2892   4.154   4.321  16.002 -0.0475  0.3494  0.8758
  186MPD1    N1 2893   4.243   3.796  15.780 -0.2219  0.2823 -0.6696
  186MPD1    H6 2894   4.243   3.755  15.687 -1.2366  0.7766 -0.8857
  186MPD1    H7 2895   4.336   3.788  15.821  0.0535  2.4298 -0.8629
  187MPD1     C 2896   4.031   2.049   0.337 -0.2478  0.1821  0.2024
  187MPD1    C1 2897   3.949   1.938   0.349  0.6198  0.3015 -0.4854
  187MPD1    C2 2898   3.871   1.905   0.239  0.1233 -0.3835 -0.0614
  187MPD1    C3 2899   3.884   1.969   0.108 -1.0492  0.3757  0.2642
  187MPD1    C4 2900   3.957   2.085   0.107 -0.4584  0.8456  0.1848
  187MPD1    C5 2901   4.027   2.122   0.221  0.5256 -0.2043 -0.0294
  187MPD1     H 2902   3.815   1.812   0.234 -0.3261 -0.1177  0.0032
  187MPD1    H1 2903   3.962   2.142   0.014  1.5122 -1.5691 -1.1948
  187MPD1    H2 2904   4.083   2.096   0.420 -0.8671 -1.0899  1.2942
  187MPD1    H3 2905   4.081   2.215   0.210 -0.3102  0.2207 -0.5708
  187MPD1     N 2906   3.823   1.937  17.728 -1.3844 -0.8958 -0.4367
  187MPD1    H5 2907   3.841   2.006  17.656 -0.7988 -0.8930 -0.2933
  187MPD1    N1 2908   3.911   1.894   0.471  0.0559 -0.2593  0.4754
  187MPD1    H6 2909   3.999   1.880   0.521 -0.0819 -2.5010  0.0665
  187MPD1    H7 2910   3.865   1.804   0.459 -0.3466  0.1194 -0.7185
  188MPD1     C 2911   3.110   1.413  10.418 -0.4521  0.0864  0.6761
  188MPD1    C1 2912   3.232   1.367  10.453 -0.0241  0.4036 -0.1935
  188MPD1    C2 2913   3.263   1.237  10.434 -0.1338 -0.8719 -0.3299
  188MPD1    C3 2914   3.181   1.148  10.360 -0.4635  0.2873 -0.0581
  188MPD1    C4 2915   3.065   1.203  10.308  0.1858 -0.7520  0.4840
  188MPD1    C5 2916   3.035   1.335  10.335 -0.4268 -0.3102  0.7779
  188MPD1     H 2917   3.353   1.210  10.488 -0.4016 -1.0157  0.0441
  188MPD1    H1 2918   3.006   1.155  10.231 -0.3461  0.0400  0.4032
  188MPD1    H2 2919   3.081   1.517  10.423  3.7305  1.1521  3.3395
  188MPD1    H3 2920   2.949   1.378  10.285  0.8661  0.7807 -0.5031
  188MPD1     N 2921   3.195   1.007  10.358  0.0321  0.1126 -0.0639
  188MPD1    H5 2922   3.123   0.956  10.309 -0.6052  0.4114  0.5729
  188MPD1    N1 2923   3.313   1.444  10.532  0.3225 -0.2587 -0.4108
  188MPD1    H6 2924   3.411   1.419  10.520  0.4997 -1.2167  3.0024
  188MPD1    H7 2925   3.315   1.543  10.507  1.6289 -0.7598 -2.3179
  189MPD1     C 2926   0.427   2.035   0.735  0.0716  0.0959 -0.2335
  189MPD1    C1 2927   0.312   2.015   0.804 -0.3152  0.4166 -0.8775
  189MPD1    C2 2928   0.221   2.112   0.793  0.4030  0.2203 -0.5270
  189MPD1    C3 2929   0.243   2.228   0.730 -0.3289 -0.5387  0.1375
  189MPD1    C4 2930   0.366   2.260   0.680 -0.3849  0.7278  0.1016
  189MPD1    C5 2931   0.462   2.158   0.678 -0.3231  0.0098  0.4682
  189MPD1     H 2932   0.125   2.107   0.843  0.0938  2.4498 -0.8902
  189MPD1    H1 2933   0.381   2.355   0.631  0.6927 -0.7186 -2.3862
  189MPD1    H2 2934   0.514   1.970   0.735 -0.3545 -0.4823  0.0869
  189MPD1    H3 2935   0.552   2.172   0.620 -0.1808  0.3302  0.7649
  189MPD1     N 2936   0.131   2.310   0.711  0.4605 -0.7293 -0.0919
  189MPD1    H5 2937   0.041   2.264   0.703 -0.1558 -0.1142  3.0591
  189MPD1    N1 2938   0.278   1.890   0.856 -0.6335 -0.3616 -0.3816
  189MPD1    H6 2939   0.213   1.904   0.934 -1.8247  0.0611 -1.4556
  189MPD1    H7 2940   0.356   1.833   0.890  0.0277  0.3025 -0.7960
  190MPD1     C 2941   3.422   1.307  15.597  0.2186 -0.4036 -0.0368
  190MPD1    C1 2942   3.472   1.241  15.489 -0.7668 -0.4503  0.9040
  190MPD1    C2 2943   3.560   1.138  15.519  0.2882  0.0471  0.6728
  190MPD1    C3 2944   3.571   1.089  15.645  0.1346  0.0617  0.1007
  190MPD1    C4 2945   3.513   1.151  15.753  0.4055 -0.3557  0.3110
  190MPD1    C5 2946   3.440   1.261  15.722 -0.0841 -0.5187 -0.5858
  190MPD1     H 2947   3.623   1.091  15.444  0.5152  2.0280 -0.3988
  190MPD1    H1 2948   3.522   1.118  15.855 -1.8618  1.4864  1.1076
  190MPD1    H2 2949   3.369   1.401  15.586  1.5247  0.2763 -0.5914
  190MPD1    H3 2950   3.404   1.310  15.812  1.5061  0.3190 -0.4266
  190MPD1     N 2951   3.646   0.976  15.668 -0.3286  0.4358  0.5262
  190MPD1    H5 2952   3.694   0.931  15.591  0.9916  1.2623  0.8785
  190MPD1    N1 2953   3.461   1.298  15.362 -0.5394  0.1340 -0.0936
  190MPD1    H6 2954   3.364   1.327  15.350 -0.7338 -0.6070 -0.3228
  190MPD1    H7 2955   3.478   1.227  15.291 -0.1567  0.4320 -0.2966
  191MPD1     C 2956   3.195   2.211  12.938  0.0103 -0.0453  0.7169
  191MPD1    C1 2957   3.115   2.314  12.895 -0.5731  0.2762  0.3016
  191MPD1    C2 2958   3.158   2.397  12.792  0.4216 -0.2848 -0.3197
  191MPD1    C3 2959   3.276   2.375  12.724  0.5008 -0.7768 -0.2335
  191MPD1    C4 2960   3.349   2.260  12.754 -0.3016 -0.4924  0.2427
  191MPD1    C5 2961   3.303   2.177  12.860 -0.6419 -0.6350 -0.7619
  191MPD1     H 2962   3.091   2.479  12.769  0.1430  0.1363  1.9934
  191MPD1    H1 2963   3.444   2.229  12.714  0.2774  2.6624 -0.8497
  191MPD1    H2 2964   3.169   2.150  13.024  2.6386 -0.5391  1.1583
  191MPD1    H3 2965   3.362   2.088  12.875 -1.3873 -1.3012 -1.8153
  191MPD1     N 2966   3.318   2.477  12.632  0.1290  0.8827 -0.2411
  191MPD1    H5 2967   3.253   2.553  12.614 -2.5968 -1.3945  0.0720
  191MPD1    N1 2968   3.005   2.356  12.976 -0.1484  0.1257  0.1317
  191MPD1    H6 2969   2.930   2.410  12.934 -0.2919  0.6453  1.0486
  191MPD1    H7 2970   2.949   2.280  13.013  2.1103 -2.2494 -1.3360
  192MPD1     C 2971   2.859   2.976  12.127 -0.2803  0.2363  0.7048
  192MPD1    C1 2972   2.956   2.893  12.069  0.1321  0.3171 -0.3982
  192MPD1    C2 2973   3.066   2.866  12.150 -0.1929  0.5735  0.2074
  192MPD1    C3 2974   3.076   2.911  12.278  0.5559 -0.6728 -0.1158
  192MPD1    C4 2975   2.983   2.994  12.334 -0.7685 -0.4434 -0.2344
  192MPD1    C5 2976   2.873   3.025  12.257 -0.7398 -0.0962  0.4898
  192MPD1     H 2977   3.146   2.809  12.105  0.0350  1.2255 -0.2133
  192MPD1    H1 2978   3.001   3.040  12.430  0.3547 -0.1381 -0.5862
  192MPD1    H2 2979   2.762   2.995  12.084 -0.6027 -2.4074  0.2416
  192MPD1    H3 2980   2.792   3.085  12.296 -1.8516 -0.2875 -1.5413
  192MPD1     N 2981   3.193   2.881  12.356 -0.5635 -0.1465 -0.1941
  192MPD1    H5 2982   3.177   2.893  12.456  2.7674 -2.3457  0.6138
  192MPD1    N1 2983   2.953   2.849  11.931 -0.8466  0.6726  0.5100
  192MPD1    H6 2984   2.857   2.834  11.901 -0.7761 -1.7099  1.4693
  192MPD1    H7 2985   2.992   2.755  11.922 -0.7548  0.7795 -0.1954
  193MPD1     C 2986   3.385   2.501  17.728  0.0874  0.1412  0.2695
  193MPD1    C1 2987   3.279   2.592  17.713 -0.3860 -0.1613 -0.2127
  193MPD1    C2 2988   3.286   2.684  17.610 -1.1656  0.3691 -0.8978
  193MPD1    C3 2989   3.398   2.679  17.516 -0.4047 -0.7560 -0.2056
  193MPD1    C4 2990   3.509   2.603  17.550  0.0717 -0.6387  0.9833
  193MPD1    C5 2991   3.493   2.511  17.650 -0.0987 -0.1788 -1.3340
  193MPD1     H 2992   3.205   2.756  17.606 -1.7498 -0.1404  1.5270
  193MPD1    H1 2993   3.596   2.611  17.485 -1.2871 -1.9878 -1.0247
  193MPD1    H2 2994   3.384   2.432   0.068 -0.7161  0.3982  0.4738
  193MPD1    H3 2995   3.573   2.443  17.678  0.3337  0.9438  0.1490
  193MPD1     N 2996   3.401   2.764  17.406  0.2889  0.6062  0.3787
  193MPD1    H5 2997   3.484   2.761  17.346 -0.1087 -2.0733 -0.0269
  193MPD1    N1 2998   3.178   2.611   0.065 -0.2783  0.2151  0.0679
  193MPD1    H6 2999   3.094   2.653   0.027 -0.0701  1.1048  0.6069
  193MPD1    H7 3000   3.144   2.530   0.118  0.3249  0.7189  1.2229
  194MPD1     C 3001   0.030   0.246  17.414  0.0668 -0.4263  0.1368
  194MPD1    C1 3002   0.149   0.229  17.342 -0.0057 -0.2912  0.3512
  194MPD1    C2 3003   0.230   0.119  17.374 -0.5237 -1.4047  0.0702
  194MPD1    C3 3004   0.188   0.023  17.462 -0.9305 -0.0198  0.2971
  194MPD1    C4 3005   0.070   0.044  17.529 -0.1254  0.3506 -0.2991
  194MPD1    C5 3006   4.722   0.146  17.501  0.6011  0.5480  0.1739
  194MPD1     H 3007   0.328   0.108  17.329 -1.1494 -1.7746 -1.1999
  194MPD1    H1 3008   0.033   4.707  17.600  0.5019  0.8442  0.5354
  194MPD1    H2 3009   4.700   0.331  17.401 -0.4130 -0.8088  0.0807
  194MPD1    H3 3010   4.624   0.154  17.547  1.6666  1.0509  2.3518
  194MPD1     N 3011   0.260   4.641  17.492  0.2526 -0.1071 -0.5766
  194MPD1    H5 3012   0.240   4.590  17.576 -1.6118  1.7636  0.1222
  194MPD1    N1 3013   0.198   0.334  17.260  0.0824 -0.0102 -0.1423
  194MPD1    H6 3014   0.124   0.384  17.211  1.3186  2.4741  0.5520
  194MPD1    H7 3015   0.260   0.301  17.186  1.4247  0.3381  0.8375
  195MPD1     C 3016   3.106   2.459   0.463  0.0025  0.6421  0.1241
  195MPD1    C1 3017   3.030   2.377   0.550 -0.1529 -0.2681  0.2540
  195MPD1    C2 3018   3.027   2.241   0.533 -0.6718 -0.5637  0.0223
  195MPD1    C3 3019   3.116   2.186   0.443 -0.4877  0.3304  0.2110
  195MPD1    C4 3020   3.186   2.268   0.356 -0.3005 -0.6153  0.6157
  195MPD1    C5 3021   3.186   2.399   0.369 -0.1482 -0.7998  0.2115
  195MPD1     H 3022   2.948   2.179   0.574 -0.6835 -1.6782 -1.6872
  195MPD1    H1 3023   3.258   2.223   0.289  0.8305 -1.6589  2.5231
  195MPD1    H2 3024   3.109   2.567   0.474 -2.6157  0.8097 -0.8279
  195MPD1    H3 3025   3.244   2.472   0.314 -1.9513  1.0374  0.7437
  195MPD1     N 3026   3.138   2.041   0.429  0.0999  0.3270 -0.1455
  195MPD1    H5 3027   3.192   2.010   0.349 -2.4084 -2.3637 -0.7722
  195MPD1    N1 3028   2.948   2.439   0.647  0.4310 -0.8885 -0.2838
  195MPD1    H6 3029   2.907   2.371   0.711 -1.0497  0.5845  0.3341
  195MPD1    H7 3030   2.987   2.512   0.706  0.8276 -2.8354  1.8466
  196MPD1     C 3031   1.920   0.314  17.536  0.0128  0.6309  0.1860
  196MPD1    C1 3032   1.953   0.438  17.495 -0.6200  0.4959  0.2206
  196MPD1    C2 3033   2.001   0.530  17.590  0.9693  0.0234 -0.3273
  196MPD1    C3 3034   2.011   0.490  17.727  0.0708 -0.1140 -0.0571
  196MPD1    C4 3035   1.970   0.366   0.011 -0.3349  0.3269  0.1030
  196MPD1    C5 3036   1.921   0.277  17.664  0.5061  0.2748 -0.5724
  196MPD1     H 3037   2.037   0.627  17.559  0.2441  0.5032  0.3381
  196MPD1    H1 3038   1.979   0.335   0.114  1.8254  0.9990  0.1003
  196MPD1    H2 3039   1.885   0.234  17.472  2.5639 -0.2026 -0.2029
  196MPD1    H3 3040   1.890   0.177  17.691 -1.8547  1.1164 -0.1528
  196MPD1     N 3041   2.065   0.569   0.092 -0.1269 -0.2017 -0.8244
  196MPD1    H5 3042   2.077   0.530   0.185  0.2402  1.9685  0.0580
  196MPD1    N1 3043   1.970   0.463  17.357  0.0807  0.1228 -0.8875
  196MPD1    H6 3044   1.919   0.399  17.296  0.7384 -0.0606 -1.2399
  196MPD1    H7 3045   1.947   0.557  17.326  0.6114  0.5203 -0.0742
  197MPD1     C 3046   1.721   3.583   0.385  0.5835 -0.4907  0.0655
  197MPD1    C1 3047   1.734   3.705   0.319 -0.1752 -0.6258 -0.4174
  197MPD1    C2 3048   1.796   3.697   0.196  0.3405 -0.2318  0.1206
  197MPD1    C3 3049   1.870   3.592   0.150 -0.5000  0.4013  0.2169
  197MPD1    C4 3050   1.863   3.474   0.223  0.0580  0.2129 -0.2854
  197MPD1    C5 3051   1.790   3.472   0.338 -0.7039  0.8590  0.2671
  197MPD1     H 3052   1.821   3.787   0.142 -0.0350 -0.8290 -1.0483
  197MPD1    H1 3053   1.919   3.388   0.188  0.5751 -0.6454  2.6507
  197MPD1    H2 3054   1.665   3.567   0.476 -1.2197  1.7655 -0.6691
  197MPD1    H3 3055   1.784   3.377   0.390 -0.6347  1.0763  0.6702
  197MPD1     N 3056   1.943   3.610   0.027 -0.2081 -0.3370  0.6647
  197MPD1    H5 3057   1.940   3.698  17.721 -0.4628 -1.6252 -1.5631
  197MPD1    N1 3058   1.667   3.826   0.358 -0.4643  0.2785  0.3880
  197MPD1    H6 3059   1.705   3.912   0.318  0.3886 -0.1093  0.3615
  197MPD1    H7 3060   1.657   3.839   0.458 -1.7702 -1.9450  0.5471
  198MPD1     C 3061   2.904   1.968  15.555 -0.0127 -0.1474  0.5243
  198MPD1    C1 3062   3.004   1.920  15.470 -0.1627 -0.0128 -0.0370
  198MPD1    C2 3063   3.129   1.986  15.469 -0.6381 -0.7694 -0.0041
  198MPD1    C3 3064   3.162   2.081  15.569 -0.2577 -0.2488  0.2737
  198MPD1    C4 3065   3.060   2.116  15.653 -0.1714 -0.1982  0.5751
  198MPD1    C5 3066   2.938   2.067  15.643  0.2980 -0.4448 -0.3612
  198MPD1     H 3067   3.203   1.938  15.405 -0.3271 -0.1598 -0.1016
  198MPD1    H1 3068   3.078   2.196  15.724 -0.9629  2.6046 -2.4036
  198MPD1    H2 3069   2.805   1.925  15.550  1.3874 -3.3881  0.8099
  198MPD1    H3 3070   2.857   2.111  15.699 -0.5230 -0.3006 -1.6522
  198MPD1     N 3071   3.287   2.141  15.591  0.0274  0.1031 -0.0184
  198MPD1    H5 3072   3.293   2.217  15.658  0.2093  1.1687 -1.2475
  198MPD1    N1 3073   2.969   1.829  15.365  0.0181  0.1156  0.3425
  198MPD1    H6 3074   2.900   1.766  15.404 -0.5115  0.1264 -0.5733
  198MPD1    H7 3075   3.045   1.777  15.321 -0.5024 -0.2135 -0.1700
  199MPD1     C 3076   1.121   3.197  10.047 -0.7708 -0.1184  0.3129
  199MPD1    C1 3077   1.018   3.114  10.007  0.1601 -0.7736  0.2389
  199MPD1    C2 3078   0.894   3.170  10.025  0.0977 -0.4013  0.3450
  199MPD1    C3 3079   0.864   3.297  10.078 -0.0511 -0.1032 -0.0579
  199MPD1    C4 3080   0.970   3.371  10.117 -0.5861  0.2232  0.0501
  199MPD1    C5 3081   1.095   3.321  10.101  0.2484  0.6179  0.1713
  199MPD1     H 3082   0.811   3.112   9.987  1.1017 -2.5357  1.4375
  199MPD1    H1 3083   0.959   3.476  10.142  2.0846  0.6358 -0.5103
  199MPD1    H2 3084   1.222   3.187  10.008 -0.1906  0.0297  1.8026
  199MPD1    H3 3085   1.181   3.385  10.120  0.3822  0.6893 -0.6403
  199MPD1     N 3086   0.741   3.357  10.071  0.3009 -0.7675  0.0317
  199MPD1    H5 3087   0.732   3.454  10.100 -0.5924 -1.4243  1.9285
  199MPD1    N1 3088   1.031   3.009   9.917  0.1087 -0.2649  0.5165
  199MPD1    H6 3089   1.112   2.951   9.937 -1.1010 -1.7058  1.2656
  199MPD1    H7 3090   0.951   2.945   9.915  0.4569 -0.6469 -1.7478
  200MPD1     C 3091   0.211   3.221  14.736  0.2296 -0.1178 -0.0229
  200MPD1    C1 3092   0.186   3.356  14.745 -0.4160  0.3011  0.1870
  200MPD1    C2 3093   0.276   3.432  14.817 -0.1393  0.4274  0.0579
  200MPD1    C3 3094   0.382   3.367  14.875 -0.0792  0.7501  0.1331
  200MPD1    C4 3095   0.396   3.232  14.874 -0.4619 -0.1619  0.2702
  200MPD1    C5 3096   0.303   3.159  14.818  0.0725  0.0087 -0.4941
  200MPD1     H 3097   0.268   3.540  14.814 -2.9317  0.1468 -2.5179
  200MPD1    H1 3098   0.479   3.182  14.923  0.2335  0.7733  0.0561
  200MPD1    H2 3099   0.159   3.161  14.663  0.9803  1.3287 -1.7356
  200MPD1    H3 3100   0.321   3.052  14.820  4.3859  0.7300 -1.3211
  200MPD1     N 3101   0.471   3.452  14.941 -0.2241 -0.3317  0.9776
  200MPD1    H5 3102   0.463   3.550  14.919  2.7663 -0.0496  1.0364
  200MPD1    N1 3103   0.086   3.422  14.664  1.2535  0.1585 -1.0082
  200MPD1    H6 3104   0.052   3.508  14.706  1.6198 -0.1404 -0.1082
  200MPD1    H7 3105   0.004   3.364  14.647  1.8289 -0.8764 -0.2483
  201MPD1     C 3106   2.691   1.182  13.072 -1.0891 -0.2616  0.0167
  201MPD1    C1 3107   2.606   1.086  13.108 -0.3660  0.1606  0.3023
  201MPD1    C2 3108   2.578   1.072  13.245 -0.0617  0.2309  0.3878
  201MPD1    C3 3109   2.637   1.141  13.342  0.4549 -0.2238 -0.7076
  201MPD1    C4 3110   2.721   1.245  13.304 -0.3294 -0.2886  0.0665
  201MPD1    C5 3111   2.747   1.257  13.173 -0.1758  0.2550 -0.2149
  201MPD1     H 3112   2.523   0.989  13.287 -1.7589  2.0153  1.7173
  201MPD1    H1 3113   2.769   1.316  13.371  0.0918  0.1691 -0.7220
  201MPD1    H2 3114   2.714   1.206  12.969 -0.1955  1.3823  0.5952
  201MPD1    H3 3115   2.810   1.341  13.147 -1.5609  1.3444 -0.0344
  201MPD1     N 3116   2.585   1.121  13.474  0.0226 -0.4868 -0.6334
  201MPD1    H5 3117   2.521   1.043  13.482 -0.4574 -0.0456 -0.1196
  201MPD1    N1 3118   2.530   1.026  13.011  0.1486 -0.2068 -0.0976
  201MPD1    H6 3119   2.498   0.935  13.042  1.1835  0.1193  1.9218
  201MPD1    H7 3120   2.583   1.012  12.926  2.8902  2.9377  1.0795
  202MPD1     C 3121   1.433   0.238   9.489 -0.4155 -0.1967 -0.3016
  202MPD1    C1 3122   1.433   0.302   9.375  0.1453  0.1699 -0.3318
  202MPD1    C2 3123   1.556   0.316   9.303 -0.4101 -0.1537 -0.7283
  202MPD1    C3 3124   1.674   0.290   9.375  0.6341  0.1841  0.6153
  202MPD1    C4 3125   1.668   0.228   9.501 -0.2282 -0.0231  0.5259
  202MPD1    C5 3126   1.546   0.208   9.551 -0.5140 -1.2747  0.1734
  202MPD1     H 3127   1.556   0.372   9.210  0.9186  1.7200  0.3876
  202MPD1    H1 3128   1.759   0.204   9.555 -0.6961  0.0713  1.3458
  202MPD1    H2 3129   1.343   0.202   9.539 -1.7561  0.0330 -2.5536
  202MPD1    H3 3130   1.529   0.161   9.647  0.1995 -2.7175 -0.3990
  202MPD1     N 3131   1.805   0.313   9.325  0.6150  0.8690 -0.1040
  202MPD1    H5 3132   1.880   0.279   9.384 -2.1520  0.8122  3.3626
  202MPD1    N1 3133   1.316   0.295   9.298  0.4737 -0.6790  0.5870
  202MPD1    H6 3134   1.303   0.371   9.231 -0.3156 -0.6059  0.8255
  202MPD1    H7 3135   1.237   0.310   9.360 -0.5328 -0.0734 -0.8279
  203MPD1     C 3136   1.496   2.758  12.932 -0.1175  0.4279  0.0747
  203MPD1    C1 3137   1.526   2.662  12.839 -0.3166 -0.1283 -0.0469
  203MPD1    C2 3138   1.559   2.537  12.891  0.3317 -0.5890 -0.0969
  203MPD1    C3 3139   1.536   2.510  13.027 -0.6016 -0.2480 -0.3549
  203MPD1    C4 3140   1.487   2.611  13.107  0.8297  0.2460  0.4496
  203MPD1    C5 3141   1.478   2.735  13.064 -0.6094  0.0465  0.5708
  203MPD1     H 3142   1.580   2.461  12.817 -2.2638 -1.1319 -0.2633
  203MPD1    H1 3143   1.466   2.590  13.211 -1.9912  0.9504  0.0317
  203MPD1    H2 3144   1.488   2.860  12.896 -1.4912  0.4809  0.5377
  203MPD1    H3 3145   1.437   2.817  13.122 -0.5118 -0.4028  1.2641
  203MPD1     N 3146   1.546   2.379  13.067 -0.2940 -0.0542 -0.2356
  203MPD1    H5 3147   1.565   2.319  12.987 -1.5272  0.2981 -0.7760
  203MPD1    N1 3148   1.528   2.686  12.696 -0.0731 -0.3366  0.2828
  203MPD1    H6 3149   1.483   2.764  12.648  2.4195  0.1296 -1.3113
  203MPD1    H7 3150   1.510   2.603  12.639  0.2474 -0.8244  0.8924
  204MPD1     C 3151   0.228   3.629   0.121  0.3385  0.0145 -0.3858
  204MPD1    C1 3152   0.310   3.627   0.019 -0.4518  0.4342 -0.0029
  204MPD1    C2 3153   0.416   3.539   0.009  0.4142 -0.3656 -0.4497
  204MPD1    C3 3154   0.415   3.426   0.081 -0.4896  0.1704 -0.2904
  204MPD1    C4 3155   0.334   3.412   0.188  0.0641 -0.6528 -0.0034
  204MPD1    C5 3156   0.241   3.519   0.200 -0.3516 -0.3018 -0.2527
  204MPD1     H 3157   0.486   3.547  17.670  0.0651 -0.7953 -0.7895
  204MPD1    H1 3158   0.336   3.322   0.248 -2.0031  0.2336  1.4250
  204MPD1    H2 3159   0.144   3.697   0.125  1.3357  1.1840  0.6189
  204MPD1    H3 3160   0.185   3.512   0.292  0.1400 -2.3717 -0.1267
  204MPD1     N 3161   0.506   3.327   0.045 -0.7763  0.1143 -0.3879
  204MPD1    H5 3162   0.572   3.352  17.716  0.1247  1.1507  0.7672
  204MPD1    N1 3163   0.312   3.744  17.675 -0.0625  0.2310 -0.4651
  204MPD1    H6 3164   0.353   3.726  17.584  0.4903  1.3869 -0.4418
  204MPD1    H7 3165   0.221   3.787  17.657 -0.1487  1.2570  2.3951
  205MPD1     C 3166   1.009   1.849  17.071 -0.5199 -0.3879  0.5749
  205MPD1    C1 3167   0.927   1.744  17.118 -0.2127 -0.2821  1.1933
  205MPD1    C2 3168   0.844   1.768  17.226 -0.5398 -0.4787  0.2484
  205MPD1    C3 3169   0.851   1.882  17.301  0.3292 -0.0259  0.6809
  205MPD1    C4 3170   0.943   1.979  17.264  0.1099 -0.6216 -0.1834
  205MPD1    C5 3171   1.019   1.962  17.150 -0.6481  0.1243  0.3629
  205MPD1     H 3172   0.763   1.701  17.252 -0.5954 -1.3349 -2.1642
  205MPD1    H1 3173   0.945   2.079  17.305  1.5305 -0.3424 -0.9269
  205MPD1    H2 3174   1.069   1.833  16.982  1.0688  1.1772  1.3441
  205MPD1    H3 3175   1.079   2.043  17.110  1.3099 -1.7898 -0.5781
  205MPD1     N 3176   0.768   1.918  17.412  0.0686  0.1693 -0.5484
  205MPD1    H5 3177   0.784   2.009  17.452  2.8625 -0.4562 -0.2442
  205MPD1    N1 3178   0.895   1.637  17.037 -0.1043  0.6033  0.0130
  205MPD1    H6 3179   0.973   1.612  16.977 -2.1930 -3.2174 -1.1773
  205MPD1    H7 3180   0.872   1.549  17.085  1.9324  0.7803  1.3232
  206MPD1     C 3181   0.607   0.186  17.269  0.0680 -0.1841  0.2259
  206MPD1    C1 3182   0.564   0.319  17.256  0.7097  0.2091 -0.0171
  206MPD1    C2 3183   0.552   0.368  17.128 -0.3542 -0.6873 -0.3407
  206MPD1    C3 3184   0.561   0.283  17.018  0.1585  0.4681  0.3218
  206MPD1    C4 3185   0.587   0.145  17.040 -0.2614  0.0653  0.2922
  206MPD1    C5 3186   0.612   0.100  17.160 -0.5804 -0.6642 -0.5216
  206MPD1     H 3187   0.526   0.471  17.112  0.5794  0.0288  2.6261
  206MPD1    H1 3188   0.621   0.085  16.956 -0.6637  0.3103 -0.0496
  206MPD1    H2 3189   0.634   0.146  17.366 -1.7638  0.9458  1.2029
  206MPD1    H3 3190   0.628   4.731  17.180 -0.4780 -0.5286  0.1102
  206MPD1     N 3191   0.539   0.329  16.887 -0.2424  0.1003  0.2789
  206MPD1    H5 3192   0.544   0.253  16.819 -2.5427 -0.2849  0.5247
  206MPD1    N1 3193   0.551   0.403  17.369  0.1325 -0.2486  1.1008
  206MPD1    H6 3194   0.490   0.481  17.345  1.6075 -0.2635 -2.8093
  206MPD1    H7 3195   0.507   0.345  17.440 -0.5439 -1.0178  0.0621
  207MPD1     C 3196   3.397   3.237   9.323 -0.4008 -0.4288  0.0006
  207MPD1    C1 3197   3.431   3.123   9.396  0.3650  0.1232 -0.8390
  207MPD1    C2 3198   3.528   3.141   9.493 -0.2765 -0.0161 -0.0767
  207MPD1    C3 3199   3.544   3.272   9.555  0.4627 -0.7808 -0.3623
  207MPD1    C4 3200   3.481   3.380   9.491 -0.0459 -0.7150 -0.2455
  207MPD1    C5 3201   3.414   3.361   9.375  0.3264 -0.3806  0.2499
  207MPD1     H 3202   3.585   3.055   9.525 -0.7656 -0.3812 -0.1826
  207MPD1    H1 3203   3.494   3.482   9.527  0.3549 -0.0962 -2.1679
  207MPD1    H2 3204   3.354   3.221   9.225  1.0482  0.5280 -0.7955
  207MPD1    H3 3205   3.397   3.450   9.315  0.3761 -1.2382 -1.0468
  207MPD1     N 3206   3.641   3.268   9.658 -0.3603  0.3415  0.4058
  207MPD1    H5 3207   3.673   3.182   9.700  0.0663 -0.0502 -0.7386
  207MPD1    N1 3208   3.419   2.997   9.333 -0.4393  0.1421 -0.4709
  207MPD1    H6 3209   3.415   2.912   9.389 -0.7654  1.4854  1.5178
  207MPD1    H7 3210   3.324   2.995   9.297 -0.8012  2.5243  0.3734
  208MPD1     C 3211   0.392   0.332  17.610  0.2055  0.2249 -0.1730
  208MPD1    C1 3212   0.337   0.457  17.618 -0.0927  0.7480  0.5321
  208MPD1    C2 3213   0.403   0.553  17.691  0.7191  0.1960 -0.5166
  208MPD1    C3 3214   0.527   0.529   0.004  0.2409 -0.7226 -0.4105
  208MPD1    C4 3215   0.584   0.404  17.728  0.3391 -0.7747 -0.3033
  208MPD1    C5 3216   0.512   0.309  17.673 -0.3228 -0.2735  0.1848
  208MPD1     H 3217   0.357   0.649  17.707 -0.3983 -0.2627 -1.0042
  208MPD1    H1 3218   0.674   0.364   0.031  0.5669 -0.7165 -0.6876
  208MPD1    H2 3219   0.347   0.251  17.553  0.9322  0.0878 -0.5433
  208MPD1    H3 3220   0.553   0.209  17.669  1.8439  0.5747  1.1667
  208MPD1     N 3221   0.586   0.631   0.086 -0.0368 -0.1221  0.1367
  208MPD1    H5 3222   0.542   0.722   0.095  1.7270  0.5710  1.7038
  208MPD1    N1 3223   0.202   0.472  17.575 -0.9810 -0.0576  0.0152
  208MPD1    H6 3224   0.175   0.402  17.506  3.4258 -1.2615 -0.4791
  208MPD1    H7 3225   0.196   0.558  17.521  0.1682  0.6106  0.9652
  209MPD1     C 3226   2.745   2.407   9.917  0.2177 -0.2615 -0.1712
  209MPD1    C1 3227   2.840   2.489   9.868 -0.1996  0.9451  0.0583
  209MPD1    C2 3228   2.962   2.491   9.939 -0.5736  0.2321 -0.4248
  209MPD1    C3 3229   2.986   2.417  10.054  0.4660 -0.0627 -0.4176
  209MPD1    C4 3230   2.877   2.343  10.104  0.5769  0.0548  0.5271
  209MPD1    C5 3231   2.757   2.350  10.035  1.0543 -0.6239  0.1085
  209MPD1     H 3232   3.052   2.537   9.900  1.0423 -0.7717  2.1053
  209MPD1    H1 3233   2.878   2.274  10.187 -0.5045  0.4203  0.8330
  209MPD1    H2 3234   2.646   2.405   9.873 -0.3148 -0.6385  1.0432
  209MPD1    H3 3235   2.670   2.297  10.072  0.3866  0.3331 -0.0695
  209MPD1     N 3236   3.113   2.427  10.122 -0.1022 -0.1168  0.4949
  209MPD1    H5 3237   3.179   2.496  10.088 -1.4875  0.9095 -0.1184
  209MPD1    N1 3238   2.817   2.567   9.754  0.2980 -0.4821  0.0973
  209MPD1    H6 3239   2.725   2.611   9.758  0.0292 -1.1010  0.7782
  209MPD1    H7 3240   2.878   2.648   9.748  0.5527 -0.6939 -0.1631
  210MPD1     C 3241   3.350   2.259  11.096  0.8405 -1.0911 -0.2824
  210MPD1    C1 3242   3.413   2.169  11.016  0.1791 -0.1407 -0.5992
  210MPD1    C2 3243   3.428   2.192  10.882 -0.5300 -0.0252  0.2672
  210MPD1    C3 3244   3.375   2.308  10.829 -0.7954 -0.6469 -0.6298
  210MPD1    C4 3245   3.310   2.401  10.911  0.1365 -0.0936  0.0728
  210MPD1    C5 3246   3.307   2.383  11.046 -0.1301  0.8898 -0.2947
  210MPD1     H 3247   3.459   2.112  10.816 -0.2604 -1.0667  1.6402
  210MPD1    H1 3248   3.289   2.497  10.864 -1.3047 -0.2092  0.4586
  210MPD1    H2 3249   3.337   2.258  11.204  0.5804  3.1865 -0.2681
  210MPD1    H3 3250   3.259   2.459  11.106  2.3197  1.9961  0.2634
  210MPD1     N 3251   3.373   2.335  10.690 -0.0306  0.6016  0.2506
  210MPD1    H5 3252   3.306   2.405  10.662 -0.5694 -0.4774 -1.1284
  210MPD1    N1 3253   3.470   2.057  11.076  0.0070  0.4246  0.5862
  210MPD1    H6 3254   3.416   2.025  11.156 -0.5256  0.0623  0.0802
  210MPD1    H7 3255   3.476   1.982  11.008  0.0048  1.6197 -0.7226
  211MPD1     C 3256   1.301   2.398  15.573 -0.2181  0.0247 -0.0789
  211MPD1    C1 3257   1.183   2.458  15.539  0.3512 -0.0817 -0.0087
  211MPD1    C2 3258   1.075   2.455  15.629  0.3141  0.2007  0.8340
  211MPD1    C3 3259   1.079   2.407  15.758 -0.0379  0.8421  0.7258
  211MPD1    C4 3260   1.207   2.364  15.798 -0.5233  0.5228 -0.6040
  211MPD1    C5 3261   1.314   2.355  15.704  0.1467  0.1615 -0.0264
  211MPD1     H 3262   0.974   2.483  15.602  0.9342  0.4922 -1.1480
  211MPD1    H1 3263   1.227   2.349  15.903  1.2742  0.8717 -0.8932
  211MPD1    H2 3264   1.390   2.384  15.514  0.6206  0.5262  1.0620
  211MPD1    H3 3265   1.409   2.326  15.747  0.4010  0.7459 -0.1992
  211MPD1     N 3266   0.965   2.410  15.838 -0.8600  0.7064 -0.2565
  211MPD1    H5 3267   0.890   2.473  15.810 -1.2205 -1.1676 -3.4371
  211MPD1    N1 3268   1.150   2.515  15.409 -0.4087  0.2600 -0.6922
  211MPD1    H6 3269   1.222   2.581  15.378 -0.3884  1.7966  2.6592
  211MPD1    H7 3270   1.059   2.559  15.394  0.7974  2.4832 -1.5405
  212MPD1     C 3271   0.133   0.551  16.508  1.3892 -0.2378 -0.0828
  212MPD1    C1 3272   0.170   0.574  16.638 -0.2116 -0.5374  0.3098
  212MPD1    C2 3273   0.166   0.462  16.723  0.0348  0.4076  0.1582
  212MPD1    C3 3274   0.146   0.327  16.676 -0.1122 -0.3119 -0.0325
  212MPD1    C4 3275   0.119   0.315  16.544 -0.4293  0.1498 -0.7812
  212MPD1    C5 3276   0.114   0.427  16.464  0.8263 -0.3947  0.2550
  212MPD1     H 3277   0.194   0.466  16.828  1.2923  2.4938 -0.2495
  212MPD1    H1 3278   0.088   0.219  16.504 -1.8183  0.1508  0.3132
  212MPD1    H2 3279   0.125   0.631  16.434  2.9749  0.0666  0.0936
  212MPD1    H3 3280   0.095   0.398  16.361 -1.0037 -0.3812  0.5869
  212MPD1     N 3281   0.142   0.220  16.759 -0.9756 -0.5341  0.2042
  212MPD1    H5 3282   0.131   0.128  16.718  0.5554 -0.4727 -0.3514
  212MPD1    N1 3283   0.175   0.704  16.689 -0.2290 -0.4561 -0.4503
  212MPD1    H6 3284   0.253   0.704  16.754 -0.5258 -0.7929 -0.0917
  212MPD1    H7 3285   0.201   0.761  16.609 -1.3237  0.3363 -0.2427
  213MPD1     C 3286   3.149   0.913  15.585  0.0325 -0.7403 -0.8782
  213MPD1    C1 3287   3.024   0.860  15.559  0.0266  0.1736 -0.0296
  213MPD1    C2 3288   2.947   0.918  15.462 -0.6641 -0.4326  0.2098
  213MPD1    C3 3289   2.982   1.044  15.412 -0.5649 -0.4959  0.1689
  213MPD1    C4 3290   3.101   1.102  15.454 -0.5341 -0.1676  1.1595
  213MPD1    C5 3291   3.186   1.033  15.530 -0.3571  0.9390 -0.0159
  213MPD1     H 3292   2.856   0.870  15.428 -1.2952  0.2966  0.8431
  213MPD1    H1 3293   3.137   1.194  15.410 -0.8056 -0.6304 -0.0309
  213MPD1    H2 3294   3.225   0.849  15.626 -0.0824 -0.5813 -0.4105
  213MPD1    H3 3295   3.287   1.072  15.541 -0.7410  0.9681  3.3627
  213MPD1     N 3296   2.902   1.096  15.311 -0.0400 -1.0886  0.8186
  213MPD1    H5 3297   2.833   1.033  15.272 -0.5227  0.5948 -1.0470
  213MPD1    N1 3298   3.018   0.726  15.563  0.0777 -0.4769 -0.1772
  213MPD1    H6 3299   3.069   0.680  15.638 -1.4265  0.3608  1.3431
  213MPD1    H7 3300   2.929   0.677  15.566 -1.3950  2.2008 -0.2118
  214MPD1     C 3301   2.113   0.787  15.137  0.4794  0.0061 -0.6580
  214MPD1    C1 3302   2.106   0.914  15.082 -0.6843 -0.5110  0.0283
  214MPD1    C2 3303   2.219   0.995  15.080 -0.6520 -0.1849 -0.1171
  214MPD1    C3 3304   2.345   0.954  15.126  0.1062 -0.7431  0.6015
  214MPD1    C4 3305   2.339   0.828  15.190  0.0315  0.3878 -0.5219
  214MPD1    C5 3306   2.231   0.749  15.196 -0.0752  0.7657 -0.3844
  214MPD1     H 3307   2.201   1.091  15.033  0.7021 -0.5285 -1.3488
  214MPD1    H1 3308   2.431   0.792  15.235  0.3213  0.1744 -1.2984
  214MPD1    H2 3309   2.034   0.713  15.143  0.0471  0.5410  0.2992
  214MPD1    H3 3310   2.229   0.660  15.256  0.4731 -0.2383 -1.8506
  214MPD1     N 3311   2.464   1.028  15.112 -0.2324  0.1439  0.1076
  214MPD1    H5 3312   2.551   1.003  15.158  0.1647 -0.7934 -1.1780
  214MPD1    N1 3313   1.980   0.971  15.054 -0.0847  0.0218 -0.2889
  214MPD1    H6 3314   1.911   0.903  15.022 -0.3689 -0.3626  1.1547
  214MPD1    H7 3315   1.981   1.053  14.993 -1.6454 -0.0315 -0.3910
  215MPD1     C 3316   3.197   1.836  10.446 -0.2487 -0.4033 -0.0289
  215MPD1    C1 3317   3.153   1.965  10.414 -0.3427 -0.0552 -0.3525
  215MPD1    C2 3318   3.115   2.036  10.524  0.5738 -0.6077 -0.1288
  215MPD1    C3 3319   3.130   1.998  10.654 -0.0001  0.0701 -0.6265
  215MPD1    C4 3320   3.181   1.874  10.684 -0.2805  0.1127 -0.2466
  215MPD1    C5 3321   3.210   1.794  10.577 -0.2926 -0.1519 -0.1401
  215MPD1     H 3322   3.060   2.128  10.512  1.5225  0.0774  0.7032
  215MPD1    H1 3323   3.192   1.836  10.785  1.8853  2.5153  0.4100
  215MPD1    H2 3324   3.240   1.768  10.373 -1.6197 -0.3767 -0.8717
  215MPD1    H3 3325   3.247   1.694  10.597  2.2939  0.8118 -0.0488
  215MPD1     N 3326   3.094   2.088  10.753  0.3081  0.8485 -0.3957
  215MPD1    H5 3327   3.080   2.183  10.722  0.0597  1.4864  1.6578
  215MPD1    N1 3328   3.158   2.022  10.281 -0.0824 -0.5699 -0.0579
  215MPD1    H6 3329   3.092   2.098  10.267  0.0258 -0.3656  0.5460
  215MPD1    H7 3330   3.160   1.962  10.198  0.9134 -0.7833  0.1196
  216MPD1     C 3331   0.433   0.159   0.278 -0.0427  0.2202 -0.5004
  216MPD1    C1 3332   0.491   0.050   0.327  0.7760  0.3563  0.0229
  216MPD1    C2 3333   0.425   4.666   0.324  0.6605  0.3704  0.7389
  216MPD1    C3 3334   0.319   4.646   0.235  0.4206 -0.0226  0.0938
  216MPD1    C4 3335   0.284   0.020   0.159  0.8104 -0.0504  0.3023
  216MPD1    C5 3336   0.334   0.146   0.186 -0.6519  0.0565 -0.5303
  216MPD1     H 3337   0.461   4.579   0.378  1.0291  0.2020  0.2199
  216MPD1    H1 3338   0.203   0.013   0.087  0.3027 -0.9610  0.9682
  216MPD1    H2 3339   0.476   0.258   0.290 -0.4367  0.3853 -0.4524
  216MPD1    H3 3340   0.292   0.232   0.135 -1.9355 -0.2663 -0.0074
  216MPD1     N 3341   0.254   4.525   0.226 -0.4372  0.1656  0.6370
  216MPD1    H5 3342   0.276   4.459   0.300 -0.1007 -1.9668 -1.3765
  216MPD1    N1 3343   0.598   0.065   0.414  0.5636  0.4163  0.2692
  216MPD1    H6 3344   0.657   0.137   0.373  0.8202 -0.4100 -0.8261
  216MPD1    H7 3345   0.644   4.711   0.423  0.9606  0.7365  1.3688
  217MPD1     C 3346   0.724   2.163  10.176 -0.4721  0.2701  0.8024
  217MPD1    C1 3347   0.817   2.198  10.079  0.1334  0.6852 -0.0116
  217MPD1    C2 3348   0.867   2.105   9.999 -0.4098 -0.6760  1.1166
  217MPD1    C3 3349   0.826   1.969  10.011  0.4688 -0.8785 -0.4338
  217MPD1    C4 3350   0.736   1.931  10.106 -0.2159 -0.3388 -0.0906
  217MPD1    C5 3351   0.684   2.030  10.187  0.5163 -0.7142 -0.1669
  217MPD1     H 3352   0.946   2.135   9.932 -1.1731 -1.1421  0.0006
  217MPD1    H1 3353   0.691   1.833  10.108  1.3331 -1.0258  1.4537
  217MPD1    H2 3354   0.663   2.234  10.230 -0.9974 -1.4970  2.5614
  217MPD1    H3 3355   0.590   2.011  10.237 -1.6607  1.2421 -3.4616
  217MPD1     N 3356   0.877   1.873   9.922  0.3992 -0.5337  0.5221
  217MPD1    H5 3357   0.844   1.778   9.939 -0.1935 -0.9696 -3.1339
  217MPD1    N1 3358   0.847   2.330  10.046 -0.2297  0.7286  0.0467
  217MPD1    H6 3359   0.942   2.343  10.011 -0.2972  0.1129 -0.3590
  217MPD1    H7 3360   0.847   2.399  10.121  0.9585 -1.8050  2.3521
  218MPD1     C 3361   2.578   2.856  12.835  0.0225  0.9081  0.2383
  218MPD1    C1 3362   2.673   2.876  12.739  0.2988  0.3479 -0.4264
  218MPD1    C2 3363   2.752   2.765  12.709  0.1431 -0.8067  0.1288
  218MPD1    C3 3364   2.718   2.636  12.747 -0.1939 -0.1056  0.1058
  218MPD1    C4 3365   2.613   2.623  12.840  0.6844  0.3280  0.6357
  218MPD1    C5 3366   2.546   2.736  12.883 -0.2110  0.5127 -0.1337
  218MPD1     H 3367   2.841   2.777  12.648 -1.7556 -1.3171 -2.7385
  218MPD1    H1 3368   2.577   2.528  12.877  0.4186  0.9706  2.0532
  218MPD1    H2 3369   2.520   2.943  12.864 -0.4185  1.0316 -1.0488
  218MPD1    H3 3370   2.471   2.736  12.961  0.1740  2.4612  0.2300
  218MPD1     N 3371   2.777   2.521  12.689 -0.2314  0.5647 -0.0554
  218MPD1    H5 3372   2.814   2.541  12.597  0.5770  2.6276  0.7232
  218MPD1    N1 3373   2.719   3.009  12.712  0.2978  0.6961  0.5439
  218MPD1    H6 3374   2.636   3.066  12.696 -0.6597 -1.2788 -1.4507
  218MPD1    H7 3375   2.766   3.027  12.623  0.5772  0.8112  0.7141
  219MPD1     C 3376   3.471   2.514  12.121 -0.5775 -0.9880  0.2037
  219MPD1    C1 3377   3.338   2.539  12.092 -0.9481  0.3905  0.8794
  219MPD1    C2 3378   3.243   2.469  12.164  0.1548  0.3303 -0.0401
  219MPD1    C3 3379   3.280   2.398  12.277 -0.2740 -0.1424 -0.0736
  219MPD1    C4 3380   3.412   2.386  12.309  0.0389  0.5744 -0.9078
  219MPD1    C5 3381   3.511   2.439  12.229  0.0362  0.3898 -0.2914
  219MPD1     H 3382   3.141   2.474  12.128  0.4729  2.9761 -0.5277
  219MPD1    H1 3383   3.432   2.311  12.386  0.8540  1.2988 -0.4085
  219MPD1    H2 3384   3.546   2.566  12.062 -0.5490  0.6261  1.6313
  219MPD1    H3 3385   3.619   2.437  12.245  0.0875  0.4234 -0.6311
  219MPD1     N 3386   3.183   2.323  12.352 -0.5139  0.1841 -0.0108
  219MPD1    H5 3387   3.211   2.272  12.435 -0.3491  0.9787  0.4174
  219MPD1    N1 3388   3.295   2.607  11.980  0.2752  0.3888 -0.3484
  219MPD1    H6 3389   3.203   2.648  11.989 -0.2034 -1.3051  2.4628
  219MPD1    H7 3390   3.366   2.661  11.931  0.2545 -0.0759 -0.8884
  220MPD1     C 3391   2.280   3.206   9.671 -0.1533 -0.5049 -0.4127
  220MPD1    C1 3392   2.401   3.185   9.730  0.5809  0.1982 -0.2421
  220MPD1    C2 3393   2.414   3.096   9.833 -0.6199  0.3098 -0.5143
  220MPD1    C3 3394   2.302   3.034   9.886 -0.2743  0.4864  0.0734
  220MPD1    C4 3395   2.182   3.046   9.829  0.0601  0.6516 -0.9344
  220MPD1    C5 3396   2.168   3.138   9.723 -0.0367 -0.2810  0.1549
  220MPD1     H 3397   2.510   3.078   9.880 -0.9314 -0.7265 -0.2798
  220MPD1    H1 3398   2.095   2.991   9.866 -0.8162  0.6896 -2.9367
  220MPD1    H2 3399   2.256   3.271   9.587 -0.8949  0.3109  0.4300
  220MPD1    H3 3400   2.073   3.161   9.676 -0.0314  0.4633  0.5145
  220MPD1     N 3401   2.328   2.949   9.992 -0.6110 -0.1022 -0.1113
  220MPD1    H5 3402   2.424   2.953  10.025 -0.0207 -0.4492 -1.7774
  220MPD1    N1 3403   2.510   3.243   9.665 -0.6093  0.2682  0.2456
  220MPD1    H6 3404   2.481   3.327   9.616  0.2745  1.2727  1.4473
  220MPD1    H7 3405   2.583   3.259   9.735 -2.3517  0.1195  2.0912
  221MPD1     C 3406   1.476   0.811  16.980 -0.3785 -0.0240 -0.3254
  221MPD1    C1 3407   1.584   0.806  16.887  0.1334  0.9499  0.2937
  221MPD1    C2 3408   1.558   0.858  16.759  0.2020 -0.0547  0.6757
  221MPD1    C3 3409   1.425   0.882  16.714 -1.3371  0.5648 -0.2514
  221MPD1    C4 3410   1.324   0.854  16.804 -0.2231  0.5072  0.1133
  221MPD1    C5 3411   1.348   0.832  16.932 -0.1805  0.5332  0.5611
  221MPD1     H 3412   1.647   0.872  16.699  0.2303 -1.4809  0.3935
  221MPD1    H1 3413   1.217   0.849  16.787 -0.6509  3.8742  1.7095
  221MPD1    H2 3414   1.494   0.789  17.085 -0.3045  1.2493 -0.0717
  221MPD1    H3 3415   1.264   0.802  16.994  1.6599  0.7679  3.1729
  221MPD1     N 3416   1.389   0.944  16.594 -0.6841 -0.4455 -0.4971
  221MPD1    H5 3417   1.294   0.973  16.574 -0.5982 -1.2707 -2.0735
  221MPD1    N1 3418   1.718   0.803  16.928 -0.4403 -0.7949 -0.2691
  221MPD1    H6 3419   1.777   0.759  16.858 -0.8473  0.2384 -1.2525
  221MPD1    H7 3420   1.727   0.748  17.014  1.2762  0.2531  0.2231
  222MPD1     C 3421   4.495   4.297  17.676  0.1617  0.2983 -0.3241
  222MPD1    C1 3422   4.554   4.414  17.626 -0.1324 -0.7421 -0.4687
  222MPD1    C2 3423   4.576   4.513  17.721 -0.9878  0.0377  0.4501
  222MPD1    C3 3424   4.539   4.505   0.109 -0.9736  0.0362 -0.3639
  222MPD1    C4 3425   4.478   4.389   0.153  0.2535 -0.4796  0.4654
  222MPD1    C5 3426   4.466   4.288   0.063  0.5476 -1.8099 -0.4259
  222MPD1     H 3427   4.623   4.601  17.679 -1.7251 -0.9987 -2.5684
  222MPD1    H1 3428   4.436   4.365   0.250 -0.1097 -1.2653  0.1223
  222MPD1    H2 3429   4.499   4.208  17.614  3.2974  1.0293 -1.1585
  222MPD1    H3 3430   4.431   4.193   0.102 -0.5447 -0.7688  1.1351
  222MPD1     N 3431   4.583   4.595   0.208 -0.1768  0.8375  0.3126
  222MPD1    H5 3432   4.550   4.570   0.301 -2.4916 -0.2204 -0.7912
  222MPD1    N1 3433   4.601   4.424  17.487  0.5269  0.4471 -0.0591
  222MPD1    H6 3434   4.556   4.364  17.417  1.0892 -2.7311  2.2997
  222MPD1    H7 3435   4.607   4.517  17.447 -0.7190  1.3190  1.8020
  223MPD1     C 3436   0.475   4.380   0.901  0.5102  0.8333  0.0181
  223MPD1    C1 3437   0.516   4.513   0.897  0.1802 -0.5294  0.3897
  223MPD1    C2 3438   0.420   4.592   0.829 -0.1256  0.9599  0.1894
  223MPD1    C3 3439   0.309   4.540   0.757  0.5516 -1.3352 -0.1701
  223MPD1    C4 3440   0.278   4.405   0.766  0.0152  0.2737  0.4930
  223MPD1    C5 3441   0.369   4.326   0.831  0.4577  0.3627  0.9007
  223MPD1     H 3442   0.444   4.697   0.813 -0.7202  1.3211  1.6016
  223MPD1    H1 3443   0.195   4.362   0.712  0.1623  0.4235  0.1515
  223MPD1    H2 3444   0.533   4.316   0.967 -0.1885 -0.3804 -0.5498
  223MPD1    H3 3445   0.341   4.222   0.821  2.7021 -0.1508 -0.1793
  223MPD1     N 3446   0.235   4.629   0.672 -0.0066 -1.0136 -0.3588
  223MPD1    H5 3447   0.276   4.718   0.645  0.1963 -1.4281 -1.4402
  223MPD1    N1 3448   0.613   4.563   0.984  0.4929  0.4733  0.1549
  223MPD1    H6 3449   0.681   4.490   1.003 -1.9138 -1.3766  1.7438
  223MPD1    H7 3450   0.666   4.637   0.939  1.5777  0.8598  2.1050
  224MPD1     C 3451   2.429   2.664   9.593 -0.3732  0.4896  0.0008
  224MPD1    C1 3452   2.318   2.741   9.624 -0.4471  0.4061  0.2749
  224MPD1    C2 3453   2.224   2.679   9.706 -0.1471  0.0356  0.1486
  224MPD1    C3 3454   2.244   2.553   9.763  0.2476  1.0785  0.4686
  224MPD1    C4 3455   2.364   2.493   9.744  0.6596 -0.2026 -1.0762
  224MPD1    C5 3456   2.457   2.548   9.664 -0.1179 -0.0020 -0.1715
  224MPD1     H 3457   2.133   2.734   9.728 -0.4856 -0.8864  1.0441
  224MPD1    H1 3458   2.375   2.392   9.784  2.9028 -0.5292 -2.5219
  224MPD1    H2 3459   2.485   2.704   9.510 -1.0289  0.2509 -0.5601
  224MPD1    H3 3460   2.554   2.502   9.652  0.8864  1.9225  0.6760
  224MPD1     N 3461   2.140   2.481   9.826  0.0786  0.0640 -0.3042
  224MPD1    H5 3462   2.167   2.388   9.859  0.4249  0.2764  0.0143
  224MPD1    N1 3463   2.288   2.859   9.556  0.4752 -0.3881  0.1663
  224MPD1    H6 3464   2.243   2.922   9.622 -0.5982  1.1689 -2.0441
  224MPD1    H7 3465   2.371   2.911   9.528  0.8962  0.2613  2.6236
  225MPD1     C 3466   3.062   3.597  12.724 -0.5046 -1.1828  0.0911
  225MPD1    C1 3467   3.054   3.460  12.708 -0.1868 -0.1715 -0.7352
  225MPD1    C2 3468   2.952   3.423  12.624 -0.1451  0.0898 -0.1011
  225MPD1    C3 3469   2.883   3.511  12.540  0.3910 -0.1749  0.6146
  225MPD1    C4 3470   2.910   3.642  12.542 -0.9245  0.2706 -0.2624
  225MPD1    C5 3471   2.997   3.683  12.637 -0.4981  0.3223  0.6230
  225MPD1     H 3472   2.936   3.316  12.619  1.6161 -0.1473 -0.7975
  225MPD1    H1 3473   2.857   3.705  12.472 -1.0526  0.4645  0.0076
  225MPD1    H2 3474   3.127   3.646  12.797  1.6732 -3.5818 -0.2478
  225MPD1    H3 3475   3.018   3.790  12.638  1.7303 -0.1171  1.9114
  225MPD1     N 3476   2.786   3.460  12.447 -0.0679 -0.0110  0.0072
  225MPD1    H5 3477   2.749   3.528  12.382 -0.7526 -0.8696 -0.4898
  225MPD1    N1 3478   3.118   3.368  12.794  0.7861  0.1640  0.1001
  225MPD1    H6 3479   3.194   3.415  12.843  0.6275  1.8569 -1.2896
  225MPD1    H7 3480   3.154   3.282  12.753 -0.4242  0.7859 -2.2386
  226MPD1     C 3481   2.796   1.959  10.376 -0.1259 -0.6481  0.2627
  226MPD1    C1 3482   2.838   1.862  10.286 -0.1944 -0.7664 -0.3356
  226MPD1    C2 3483   2.782   1.866  10.157 -0.3441  0.2290 -0.3359
  226MPD1    C3 3484   2.685   1.951  10.127  0.3092 -0.8876  0.2301
  226MPD1    C4 3485   2.645   2.050  10.221  0.0090 -0.7816  0.2598
  226MPD1    C5 3486   2.704   2.054  10.339  0.2743 -0.0797  0.6469
  226MPD1     H 3487   2.823   1.792  10.090  0.4930  0.3817  0.0045
  226MPD1    H1 3488   2.567   2.119  10.192 -0.6791 -0.7357  2.1991
  226MPD1    H2 3489   2.819   1.950  10.482 -0.3770 -1.6434  0.2272
  226MPD1    H3 3490   2.667   2.133  10.403 -0.0622  0.4748 -0.2224
  226MPD1     N 3491   2.630   1.943   9.994  0.6710  0.3081 -0.2907
  226MPD1    H5 3492   2.675   1.880   9.928  2.1943  2.9611 -1.7915
  226MPD1    N1 3493   2.893   1.744  10.329 -0.0831 -0.0692  0.8690
  226MPD1    H6 3494   2.977   1.753  10.387 -1.0000 -0.4121  2.2586
  226MPD1    H7 3495   2.927   1.681  10.257  1.8598  1.6779  0.2481
  227MPD1     C 3496   1.701   2.198   9.588 -0.3912  0.0432 -0.0848
  227MPD1    C1 3497   1.709   2.081   9.656  0.4968  0.4686 -0.5223
  227MPD1    C2 3498   1.841   2.033   9.670 -0.2683  0.5285 -0.4350
  227MPD1    C3 3499   1.953   2.111   9.636 -0.5032 -0.0571 -0.3852
  227MPD1    C4 3500   1.936   2.240   9.577  0.4987 -0.4562 -0.0252
  227MPD1    C5 3501   1.811   2.271   9.546 -0.6379  0.3543  1.0935
  227MPD1     H 3502   1.848   1.940   9.725 -0.5021  1.1375  0.6453
  227MPD1    H1 3503   2.019   2.300   9.542 -0.3991  1.1026  0.5596
  227MPD1    H2 3504   1.602   2.238   9.569 -0.1845  1.4098  1.7147
  227MPD1    H3 3505   1.798   2.365   9.492  0.2679  0.3278  0.8365
  227MPD1     N 3506   2.082   2.062   9.665  0.8974  0.6368 -0.2926
  227MPD1    H5 3507   2.088   1.971   9.710  0.3231  0.7204 -0.0548
  227MPD1    N1 3508   1.600   1.992   9.674 -0.5726  0.0348 -0.0168
  227MPD1    H6 3509   1.619   1.916   9.740 -2.2990  0.0672  0.5049
  227MPD1    H7 3510   1.508   2.036   9.668 -0.5565  0.1201  0.4099
  228MPD1     C 3511   0.302   0.982  13.235  0.6333 -0.0021 -0.0355
  228MPD1    C1 3512   0.219   1.013  13.126 -0.8951  0.4391 -0.5113
  228MPD1    C2 3513   0.088   1.026  13.154  0.3927 -0.6006  0.0025
  228MPD1    C3 3514   0.031   0.988  13.276 -0.4267  0.9091  0.6590
  228MPD1    C4 3515   0.115   0.943  13.377  0.3132 -0.1454 -0.1305
  228MPD1    C5 3516   0.249   0.945  13.356 -0.1081 -0.0591  0.2599
  228MPD1     H 3517   0.026   1.061  13.072  1.1843  3.2361  1.0393
  228MPD1    H1 3518   0.072   0.908  13.470 -0.0462  0.3946 -0.0909
  228MPD1    H2 3519   0.410   0.982  13.225  0.4627  1.5252 -1.8092
  228MPD1    H3 3520   0.314   0.913  13.436 -0.1927  2.4752  1.3323
  228MPD1     N 3521   4.626   1.003  13.293 -0.1839  0.1479 -0.5508
  228MPD1    H5 3522   4.580   1.055  13.219  1.9003  1.5258 -0.8827
  228MPD1    N1 3523   0.278   1.068  13.007 -0.4942 -0.1644  0.1468
  228MPD1    H6 3524   0.368   1.027  12.985  0.4007  3.5553 -3.1632
  228MPD1    H7 3525   0.219   1.051  12.926 -2.1729 -1.3603  1.6228
  229MPD1     C 3526   3.735   4.464  14.479 -0.1416  0.2452  0.2571
  229MPD1    C1 3527   3.746   4.353  14.398 -0.6574  0.2153 -0.2902
  229MPD1    C2 3528   3.823   4.250  14.439  0.3952 -0.1142 -0.4291
  229MPD1    C3 3529   3.907   4.255  14.551 -0.6190  0.0463 -0.2918
  229MPD1    C4 3530   3.895   4.370  14.631 -0.9482 -0.1966  0.5784
  229MPD1    C5 3531   3.804   4.465  14.601  0.0445 -0.2236 -0.4833
  229MPD1     H 3532   3.819   4.156  14.385  1.9852  0.3685 -1.3999
  229MPD1    H1 3533   3.950   4.384  14.723  0.1359 -3.6190  0.4251
  229MPD1    H2 3534   3.677   4.553  14.458  0.6617  0.5094 -0.8610
  229MPD1    H3 3535   3.801   4.552  14.665 -0.0206 -1.0484  0.6382
  229MPD1     N 3536   3.992   4.155  14.598 -0.4237 -0.0057 -0.5554
  229MPD1    H5 3537   4.043   4.167  14.685 -0.0217  1.6146 -1.0210
  229MPD1    N1 3538   3.669   4.339  14.284 -0.7228  0.2870 -0.5483
  229MPD1    H6 3539   3.698   4.265  14.220  0.3572  0.5105 -0.3286
  229MPD1    H7 3540   3.658   4.430  14.240  1.1733 -0.3117 -2.2593
  230MPD1     C 3541   4.463   3.887  15.417  0.0067  0.1351 -0.2359
  230MPD1    C1 3542   4.505   3.786  15.322 -0.8550  0.2895  0.3281
  230MPD1    C2 3543   4.432   3.776  15.201 -0.2120  0.2617  0.6917
  230MPD1    C3 3544   4.321   3.863  15.180  0.0938 -0.2161  0.3612
  230MPD1    C4 3545   4.287   3.956  15.268  0.0941  0.2207  0.5456
  230MPD1    C5 3546   4.348   3.963  15.392  0.6454  0.6661 -0.3580
  230MPD1     H 3547   4.464   3.700  15.130  0.2375 -0.9059  2.1234
  230MPD1    H1 3548   4.209   4.028  15.248 -0.6871 -0.6893  0.2990
  230MPD1    H2 3549   4.500   3.887  15.519 -0.5944  0.8754 -0.0186
  230MPD1    H3 3550   4.315   4.043  15.458  0.3424  0.4423 -0.2406
  230MPD1     N 3551   4.251   3.829  15.057 -0.2767 -0.9673  0.3228
  230MPD1    H5 3552   4.266   3.742  15.006  2.4820  1.1570 -2.4898
  230MPD1    N1 3553   4.612   3.693  15.351  0.0744 -0.2679 -0.4409
  230MPD1    H6 3554   4.668   3.683  15.266  1.7074 -1.4751  0.7607
  230MPD1    H7 3555   4.674   3.729  15.424 -0.2890  1.7154 -1.1120
  231MPD1     C 3556   2.272   1.175  15.568 -0.5772  0.1031 -0.5874
  231MPD1    C1 3557   2.224   1.142  15.444 -0.2155  0.0398  0.1193
  231MPD1    C2 3558   2.250   1.232  15.341  0.3964 -0.0824  0.8554
  231MPD1    C3 3559   2.326   1.343  15.350  0.4559 -0.0958  0.8064
  231MPD1    C4 3560   2.387   1.368  15.470  0.1864  0.1616 -0.4706
  231MPD1    C5 3561   2.360   1.286  15.575 -0.5996  0.2979 -0.0600
  231MPD1     H 3562   2.207   1.198  15.247  0.5786  2.9271 -0.2997
  231MPD1    H1 3563   2.450   1.455  15.485  2.1055 -0.9912 -1.9752
  231MPD1    H2 3564   2.235   1.124  15.657  3.7210  0.0148  1.1513
  231MPD1    H3 3565   2.410   1.306  15.668  0.8544  1.2724 -1.0495
  231MPD1     N 3566   2.358   1.418  15.236 -0.6873 -0.0190 -0.0387
  231MPD1    H5 3567   2.302   1.395  15.155 -1.4315  0.8162  0.2320
  231MPD1    N1 3568   2.116   1.050  15.420 -0.4405 -0.2135 -0.5157
  231MPD1    H6 3569   2.130   1.003  15.330 -1.8776  1.7366 -1.7696
  231MPD1    H7 3570   2.093   0.983  15.493  1.7861  2.2367  2.3858
  232MPD1     C 3571   4.540   3.498   0.355  0.1994  0.0038  0.2197
  232MPD1    C1 3572   4.473   3.435   0.451 -0.5711  0.6402  0.5858
  232MPD1    C2 3573   4.335   3.456   0.444  0.4190 -0.0978  0.1208
  232MPD1    C3 3574   4.270   3.526   0.344  0.2518 -0.4612  0.4813
  232MPD1    C4 3575   4.345   3.596   0.253 -1.0829 -0.0189 -0.4190
  232MPD1    C5 3576   4.483   3.579   0.255  0.2410  0.3587  0.1372
  232MPD1     H 3577   4.265   3.423   0.520  0.1022  0.0354 -0.1124
  232MPD1    H1 3578   4.306   3.646   0.166  1.4631  0.7582 -1.0936
  232MPD1    H2 3579   4.648   3.491   0.352  0.2040 -0.5809  1.8504
  232MPD1    H3 3580   4.549   3.632   0.187  1.0387 -0.2899  0.4055
  232MPD1     N 3581   4.129   3.550   0.358 -0.4307  0.0939  0.0221
  232MPD1    H5 3582   4.083   3.500   0.434 -0.5373 -0.6133 -0.5133
  232MPD1    N1 3583   4.547   3.393   0.567 -0.3692 -0.7269  0.1166
  232MPD1    H6 3584   4.642   3.363   0.549 -0.2753 -0.8844  0.8801
  232MPD1    H7 3585   4.499   3.313   0.609 -0.6151 -1.5311 -1.6945
  233MPD1     C 3586   0.008   0.938   0.802  0.0408 -0.7030  0.0809
  233MPD1    C1 3587   0.054   0.808   0.805 -0.3706  0.6518 -0.4968
  233MPD1    C2 3588   0.147   0.777   0.905  0.0809 -0.0309 -0.2686
  233MPD1    C3 3589   0.211   0.871   0.973  0.4238  0.5191 -0.5174
  233MPD1    C4 3590   0.167   1.006   0.966  0.6708 -0.0589 -0.3351
  233MPD1    C5 3591   0.067   1.033   0.877 -0.5305  0.1164  0.0514
  233MPD1     H 3592   0.175   0.674   0.919 -1.0619 -0.3164 -0.0846
  233MPD1    H1 3593   0.210   1.089   1.020 -1.4128  1.2885 -0.7264
  233MPD1    H2 3594   4.658   0.954   0.739  2.4836  0.3579 -2.9822
  233MPD1    H3 3595   0.039   1.135   0.852  1.5267  0.5499 -0.4229
  233MPD1     N 3596   0.312   0.853   1.064 -0.2535  0.4282  0.4898
  233MPD1    H5 3597   0.345   0.934   1.115 -1.6932 -0.4382  2.7960
  233MPD1    N1 3598   4.721   0.704   0.746 -0.3323 -0.0654  0.2955
  233MPD1    H6 3599   0.032   0.615   0.734 -1.9171 -0.9526  0.6750
  233MPD1    H7 3600   4.682   0.737   0.657  0.8513 -0.1293 -0.2521
  234MPD1     C 3601   2.240   0.552   9.847 -0.4848 -0.4087 -0.0935
  234MPD1    C1 3602   2.323   0.660   9.884  0.3729 -0.0519 -0.3638
  234MPD1    C2 3603   2.271   0.783   9.870 -0.0541 -0.1558 -0.1318
  234MPD1    C3 3604   2.135   0.807   9.855  0.2396 -0.9519 -0.0378
  234MPD1    C4 3605   2.049   0.699   9.839 -0.5324 -0.6367  0.4434
  234MPD1    C5 3606   2.106   0.570   9.839 -0.0716  0.3950  0.0366
  234MPD1     H 3607   2.334   0.870   9.884  1.1310 -1.3169  1.7136
  234MPD1    H1 3608   1.942   0.707   9.818  0.0434  2.4453 -1.2304
  234MPD1    H2 3609   2.278   0.451   9.838  0.0700 -0.1149 -1.0224
  234MPD1    H3 3610   2.043   0.485   9.819 -0.3648  0.5147  0.4589
  234MPD1     N 3611   2.093   0.943   9.839 -0.2011 -0.2182 -0.1253
  234MPD1    H5 3612   2.161   1.015   9.863 -0.9743  1.3142 -2.5015
  234MPD1    N1 3613   2.464   0.638   9.877 -0.2858  0.4682 -0.3020
  234MPD1    H6 3614   2.516   0.710   9.927 -1.3601 -1.3180  3.3726
  234MPD1    H7 3615   2.472   0.546   9.920  1.4341  0.2784 -1.0275
  235MPD1     C 3616   4.639   3.438  10.731 -0.1108 -0.3617  0.4954
  235MPD1    C1 3617   4.676   3.571  10.695 -1.0523 -0.3601  0.4413
  235MPD1    C2 3618   4.577   3.647  10.619 -1.2031  0.0451  0.2451
  235MPD1    C3 3619   4.452   3.599  10.589 -0.4623 -0.1657  0.1791
  235MPD1    C4 3620   4.426   3.465  10.630  0.1205 -0.1201 -0.4978
  235MPD1    C5 3621   4.514   3.392  10.701 -0.2002 -0.4852 -0.9210
  235MPD1     H 3622   4.605   3.742  10.575 -2.9668 -0.2771 -1.5395
  235MPD1    H1 3623   4.334   3.411  10.611 -0.6580  0.5942  1.2347
  235MPD1    H2 3624   4.706   3.370  10.782 -1.0946 -0.9304  1.0333
  235MPD1    H3 3625   4.505   3.285  10.713  0.8152 -0.4209  0.3934
  235MPD1     N 3626   4.350   3.663  10.515  0.0542 -0.2853 -0.1822
  235MPD1    H5 3627   4.374   3.755  10.480 -0.3017  0.3614  1.2554
  235MPD1    N1 3628   0.073   3.610  10.694  0.3023  0.1428  0.4361
  235MPD1    H6 3629   0.136   3.576  10.766 -0.3297 -2.2289 -0.1346
  235MPD1    H7 3630   0.090   3.711  10.686  1.2914  0.2787  4.1862
  236MPD1     C 3631   2.575   3.863   9.081  1.1059  0.7849  0.2722
  236MPD1    C1 3632   2.629   3.745   9.095 -0.0717 -0.6237 -0.0125
  236MPD1    C2 3633   2.638   3.696   9.224 -0.4208  0.3361 -0.2670
  236MPD1    C3 3634   2.622   3.778   9.331 -0.6566  0.0143 -0.3930
  236MPD1    C4 3635   2.561   3.902   9.313  0.5048 -1.1385 -0.0524
  236MPD1    C5 3636   2.538   3.943   9.182  0.9638  0.7926 -0.0127
  236MPD1     H 3637   2.654   3.591   9.244  1.8538  0.3884 -1.8185
  236MPD1    H1 3638   2.527   3.968   9.393  0.6747 -1.3174  0.1653
  236MPD1    H2 3639   2.560   3.897   8.979 -1.0715 -1.3258 -0.1156
  236MPD1    H3 3640   2.490   4.038   9.163  3.3859  2.5273  2.4905
  236MPD1     N 3641   2.662   3.745   9.458  0.7698  0.2434  0.0288
  236MPD1    H5 3642   2.638   3.817   9.526  0.8724  2.0364 -1.8362
  236MPD1    N1 3643   2.652   3.663   8.982 -0.2709 -1.0218 -0.1305
  236MPD1    H6 3644   2.708   3.718   8.917 -1.6189  1.3290  0.6677
  236MPD1    H7 3645   2.706   3.579   9.001  2.5247 -0.0049 -3.6618
  237MPD1     C 3646   3.147   2.956  15.277  0.6156  0.0510 -0.0831
  237MPD1    C1 3647   3.096   2.833  15.244 -0.6875 -0.2390  0.1789
  237MPD1    C2 3648   2.960   2.811  15.259 -0.0723  0.3992  0.2623
  237MPD1    C3 3649   2.882   2.904  15.325 -0.1986 -0.4172 -0.2429
  237MPD1    C4 3650   2.937   3.020  15.375  0.1658 -0.1648 -0.0166
  237MPD1    C5 3651   3.068   3.045  15.336  0.4532 -1.1063 -0.1802
  237MPD1     H 3652   2.917   2.715  15.238  2.8525 -1.0871  1.0003
  237MPD1    H1 3653   2.884   3.088  15.440 -1.4621 -0.3969 -1.0957
  237MPD1    H2 3654   3.253   2.977  15.262  0.4870  1.6755  1.2746
  237MPD1    H3 3655   3.112   3.138  15.369 -0.3164 -0.8849  0.2212
  237MPD1     N 3656   2.749   2.883  15.357  0.4630 -0.0383  0.0646
  237MPD1    H5 3657   2.694   2.947  15.414  0.2811  0.5620 -0.7802
  237MPD1    N1 3658   3.171   2.743  15.171 -0.1711  0.2436 -0.2847
  237MPD1    H6 3659   3.146   2.645  15.176 -0.2504  0.3328  1.2019
  237MPD1    H7 3660   3.270   2.741  15.194 -0.0791  1.6092 -0.5809
  238MPD1     C 3661   4.480   1.458  15.400 -0.3201  1.1691 -0.1392
  238MPD1    C1 3662   4.417   1.340  15.428  0.0602 -0.5280 -0.4746
  238MPD1    C2 3663   4.292   1.310  15.377 -0.6966  0.1136  0.5330
  238MPD1    C3 3664   4.239   1.392  15.279  0.6614 -0.2219  0.3947
  238MPD1    C4 3665   4.299   1.517  15.259  0.0756  0.2540 -0.2732
  238MPD1    C5 3666   4.418   1.548  15.319  0.7444  0.8014 -0.1675
  238MPD1     H 3667   4.271   1.205  15.387  2.1524 -0.5811 -0.6574
  238MPD1    H1 3668   4.266   1.586  15.183 -0.3949  0.7351  0.3702
  238MPD1    H2 3669   4.578   1.489  15.435  0.1444 -0.1787 -0.2738
  238MPD1    H3 3670   4.472   1.638  15.290  0.6557  2.0490  3.5442
  238MPD1     N 3671   4.125   1.349  15.205  0.4410  0.2295 -0.4584
  238MPD1    H5 3672   4.106   1.401  15.121  0.4614  1.8083  0.5170
  238MPD1    N1 3673   4.491   1.241  15.497  0.3481 -0.1719 -0.9131
  238MPD1    H6 3674   4.428   1.163  15.517  0.1898  0.3630  0.7117
  238MPD1    H7 3675   4.546   1.266  15.579  0.3833 -1.1297 -0.6407
  239MPD1     C 3676   4.383   1.956  15.285  0.6928  0.2558  0.4562
  239MPD1    C1 3677   4.262   2.010  15.238 -1.4358  0.6272 -0.6227
  239MPD1    C2 3678   4.265   2.087  15.124 -0.1977  0.2857 -0.0415
  239MPD1    C3 3679   4.383   2.109  15.057 -0.5047  0.6215 -0.5437
  239MPD1    C4 3680   4.500   2.062  15.101  0.9515  0.1871  1.1868
  239MPD1    C5 3681   4.498   1.987  15.220  0.1997  0.3293  0.3697
  239MPD1     H 3682   4.170   2.119  15.083 -0.6935  0.1104  0.9906
  239MPD1    H1 3683   4.594   2.083  15.052  0.6915 -0.4317  0.4225
  239MPD1    H2 3684   4.390   1.892  15.373 -0.8324 -0.7371 -0.1434
  239MPD1    H3 3685   4.591   1.937  15.247 -0.1118  1.2493  3.1368
  239MPD1     N 3686   4.389   2.202  14.949 -0.8661  0.1113  0.1892
  239MPD1    H5 3687   4.477   2.243  14.922 -0.3962 -1.1524 -0.2102
  239MPD1    N1 3688   4.139   1.995  15.302 -0.3484  0.0315  1.0151
  239MPD1    H6 3689   4.116   1.913  15.356 -2.0347  1.8303  3.0232
  239MPD1    H7 3690   4.070   2.022  15.232  0.9440 -0.1655 -0.3241
  240MPD1     C 3691   3.649   0.408  14.268 -0.3775  0.0120 -0.4731
  240MPD1    C1 3692   3.720   0.526  14.270 -0.3963 -0.1788 -1.1009
  240MPD1    C2 3693   3.660   0.635  14.332  0.5760 -0.5955  0.1312
  240MPD1    C3 3694   3.541   0.624  14.396 -0.2581 -0.3471  0.4001
  240MPD1    C4 3695   3.477   0.497  14.392 -0.2086 -0.4357 -0.0852
  240MPD1    C5 3696   3.526   0.385  14.331 -0.9225 -0.4719  0.1441
  240MPD1     H 3697   3.722   0.723  14.349 -0.9177  0.4925 -0.0485
  240MPD1    H1 3698   3.385   0.472  14.444  0.0211 -0.8754  0.1122
  240MPD1    H2 3699   3.677   0.330  14.199 -0.4981  1.3567 -2.0491
  240MPD1    H3 3700   3.464   0.298  14.317 -1.2429 -0.0188 -1.2117
  240MPD1     N 3701   3.488   0.733  14.475  0.5497 -0.2838 -0.4614
  240MPD1    H5 3702   3.546   0.815  14.487  2.6355 -2.0507  1.5606
  240MPD1    N1 3703   3.839   0.529  14.200 -0.5133 -0.4249  0.0983
  240MPD1    H6 3704   3.875   0.434  14.193  0.2408 -0.2841  2.0512
  240MPD1    H7 3705   3.917   0.584  14.236  0.0616 -0.5957 -0.8975
  241MPD1     C 3706   3.521   1.692  14.771 -0.3400  0.7766 -0.0961
  241MPD1    C1 3707   3.602   1.598  14.732  0.2291 -0.0887  0.5324
  241MPD1    C2 3708   3.551   1.480  14.680  0.1695 -0.3658 -0.0539
  241MPD1    C3 3709   3.418   1.463  14.659  0.3228  0.2555  0.3785
  241MPD1    C4 3710   3.331   1.572  14.671  0.1036 -0.3362  0.0820
  241MPD1    C5 3711   3.387   1.684  14.737 -0.4988 -0.7641  0.0310
  241MPD1     H 3712   3.621   1.399  14.660 -1.5503 -1.4920 -1.4972
  241MPD1    H1 3713   3.225   1.566  14.647 -0.0922 -0.1422  0.8837
  241MPD1    H2 3714   3.545   1.786  14.819 -3.6829  1.4905  0.1992
  241MPD1    H3 3715   3.323   1.769  14.756  1.9675  0.9553  0.5304
  241MPD1     N 3716   3.360   1.337  14.619  0.7571 -0.2472  0.5635
  241MPD1    H5 3717   3.262   1.333  14.592  0.8705  3.2586 -0.3967
  241MPD1    N1 3718   3.728   1.596  14.792 -0.3970 -0.3762 -0.5010
  241MPD1    H6 3719   3.766   1.689  14.808 -2.3355  0.0090  1.9061
  241MPD1    H7 3720   3.800   1.551  14.735 -0.2661 -2.3559  1.2463
  242MPD1     C 3721   3.445   4.277  16.104 -0.2144  0.4096 -0.1240
  242MPD1    C1 3722   3.394   4.383  16.039  0.3636  0.6918 -0.0774
  242MPD1    C2 3723   3.436   4.423  15.914 -0.3336 -0.1834  0.5759
  242MPD1    C3 3724   3.528   4.339  15.845 -0.1042  0.1976  0.3285
  242MPD1    C4 3725   3.575   4.220  15.906  1.2758  0.8016 -0.6835
  242MPD1    C5 3726   3.532   4.191  16.035 -0.0496 -0.3513 -0.3025
  242MPD1     H 3727   3.388   4.505  15.863  3.9346  2.9021  1.5436
  242MPD1    H1 3728   3.640   4.154  15.850 -0.3090 -1.1029 -0.2690
  242MPD1    H2 3729   3.421   4.264  16.209 -0.6622  1.5759 -0.0828
  242MPD1    H3 3730   3.581   4.109  16.088 -0.6338  1.4784  3.0787
  242MPD1     N 3731   3.581   4.369  15.712  0.3726  0.2103 -0.1147
  242MPD1    H5 3732   3.632   4.290  15.674  1.7460  0.7611  0.5939
  242MPD1    N1 3733   3.304   4.465  16.105  0.7917  0.0451  0.0365
  242MPD1    H6 3734   3.243   4.510  16.038 -1.2477  1.5921  2.9322
  242MPD1    H7 3735   3.252   4.402  16.165  1.8409 -0.3498  0.5454
  243MPD1     C 3736   4.053   3.267   0.166  0.9136  0.5433  0.2896
  243MPD1    C1 3737   4.131   3.189   0.249  0.2581  0.1306 -0.6894
  243MPD1    C2 3738   4.263   3.169   0.225 -0.4298 -0.0456  0.3544
  243MPD1    C3 3739   4.321   3.235   0.117  0.2131 -1.1804  0.1560
  243MPD1    C4 3740   4.245   3.324   0.049  0.3806 -0.6552  0.6303
  243MPD1    C5 3741   4.114   3.346   0.075 -0.4467 -0.0785  0.2326
  243MPD1     H 3742   4.320   3.102   0.288 -1.4768 -1.1500  0.1217
  243MPD1    H1 3743   4.289   3.382  17.713 -0.6819  2.1092  2.0666
  243MPD1    H2 3744   3.945   3.272   0.159  0.7739  0.7711  2.6126
  243MPD1    H3 3745   4.050   3.408   0.013 -0.8985 -1.4415 -0.6812
  243MPD1     N 3746   4.465   3.227   0.101 -0.0382  0.3621 -0.2014
  243MPD1    H5 3747   4.512   3.159   0.161  1.1780  1.3296 -0.0512
  243MPD1    N1 3748   4.062   3.107   0.342 -0.3875  0.1422 -0.4926
  243MPD1    H6 3749   4.110   3.074   0.425  0.5281  1.8459 -0.3624
  243MPD1    H7 3750   3.968   3.134   0.372  1.0397  0.5643  3.5513
  244MPD1     C 3751   0.360   2.685   0.469  0.5650 -0.7435 -0.1988
  244MPD1    C1 3752   0.429   2.800   0.465 -0.0171 -0.1268 -0.2130
  244MPD1    C2 3753   0.400   2.889   0.366 -0.5295  0.0968 -0.0321
  244MPD1    C3 3754   0.296   2.866   0.275 -0.2320  0.2386  0.1872
  244MPD1    C4 3755   0.237   2.747   0.279  0.2790  0.2107  0.4176
  244MPD1    C5 3756   0.266   2.660   0.375  0.2231  0.5208  0.2224
  244MPD1     H 3757   0.442   2.988   0.379  1.2240 -0.6250 -0.1634
  244MPD1    H1 3758   0.157   2.716   0.211  1.4092 -1.0429 -0.3400
  244MPD1    H2 3759   0.397   2.605   0.533 -1.2589 -0.7392  0.8711
  244MPD1    H3 3760   0.210   2.568   0.363 -0.9007  1.0561  1.3544
  244MPD1     N 3761   0.260   2.965   0.187 -0.1100 -0.1982 -0.6733
  244MPD1    H5 3762   0.326   3.041   0.184 -1.5518  1.1404  1.3620
  244MPD1    N1 3763   0.522   2.834   0.565  0.3665  0.0745 -0.1946
  244MPD1    H6 3764   0.617   2.850   0.534  0.3928  1.1880  0.4737
  244MPD1    H7 3765   0.527   2.761   0.635 -0.1061  0.0504 -0.1809
  245MPD1     C 3766   2.036   3.235  13.786  0.1563  0.4966  0.0289
  245MPD1    C1 3767   2.150   3.247  13.718  0.7299  0.5416  0.0119
  245MPD1    C2 3768   2.176   3.369  13.657 -1.0048 -0.6722 -0.0481
  245MPD1    C3 3769   2.109   3.481  13.695  0.2964 -0.6443  0.4914
  245MPD1    C4 3770   2.000   3.471  13.774  0.0908 -0.2584 -0.4140
  245MPD1    C5 3771   1.958   3.345  13.817 -0.3372 -0.0191  0.0707
  245MPD1     H 3772   2.256   3.388  13.586 -0.3538  0.2611  0.9224
  245MPD1    H1 3773   1.939   3.559  13.792  0.7334  0.0923  0.0407
  245MPD1    H2 3774   2.008   3.141  13.833  3.0634  0.1989  1.1090
  245MPD1    H3 3775   1.877   3.333  13.888 -0.5111 -0.6755 -0.2432
  245MPD1     N 3776   2.160   3.610  13.652 -0.4989  0.0318 -0.1675
  245MPD1    H5 3777   2.252   3.612  13.611 -0.0439 -1.4556  0.8037
  245MPD1    N1 3778   2.231   3.135  13.688 -0.1308  0.4577  0.4403
  245MPD1    H6 3779   2.320   3.153  13.643 -0.6206 -1.1576 -1.1490
  245MPD1    H7 3780   2.223   3.061  13.758 -0.7380  0.0354 -0.0787
  246MPD1     C 3781   2.605   2.771   9.904 -0.2370  0.1503 -0.4272
  246MPD1    C1 3782   2.703   2.868   9.876  0.5397 -0.3767  0.8961
  246MPD1    C2 3783   2.817   2.872   9.955  0.1220  0.3657 -0.9679
  246MPD1    C3 3784   2.813   2.814  10.079  0.2669  0.4323 -0.3624
  246MPD1    C4 3785   2.712   2.728  10.111 -0.0636  0.2157  0.8132
  246MPD1    C5 3786   2.615   2.699  10.020  0.4453  0.7217  0.4997
  246MPD1     H 3787   2.902   2.932   9.926  2.0357 -1.2469  1.3172
  246MPD1    H1 3788   2.713   2.670  10.202 -1.4760 -1.4051 -0.2009
  246MPD1    H2 3789   2.517   2.766   9.842 -0.3063  1.8201 -0.4626
  246MPD1    H3 3790   2.536   2.632  10.051  1.0170 -0.1661  0.0492
  246MPD1     N 3791   2.914   2.842  10.177  0.2098  0.3100  0.5162
  246MPD1    H5 3792   2.992   2.900  10.150  0.7717 -1.9921 -2.8705
  246MPD1    N1 3793   2.694   2.937   9.752  0.2926  0.1215  0.9042
  246MPD1    H6 3794   2.761   3.012   9.737 -0.5052  0.9813  1.6708
  246MPD1    H7 3795   2.603   2.956   9.710  1.1729  0.9752 -0.5824
  247MPD1     C 3796   2.243   4.698  17.472  0.2816  0.4788  0.0227
  247MPD1    C1 3797   2.311   4.692  17.350  0.4189 -0.1773  0.2580
  247MPD1    C2 3798   2.295   4.577  17.273 -0.0684 -0.1918 -0.8558
  247MPD1    C3 3799   2.202   4.482  17.314  0.0213  0.4068 -1.1613
  247MPD1    C4 3800   2.131   4.499  17.426  0.0063 -0.1474  0.0274
  247MPD1    C5 3801   2.147   4.605  17.505  0.3512  0.2411 -0.0559
  247MPD1     H 3802   2.355   4.570  17.183 -1.8457 -1.8982 -1.9239
  247MPD1    H1 3803   2.048   4.434  17.451  0.1771 -0.5930 -0.5704
  247MPD1    H2 3804   2.256   0.042  17.543 -0.6295  1.8516 -1.3492
  247MPD1    H3 3805   2.080   4.614  17.590  0.6443 -1.0830  0.3082
  247MPD1     N 3806   2.177   4.362  17.242  0.0273  0.7193 -0.5317
  247MPD1    H5 3807   2.128   4.287  17.288  2.0592 -2.2144 -3.0935
  247MPD1    N1 3808   2.400   0.053  17.312 -0.6948 -0.7633  0.3330
  247MPD1    H6 3809   2.429   0.049  17.215 -0.0380 -1.9984  0.5825
  247MPD1    H7 3810   2.369   0.147  17.336  1.0989  0.0708 -0.6884
  248MPD1     C 3811   1.529   2.737  17.461 -0.6094  0.1128  0.1863
  248MPD1    C1 3812   1.554   2.861  17.515  1.0363  0.0418 -0.1357
  248MPD1    C2 3813   1.617   2.868  17.639  0.2414 -0.1352  0.5167
  248MPD1    C3 3814   1.685   2.759  17.689 -0.1649  0.6717 -0.8558
  248MPD1    C4 3815   1.662   2.637  17.624 -0.2447 -0.4298 -0.5398
  248MPD1    C5 3816   1.589   2.626  17.511  0.0603  0.0394  0.6736
  248MPD1     H 3817   1.623   2.965  17.687  0.5634  1.0909 -2.0027
  248MPD1    H1 3818   1.714   2.549  17.659 -0.6467  0.7529  3.0430
  248MPD1    H2 3819   1.464   2.730  17.374 -1.2546 -0.8986  0.7458
  248MPD1    H3 3820   1.575   2.529  17.463  2.4381  0.4083 -0.7364
  248MPD1     N 3821   1.745   2.765   0.068 -0.1350  0.1197  0.0406
  248MPD1    H5 3822   1.742   2.857   0.112 -1.4755 -0.2482  0.7324
  248MPD1    N1 3823   1.466   2.965  17.473  0.0067 -0.9371  0.8996
  248MPD1    H6 3824   1.503   3.057  17.498 -1.4568  0.3552 -1.7430
  248MPD1    H7 3825   1.448   2.957  17.373  1.6628 -2.2103  0.7209
  249MPD1     C 3826   3.795   2.177  10.280 -0.2188  0.1099  0.1061
  249MPD1    C1 3827   3.836   2.215  10.152  1.0130  0.2072  0.4605
  249MPD1    C2 3828   3.919   2.326  10.152 -0.6771 -1.3159  0.2012
  249MPD1    C3 3829   3.969   2.382  10.265 -0.3151  0.0051  0.4357
  249MPD1    C4 3830   3.935   2.336  10.389 -0.3516 -0.4978  0.4507
  249MPD1    C5 3831   3.844   2.234  10.396  0.8416  0.4857 -0.1460
  249MPD1     H 3832   3.950   2.367  10.056 -0.2685  0.1920  0.9829
  249MPD1    H1 3833   3.972   2.373  10.484  1.1172 -0.6988 -0.0539
  249MPD1    H2 3834   3.729   2.091  10.287  0.1886 -0.2996 -1.1328
  249MPD1    H3 3835   3.809   2.196  10.491 -0.1087 -1.0669 -1.1217
  249MPD1     N 3836   4.065   2.485  10.250 -0.8001  0.3496  0.1147
  249MPD1    H5 3837   4.096   2.517  10.159 -0.4772 -2.0081 -0.6021
  249MPD1    N1 3838   3.763   2.179  10.040  0.8632  0.6641  0.7506
  249MPD1    H6 3839   3.803   2.188   9.946  0.3857  0.8301  0.5665
  249MPD1    H7 3840   3.739   2.080  10.039 -0.4137  0.9913 -1.1647
  250MPD2     C 3841   1.304   3.071  12.753 -0.3446  0.9159  0.0825
  250MPD2    C1 3842   1.182   3.070  12.822 -0.8365  0.3761  0.2358
  250MPD2    C2 3843   1.090   2.975  12.799 -0.0997  0.4921 -0.1974
  250MPD2    C3 3844   1.125   2.868  12.711  0.2283 -0.4505 -0.2869
  250MPD2    C4 3845   1.245   2.861  12.653  0.3503 -0.5794 -0.0398
  250MPD2    C5 3846   1.332   2.962  12.674 -0.4585  0.2314  0.2780
  250MPD2     H 3847   0.994   2.980  12.850  1.2087  1.5934  2.1361
  250MPD2    H1 3848   1.282   2.776  12.598  0.7055  0.8285 -1.9549
  250MPD2    H2 3849   1.379   3.148  12.766 -1.4283  1.9685  0.1806
  250MPD2    H3 3850   1.427   2.969  12.623  0.0209 -1.6662  0.9542
  250MPD2     N 3851   1.038   2.752  12.707  0.0735  0.0097 -0.2102
  250MPD2    H5 3852   1.068   2.666  12.661 -0.4774 -0.4482  0.2738
  250MPD2    N1 3853   1.153   3.182  12.903  0.0901 -0.2347  0.2716
  250MPD2    H7 3854   1.215   3.262  12.895 -2.5704  2.0943  2.7665
  251TMC3    C1 3855   1.031   3.328  13.053 -0.5690  0.7699 -0.7171
  251TMC3    C2 3856   0.918   3.342  13.129 -1.1007 -0.1155  0.2923
  251TMC3    C3 3857   0.916   3.441  13.225 -0.2847 -0.4050 -0.5786
  251TMC3    C4 3858   1.143   3.407  13.065  0.3077  0.3141 -0.1431
  251TMC3    C5 3859   1.128   3.516  13.153 -0.2228 -1.3515  0.0979
  251TMC3    C6 3860   1.019   3.532  13.235 -0.3946 -0.0979 -0.6700
  251TMC3     C 3861   1.045   3.195  12.991  0.4077 -0.4767 -0.2447
  251TMC3     O 3862   0.961   3.115  13.027  0.3981  0.1181 -0.3607
  251TMC3     H 3863   0.828   3.288  13.102 -0.9026 -1.2765  1.9384
  251TMC3    H1 3864   1.241   3.384  13.025 -0.1340  0.9950 -1.5975
  251TMC3    H2 3865   1.008   3.616  13.302  0.4312 -0.3244 -0.2455
  251TMC3    C7 3866   1.242   3.600  13.187  0.1091 -0.2547  0.4842
  251TMC3    C8 3867   0.786   3.469  13.296 -0.2509 -0.3499 -0.3554
  251TMC3    O1 3868   1.239   3.649  13.298 -0.1393  0.0962 -0.3093
  251TMC3    O2 3869   0.771   3.583  13.344 -0.2878  0.8126  0.0795
  252TMC3    C1 3870   0.422   4.311   9.500 -0.3697 -0.0090  0.0742
  252TMC3    C2 3871   0.517   4.407   9.523  0.1244 -0.0905 -0.3797
  252TMC3    C3 3872   0.501   4.490   9.631 -0.3432 -0.2458 -0.0581
  252TMC3    C4 3873   0.324   4.288   9.595  0.6784  0.9847 -0.0638
  252TMC3    C5 3874   0.318   4.360   9.709  0.1799  0.1301  0.0196
  252TMC3    C6 3875   0.406   4.459   9.729 -0.4365  0.1678 -0.0591
  252TMC3     C 3876   0.398   4.285   9.360 -0.1154  0.9089  0.0810
  252TMC3     O 3877   0.484   4.321   9.278 -0.0422  0.1110  0.5849
  252TMC3     H 3878   0.581   4.440   9.442  0.9623  0.9326  0.7062
  252TMC3    H1 3879   0.232   4.234   9.577  1.0848 -0.3450  1.7794
  252TMC3    H2 3880   0.408   4.519   9.820  2.9139 -0.5301  0.3262
  252TMC3    C7 3881   0.251   4.315   9.823 -0.7719  0.0039  0.3512
  252TMC3    C8 3882   0.623   4.561   9.663 -0.5189  0.7741  0.3519
  252TMC3    O1 3883   0.200   4.390   9.906  0.3607  0.2576  0.2950
  252TMC3    O2 3884   0.688   4.603   9.569 -0.8656  0.0655  1.1447
  253MPD2     C 3885   2.250   3.138  15.400 -0.1452 -0.4258 -0.0551
  253MPD2    C1 3886   2.118   3.103  15.405 -0.0472  0.0157 -0.3436
  253MPD2    C2 3887   2.068   3.071  15.527 -0.0734 -0.9302  0.7815
  253MPD2    C3 3888   2.143   3.074  15.636  0.1697 -0.2822  0.3113
  253MPD2    C4 3889   2.277   3.104  15.624  0.0455  0.2451 -0.2105
  253MPD2    C5 3890   2.328   3.142  15.508  0.2397  0.2961  0.4065
  253MPD2     H 3891   1.966   3.035  15.529  0.2659 -2.0653 -1.4229
  253MPD2    H1 3892   2.348   3.107  15.706  0.2253  0.6835 -0.3836
  253MPD2    H2 3893   2.296   3.167  15.306 -0.9508  2.7308  0.5121
  253MPD2    H3 3894   2.434   3.163  15.516 -0.1190  1.9645  0.9115
  253MPD2     N 3895   2.089   3.035  15.759  0.0571  0.5739  0.4226
  253MPD2    H5 3896   2.152   3.030  15.838 -0.5481  0.2823  0.8843
  253MPD2    N1 3897   2.022   3.127  15.311 -0.7219  0.9788 -0.4638
  253MPD2    H7 3898   1.927   3.099  15.332 -0.1075  0.9702  2.3869
  254TMC3    C1 3899   1.909   2.977  15.914 -0.0768 -0.2878  0.8437
  254TMC3    C2 3900   1.780   3.018  15.942  0.5672  1.2463  0.0898
  254TMC3    C3 3901   1.709   2.946  16.033  0.6286 -0.3115 -0.2193
  254TMC3    C4 3902   1.962   2.861  15.957  0.3195 -1.3114  0.0736
  254TMC3    C5 3903   1.884   2.796  16.046 -0.0325  0.2286 -0.9607
  254TMC3    C6 3904   1.759   2.829  16.084 -0.1419 -0.2875  0.8848
  254TMC3     C 3905   1.953   3.025  15.782  0.0673  0.2675 -0.4671
  254TMC3     O 3906   1.863   3.088  15.722  0.0480 -0.6220  0.2723
  254TMC3     H 3907   1.744   3.111  15.901 -1.1132 -0.0070 -1.2925
  254TMC3    H1 3908   2.056   2.824  15.918 -0.2374 -2.5475 -0.0913
  254TMC3    H2 3909   1.690   2.781  16.153  0.2937 -0.1658  1.3993
  254TMC3    C7 3910   1.960   2.740  16.156  0.0419 -0.2477  0.7963
  254TMC3    C8 3911   1.587   2.997  16.103 -0.1381  0.1134  0.2832
  254TMC3    O1 3912   1.894   2.678  16.239 -0.1776 -0.1263  0.1596
  254TMC3    O2 3913   1.562   2.939  16.208 -0.0371  0.3793  0.1061
  255MPD2     C 3914   4.248   0.324  10.528  0.4505  0.6964  0.2061
  255MPD2    C1 3915   4.350   0.416  10.497 -0.5812 -0.7753  0.3235
  255MPD2    C2 3916   4.472   0.364  10.452  0.5909  0.3571  0.1582
  255MPD2    C3 3917   4.473   0.232  10.403 -0.2360  0.2580  0.3315
  255MPD2    C4 3918   4.369   0.151  10.427 -0.8268 -0.2773 -0.7937
  255MPD2    C5 3919   4.258   0.195  10.496 -0.4788 -0.5361 -0.5596
  255MPD2     H 3920   4.556   0.432  10.442  1.2379 -0.8880 -2.7366
  255MPD2    H1 3921   4.367   0.044  10.406  1.1428 -0.5963  0.5566
  255MPD2    H2 3922   4.156   0.357  10.575  0.3853  0.0893  0.5017
  255MPD2    H3 3923   4.170   0.135  10.517 -0.4513 -0.6218 -0.6844
  255MPD2     N 3924   4.587   0.200  10.327  0.5132 -0.2349 -0.0709
  255MPD2    H5 3925   4.664   0.267  10.320 -0.6727  1.3354  2.0144
  255MPD2    N1 3926   4.325   0.553  10.496 -0.0311  0.7823  0.2489
  255MPD2    H7 3927   4.407   0.609  10.477 -0.1086  0.6997 -0.3354
  256TMC3    C1 3928   4.196   0.753  10.456  0.4223 -0.2841  0.3286
  256TMC3    C2 3929   4.298   0.838  10.478  0.0581  0.8597 -0.5559
  256TMC3    C3 3930   4.297   0.952  10.395  0.3937 -0.1653 -0.2209
  256TMC3    C4 3931   4.089   0.791  10.375  0.2138 -0.1316  0.2081
  256TMC3    C5 3932   4.088   0.903  10.299  1.2218 -0.6534  0.5086
  256TMC3    C6 3933   4.199   0.990  10.316 -0.3796  0.0803 -0.1452
  256TMC3     C 3934   4.201   0.611  10.509  0.5637  0.0794 -0.0601
  256TMC3     O 3935   4.089   0.567  10.530  0.0288  0.0526  0.1454
  256TMC3     H 3936   4.378   0.817  10.548 -0.7056  2.1237  0.6705
  256TMC3    H1 3937   4.007   0.723  10.359  0.2792 -0.1315 -0.1326
  256TMC3    H2 3938   4.202   1.085  10.263 -2.1096 -0.3659 -1.0161
  256TMC3    C7 3939   4.017   0.901  10.179 -0.1872  0.1064  0.3548
  256TMC3    C8 3940   4.420   1.025  10.378  0.3900 -0.4235 -0.4272
  256TMC3    O1 3941   3.969   0.801  10.126  0.1708  0.5113 -0.4702
  256TMC3    O2 3942   4.463   1.081  10.479 -0.2708  0.3336  0.5987
  257MPD2     C 3943   4.376   3.230  13.252  0.2952 -0.5018 -0.5408
  257MPD2    C1 3944   4.399   3.096  13.226  0.7048 -0.0499 -0.0018
  257MPD2    C2 3945   4.359   2.996  13.315  0.4321  0.4149  0.6547
  257MPD2    C3 3946   4.270   3.021  13.408  0.7059  0.1523  0.4149
  257MPD2    C4 3947   4.240   3.150  13.434 -0.3467 -0.0919 -0.2560
  257MPD2    C5 3948   4.291   3.253  13.362  1.0523  0.0421 -0.6044
  257MPD2     H 3949   4.393   2.894  13.299  0.4892  0.8604 -2.1805
  257MPD2    H1 3950   4.158   3.180  13.498 -1.1160 -1.0242 -0.8026
  257MPD2    H2 3951   4.414   3.313  13.194  1.2248 -1.9529 -2.0094
  257MPD2    H3 3952   4.248   3.352  13.374 -0.0251 -0.5608  0.4589
  257MPD2     N 3953   4.219   2.915  13.481 -0.8027  0.3989 -0.4294
  257MPD2    H5 3954   4.248   2.821  13.458 -0.0931  0.7835 -1.1422
  257MPD2    N1 3955   4.484   3.082  13.113 -0.6436  0.0536  0.7756
  257MPD2    H7 3956   4.503   3.171  13.068 -0.2980 -0.7739 -0.7148
  258TMC3    C1 3957   4.093   2.787  13.643  0.4033  0.3057  0.0712
  258TMC3    C2 3958   3.964   2.757  13.664  0.9608 -0.2415  0.2266
  258TMC3    C3 3959   3.945   2.632  13.718  0.1567  0.1267  0.2893
  258TMC3    C4 3960   4.199   2.713  13.696 -0.1489 -0.2475 -0.2027
  258TMC3    C5 3961   4.173   2.591  13.759  0.5337 -0.0719  0.7965
  258TMC3    C6 3962   4.046   2.552  13.764 -0.5908  0.4589 -0.2050
  258TMC3     C 3963   4.116   2.921  13.581 -0.0050 -0.5441 -0.0008
  258TMC3     O 3964   4.060   3.015  13.631  0.2640 -0.1967 -0.8460
  258TMC3     H 3965   3.889   2.802  13.601  2.0860  0.5117 -0.5688
  258TMC3    H1 3966   4.301   2.745  13.682 -0.1660 -0.0928  0.0303
  258TMC3    H2 3967   4.013   2.471  13.829 -1.1095 -0.5101 -1.6793
  258TMC3    C7 3968   4.281   2.536  13.840  0.7283  0.7401 -0.1923
  258TMC3    C8 3969   3.817   2.578  13.684 -0.5865  0.1938  0.1219
  258TMC3    O1 3970   4.373   2.612  13.870  0.2875 -0.0021 -0.7345
  258TMC3    O2 3971   3.734   2.655  13.641 -0.4968  0.7646  0.3519
  259MPD2     C 3972   3.655   4.268   1.270 -0.4855 -0.2960 -0.6183
  259MPD2    C1 3973   3.614   4.147   1.219 -0.4683  0.6946  0.0012
  259MPD2    C2 3974   3.526   4.148   1.106  0.1106  0.2913 -0.4630
  259MPD2    C3 3975   3.480   4.266   1.051 -0.0720 -0.0099 -0.3938
  259MPD2    C4 3976   3.529   4.387   1.109  0.0674  0.0068  0.3972
  259MPD2    C5 3977   3.616   4.385   1.214 -0.5538  0.2549 -0.1677
  259MPD2     H 3978   3.493   4.052   1.069 -0.4119 -0.0694  0.9161
  259MPD2    H1 3979   3.493   4.486   1.081 -2.5107 -0.3836  2.2870
  259MPD2    H2 3980   3.723   4.256   1.353 -0.9086 -0.1758 -0.2583
  259MPD2    H3 3981   3.639   4.486   1.244 -0.6479  0.4330 -0.6859
  259MPD2     N 3982   3.383   4.272   0.949 -0.2841 -0.2503 -0.0829
  259MPD2    H5 3983   3.345   4.179   0.936 -1.9740  0.5550 -0.8554
  259MPD2    N1 3984   3.656   4.025   1.283  0.8882 -0.2982 -0.2218
  259MPD2    H7 3985   3.727   4.026   1.355  0.0403 -0.5732  0.6088
  260TMC3    C1 3986   3.248   4.375   0.781  0.3836 -0.4355  0.2036
  260TMC3    C2 3987   3.263   4.455   0.675  1.0235 -0.0887  0.1369
  260TMC3    C3 3988   3.213   4.411   0.559 -0.3523  0.4610  0.9813
  260TMC3    C4 3989   3.173   4.260   0.777  0.6991  1.2691  0.6989
  260TMC3    C5 3990   3.102   4.243   0.665  0.4294  0.2579  0.2181
  260TMC3    C6 3991   3.124   4.312   0.547  0.1749 -0.6995 -0.0510
  260TMC3     C 3992   3.357   4.381   0.873  0.4784 -0.5220  0.5291
  260TMC3     O 3993   3.418   4.487   0.861  0.6198  0.1448 -0.6250
  260TMC3     H 3994   3.317   4.549   0.680  1.9827 -0.6303 -0.1283
  260TMC3    H1 3995   3.145   4.206   0.867  0.2211 -0.2754 -0.3868
  260TMC3    H2 3996   3.066   4.288   0.459  2.1609  0.9009 -1.7979
  260TMC3    C7 3997   2.988   4.150   0.672 -0.0399 -0.4309 -0.2131
  260TMC3    C8 3998   3.319   4.419   0.454 -0.3852 -0.5483  0.2105
  260TMC3    O1 3999   2.892   4.181   0.612 -0.4768 -0.5478 -0.0481
  260TMC3    O2 4000   3.398   4.506   0.481  0.2042 -0.1934 -0.2039
  261MPD2     C 4001   0.195   2.632  12.778  0.1287 -0.3295  0.1640
  261MPD2    C1 4002   0.289   2.642  12.676 -0.3651  0.5109  0.4633
  261MPD2    C2 4003   0.244   2.692  12.553 -0.0257 -0.2585 -0.2569
  261MPD2    C3 4004   0.108   2.726  12.527 -0.6862 -0.9975  0.7097
  261MPD2    C4 4005   0.020   2.719  12.632  0.5191  0.2845 -0.3242
  261MPD2    C5 4006   0.060   2.674  12.759 -0.3710 -0.0150 -0.6440
  261MPD2     H 4007   0.309   2.681  12.466  0.4402 -0.2403  0.0900
  261MPD2    H1 4008   4.650   2.737  12.619  0.6542  1.2591 -0.1046
  261MPD2    H2 4009   0.231   2.608  12.877 -1.8615 -0.2294  0.9148
  261MPD2    H3 4010   4.725   2.665  12.840  0.5710 -0.1264  0.1699
  261MPD2     N 4011   0.070   2.785  12.407  0.2029 -0.4598 -0.1877
  261MPD2    H5 4012   0.144   2.803  12.340  1.2510  1.8017  1.5699
  261MPD2    N1 4013   0.426   2.614  12.701  0.0498 -0.3160 -0.5937
  261MPD2    H7 4014   0.482   2.645  12.623  1.5601  1.4035  1.1809
  262TMC3    C1 4015   4.690   2.881  12.237  0.1922 -0.4526 -0.6437
  262TMC3    C2 4016   4.630   2.998  12.221 -0.2985  0.0256  0.2922
  262TMC3    C3 4017   4.663   3.068  12.113  0.3286 -0.2829  0.4433
  262TMC3    C4 4018   0.040   2.829  12.144  0.6091 -0.1923 -0.5135
  262TMC3    C5 4019   0.070   2.896  12.031 -0.2230 -0.3706 -0.0275
  262TMC3    C6 4020   0.013   3.021  12.015 -0.7814  1.2322 -0.0820
  262TMC3     C 4021   4.682   2.822  12.365 -0.8545  0.4530  0.7304
  262TMC3     O 4022   4.578   2.822  12.423 -0.0329 -0.6045  0.5497
  262TMC3     H 4023   4.575   3.032  12.307 -0.6824  2.1179 -0.7911
  262TMC3    H1 4024   0.085   2.734  12.172 -1.6229 -1.3640 -0.8789
  262TMC3    H2 4025   0.024   3.083  11.927  1.2622  1.0326  0.0240
  262TMC3    C7 4026   0.166   2.838  11.943 -0.7838  0.0435  0.0555
  262TMC3    C8 4027   4.613   3.202  12.107 -0.0455  0.6438 -0.4022
  262TMC3    O1 4028   0.202   2.721  11.953 -0.0442  0.5200  0.2264
  262TMC3    O2 4029   4.666   3.276  12.022 -0.1037  0.3931 -0.1505
  263MPD2     C 4030   1.047   2.029  11.961 -0.1383  0.1333  0.3140
  263MPD2    C1 4031   1.181   2.057  11.938  0.2405 -0.1082  0.3909
  263MPD2    C2 4032   1.216   2.138  11.829 -0.4647 -0.4327 -0.3466
  263MPD2    C3 4033   1.117   2.195  11.744 -0.2782 -0.1152 -0.1233
  263MPD2    C4 4034   0.989   2.141  11.762  0.9761  0.7165  0.1211
  263MPD2    C5 4035   0.954   2.069  11.871  0.0851 -0.7356  0.2065
  263MPD2     H 4036   1.321   2.160  11.813 -0.4018  0.3347  1.1241
  263MPD2    H1 4037   0.905   2.168  11.698  3.7689  3.5092 -2.4136
  263MPD2    H2 4038   1.011   1.979  12.050 -0.9079  0.6383  0.2871
  263MPD2    H3 4039   0.850   2.043  11.888 -0.3756  0.6984 -0.4347
  263MPD2     N 4040   1.155   2.275  11.631  0.0400  0.2925  0.8422
  263MPD2    H5 4041   1.248   2.317  11.631 -0.2982  1.0489  0.1391
  263MPD2    N1 4042   1.275   1.990  12.021 -0.0455  0.1698  0.0429
  263MPD2    H7 4043   1.231   1.931  12.091 -1.2933  2.0201  0.8385
  264TMC3    C1 4044   1.152   2.370  11.415  0.3650  0.3128  0.2364
  264TMC3    C2 4045   1.254   2.439  11.480  0.1732 -0.2633 -0.4924
  264TMC3    C3 4046   1.373   2.451  11.409  0.1019 -0.2666  0.4783
  264TMC3    C4 4047   1.175   2.290  11.305  0.2155 -1.1127  0.1572
  264TMC3    C5 4048   1.303   2.290  11.250 -0.2420  0.2922 -0.2583
  264TMC3    C6 4049   1.397   2.370  11.304  0.1267 -0.2589  0.1681
  264TMC3     C 4050   1.079   2.302  11.521  0.0432 -0.3620  0.4230
  264TMC3     O 4051   0.977   2.241  11.486 -0.4213  0.3531  0.1405
  264TMC3     H 4052   1.221   2.509  11.556  2.3134  2.4990 -2.1443
  264TMC3    H1 4053   1.096   2.223  11.274 -1.0761  0.7040 -0.4349
  264TMC3    H2 4054   1.493   2.365  11.253 -0.1846 -0.5799 -0.3871
  264TMC3    C7 4055   1.326   2.248  11.113  0.0285  0.1656 -0.0049
  264TMC3    C8 4056   1.481   2.533  11.465 -0.1383 -0.4999 -0.2338
  264TMC3    O1 4057   1.433   2.270  11.061 -0.3705  0.8729  0.8779
  264TMC3    O2 4058   1.585   2.537  11.399 -0.9225 -0.2831  0.3593
  265MPD2     C 4059   2.764   2.386  15.547 -0.2174  0.3853 -0.3311
  265MPD2    C1 4060   2.877   2.462  15.529 -0.1462 -0.4551 -0.2298
  265MPD2    C2 4061   2.967   2.422  15.437 -0.9607 -0.2431 -0.4895
  265MPD2    C3 4062   2.951   2.310  15.357 -0.2784 -0.1681  0.0278
  265MPD2    C4 4063   2.833   2.242  15.376 -0.1495 -0.0304 -0.2164
  265MPD2    C5 4064   2.744   2.276  15.469 -0.7281  0.3764 -0.4106
  265MPD2     H 4065   3.062   2.473  15.421 -0.5705 -0.9781 -0.4905
  265MPD2    H1 4066   2.808   2.171  15.299 -0.7151  2.7049 -2.5428
  265MPD2    H2 4067   2.681   2.402  15.615  0.7761  0.6871  0.8050
  265MPD2    H3 4068   2.652   2.220  15.473 -0.8348  0.5756  0.0152
  265MPD2     N 4069   3.037   2.283  15.241  0.7955 -0.1650  0.3215
  265MPD2    H5 4070   3.003   2.208  15.180  0.4909  0.7174 -0.6001
  265MPD2    N1 4071   2.891   2.577  15.606 -0.4844 -0.2168 -0.8528
  265MPD2    H7 4072   2.970   2.636  15.584 -1.4790  2.0232  1.5757
  266TMC3    C1 4073   2.867   2.719  15.791 -0.5491  0.7228 -0.4537
  266TMC3    C2 4074   2.851   2.710  15.923  0.3477  0.3990  0.1922
  266TMC3    C3 4075   2.823   2.826  15.987 -0.1816 -0.2580  0.7384
  266TMC3    C4 4076   2.850   2.832  15.714  0.1013  0.1642 -0.5570
  266TMC3    C5 4077   2.817   2.948  15.787 -0.4414 -0.5176  0.2043
  266TMC3    C6 4078   2.807   2.948  15.922 -0.2294  0.3487  1.1784
  266TMC3     C 4079   2.832   2.598  15.729 -0.1883  0.3685  0.0532
  266TMC3     O 4080   2.764   2.524  15.795  0.1914 -0.2347 -0.4200
  266TMC3     H 4081   2.886   2.619  15.969 -2.7807 -0.6760  0.4016
  266TMC3    H1 4082   2.874   2.836  15.608  0.4134 -1.5642 -0.5566
  266TMC3    H2 4083   2.752   3.024  15.976  1.5840  2.6584 -0.2529
  266TMC3    C7 4084   2.766   3.050  15.704 -0.6553 -0.3210  0.5596
  266TMC3    C8 4085   2.802   2.818  16.136  0.6272 -0.6680 -0.8792
  266TMC3    O1 4086   2.733   3.026  15.592  0.1275  0.0705  0.9622
  266TMC3    O2 4087   2.779   2.707  16.181 -0.2739 -0.2875 -0.5737
  267MPD2     C 4088   0.161   3.663   0.643 -0.6610  0.0323  0.2078
  267MPD2    C1 4089   0.228   3.786   0.643  0.1898  0.1780  0.3593
  267MPD2    C2 4090   0.193   3.888   0.567  0.2885  0.3113  0.4245
  267MPD2    C3 4091   0.077   3.885   0.488  0.4321  0.9897  0.2478
  267MPD2    C4 4092   0.002   3.771   0.510 -0.4606  0.1997  0.1127
  267MPD2    C5 4093   0.034   3.667   0.585 -0.5819  0.3746 -0.2417
  267MPD2     H 4094   0.249   3.980   0.566  0.7535  0.0399  2.3774
  267MPD2    H1 4095   4.640   3.770   0.465  0.2841 -0.0453 -1.4944
  267MPD2    H2 4096   0.190   3.583   0.711 -1.4655 -0.3773  0.0762
  267MPD2    H3 4097   4.711   3.576   0.589 -0.0070  0.1196  2.5940
  267MPD2     N 4098   0.040   3.988   0.401 -0.2754 -1.1479 -0.1165
  267MPD2    H5 4099   4.682   3.981   0.364 -1.1916  2.2234  1.6579
  267MPD2    N1 4100   0.347   3.783   0.711  0.3235 -0.0342 -0.2658
  267MPD2    H7 4101   0.392   3.695   0.736 -0.0329  0.5073  2.2763
  268TMC3    C1 4102   0.556   3.889   0.784  0.3207  0.2984  0.6966
  268TMC3    C2 4103   0.634   4.003   0.784  0.4669 -0.6311  0.2380
  268TMC3    C3 4104   0.766   3.993   0.751 -0.1201 -0.4321  0.2623
  268TMC3    C4 4105   0.613   3.765   0.775 -0.0489 -0.1667 -0.2323
  268TMC3    C5 4106   0.746   3.763   0.741  0.8547  0.1145  0.3438
  268TMC3    C6 4107   0.821   3.874   0.724 -0.7803  0.0817 -0.4417
  268TMC3     C 4108   0.413   3.903   0.754 -0.3172  0.0887 -0.2885
  268TMC3     O 4109   0.365   4.013   0.753  0.0144 -0.7700  0.2625
  268TMC3     H 4110   0.591   4.102   0.787 -0.2853 -0.9500  0.0224
  268TMC3    H1 4111   0.559   3.672   0.785  0.7745 -0.6510 -0.2729
  268TMC3    H2 4112   0.925   3.872   0.691 -0.9758 -1.0763 -1.0317
  268TMC3    C7 4113   0.797   3.634   0.717  0.4493 -0.7604 -1.5743
  268TMC3    C8 4114   0.806   4.105   0.669 -0.4487 -0.4968  0.9170
  268TMC3    O1 4115   0.763   3.535   0.786 -0.1020 -0.3497  0.2600
  268TMC3    O2 4116   0.925   4.128   0.662  0.7414 -0.1608  0.1718
  269MPD2     C 4117   1.352   3.294  15.619 -0.1130  0.0186 -0.3889
  269MPD2    C1 4118   1.236   3.305  15.693 -0.1904  0.2829  0.2512
  269MPD2    C2 4119   1.159   3.416  15.697 -0.2838  0.4052 -0.1898
  269MPD2    C3 4120   1.215   3.528  15.632  0.0529  0.0306 -0.0837
  269MPD2    C4 4121   1.337   3.523  15.567 -0.2810 -0.5289 -0.2467
  269MPD2    C5 4122   1.402   3.403  15.562  0.1296 -0.7423 -0.2854
  269MPD2     H 4123   1.072   3.427  15.760  0.0310  1.4421  0.0640
  269MPD2    H1 4124   1.393   3.610  15.532  0.4670 -0.1984  1.8026
  269MPD2    H2 4125   1.404   3.199  15.613 -1.5746 -0.6781 -2.1795
  269MPD2    H3 4126   1.494   3.395  15.506 -0.0424  0.1178 -0.7006
  269MPD2     N 4127   1.131   3.641  15.620 -0.9409 -0.2264  0.0216
  269MPD2    H5 4128   1.041   3.633  15.665 -0.3902  2.6019  1.5931
  269MPD2    N1 4129   1.195   3.190  15.759 -0.0297 -0.6500  0.2398
  269MPD2    H7 4130   1.255   3.109  15.746  1.9323  0.2225  4.1543
  270TMC3    C1 4131   1.069   3.029  15.889  0.6915  0.0469  0.3487
  270TMC3    C2 4132   0.943   2.985  15.884 -0.0384 -0.1796  0.4085
  270TMC3    C3 4133   0.919   2.850  15.928  0.8585 -0.1489  0.4955
  270TMC3    C4 4134   1.178   2.957  15.927  0.4017  0.5773  0.2969
  270TMC3    C5 4135   1.146   2.848  15.995  0.5973  0.1292  0.1614
  270TMC3    C6 4136   1.025   2.793  15.993  0.3167  0.5170 -0.0925
  270TMC3     C 4137   1.079   3.159  15.827  0.1318 -0.2250 -0.2736
  270TMC3     O 4138   0.976   3.226  15.815  0.3520  0.1336  0.5214
  270TMC3     H 4139   0.868   3.032  15.821 -0.7009 -2.7327 -0.6918
  270TMC3    H1 4140   1.274   3.006  15.931  1.0529 -0.8219  1.4552
  270TMC3    H2 4141   1.005   2.692  16.029 -0.4359  0.6979  0.0040
  270TMC3    C7 4142   1.255   2.757  16.042 -0.2398  0.6812  0.3788
  270TMC3    C8 4143   0.857   2.765  15.831  0.0714 -0.5157  0.3250
  270TMC3    O1 4144   1.358   2.752  15.979 -0.1289 -0.0100  0.4468
  270TMC3    O2 4145   0.935   2.706  15.762 -0.3051 -0.2411  0.1363
  271MPD2     C 4146   0.201   3.080  14.095 -0.0725 -0.0076  0.3781
  271MPD2    C1 4147   0.131   3.016  14.201 -0.3916  0.1622 -0.2793
  271MPD2    C2 4148   4.734   3.001  14.194 -0.1491  0.3187  0.7904
  271MPD2    C3 4149   4.658   3.043  14.083 -0.1224  0.0414 -0.5488
  271MPD2    C4 4150   4.721   3.107  13.975 -0.5676  0.9741  0.6084
  271MPD2    C5 4151   0.123   3.122  13.987  0.1829  0.0803  0.4164
  271MPD2     H 4152   4.681   2.950  14.274  0.2117  0.1999  0.9551
  271MPD2    H1 4153   4.671   3.138  13.884  0.0812  2.2299  0.6861
  271MPD2    H2 4154   0.309   3.088  14.090 -0.1586  0.0060 -1.3512
  271MPD2    H3 4155   0.171   3.171  13.903  0.1291  1.0330  0.9371
  271MPD2     N 4156   4.517   3.016  14.065 -0.4407 -0.2396 -0.3042
  271MPD2    H5 4157   4.472   3.051  13.981 -0.8773  0.3033  0.1528
  271MPD2    N1 4158   0.204   2.965  14.313 -0.0356  0.0797  0.1737
  271MPD2    H7 4159   0.144   2.930  14.387 -0.3114  0.8319  0.3062
  272TMC3    C1 4160   0.376   2.867  14.427 -0.5177  0.4337  0.4334
  272TMC3    C2 4161   0.501   2.819  14.427  1.1997 -0.6583 -0.6510
  272TMC3    C3 4162   0.548   2.745  14.530  0.6024 -0.2645  0.4547
  272TMC3    C4 4163   0.300   2.856  14.538 -0.2944 -0.1044 -0.2014
  272TMC3    C5 4164   0.348   2.781  14.637  0.4843 -0.8437 -0.0619
  272TMC3    C6 4165   0.473   2.723  14.637  0.4477  0.4057 -0.6743
  272TMC3     C 4166   0.340   2.952  14.318 -0.8365 -0.4587  0.6438
  272TMC3     O 4167   0.427   2.988  14.242 -0.3364 -0.1406 -0.3210
  272TMC3     H 4168   0.560   2.828  14.336 -0.8170  1.3756 -1.7600
  272TMC3    H1 4169   0.219   2.928  14.551 -0.9896 -1.0337  0.6788
  272TMC3    H2 4170   0.501   2.665  14.724 -1.4238  1.3265  0.5338
  272TMC3    C7 4171   0.280   2.774  14.767 -0.4312 -0.4419 -0.3094
  272TMC3    C8 4172   0.682   2.685  14.519 -0.0227  0.4563 -0.3260
  272TMC3    O1 4173   0.156   2.786  14.771 -0.3695  0.5829  0.0784
  272TMC3    O2 4174   0.749   2.727  14.422 -0.1280 -0.4049  0.1465
  273MPD2     C 4175   1.989   0.531  11.032  0.4276  0.8047  0.1431
  273MPD2    C1 4176   1.956   0.587  11.152  0.2243  0.4087  0.1359
  273MPD2    C2 4177   1.915   0.721  11.155  0.4593 -0.7399  0.0732
  273MPD2    C3 4178   1.910   0.797  11.045 -0.3184 -0.1385  0.4210
  273MPD2    C4 4179   1.937   0.741  10.926 -0.3094 -0.6018  0.0021
  273MPD2    C5 4180   1.973   0.609  10.921 -0.7487 -0.3182  0.3086
  273MPD2     H 4181   1.892   0.761  11.254  0.4161 -0.1373 -0.1813
  273MPD2    H1 4182   1.929   0.801  10.836 -1.2832 -0.4351  0.1908
  273MPD2    H2 4183   2.010   0.425  11.017  1.3850  0.5090  3.7653
  273MPD2    H3 4184   1.987   0.566  10.822  0.3958 -0.1369  0.3900
  273MPD2     N 4185   1.869   0.931  11.050  0.0882 -0.3243 -0.3295
  273MPD2    H5 4186   1.818   0.963  10.968 -1.8101 -2.4107  0.0524
  273MPD2    N1 4187   1.971   0.514  11.270  0.0555  0.0471 -0.7203
  273MPD2    H7 4188   2.012   0.422  11.260 -0.4485 -0.4534  1.9584
  274TMC3    C1 4189   1.781   1.121  11.173 -0.0613 -0.1811 -0.6094
  274TMC3    C2 4190   1.654   1.115  11.119 -0.2688  0.1532  0.2672
  274TMC3    C3 4191   1.551   1.179  11.185  0.7132 -0.4305 -1.1188
  274TMC3    C4 4192   1.806   1.198  11.286 -0.6872 -0.4359  0.6770
  274TMC3    C5 4193   1.707   1.278  11.334  0.1815  0.3501  0.5437
  274TMC3    C6 4194   1.579   1.264  11.291  0.3508 -0.9803  0.2142
  274TMC3     C 4195   1.869   1.002  11.168  0.8052  0.5506 -0.9272
  274TMC3     O 4196   1.934   0.980  11.272 -0.5563 -0.0960 -0.1377
  274TMC3     H 4197   1.640   1.044  11.038  0.5261  0.4255 -0.0982
  274TMC3    H1 4198   1.891   1.185  11.352  0.7411  5.5527 -0.0306
  274TMC3    H2 4199   1.494   1.325  11.316  2.1790  1.9344 -0.6476
  274TMC3    C7 4200   1.722   1.352  11.461  0.9278 -0.0520  0.0005
  274TMC3    C8 4201   1.429   1.210  11.112 -0.0140 -0.3756  0.1401
  274TMC3    O1 4202   1.623   1.336  11.530  0.2615  0.5783 -0.0502
  274TMC3    O2 4203   1.331   1.241  11.182 -0.2064  0.1296  0.2262
  275MPD2     C 4204   2.119   3.330  14.806  0.0492 -0.6737 -0.6956
  275MPD2    C1 4205   2.050   3.451  14.810  0.5401 -0.8861  0.8134
  275MPD2    C2 4206   1.909   3.457  14.808 -0.0758 -0.2439  0.0814
  275MPD2    C3 4207   1.834   3.342  14.809  0.4812  0.0435  0.3992
  275MPD2    C4 4208   1.903   3.220  14.814 -0.2004 -0.9035 -0.6864
  275MPD2    C5 4209   2.041   3.211  14.825 -0.1345  0.0004 -0.0401
  275MPD2     H 4210   1.859   3.552  14.793  0.1597  0.2597  2.4967
  275MPD2    H1 4211   1.847   3.128  14.817  0.7929 -1.4798  0.2281
  275MPD2    H2 4212   2.226   3.311  14.813  0.3987  2.0847  1.3444
  275MPD2    H3 4213   2.095   3.120  14.848  0.2225 -0.3514 -2.2820
  275MPD2     N 4214   1.685   3.349  14.821  0.1485  0.1451 -0.8057
  275MPD2    H5 4215   1.632   3.262  14.815  0.9770 -0.3435 -1.0449
  275MPD2    N1 4216   2.111   3.571  14.800  0.4546  0.3602 -0.1345
  275MPD2    H7 4217   2.045   3.647  14.787  0.1973  0.1157 -0.2725
  276TMC3    C1 4218   2.272   3.735  14.804  0.8606 -0.3303 -0.1721
  276TMC3    C2 4219   2.180   3.819  14.747 -0.1460 -0.5110 -0.0534
  276TMC3    C3 4220   2.132   3.925  14.815 -0.1886 -0.4333  0.3325
  276TMC3    C4 4221   2.313   3.754  14.926  0.1086  0.6257  0.2473
  276TMC3    C5 4222   2.277   3.872  14.987 -0.2073 -0.9168 -0.5889
  276TMC3    C6 4223   2.189   3.961  14.932  0.3451  0.6416 -0.4771
  276TMC3     C 4224   2.246   3.593  14.799 -0.6830  0.3567  0.2473
  276TMC3     O 4225   2.332   3.516  14.838 -0.3121  0.1111  0.4528
  276TMC3     H 4226   2.143   3.804  14.646  1.3196 -1.4197 -0.4493
  276TMC3    H1 4227   2.399   3.693  14.950 -0.0142 -0.4003 -1.9038
  276TMC3    H2 4228   2.168   4.052  14.986 -2.5115 -1.2560  1.6290
  276TMC3    C7 4229   2.268   3.869  15.129  0.3834  0.2562  0.3650
  276TMC3    C8 4230   1.991   3.924  14.815 -0.1564 -0.0720 -0.4831
  276TMC3    O1 4231   2.229   3.969  15.189 -0.2078  0.0597  0.0355
  276TMC3    O2 4232   1.947   3.825  14.758  0.3379 -0.1048  0.2769
  277MPD2     C 4233   3.074   2.285  13.328 -0.2533  0.2576 -0.0425
  277MPD2    C1 4234   2.963   2.362  13.367  0.6337 -0.4002  0.2246
  277MPD2    C2 4235   2.914   2.357  13.496 -0.1153 -0.6648 -0.4345
  277MPD2    C3 4236   2.981   2.268  13.581  0.2542 -0.8758 -0.9894
  277MPD2    C4 4237   3.093   2.193  13.550 -0.3006 -0.4948  0.3550
  277MPD2    C5 4238   3.141   2.203  13.419 -0.3018 -0.0555 -0.0998
  277MPD2     H 4239   2.826   2.410  13.529  0.5060  0.4280 -0.5604
  277MPD2    H1 4240   3.152   2.119  13.605 -0.0022 -0.5193 -0.0007
  277MPD2    H2 4241   3.118   2.287  13.229 -0.7319 -0.0865 -0.2585
  277MPD2    H3 4242   3.234   2.157  13.387  0.0042  0.5586 -0.0834
  277MPD2     N 4243   2.911   2.247  13.707  0.5095  0.3294  0.4175
  277MPD2    H5 4244   2.826   2.299  13.729 -0.0036 -0.3477  0.0353
  277MPD2    N1 4245   2.932   2.461  13.275  0.4176  0.3611 -0.3325
  277MPD2    H7 4246   2.992   2.463  13.192 -0.7017  1.2099 -1.1033
  278TMC3    C1 4247   2.864   2.183  13.931  0.4159  1.0391 -0.0117
  278TMC3    C2 4248   2.848   2.073  14.010 -0.1154  0.2762  0.5377
  278TMC3    C3 4249   2.747   2.074  14.103 -0.0490  0.0549 -0.7361
  278TMC3    C4 4250   2.794   2.298  13.955 -0.6541  0.2455 -0.7820
  278TMC3    C5 4251   2.696   2.300  14.048 -0.4681  0.1285 -0.6199
  278TMC3    C6 4252   2.666   2.183  14.118 -0.5067  0.3537 -0.4386
  278TMC3     C 4253   2.959   2.179  13.818  0.3615 -0.1556 -0.0761
  278TMC3     O 4254   3.057   2.109  13.834 -0.3206 -0.0667 -0.2258
  278TMC3     H 4255   2.899   1.980  13.986 -0.8409 -0.1505  0.6493
  278TMC3    H1 4256   2.809   2.380  13.886  0.4081  2.2625  1.8163
  278TMC3    H2 4257   2.590   2.178  14.195  0.4171  1.7569  0.5783
  278TMC3    C7 4258   2.578   2.366  14.004  0.2174  1.2065  0.9929
  278TMC3    C8 4259   2.725   1.962  14.192  0.5171  0.3085 -0.5483
  278TMC3    O1 4260   2.578   2.481  13.964  0.0623 -0.5917 -0.1971
  278TMC3    O2 4261   2.727   1.996  14.311 -0.4199 -0.1090 -0.7852
  279MPD2     C 4262   2.585   2.235   0.623  0.8035  0.4028 -0.1420
  279MPD2    C1 4263   2.540   2.171   0.518  0.8780  0.2244  0.7459
  279MPD2    C2 4264   2.524   2.234   0.396 -0.1035 -0.4277 -0.4679
  279MPD2    C3 4265   2.563   2.368   0.382 -0.5395  0.6064 -0.5402
  279MPD2    C4 4266   2.599   2.438   0.490  0.3509 -0.1181  0.0485
  279MPD2    C5 4267   2.598   2.373   0.613 -0.9600 -1.1506 -0.4883
  279MPD2     H 4268   2.499   2.173   0.310 -0.7800  0.5777 -0.9854
  279MPD2    H1 4269   2.609   2.546   0.492 -2.5187  0.0766  2.4049
  279MPD2    H2 4270   2.595   2.190   0.721 -1.2440  1.1824  0.4137
  279MPD2    H3 4271   2.617   2.425   0.706  0.7765 -0.0703 -1.4429
  279MPD2     N 4272   2.553   2.435   0.262 -1.0217  0.0675 -0.9976
  279MPD2    H5 4273   2.583   2.532   0.265 -1.7771  0.2087  1.9158
  279MPD2    N1 4274   2.527   2.031   0.527  0.2911  0.5843 -0.5888
  279MPD2    H7 4275   2.601   1.977   0.572 -1.4708 -0.9607  0.4655
  280TMC3    C1 4276   2.315   2.012   0.404 -0.1855  0.7082  0.2845
  280TMC3    C2 4277   2.253   1.924   0.316  0.6083 -0.6678  0.5395
  280TMC3    C3 4278   2.119   1.943   0.297  0.6213  0.3444 -0.0384
  280TMC3    C4 4279   2.243   2.110   0.466 -0.2442  0.1865 -0.0450
  280TMC3    C5 4280   2.107   2.118   0.446 -0.2029 -0.3104  0.6645
  280TMC3    C6 4281   2.043   2.041   0.356  0.2465 -0.8645 -0.1108
  280TMC3     C 4282   2.445   1.958   0.448  0.0496 -0.3809 -0.0222
  280TMC3     O 4283   2.472   1.843   0.431  0.9183 -0.6447 -0.3330
  280TMC3     H 4284   2.310   1.841   0.276 -0.6360 -1.8172  1.1580
  280TMC3    H1 4285   2.295   2.164   0.544  1.2348  1.1784 -1.7229
  280TMC3    H2 4286   1.936   2.044   0.339  0.6842  0.8873 -2.6497
  280TMC3    C7 4287   2.041   2.228   0.500  0.2714 -0.0884 -0.0399
  280TMC3    C8 4288   2.046   1.841   0.223  0.6899  0.2246  0.1188
  280TMC3    O1 4289   2.097   2.282   0.594  0.2341  0.2116 -0.0050
  280TMC3    O2 4290   1.940   1.808   0.269 -0.0003  0.3846  0.2676
  281TMC3    C1 4291   1.579   3.484  13.730  0.3171 -0.6501  0.6404
  281TMC3    C2 4292   1.624   3.605  13.671 -0.8557  0.4626  0.2683
  281TMC3    C3 4293   1.712   3.593  13.562 -0.5306 -0.8906  0.3314
  281TMC3    C4 4294   1.611   3.355  13.686  0.3633  0.1666  0.1567
  281TMC3    C5 4295   1.703   3.353  13.584 -0.4011 -0.4690 -0.0686
  281TMC3    C6 4296   1.748   3.464  13.523 -0.0753 -0.2619  0.7070
  281TMC3     C 4297   1.480   3.497  13.838  0.1843 -0.3689 -0.0298
  281TMC3     O 4298   1.486   3.411  13.923  0.6842 -0.0826  0.4923
  281TMC3     H 4299   1.603   3.705  13.709  1.2453  0.8281  0.4577
  281TMC3    H1 4300   1.575   3.267  13.738  2.0516 -0.3213  0.5195
  281TMC3    H2 4301   1.816   3.450  13.439  0.2062  1.9869  0.5637
  281TMC3    C7 4302   1.746   3.218  13.534 -0.8900  0.2148 -0.6332
  281TMC3    C8 4303   1.690   3.697  13.460  0.3481 -0.0131 -0.4278
  281TMC3    O1 4304   1.844   3.227  13.462 -0.6291  0.4785 -0.1474
  281TMC3    O2 4305   1.604   3.783  13.484  0.1745  0.2631 -0.1581
  282MPD2     C 4306   3.405   4.118  15.267  0.7359  0.2982  0.2816
  282MPD2    C1 4307   3.276   4.161  15.285 -0.3068 -0.2706 -0.5593
  282MPD2    C2 4308   3.192   4.178  15.178 -0.1053  0.1155  0.0904
  282MPD2    C3 4309   3.234   4.147  15.049 -0.7413  0.1508 -0.0851
  282MPD2    C4 4310   3.370   4.107  15.027  0.1348  0.6540  0.1433
  282MPD2    C5 4311   3.453   4.100  15.140 -0.4945 -0.4571  0.1764
  282MPD2     H 4312   3.092   4.216  15.194 -0.8698 -0.6802 -2.6987
  282MPD2    H1 4313   3.415   4.072  14.935  1.0742  0.2208  0.7631
  282MPD2    H2 4314   3.471   4.123  15.353  2.1308 -1.7957 -0.6885
  282MPD2    H3 4315   3.558   4.078  15.129 -0.6409 -0.5704 -0.9701
  282MPD2     N 4316   3.135   4.158  14.947  0.4501 -0.0103 -0.8456
  282MPD2    H5 4317   3.045   4.197  14.973  0.4445  0.5596 -1.7334
  282MPD2    N1 4318   3.218   4.201  15.413  0.6261  0.1483 -0.1924
  282MPD2    H7 4319   3.118   4.222  15.417  0.4545 -0.6903  0.1433
  283TMC3    C1 4320   3.190   4.216  15.639 -0.4792  0.3713  0.4758
  283TMC3    C2 4321   3.135   4.343  15.633  0.4429  1.0084  0.4601
  283TMC3    C3 4322   3.076   4.391  15.751 -0.5198 -0.4103 -0.5228
  283TMC3    C4 4323   3.176   4.134  15.748  0.0227 -0.5347 -0.0966
  283TMC3    C5 4324   3.100   4.172  15.854 -0.3909  0.3322  0.5133
  283TMC3    C6 4325   3.052   4.304  15.859 -0.5291 -0.0081  0.3035
  283TMC3     C 4326   3.273   4.177  15.537 -0.2067 -0.7145 -0.0555
  283TMC3     O 4327   3.371   4.113  15.568  0.0372  0.2055 -0.3349
  283TMC3     H 4328   3.170   4.402  15.550 -1.3247  0.5746 -0.5896
  283TMC3    H1 4329   3.232   4.043  15.763 -2.5760 -1.8301  1.8527
  283TMC3    H2 4330   3.005   4.340  15.950 -0.8967  0.1805  0.0359
  283TMC3    C7 4331   3.041   4.080  15.951 -0.8732 -0.0068 -0.3525
  283TMC3    C8 4332   3.104   4.528  15.786 -1.0857  0.4178  0.6726
  283TMC3    O1 4333   2.993   4.130  16.054 -0.2301  0.4002  0.2405
  283TMC3    O2 4334   3.140   4.558  15.901 -0.9063  0.8187  0.2957
  284MPD2     C 4335   1.259   3.711  12.105  0.4023  0.2917  0.0032
  284MPD2    C1 4336   1.342   3.691  12.000 -0.7409  0.5178  0.4938
  284MPD2    C2 4337   1.455   3.605  12.008 -0.4222  0.0450 -0.3699
  284MPD2    C3 4338   1.474   3.526  12.121 -0.4153  0.1797  0.4781
  284MPD2    C4 4339   1.386   3.545  12.226  0.3553  0.1090 -0.3299
  284MPD2    C5 4340   1.283   3.642  12.223 -0.8074 -0.0089 -0.5727
  284MPD2     H 4341   1.522   3.598  11.923  0.4665  3.3008  0.0507
  284MPD2    H1 4342   1.402   3.478  12.310 -2.7891 -0.0630  0.1617
  284MPD2    H2 4343   1.166   3.766  12.095  1.3008  1.9991  1.1673
  284MPD2    H3 4344   1.224   3.653  12.314  0.2427 -0.1851  0.1328
  284MPD2     N 4345   1.573   3.420  12.134  0.3257  0.5290  0.4797
  284MPD2    H5 4346   1.575   3.369  12.222  0.0150  0.1924  0.2894
  284MPD2    N1 4347   1.332   3.762  11.876 -0.3182 -0.0519 -0.0140
  284MPD2    H7 4348   1.375   3.722  11.793 -1.0009  0.8416 -0.7963
  285TMC3    C1 4349   1.292   3.926  11.726 -0.6068 -0.3657 -0.0921
  285TMC3    C2 4350   1.309   3.828  11.629 -0.5071 -0.0206 -0.9302
  285TMC3    C3 4351   1.405   3.863  11.532 -0.3086 -0.1014  0.4657
  285TMC3    C4 4352   1.344   4.051  11.715 -1.5488 -0.0202  0.0900
  285TMC3    C5 4353   1.430   4.091  11.612  0.3185  0.0221 -1.2279
  285TMC3    C6 4354   1.456   3.986  11.521  0.3574 -0.5128  0.0025
  285TMC3     C 4355   1.250   3.872  11.856  0.4085  0.1722  0.8645
  285TMC3     O 4356   1.190   3.946  11.935  0.6626  0.2822  0.0350
  285TMC3     H 4357   1.262   3.731  11.632  2.1552 -1.1839  2.4473
  285TMC3    H1 4358   1.337   4.119  11.800 -1.0172  0.7733 -0.4987
  285TMC3    H2 4359   1.537   4.001  11.451 -0.1494 -1.1979 -0.7251
  285TMC3    C7 4360   1.482   4.224  11.579 -0.5397  0.3870  0.6780
  285TMC3    C8 4361   1.439   3.766  11.433 -0.4156  0.2644  0.2368
  285TMC3    O1 4362   1.590   4.230  11.520  0.3971  0.2533  0.1464
  285TMC3    O2 4363   1.424   3.647  11.459  0.4998 -0.1674 -0.0895
  286MPD2     C 4364   2.132   1.795   1.584  0.5457  0.2530  0.1323
  286MPD2    C1 4365   2.026   1.766   1.507  0.2460  0.0915  0.1625
  286MPD2    C2 4366   2.009   1.632   1.476  0.5479  0.3552  0.3347
  286MPD2    C3 4367   2.101   1.532   1.512 -0.5009  0.6453 -0.6698
  286MPD2    C4 4368   2.210   1.572   1.586 -0.2685  0.2946 -0.6366
  286MPD2    C5 4369   2.223   1.704   1.623  0.6341 -0.1594  0.2631
  286MPD2     H 4370   1.918   1.602   1.424  0.8810 -1.1753  0.6477
  286MPD2    H1 4371   2.283   1.498   1.617 -0.8957  0.3373  0.9547
  286MPD2    H2 4372   2.160   1.898   1.605 -0.3093  0.7456 -1.1312
  286MPD2    H3 4373   2.289   1.742   1.701  2.0753 -0.3563 -0.8703
  286MPD2     N 4374   2.108   1.400   1.451  0.6320 -0.5059  0.6024
  286MPD2    H5 4375   2.192   1.348   1.475  1.3479  0.5864  0.4232
  286MPD2    N1 4376   1.921   1.858   1.482  0.3711  0.0081  0.6021
  286MPD2    H7 4377   1.852   1.814   1.422  0.3598 -1.0316  1.3801
  287TMC3    C1 4378   2.094   1.241   1.279 -0.0144  0.1940  0.3395
  287TMC3    C2 4379   2.027   1.195   1.172 -0.5086  0.6206 -0.2904
  287TMC3    C3 4380   2.079   1.084   1.114  0.2525  0.1717 -0.0468
  287TMC3    C4 4381   2.217   1.191   1.315 -0.3709  0.4154 -0.0424
  287TMC3    C5 4382   2.271   1.088   1.243  0.2533  0.5320 -1.0073
  287TMC3    C6 4383   2.200   1.024   1.142 -0.3325 -0.5381 -0.1213
  287TMC3     C 4384   2.040   1.360   1.343  0.5644 -0.5018 -0.6680
  287TMC3     O 4385   1.945   1.413   1.292  0.6146  0.0966  0.3902
  287TMC3     H 4386   1.926   1.226   1.149 -0.0032  1.4983 -1.3345
  287TMC3    H1 4387   2.275   1.238   1.394  0.2352 -0.9963  0.3545
  287TMC3    H2 4388   2.229   0.931   1.094 -2.8664 -0.2180 -2.2976
  287TMC3    C7 4389   2.404   1.048   1.263  0.7144  0.3696  0.5599
  287TMC3    C8 4390   2.032   1.052   0.976 -0.2414  0.3096  0.1124
  287TMC3    O1 4391   2.442   1.039   1.376 -0.5170  0.0679 -0.6398
  287TMC3    O2 4392   2.090   0.969   0.906 -0.4583 -0.1001 -0.0795
  288TMC3    C1 4393   3.163   2.033  14.215  0.1202  0.1698 -0.4602
  288TMC3    C2 4394   3.058   2.091  14.294  0.0893  0.0497  0.6893
  288TMC3    C3 4395   3.075   2.219  14.343 -0.4332  0.9592  0.3274
  288TMC3    C4 4396   3.281   2.096  14.197  0.0207 -0.0417  0.0622
  288TMC3    C5 4397   3.285   2.224  14.243 -0.1488  0.3230  1.2319
  288TMC3    C6 4398   3.185   2.295  14.304  0.4610  0.2092  0.0425
  288TMC3     C 4399   3.143   1.901  14.170 -0.8349  0.3706 -0.3385
  288TMC3     O 4400   3.046   1.849  14.220 -0.5423  0.4924  0.6032
  288TMC3     H 4401   2.961   2.046  14.309  0.3696 -1.4839 -1.9823
  288TMC3    H1 4402   3.369   2.057  14.147 -0.4945  0.3686 -1.1876
  288TMC3    H2 4403   3.207   2.383  14.365  1.1598 -0.8683  1.3585
  288TMC3    C7 4404   3.416   2.280  14.274  0.4856 -0.2447  0.1134
  288TMC3    C8 4405   3.005   2.263  14.469  0.4538 -0.2884 -0.1261
  288TMC3    O1 4406   3.412   2.399  14.304 -0.2905  0.2934 -0.2221
  288TMC3    O2 4407   3.060   2.357  14.523  0.3469  0.2703 -0.5997
  289MPD2     C 4408   2.771   0.799  14.830  0.2605 -0.0553  0.3238
  289MPD2    C1 4409   2.809   0.899  14.745 -0.2305  0.3375 -0.6505
  289MPD2    C2 4410   2.724   0.979  14.686  0.6883 -0.3638 -0.1773
  289MPD2    C3 4411   2.585   0.966  14.718  0.2654 -0.2381  0.0243
  289MPD2    C4 4412   2.546   0.888  14.827  0.2977  0.3013 -0.5909
  289MPD2    C5 4413   2.639   0.795  14.873 -0.5341 -0.3030  0.2551
  289MPD2     H 4414   2.756   1.062  14.624 -0.4246 -0.2543 -0.5884
  289MPD2    H1 4415   2.443   0.879  14.861  0.8835 -2.3660  0.4773
  289MPD2    H2 4416   2.846   0.727  14.859  1.0894  0.2020 -1.1428
  289MPD2    H3 4417   2.600   0.725  14.946  2.1644 -1.6167  0.4635
  289MPD2     N 4418   2.481   1.039  14.657  0.6757 -0.6155 -0.0128
  289MPD2    H5 4419   2.388   1.017  14.692  0.8209 -0.3646  0.5474
  289MPD2    N1 4420   2.951   0.904  14.735 -0.8570  0.1904  0.2290
  289MPD2    H7 4421   2.993   0.823  14.778 -3.0008 -2.1061 -2.0218
  290TMC3    C1 4422   2.394   1.171  14.482  0.0502  0.0629  0.3844
  290TMC3    C2 4423   2.379   1.299  14.424  0.0977  0.6079  0.2228
  290TMC3    C3 4424   2.278   1.316  14.336 -0.3851  1.1859 -0.3907
  290TMC3    C4 4425   2.313   1.061  14.450 -0.7438  0.1994  0.5843
  290TMC3    C5 4426   2.208   1.092  14.363  0.1161  1.0047 -0.3138
  290TMC3    C6 4427   2.193   1.213  14.312 -0.4718 -0.6855 -0.0985
  290TMC3     C 4428   2.509   1.141  14.566 -0.1725  0.1547  0.0264
  290TMC3     O 4429   2.614   1.201  14.545 -0.1208 -0.3208 -0.2419
  290TMC3     H 4430   2.452   1.370  14.458 -0.9103  1.2089  1.1373
  290TMC3    H1 4431   2.335   0.961  14.487 -0.9358  0.4427  1.3363
  290TMC3    H2 4432   2.107   1.252  14.258  0.8344 -0.5781 -2.1044
  290TMC3    C7 4433   2.128   0.983  14.319 -0.0796  0.4092 -0.5806
  290TMC3    C8 4434   2.246   1.443  14.271 -0.4046  0.3832  0.6532
  290TMC3    O1 4435   2.033   1.015  14.254 -0.1859  0.4359  0.1391
  290TMC3    O2 4436   2.171   1.445  14.176 -0.3219  0.0613 -0.4747
  291MPD2     C 4437   2.625   1.144   0.474 -0.3555  0.3428 -0.4912
  291MPD2    C1 4438   2.757   1.114   0.438  0.1055  0.3012  0.1839
  291MPD2    C2 4439   2.847   1.220   0.445  0.1690 -0.6539  0.1231
  291MPD2    C3 4440   2.805   1.356   0.480 -0.2218 -0.1570  0.5745
  291MPD2    C4 4441   2.672   1.378   0.475 -0.4245  0.3770  0.5396
  291MPD2    C5 4442   2.584   1.275   0.488 -0.1889 -0.4438 -0.5213
  291MPD2     H 4443   2.950   1.201   0.416  1.0559  0.3804  2.6481
  291MPD2    H1 4444   2.616   1.471   0.478  0.5870  1.0244 -0.7151
  291MPD2    H2 4445   2.542   1.075   0.464 -1.0671  0.9368  1.3243
  291MPD2    H3 4446   2.478   1.298   0.488  0.3439  1.9671 -0.7742
  291MPD2     N 4447   2.897   1.463   0.492  0.2268 -0.3986 -0.0253
  291MPD2    H5 4448   2.857   1.546   0.535 -1.5126 -1.8186  1.1062
  291MPD2    N1 4449   2.802   0.995   0.388  0.8547  0.4166  0.1143
  291MPD2    H7 4450   2.900   0.986   0.363  1.0742  3.5143 -0.1133
  292TMC3    C1 4451   2.788   0.789   0.291  0.0516  0.1773 -0.0392
  292TMC3    C2 4452   2.924   0.772   0.297  0.1625 -0.3302 -0.2462
  292TMC3    C3 4453   2.977   0.656   0.253  0.1721  0.0929  0.4277
  292TMC3    C4 4454   2.715   0.707   0.210  0.3479  0.6183 -0.3166
  292TMC3    C5 4455   2.778   0.601   0.143 -0.4438 -0.0958 -0.1584
  292TMC3    C6 4456   2.907   0.572   0.169  0.4646 -0.6179  0.2450
  292TMC3     C 4457   2.714   0.891   0.364 -1.0805  0.0950  0.6244
  292TMC3     O 4458   2.592   0.883   0.375 -0.3238  0.0869 -0.0871
  292TMC3     H 4459   2.990   0.821   0.368 -0.4418 -2.6988  1.9495
  292TMC3    H1 4460   2.606   0.708   0.216  0.5356  1.3587  2.6182
  292TMC3    H2 4461   2.968   0.497   0.119 -3.1819 -3.2964 -0.1333
  292TMC3    C7 4462   2.704   0.478   0.135  0.1086  0.3519 -0.5344
  292TMC3    C8 4463   3.072   0.590   0.342  0.1017  0.6275  0.0385
  292TMC3    O1 4464   2.761   0.381   0.187 -0.1625  0.5437 -0.1088
  292TMC3    O2 4465   3.178   0.646   0.366  0.5200 -0.1858 -0.0087
  293MPD2     C 4466   4.721   2.390  12.968 -0.1301  0.1346 -0.1842
  293MPD2    C1 4467   4.604   2.458  12.976  0.1273  0.0098 -0.2075
  293MPD2    C2 4468   4.577   2.541  13.091 -0.1739 -0.1894  0.4312
  293MPD2    C3 4469   4.667   2.540  13.195 -0.0431 -0.3024  0.5130
  293MPD2    C4 4470   0.052   2.478  13.183 -0.0466  0.0656 -0.6956
  293MPD2    C5 4471   0.076   2.402  13.073 -0.1933 -0.4757  0.1810
  293MPD2     H 4472   4.486   2.598  13.103 -1.4093 -1.7618 -1.4908
  293MPD2    H1 4473   0.125   2.478  13.263  0.2222  1.9109 -0.9495
  293MPD2    H2 4474   0.012   2.326  12.885  1.4427  0.8881 -0.2509
  293MPD2    H3 4475   0.175   2.359  13.077 -0.4174 -0.8240  1.9307
  293MPD2     N 4476   4.644   2.622  13.307 -0.0965  0.2132  0.3388
  293MPD2    H5 4477   4.548   2.654  13.316  0.3358  1.4051  0.6686
  293MPD2    N1 4478   4.529   2.457  12.857  0.2391 -0.0128 -0.4869
  293MPD2    H7 4479   4.573   2.409  12.779  0.9225 -1.5889  0.8745
  294TMC3    C1 4480   4.355   2.519  12.700 -0.7016  0.2754 -0.0449
  294TMC3    C2 4481   4.222   2.514  12.677 -0.1254  0.7365  0.0186
  294TMC3    C3 4482   4.184   2.469  12.555  0.0815 -0.4380  0.3692
  294TMC3    C4 4483   4.453   2.502  12.602  0.6312  0.0455  0.1176
  294TMC3    C5 4484   4.408   2.481  12.478 -0.3172 -0.4036 -0.3430
  294TMC3    C6 4485   4.276   2.459  12.448  0.1498  0.1639 -0.5249
  294TMC3     C 4486   4.402   2.517  12.838  0.2787  0.7430 -0.1755
  294TMC3     O 4487   4.317   2.539  12.923 -0.1803 -0.1063 -0.1472
  294TMC3     H 4488   4.152   2.503  12.759  1.8613  2.7169  1.9795
  294TMC3    H1 4489   4.557   2.524  12.622  0.2470  1.0595  1.0427
  294TMC3    H2 4490   4.245   2.447  12.345 -1.6600  1.6844 -0.1607
  294TMC3    C7 4491   4.499   2.467  12.373  0.1481 -0.0559 -0.1583
  294TMC3    C8 4492   4.039   2.466  12.531 -0.1422  0.1067  0.4795
  294TMC3    O1 4493   4.618   2.445  12.410  0.8815  0.0348 -0.1712
  294TMC3    O2 4494   3.974   2.513  12.624  0.2739 -0.1023  0.1859
  295MPD2     C 4495   1.007   0.677   0.737  0.0964 -0.7622  0.4989
  295MPD2    C1 4496   0.886   0.651   0.798  0.1426  0.1450  0.5981
  295MPD2    C2 4497   0.867   0.544   0.881  0.1623  0.3807  0.9634
  295MPD2    C3 4498   0.963   0.449   0.889  0.0457  0.2215 -0.4078
  295MPD2    C4 4499   1.088   0.476   0.842 -0.5889 -0.4160 -0.0551
  295MPD2    C5 4500   1.111   0.589   0.759 -0.1938  0.3646  0.1159
  295MPD2     H 4501   0.780   0.536   0.944 -1.0694  0.1979 -0.7718
  295MPD2    H1 4502   1.172   0.411   0.861 -0.0414 -0.8458 -3.9894
  295MPD2    H2 4503   1.027   0.769   0.684 -1.8982 -0.4783  0.2355
  295MPD2    H3 4504   1.211   0.600   0.719 -0.1701  0.0714  0.0946
  295MPD2     N 4505   0.949   0.328   0.957 -0.4505 -0.0627  0.3984
  295MPD2    H5 4506   1.031   0.272   0.974  0.4149  0.4954 -1.9273
  295MPD2    N1 4507   0.780   0.739   0.788  0.1541 -0.1129  0.4229
  295MPD2    H7 4508   0.694   0.709   0.832 -0.7752  0.5433 -0.9490
  296TMC3    C1 4509   0.844   0.160   1.086  0.9222  0.2146  0.0193
  296TMC3    C2 4510   0.760   0.144   1.190 -0.1521 -0.1583 -0.0695
  296TMC3    C3 4511   0.790   0.050   1.283  0.1537  0.0023  0.0413
  296TMC3    C4 4512   0.948   0.070   1.060 -0.0907 -0.6970 -0.1920
  296TMC3    C5 4513   0.962   4.705   1.151  0.2479  0.0224  0.3996
  296TMC3    C6 4514   0.886   4.691   1.263 -0.3700 -0.1917 -0.5187
  296TMC3     C 4515   0.832   0.286   1.020 -0.4383 -0.1944 -0.3128
  296TMC3     O 4516   0.726   0.342   1.028  0.2109  0.2041 -0.3500
  296TMC3     H 4517   0.690   0.225   1.209 -2.0978 -2.0253  0.6236
  296TMC3    H1 4518   1.010   0.079   0.971  1.3686 -3.2055  0.5640
  296TMC3    H2 4519   0.902   4.604   1.326 -0.3620 -0.1390 -0.4481
  296TMC3    C7 4520   1.081   4.628   1.130  0.6725 -0.0962  0.1842
  296TMC3    C8 4521   0.679   0.008   1.372  0.2215 -0.6673 -0.5457
  296TMC3    O1 4522   1.168   4.682   1.064  0.4469  0.5686 -0.2842
  296TMC3    O2 4523   0.675   4.637   1.427  0.2034 -0.1478  0.0859
  297MPD2     C 4524   2.243   2.965  16.788  0.2661 -0.5479 -0.0943
  297MPD2    C1 4525   2.233   3.031  16.674 -0.2607 -0.3152 -0.0730
  297MPD2    C2 4526   2.334   3.115  16.636  0.5856 -0.0631 -0.2861
  297MPD2    C3 4527   2.442   3.140  16.721 -0.5641 -0.4411  0.4697
  297MPD2    C4 4528   2.451   3.070  16.838  0.3373 -0.2022  0.3240
  297MPD2    C5 4529   2.351   2.972  16.867 -0.0452  0.1379  0.3489
  297MPD2     H 4530   2.324   3.176  16.547 -0.7273  1.0470  0.6178
  297MPD2    H1 4531   2.529   3.080  16.913 -0.0549 -0.8510  0.8153
  297MPD2    H2 4532   2.166   2.895  16.816 -0.2267  0.3290  0.7261
  297MPD2    H3 4533   2.352   2.912  16.957 -0.7931 -0.1054  0.1894
  297MPD2     N 4534   2.529   3.246  16.678  0.4151 -0.0128  0.2349
  297MPD2    H5 4535   2.513   3.286  16.586 -0.2401  0.8693  0.7354
  297MPD2    N1 4536   2.119   3.027  16.595  0.0768  0.7207 -0.3924
  297MPD2    H7 4537   2.129   3.089  16.515  1.7677  0.0112 -0.7212
  298TMC3    C1 4538   1.895   3.013  16.535 -0.0884  0.0180 -0.5742
  298TMC3    C2 4539   1.936   3.063  16.414 -0.8647  0.5113  0.3551
  298TMC3    C3 4540   1.843   3.133  16.332 -0.3808  0.2330 -0.8135
  298TMC3    C4 4541   1.758   3.030  16.572  0.3599  0.3341 -0.1794
  298TMC3    C5 4542   1.669   3.090  16.484  0.0215  0.5955  0.0499
  298TMC3    C6 4543   1.715   3.159  16.376 -0.3480  0.6752  0.8835
  298TMC3     C 4544   1.998   2.977  16.629  0.4542  0.3863  0.1722
  298TMC3     O 4545   1.971   2.908  16.727 -0.5662  0.2068 -0.1211
  298TMC3     H 4546   2.036   3.045  16.377 -0.3447 -0.4785  2.2590
  298TMC3    H1 4547   1.719   2.992  16.665 -0.2596 -1.0597 -1.0100
  298TMC3    H2 4548   1.643   3.184  16.299  0.8160 -0.0056 -0.4367
  298TMC3    C7 4549   1.545   3.142  16.548 -1.1847 -0.9584  0.7127
  298TMC3    C8 4550   1.896   3.192  16.211  0.1398 -0.0718 -1.3367
  298TMC3    O1 4551   1.505   3.086  16.648  0.0048  0.1592  0.4062
  298TMC3    O2 4552   1.995   3.141  16.164 -0.3888  0.1545 -0.1007
  299MPD2     C 4553   2.270   2.311  10.816 -0.1346 -0.1080 -0.2458
  299MPD2    C1 4554   2.273   2.438  10.755  0.2735  0.1349  0.8343
  299MPD2    C2 4555   2.172   2.455  10.662  0.4871 -0.0970  0.2051
  299MPD2    C3 4556   2.069   2.359  10.624 -0.0504 -0.0637 -0.1727
  299MPD2    C4 4557   2.087   2.236  10.677  0.1786 -0.1767  0.0745
  299MPD2    C5 4558   2.183   2.213  10.776 -0.1431 -0.5210  0.2145
  299MPD2     H 4559   2.163   2.553  10.616 -0.6856 -0.0681  0.4967
  299MPD2    H1 4560   2.028   2.152  10.643 -1.4211  1.1606 -0.4305
  299MPD2    H2 4561   2.341   2.280  10.892  1.1708  1.7451 -0.7288
  299MPD2    H3 4562   2.201   2.112  10.813  1.7814 -0.5225 -0.7300
  299MPD2     N 4563   1.961   2.379  10.525 -0.7015  0.3827 -0.4764
  299MPD2    H5 4564   1.894   2.304  10.508 -0.5216  0.0864  0.1625
  299MPD2    N1 4565   2.365   2.542  10.800  0.0190 -0.6700 -0.4827
  299MPD2    H7 4566   2.435   2.511  10.866  0.0552 -2.3428 -1.3040
  300TMC3    C1 4567   1.815   2.515  10.393 -1.2836 -0.2402  0.0958
  300TMC3    C2 4568   1.808   2.638  10.342  0.2167  0.1153 -0.3233
  300TMC3    C3 4569   1.691   2.708  10.359 -0.8552  0.4102  0.3069
  300TMC3    C4 4570   1.712   2.457  10.455  0.1389  0.1357  1.0600
  300TMC3    C5 4571   1.611   2.548  10.492  0.5630 -0.7504 -0.0145
  300TMC3    C6 4572   1.595   2.675  10.445 -0.1584  0.1542  0.2156
  300TMC3     C 4573   1.938   2.499  10.460 -0.1061 -0.3946 -0.0571
  300TMC3     O 4574   2.016   2.592  10.453  0.0132  0.1179  0.2861
  300TMC3     H 4575   1.878   2.680  10.271  0.2404 -0.2535 -0.5216
  300TMC3    H1 4576   1.717   2.360  10.505 -1.0903 -1.1629 -1.3116
  300TMC3    H2 4577   1.519   2.741  10.484  1.4194  2.6969 -1.0799
  300TMC3    C7 4578   1.565   2.527  10.628  0.2237 -0.5759  0.1208
  300TMC3    C8 4579   1.708   2.851  10.334 -0.0091 -0.6202  0.9761
  300TMC3    O1 4580   1.534   2.412  10.653  0.0404 -0.2217  0.0176
  300TMC3    O2 4581   1.827   2.889  10.330 -0.0421  0.1416  0.0829
  301MPD2     C 4582   0.521   3.884   1.104  0.1692  1.1188 -0.0937
  301MPD2    C1 4583   0.392   3.850   1.083  0.4583 -0.1271 -0.1332
  301MPD2    C2 4584   0.352   3.717   1.062 -0.5626 -0.1552 -0.2891
  301MPD2    C3 4585   0.442   3.615   1.055 -0.6103 -0.1391 -0.7118
  301MPD2    C4 4586   0.574   3.652   1.083  0.0727 -0.3939  0.1108
  301MPD2    C5 4587   0.612   3.783   1.099 -0.3027 -0.1995  0.4797
  301MPD2     H 4588   0.245   3.703   1.051 -0.6272  1.0868 -1.1612
  301MPD2    H1 4589   0.653   3.579   1.097  0.2971 -0.4174 -1.3176
  301MPD2    H2 4590   0.563   3.982   1.122  0.6360  0.9832 -0.4496
  301MPD2    H3 4591   0.717   3.809   1.107 -0.0812  0.1862 -3.6620
  301MPD2     N 4592   0.407   3.482   1.040 -0.1281 -0.5338 -1.1822
  301MPD2    H5 4593   0.477   3.409   1.040  2.4360  1.9388 -2.9732
  301MPD2    N1 4594   0.290   3.945   1.089  0.0983 -0.3149  0.1121
  301MPD2    H7 4595   0.196   3.914   1.067  0.0814  1.3675 -2.1850
  302TMC3    C1 4596   0.263   3.301   1.017  0.8406  0.7598  0.0478
  302TMC3    C2 4597   0.353   3.211   1.072  1.1296 -0.7963 -0.2203
  302TMC3    C3 4598   0.326   3.079   1.059  1.1192 -0.3830 -0.1864
  302TMC3    C4 4599   0.143   3.266   0.964  0.7253  0.2289  1.0454
  302TMC3    C5 4600   0.118   3.134   0.955 -0.0836  0.3365  0.0168
  302TMC3    C6 4601   0.206   3.036   1.005  0.6947  0.3792 -0.4323
  302TMC3     C 4602   0.281   3.443   1.007  0.1195  0.0470  0.6574
  302TMC3     O 4603   0.185   3.511   0.978 -0.0899  0.4718  0.2366
  302TMC3     H 4604   0.434   3.248   1.134  2.1748  0.2313 -2.1893
  302TMC3    H1 4605   0.087   3.328   0.896 -0.0276 -1.0829  0.4721
  302TMC3    H2 4606   0.181   2.931   0.993 -1.9272  1.2938 -2.9176
  302TMC3    C7 4607   4.729   3.085   0.898 -0.0683 -0.1335  0.4154
  302TMC3    C8 4608   0.356   2.999   1.175 -0.5391  0.4387 -0.1414
  302TMC3    O1 4609   4.727   2.971   0.861  0.1186  0.2358 -0.0185
  302TMC3    O2 4610   0.390   2.889   1.144  0.2774 -0.4581 -0.2441
  303MPD2     C 4611   0.166   2.520  10.853  0.5014 -0.3288 -0.1072
  303MPD2    C1 4612   0.111   2.401  10.810  0.0135 -0.4735 -0.1169
  303MPD2    C2 4613   0.076   2.394  10.670 -0.7762 -0.7674 -0.1406
  303MPD2    C3 4614   0.116   2.489  10.582 -0.5130  0.4150  0.3406
  303MPD2    C4 4615   0.190   2.593  10.628  0.2375 -0.4906 -0.6451
  303MPD2    C5 4616   0.210   2.619  10.760  0.3560 -0.0340  0.0236
  303MPD2     H 4617   0.022   2.303  10.650 -2.5709 -0.0168  1.2893
  303MPD2    H1 4618   0.220   2.665  10.553 -1.2114  0.6348 -0.1471
  303MPD2    H2 4619   0.183   2.534  10.959  1.3972  0.2834 -0.3351
  303MPD2    H3 4620   0.267   2.702  10.799 -1.8155  1.2425  0.4720
  303MPD2     N 4621   0.073   2.494  10.444 -0.7827  0.2332  0.2194
  303MPD2    H5 4622   0.091   2.578  10.391 -1.3963  1.8314  2.5229
  303MPD2    N1 4623   0.086   2.298  10.908 -0.9254  0.3852  0.5502
  303MPD2    H7 4624   0.088   2.320  11.007 -2.6002  2.0296  0.1984
  304TMC3    C1 4625   0.024   2.081  10.986  0.0411 -0.3523 -0.0780
  304TMC3    C2 4626   4.644   2.121  11.052  0.1732  0.1914  0.2461
  304TMC3    C3 4627   4.584   2.022  11.130  0.1226  0.2022 -0.9564
  304TMC3    C4 4628   0.066   1.955  10.981  0.6397  0.1069 -0.5800
  304TMC3    C5 4629   0.008   1.862  11.061 -0.5271 -0.0781 -0.3799
  304TMC3    C6 4630   4.631   1.889  11.135  0.0114 -0.0620  0.0785
  304TMC3     C 4631   0.068   2.164  10.880 -0.8440 -0.0938  0.2186
  304TMC3     O 4632   0.072   2.111  10.768 -0.1873  0.5028 -0.4196
  304TMC3     H 4633   4.603   2.222  11.043 -1.6640 -0.5067  0.6556
  304TMC3    H1 4634   0.152   1.926  10.922  1.0068  0.0531 -0.0103
  304TMC3    H2 4635   4.575   1.808  11.179 -0.0103 -1.0415 -1.7636
  304TMC3    C7 4636   0.006   1.732  10.991 -0.4182  0.0885  0.5462
  304TMC3    C8 4637   4.441   2.013  11.112  0.7255 -0.0856  0.6930
  304TMC3    O1 4638   0.112   1.669  10.984  0.7355  0.6415  0.2575
  304TMC3    O2 4639   4.406   1.899  11.087  0.0140  0.4391  0.6306
  305MPD2     C 4640   2.971   3.957  14.061  0.0237  0.2898 -0.0349
  305MPD2    C1 4641   3.091   4.016  14.041 -0.3386  0.3375  0.4241
  305MPD2    C2 4642   3.130   4.048  13.910 -0.3039 -0.2020  0.4169
  305MPD2    C3 4643   3.047   4.018  13.804  0.2133 -0.7560 -0.1328
  305MPD2    C4 4644   2.926   3.962  13.828  0.0556 -0.4591  0.1881
  305MPD2    C5 4645   2.889   3.927  13.956 -1.1666 -0.2225 -0.1114
  305MPD2     H 4646   3.225   4.096  13.890 -0.6996  0.4737  0.1640
  305MPD2    H1 4647   2.861   3.930  13.747 -0.1206 -0.6291  0.3985
  305MPD2    H2 4648   2.946   3.928  14.163  1.3696 -1.6799 -0.2717
  305MPD2    H3 4649   2.793   3.877  13.971 -0.9082  0.4367  3.8797
  305MPD2     N 4650   3.068   4.045  13.668 -0.3551  0.1095  0.3876
  305MPD2    H5 4651   2.998   4.010  13.603  2.1466 -0.1262 -2.1805
  305MPD2    N1 4652   3.182   4.034  14.150  0.3082  0.4395  0.1489
  305MPD2    H7 4653   3.148   4.015  14.244  1.5104  0.8457  0.6751
  306TMC3    C1 4654   3.377   4.106  14.265  1.1542  0.3703 -0.4570
  306TMC3    C2 4655   3.482   4.028  14.291  0.0214  0.3441  0.0017
  306TMC3    C3 4656   3.524   4.040  14.419  0.3862  0.3731 -0.3559
  306TMC3    C4 4657   3.315   4.190  14.349 -0.1502  0.0184  0.5779
  306TMC3    C5 4658   3.353   4.198  14.483 -0.5900  0.1152  0.0621
  306TMC3    C6 4659   3.462   4.115  14.520 -0.1451  0.3665 -0.2869
  306TMC3     C 4660   3.313   4.080  14.138  0.3451  0.4202  0.2987
  306TMC3     O 4661   3.388   4.096  14.044 -0.1320 -0.0131 -0.0291
  306TMC3     H 4662   3.515   3.962  14.212 -0.7694  0.5316 -0.4846
  306TMC3    H1 4663   3.231   4.250  14.314  0.1430  0.8532  1.2897
  306TMC3    H2 4664   3.497   4.115  14.623 -0.4816 -0.4835 -0.1730
  306TMC3    C7 4665   3.316   4.321  14.551  0.4815 -0.2261  0.6862
  306TMC3    C8 4666   3.610   3.927  14.446 -0.4434  0.0265 -0.2814
  306TMC3    O1 4667   3.246   4.393  14.478 -0.1640  0.1219  0.1298
  306TMC3    O2 4668   3.651   3.855  14.360 -0.3517  0.6450 -0.4479
  307MPD2     C 4669   0.979   2.061   0.451 -0.7041 -0.6092  0.3200
  307MPD2    C1 4670   0.920   2.184   0.445 -0.9340 -0.2433  0.8198
  307MPD2    C2 4671   0.850   2.235   0.555 -0.6724 -0.0796 -0.3341
  307MPD2    C3 4672   0.835   2.163   0.671  0.1384 -0.2428 -0.2575
  307MPD2    C4 4673   0.898   2.043   0.683 -0.8050 -0.4195  0.4820
  307MPD2    C5 4674   0.961   1.993   0.571 -0.4196 -0.2535 -0.1655
  307MPD2     H 4675   0.799   2.329   0.538 -0.3165  0.0523 -0.7000
  307MPD2    H1 4676   0.913   1.993   0.778  1.8239 -1.2173 -0.3717
  307MPD2    H2 4677   1.039   2.016   0.373 -1.6264  0.3303 -0.9293
  307MPD2    H3 4678   1.001   1.893   0.576 -1.3040 -0.6405 -0.8964
  307MPD2     N 4679   0.762   2.222   0.784  0.0844  0.5048 -0.9666
  307MPD2    H5 4680   0.731   2.318   0.777 -0.5437  0.4434  0.7522
  307MPD2    N1 4681   0.921   2.256   0.319 -0.4137  0.4364 -0.8712
  307MPD2    H7 4682   0.879   2.348   0.313  1.6781  1.4655 -0.0167
  308TMC3    C1 4683   0.470   2.257   1.133 -0.1908  0.1314  0.1138
  308TMC3    C2 4684   0.494   2.392   1.148  0.1328 -0.4896 -0.0046
  308TMC3    C3 4685   0.603   2.453   1.095 -0.3619  0.2729 -0.7595
  308TMC3    C4 4686   0.542   2.182   1.046  0.4337 -0.0196  0.2191
  308TMC3    C5 4687   0.649   2.248   0.984 -0.2332  0.0134 -0.4196
  308TMC3    C6 4688   0.686   2.377   1.015 -0.8834  0.0307 -0.3380
  308TMC3     C 4689   0.339   2.209   1.166  0.3610  0.5876 -0.5251
  308TMC3     O 4690   0.327   2.087   1.188  0.8674  0.5654  0.8704
  308TMC3     H 4691   0.436   2.444   1.224  1.9676  2.5782 -0.7226
  308TMC3    H1 4692   0.516   2.082   1.015 -1.9810  0.4580  0.6624
  308TMC3    H2 4693   0.774   2.432   0.984 -0.3964 -1.1282 -1.0249
  308TMC3    C7 4694   0.734   2.161   0.907 -0.5340  0.1842  0.0231
  308TMC3    C8 4695   0.644   2.584   1.156  0.6688 -0.9750 -0.0406
  308TMC3    O1 4696   0.747   2.045   0.944  0.3494 -0.2477 -0.2813
  308TMC3    O2 4697   0.614   2.593   1.274  0.0216  0.0654 -0.0906
  309MPD2     C 4698   0.337   2.881  17.399 -0.1266 -0.0411  0.4264
  309MPD2    C1 4699   0.274   2.954  17.306  0.4092 -1.1573  0.3342
  309MPD2    C2 4700   0.145   2.993  17.336  0.1842 -0.6928  0.2341
  309MPD2    C3 4701   0.066   2.933  17.429  0.1855  0.5030  0.5986
  309MPD2    C4 4702   0.130   2.860  17.524 -0.0523 -0.2956  0.2041
  309MPD2    C5 4703   0.263   2.845  17.510  0.3381  0.4513 -0.5885
  309MPD2     H 4704   0.097   3.053  17.260 -1.4947 -1.4672  0.6805
  309MPD2    H1 4705   0.078   2.807  17.602 -0.5206  1.1058  0.8427
  309MPD2    H2 4706   0.442   2.853  17.396  0.0020  0.3191  1.6526
  309MPD2    H3 4707   0.309   2.805  17.600  1.9372 -2.1620 -2.5721
  309MPD2     N 4708   4.669   2.967  17.459  0.1156  0.4906  0.1971
  309MPD2    H5 4709   4.617   2.904  17.519  1.3118 -0.2911  0.4163
  309MPD2    N1 4710   0.324   2.999  17.185 -0.0515  0.2116 -0.2326
  309MPD2    H7 4711   0.265   3.060  17.129  0.5914  0.7524 -0.3190
  310TMC3    C1 4712   0.497   3.027  17.015  0.2082  0.0674  0.2204
  310TMC3    C2 4713   0.429   3.127  16.962  0.5267 -0.3509 -0.0688
  310TMC3    C3 4714   0.468   3.175  16.835 -0.9242 -0.0608 -0.1224
  310TMC3    C4 4715   0.605   2.965  16.958 -0.2919  0.6409  0.6438
  310TMC3    C5 4716   0.636   3.011  16.834 -0.3313  0.1404  0.7218
  310TMC3    C6 4717   0.582   3.123  16.781  0.0490  0.2443  0.5449
  310TMC3     C 4718   0.451   2.960  17.137  0.0232  0.3499  0.1145
  310TMC3     O 4719   0.537   2.890  17.186 -0.0247  0.1574  0.1476
  310TMC3     H 4720   0.343   3.171  17.011 -0.4425 -1.7942 -0.4584
  310TMC3    H1 4721   0.646   2.869  16.986 -2.5266  0.1594  2.2082
  310TMC3    H2 4722   0.609   3.147  16.679 -0.0189 -1.2670  0.1865
  310TMC3    C7 4723   0.720   2.941  16.739  0.0682 -0.8061 -0.2608
  310TMC3    C8 4724   0.369   3.181  16.735 -0.0805 -0.6349 -0.0967
  310TMC3    O1 4725   0.708   2.968  16.622  0.0517  0.6948  0.2911
  310TMC3    O2 4726   0.264   3.116  16.754  0.1688 -0.2142 -0.2740
  311MPD2     C 4727   2.111   4.063  12.380 -0.3214 -0.7102  0.2051
  311MPD2    C1 4728   2.124   4.156  12.489  0.0171  0.3369  0.1294
  311MPD2    C2 4729   2.024   4.142  12.587 -0.1013 -0.8421  0.5244
  311MPD2    C3 4730   1.923   4.054  12.582  0.2105 -0.0932  0.6228
  311MPD2    C4 4731   1.900   3.975  12.469 -0.0535 -0.0116 -0.7151
  311MPD2    C5 4732   1.997   3.982  12.368 -0.0126 -0.0823  0.1152
  311MPD2     H 4733   2.040   4.205  12.674  2.2604 -1.3850  0.4705
  311MPD2    H1 4734   1.819   3.905  12.451 -0.6445  0.0315  1.7737
  311MPD2    H2 4735   2.184   4.056  12.301 -1.6156 -0.4183 -1.0184
  311MPD2    H3 4736   1.995   3.929  12.273 -0.4328  0.5101 -0.2077
  311MPD2     N 4737   1.836   4.053  12.692 -0.0310  0.5524  0.0016
  311MPD2    H5 4738   1.861   4.120  12.764  1.1761 -1.0165  1.0439
  311MPD2    N1 4739   2.236   4.239  12.516 -0.4146 -0.4179 -0.8465
  311MPD2    H7 4740   2.235   4.298  12.599  0.0458 -2.2631  0.4813
  312TMC3    C1 4741   1.688   3.965  12.853  0.0169 -0.1112  0.5189
  312TMC3    C2 4742   1.554   3.949  12.868 -1.0290 -0.8525 -0.2000
  312TMC3    C3 4743   1.505   3.957  12.991 -0.4480 -0.3588  0.3010
  312TMC3    C4 4744   1.770   3.983  12.964  0.0515  0.2049  0.1219
  312TMC3    C5 4745   1.708   3.989  13.087  0.3968  0.9030  0.5702
  312TMC3    C6 4746   1.574   3.971  13.108  0.1701  0.0407  0.5146
  312TMC3     C 4747   1.748   3.949  12.726  0.2127  0.2257  0.2069
  312TMC3     O 4748   1.694   3.867  12.655  0.0316  0.5113  0.1732
  312TMC3     H 4749   1.486   3.953  12.783 -1.3311  2.6949  0.1955
  312TMC3    H1 4750   1.876   4.002  12.952 -0.0458  0.4628 -0.3345
  312TMC3    H2 4751   1.531   3.988  13.206  1.4338  1.2053  0.8604
  312TMC3    C7 4752   1.769   4.082  13.179  0.5055 -1.2065 -0.3439
  312TMC3    C8 4753   1.360   3.936  13.004 -0.2426  0.5376 -0.6494
  312TMC3    O1 4754   1.814   4.184  13.129  0.1244  0.7363  0.1353
  312TMC3    O2 4755   1.303   3.889  12.906  0.2041  0.2347  0.3792
  313MPD2     C 4756   0.759   3.330  11.510  0.2480 -0.3604 -0.3871
  313MPD2    C1 4757   0.863   3.369  11.424 -0.3973 -0.3321  0.3749
  313MPD2    C2 4758   0.976   3.285  11.416  0.1753 -0.5180 -0.7560
  313MPD2    C3 4759   0.984   3.171  11.485  0.9048  0.6858 -1.1491
  313MPD2    C4 4760   0.870   3.128  11.554  0.1886  0.4210 -0.4411
  313MPD2    C5 4761   0.762   3.207  11.578 -0.5631  0.5809 -0.5379
  313MPD2     H 4762   1.060   3.315  11.355  0.2680 -1.4252 -1.0699
  313MPD2    H1 4763   0.871   3.037  11.614  0.9483 -0.0113 -1.0961
  313MPD2    H2 4764   0.679   3.399  11.530  2.5439  2.0471  0.4627
  313MPD2    H3 4765   0.678   3.184  11.643  0.1125  0.8282  0.4194
  313MPD2     N 4766   1.100   3.090  11.465 -0.5064 -0.2723  0.4906
  313MPD2    H5 4767   1.157   3.121  11.387  0.4486  0.5566  1.5224
  313MPD2    N1 4768   0.865   3.486  11.354 -0.2171 -0.0197  0.0654
  313MPD2    H7 4769   0.955   3.525  11.327 -0.3212  0.5028  0.4688
  314TMC3    C1 4770   0.773   3.699  11.305  0.3868 -0.3026  0.2314
  314TMC3    C2 4771   0.882   3.766  11.355  0.4872 -0.6110 -0.0429
  314TMC3    C3 4772   0.877   3.904  11.346 -0.7402 -0.4733  0.1320
  314TMC3    C4 4773   0.677   3.764  11.240 -0.0454  0.3566 -0.6806
  314TMC3    C5 4774   0.674   3.897  11.236 -0.3286  0.0429  0.3174
  314TMC3    C6 4775   0.782   3.971  11.277  0.0906  0.0996 -0.3999
  314TMC3     C 4776   0.752   3.560  11.333 -0.1811  0.4295 -0.7745
  314TMC3     O 4777   0.638   3.528  11.341 -0.4233 -0.1455 -0.0012
  314TMC3     H 4778   0.965   3.712  11.398  4.0428  3.3718 -1.9528
  314TMC3    H1 4779   0.597   3.708  11.191 -0.9023 -1.0355  2.2853
  314TMC3    H2 4780   0.794   4.078  11.264  3.5497 -0.6240 -2.7775
  314TMC3    C7 4781   0.594   3.947  11.132  0.0434  0.5533  0.1249
  314TMC3    C8 4782   1.008   3.975  11.340  0.1576  0.2023  1.0524
  314TMC3    O1 4783   0.485   3.893  11.117 -0.0250 -0.1156 -0.2716
  314TMC3    O2 4784   1.102   3.919  11.292 -0.4697 -0.4244  0.7672
  315MPD2     C 4785   1.219   2.120  17.510 -0.4947 -0.3268 -0.0372
  315MPD2    C1 4786   1.274   2.125  17.633 -0.0960  0.1825  0.9310
  315MPD2    C2 4787   1.289   2.240  17.706 -0.3436  0.2321  0.7073
  315MPD2    C3 4788   1.245   2.362  17.646  0.9167  0.2228  0.1986
  315MPD2    C4 4789   1.207   2.361  17.514  0.5755  0.1047  0.3844
  315MPD2    C5 4790   1.192   2.237  17.448 -0.1442  0.0140 -0.0225
  315MPD2     H 4791   1.319   2.242   0.066  2.4359  1.2723 -0.1172
  315MPD2    H1 4792   1.182   2.454  17.465  2.3747 -0.0404 -0.8175
  315MPD2    H2 4793   1.205   2.028  17.454 -0.1585 -0.7041  0.4984
  315MPD2    H3 4794   1.164   2.242  17.343  0.2243  0.4689 -0.1025
  315MPD2     N 4795   1.268   2.485  17.723 -0.0340  0.3090 -0.4984
  315MPD2    H5 4796   1.307   2.473   0.072 -1.7485  2.5456  0.4869
  315MPD2    N1 4797   1.304   2.006  17.707 -0.2822  0.0516 -0.2426
  315MPD2    H7 4798   1.339   2.022   0.057 -3.4545  1.3716  0.7157
  316TMC3    C1 4799   1.315   2.708   0.038 -0.7035  0.2908 -0.0910
  316TMC3    C2 4800   1.404   2.652   0.128  0.1209 -0.7851  0.2480
  316TMC3    C3 4801   1.465   2.736   0.211  0.4757  0.0655  0.6550
  316TMC3    C4 4802   1.296   2.846   0.026  0.7662  0.1937 -0.4863
  316TMC3    C5 4803   1.364   2.925   0.111  0.0801  0.8634  0.1408
  316TMC3    C6 4804   1.439   2.873   0.212 -0.2047  0.2432  0.1655
  316TMC3     C 4805   1.255   2.615  17.683  0.3855  0.3972  0.7797
  316TMC3     O 4806   1.201   2.664  17.582  0.2742  0.1229 -0.3801
  316TMC3     H 4807   1.421   2.545   0.132  0.3608 -0.7638 -0.2788
  316TMC3    H1 4808   1.236   2.874  17.684  0.7443 -0.5914 -0.7275
  316TMC3    H2 4809   1.472   2.943   0.288  0.0319  1.3788 -0.9746
  316TMC3    C7 4810   1.324   3.061   0.120  0.0248  0.1554 -0.4167
  316TMC3    C8 4811   1.537   2.690   0.328 -0.0304 -0.0356  0.0310
  316TMC3    O1 4812   1.304   3.107   0.229 -0.3882 -0.3240 -0.2255
  316TMC3    O2 4813   1.563   2.783   0.404  0.0947 -0.4521 -0.1013
  317MPD2     C 4814   3.347   1.276  12.848  0.1417 -0.2680  0.1081
  317MPD2    C1 4815   3.458   1.189  12.857 -0.4657  0.3891 -0.4724
  317MPD2    C2 4816   3.492   1.140  12.987 -0.6238 -0.2941  0.0479
  317MPD2    C3 4817   3.428   1.168  13.100 -0.0757 -0.4381  0.0060
  317MPD2    C4 4818   3.319   1.248  13.085 -0.0959 -0.2075 -0.6778
  317MPD2    C5 4819   3.280   1.299  12.964  0.0902 -0.4463 -0.2573
  317MPD2     H 4820   3.579   1.077  12.978  1.0377  2.0397 -0.3040
  317MPD2    H1 4821   3.254   1.282  13.164  1.1908 -0.3283  0.4420
  317MPD2    H2 4822   3.322   1.331  12.759 -0.6292 -1.9215 -0.7102
  317MPD2    H3 4823   3.198   1.370  12.954  2.1586  1.9988  0.0152
  317MPD2     N 4824   3.470   1.122  13.229 -0.6604  0.5511 -0.0658
  317MPD2    H5 4825   3.422   1.150  13.313 -1.6569  0.7654 -0.7134
  317MPD2    N1 4826   3.535   1.156  12.746 -0.2911  0.2782  0.3205
  317MPD2    H7 4827   3.607   1.088  12.764 -0.2824 -0.0320 -0.8940
  318TMC3    C1 4828   3.574   0.981  13.378  0.4806  0.3997  0.5150
  318TMC3    C2 4829   3.559   0.845  13.389  0.4233  0.7615  0.2029
  318TMC3    C3 4830   3.613   0.768  13.490 -0.2346 -0.7823 -0.5534
  318TMC3    C4 4831   3.659   1.035  13.476 -0.0825 -0.3865 -0.0408
  318TMC3    C5 4832   3.728   0.956  13.566  1.1044 -0.2163  0.0041
  318TMC3    C6 4833   3.709   0.818  13.570 -0.0954 -0.3447 -0.2281
  318TMC3     C 4834   3.576   1.035  13.248  0.3173  0.1570  0.1048
  318TMC3     O 4835   3.658   0.980  13.170 -0.1095  0.6166 -0.2091
  318TMC3     H 4836   3.511   0.800  13.303  0.5628 -0.1570  0.6102
  318TMC3    H1 4837   3.667   1.143  13.487  0.8113 -0.4078 -0.4763
  318TMC3    H2 4838   3.765   0.757  13.640 -0.0703 -1.1557 -0.9432
  318TMC3    C7 4839   3.755   1.027  13.694  0.3271 -0.4170  0.4872
  318TMC3    C8 4840   3.590   0.632  13.500  0.5056  0.3000 -0.1272
  318TMC3    O1 4841   3.666   1.107  13.728  0.0891 -0.1812 -0.4813
  318TMC3    O2 4842   3.671   0.573  13.571 -0.0427  0.0935 -0.4729
  319MPD2     C 4843   4.029   2.477  17.090 -0.1961  0.3593 -0.1190
  319MPD2    C1 4844   4.040   2.337  17.091  0.1929 -0.4972  0.1409
  319MPD2    C2 4845   3.952   2.253  17.023 -0.3853  0.0646  0.1941
  319MPD2    C3 4846   3.851   2.309  16.946 -0.9141 -0.0361 -0.0447
  319MPD2    C4 4847   3.833   2.446  16.960  0.3845  0.7186  0.3668
  319MPD2    C5 4848   3.926   2.527  17.019 -0.4864 -0.6158  0.8388
  319MPD2     H 4849   3.962   2.145  17.018 -1.8041  0.0432 -2.0019
  319MPD2    H1 4850   3.749   2.487  16.906  1.3973 -1.6680 -2.9770
  319MPD2    H2 4851   4.100   2.540  17.143  1.0886  0.1747 -1.6076
  319MPD2    H3 4852   3.908   2.634  17.010  1.1531 -0.3814  0.4466
  319MPD2     N 4853   3.755   2.234  16.871  0.1732  0.2948  0.8787
  319MPD2    H5 4854   3.677   2.283  16.829  0.3401 -2.0363 -2.1554
  319MPD2    N1 4855   4.149   2.279  17.154  0.0710 -0.6878  0.2306
  319MPD2    H7 4856   4.169   2.183  17.127  1.6878  0.2047 -1.7639
  320TMC3    C1 4857   3.650   2.060  16.753  0.3379  0.3597 -0.3530
  320TMC3    C2 4858   3.583   2.160  16.680 -0.0466  0.1113 -0.4099
  320TMC3    C3 4859   3.505   2.116  16.578 -0.3088  0.1643 -0.4933
  320TMC3    C4 4860   3.651   1.928  16.718  0.4882  0.0869  0.4578
  320TMC3    C5 4861   3.564   1.887  16.617 -0.1443 -0.2526 -0.3227
  320TMC3    C6 4862   3.494   1.984  16.544  0.1826  0.0860  0.3410
  320TMC3     C 4863   3.753   2.096  16.845 -0.1587 -0.2318 -0.0064
  320TMC3     O 4864   3.825   2.009  16.891 -0.4262  0.2974 -0.4394
  320TMC3     H 4865   3.582   2.267  16.701  0.7288  0.1425 -0.5290
  320TMC3    H1 4866   3.727   1.860  16.755  1.9898  1.1148 -0.7274
  320TMC3    H2 4867   3.426   1.956  16.464  1.3306  0.4263 -0.7668
  320TMC3    C7 4868   3.585   1.760  16.554 -0.4919  0.3083  0.8531
  320TMC3    C8 4869   3.439   2.222  16.501 -0.5027  0.1077  0.1679
  320TMC3    O1 4870   3.565   1.758  16.432  0.1830  0.8495 -0.0558
  320TMC3    O2 4871   3.464   2.344  16.521 -0.4293 -0.3755  0.1293
  321TMC3    C1 4872   4.358   2.244  17.252  0.5298  0.4565 -0.3576
  321TMC3    C2 4873   4.344   2.113  17.240 -0.2166 -0.1054 -0.0925
  321TMC3    C3 4874   4.449   2.027  17.260  0.6368 -0.7108 -0.1469
  321TMC3    C4 4875   4.479   2.297  17.295 -0.4333 -0.4782  1.0294
  321TMC3    C5 4876   4.589   2.212  17.300  0.7283 -0.2033 -0.0057
  321TMC3    C6 4877   4.576   2.078  17.278  0.3682 -0.2139  0.0416
  321TMC3     C 4878   4.252   2.339  17.225  0.1640  0.6661 -0.7009
  321TMC3     O 4879   4.270   2.454  17.262  0.2210  0.3842  0.2347
  321TMC3     H 4880   4.250   2.063  17.219 -0.5787  0.0305  1.1932
  321TMC3    H1 4881   4.503   2.403  17.305 -1.1093 -0.2449  0.1759
  321TMC3    H2 4882   4.665   2.017  17.274 -0.4003 -1.2049 -2.1182
  321TMC3    C7 4883   4.665   2.229  17.415 -0.1503 -0.3004  0.2728
  321TMC3    C8 4884   4.421   1.920  17.353 -0.0775 -0.1537  0.5291
  321TMC3    O1 4885   4.692   2.124  17.475  0.5834 -0.1518 -0.1207
  321TMC3    O2 4886   4.317   1.853  17.344 -0.5662 -0.1378 -0.0728
  322MPD2     C 4887   3.042   3.003  13.379  0.2382  0.2156  0.9333
  322MPD2    C1 4888   3.005   3.026  13.507  0.3470  0.1710 -0.3224
  322MPD2    C2 4889   2.998   2.918  13.598  0.3314  0.6406  0.1446
  322MPD2    C3 4890   3.041   2.798  13.560 -0.1017 -0.0922  0.2226
  322MPD2    C4 4891   3.090   2.777  13.431 -0.3315 -0.6707  0.0752
  322MPD2    C5 4892   3.093   2.882  13.344 -0.6062 -0.4013 -0.1572
  322MPD2     H 4893   2.953   2.928  13.696 -2.4187  0.0006 -1.0733
  322MPD2    H1 4894   3.135   2.683  13.400  1.8420  1.0133 -1.8536
  322MPD2    H2 4895   3.070   3.085  13.314 -0.6320  1.2561  1.8683
  322MPD2    H3 4896   3.140   2.876  13.246  0.3902 -0.5042  0.3229
  322MPD2     N 4897   3.022   2.693  13.653 -0.5717 -0.1521 -0.3641
  322MPD2    H5 4898   2.964   2.714  13.734  0.3525 -0.6711  0.4400
  322MPD2    N1 4899   2.963   3.160  13.531  0.8865  0.2615  0.1387
  322MPD2    H7 4900   2.969   3.229  13.457  1.8578  1.0569  0.9557
  323TMC3    C1 4901   2.935   3.339  13.672  0.6961 -0.1617  0.6149
  323TMC3    C2 4902   3.004   3.415  13.578 -0.1429 -0.8147 -0.3201
  323TMC3    C3 4903   3.023   3.545  13.602  0.4039  0.3189  0.3076
  323TMC3    C4 4904   2.898   3.389  13.797 -0.8066  0.0250  0.3753
  323TMC3    C5 4905   2.936   3.518  13.821 -0.3779  0.4965  0.2083
  323TMC3    C6 4906   3.000   3.594  13.723  0.2059 -0.4250 -0.0145
  323TMC3     C 4907   2.914   3.202  13.650  0.0536 -0.3630 -0.1908
  323TMC3     O 4908   2.877   3.136  13.745 -0.5411 -0.2727  0.2882
  323TMC3     H 4909   3.056   3.363  13.498 -0.3633 -1.2573 -0.1754
  323TMC3    H1 4910   2.866   3.326  13.879  1.6135 -0.4186  0.9928
  323TMC3    H2 4911   3.006   3.701  13.739 -0.9079 -0.1731 -1.3022
  323TMC3    C7 4912   2.968   3.545  13.958  1.0300  0.3230  0.0749
  323TMC3    C8 4913   3.141   3.611  13.547  0.2582 -0.3467  0.3568
  323TMC3    O1 4914   2.911   3.472  14.040 -0.3416  0.3528  0.0222
  323TMC3    O2 4915   3.208   3.687  13.623  0.0296  0.9194  0.5283
  324MPD2     C 4916   4.717   0.223  14.721  0.0792  0.2261  0.1676
  324MPD2    C1 4917   4.688   0.354  14.736  0.5325 -1.0222  0.7788
  324MPD2    C2 4918   4.552   0.390  14.724  0.6210  0.0807 -0.5855
  324MPD2    C3 4919   4.454   0.296  14.698  1.2316 -0.2201  0.0760
  324MPD2    C4 4920   4.492   0.170  14.682  0.9407 -0.1531  0.2858
  324MPD2    C5 4921   4.623   0.134  14.694 -0.1835 -0.3975 -0.1070
  324MPD2     H 4922   4.520   0.492  14.741  1.1495  0.2626 -0.6574
  324MPD2    H1 4923   4.421   0.089  14.667  0.5278  0.2406  0.1392
  324MPD2    H2 4924   0.081   0.183  14.724 -0.5177 -1.3559 -1.1495
  324MPD2    H3 4925   4.651   0.031  14.677  1.7238  0.5565 -2.7764
  324MPD2     N 4926   4.317   0.324  14.687  0.6916 -0.3121  0.5567
  324MPD2    H5 4927   4.255   0.246  14.673 -0.3317  0.2587  1.8931
  324MPD2    N1 4928   0.044   0.454  14.751 -0.0889 -0.0786 -0.7144
  324MPD2    H7 4929   0.005   0.546  14.768  1.3735  0.8243 -2.2816
  325TMC3    C1 4930   4.124   0.424  14.626 -0.0868 -0.3217 -0.0039
  325TMC3    C2 4931   4.093   0.305  14.565  0.2622 -0.9688 -0.5162
  325TMC3    C3 4932   3.961   0.285  14.538  0.3427  0.4023 -0.2502
  325TMC3    C4 4933   4.032   0.521  14.662  0.8659 -0.1544 -0.5000
  325TMC3    C5 4934   3.905   0.488  14.631 -0.1409 -0.4722  0.0090
  325TMC3    C6 4935   3.865   0.380  14.555 -0.2623 -0.3583 -0.1180
  325TMC3     C 4936   4.261   0.446  14.670 -0.7133  0.2001 -0.4216
  325TMC3     O 4937   4.311   0.557  14.672 -0.4957  0.0596  0.4089
  325TMC3     H 4938   4.162   0.244  14.508  1.1389 -0.1948 -0.2817
  325TMC3    H1 4939   4.066   0.608  14.719  0.3516 -0.4809  0.3131
  325TMC3    H2 4940   3.763   0.362  14.524 -0.4783  1.7243 -0.6195
  325TMC3    C7 4941   3.803   0.572  14.693  0.1451 -0.2034 -0.1111
  325TMC3    C8 4942   3.936   0.160  14.464  0.4804 -0.3772 -0.0698
  325TMC3    O1 4943   3.842   0.677  14.744 -0.2779 -0.2830  0.0922
  325TMC3    O2 4944   4.022   0.074  14.465  0.3348  0.0572 -0.6745
  326MPD2     C 4945   1.087   1.932  11.333 -0.1786 -0.2386  0.2029
  326MPD2    C1 4946   1.117   1.877  11.210 -0.2484  0.5156  0.1849
  326MPD2    C2 4947   1.243   1.877  11.156  0.7502 -0.3911  0.7275
  326MPD2    C3 4948   1.346   1.928  11.234 -0.1537 -0.1289  0.5050
  326MPD2    C4 4949   1.317   1.984  11.354 -0.1246 -0.2691  0.6102
  326MPD2    C5 4950   1.186   1.990  11.395  0.0003 -0.6802 -0.5488
  326MPD2     H 4951   1.256   1.833  11.058 -0.4260 -0.3396  0.5488
  326MPD2    H1 4952   1.400   2.023  11.412  1.0150  0.4895 -1.5217
  326MPD2    H2 4953   0.986   1.930  11.373  0.5803 -0.4134  2.0714
  326MPD2    H3 4954   1.163   2.033  11.492  0.0668  2.0346 -1.7694
  326MPD2     N 4955   1.484   1.940  11.185  1.1286 -0.2968 -0.2749
  326MPD2    H5 4956   1.546   1.999  11.239  0.8083 -1.4239  1.3091
  326MPD2    N1 4957   1.019   1.801  11.137 -0.4293  0.1738  0.1120
  326MPD2    H7 4958   1.045   1.767  11.045  1.2641  1.7511  0.0154
  327TMC3    C1 4959   0.812   1.712  11.080  0.4460 -0.5485  0.6156
  327TMC3    C2 4960   0.684   1.744  11.042 -0.2126 -0.3504 -0.7208
  327TMC3    C3 4961   0.633   1.690  10.925 -0.3591  0.1308  0.3917
  327TMC3    C4 4962   0.891   1.624  11.006  0.3814 -0.5758  0.3844
  327TMC3    C5 4963   0.838   1.570  10.895  0.5598  0.7944 -0.6591
  327TMC3    C6 4964   0.711   1.600  10.854 -0.3095 -1.0254  0.4369
  327TMC3     C 4965   0.883   1.811  11.150  0.2284  0.0318 -0.2669
  327TMC3     O 4966   0.812   1.887  11.222 -0.0253  0.4012  0.1000
  327TMC3     H 4967   0.624   1.822  11.089  2.8840  2.7968 -1.9481
  327TMC3    H1 4968   0.987   1.593  11.047  0.1963 -0.4491  0.9215
  327TMC3    H2 4969   0.670   1.548  10.768 -2.1222 -1.1174  1.3639
  327TMC3    C7 4970   0.925   1.493  10.802 -0.2168  0.1707  0.4984
  327TMC3    C8 4971   0.521   1.757  10.869  0.8195 -0.4823  0.2120
  327TMC3    O1 4972   0.904   1.489  10.681  0.1783 -0.0338  0.6039
  327TMC3    O2 4973   0.485   1.866  10.906  0.0542 -0.0630  0.6126
  328MPD2     C 4974   4.003   1.483  17.386 -0.3347 -0.3988 -0.3388
  328MPD2    C1 4975   3.930   1.371  17.359 -0.2885  0.2033  0.5179
  328MPD2    C2 4976   3.812   1.379  17.280 -0.0483  0.8524  0.0469
  328MPD2    C3 4977   3.772   1.499  17.222  0.1239 -0.2499 -0.0313
  328MPD2    C4 4978   3.851   1.618  17.251  0.3077  0.1342  0.0229
  328MPD2    C5 4979   3.966   1.605  17.323  0.8369 -0.1867  0.9320
  328MPD2     H 4980   3.750   1.291  17.273  0.5103  0.7044 -3.3903
  328MPD2    H1 4981   3.846   1.715  17.203  1.4995  0.4213  0.4605
  328MPD2    H2 4982   4.091   1.495  17.448 -0.8851  4.2859 -0.4521
  328MPD2    H3 4983   4.013   1.701  17.343  3.1535 -1.0658 -0.2908
  328MPD2     N 4984   3.655   1.519  17.150  0.5970 -0.5647 -1.0456
  328MPD2    H5 4985   3.636   1.614  17.122  0.1330 -0.2199  0.4348
  328MPD2    N1 4986   3.969   1.253  17.425  0.6188  0.6358  0.4023
  328MPD2    H7 4987   4.053   1.256  17.482  0.7426  1.4762  0.1831
  329TMC3    C1 4988   3.925   1.057  17.536  0.4844  0.1477 -0.5596
  329TMC3    C2 4989   3.964   1.112  17.654 -0.3844 -0.2455 -1.1099
  329TMC3    C3 4990   3.911   1.072   0.025 -0.0131  0.6269 -0.5835
  329TMC3    C4 4991   3.853   0.943  17.539  0.5998  0.2626  0.5977
  329TMC3    C5 4992   3.797   0.907  17.654  0.5800 -0.1860  0.7750
  329TMC3    C6 4993   3.822   0.973   0.026  0.4174  0.2996 -0.5590
  329TMC3     C 4994   3.899   1.136  17.422 -0.0131  0.7920  0.1445
  329TMC3     O 4995   3.801   1.097  17.358 -0.8344 -0.1438 -0.0724
  329TMC3     H 4996   4.023   1.203  17.648 -2.1351  0.9070 -0.6619
  329TMC3    H1 4997   3.845   0.890  17.444 -0.0879  0.6857  0.4254
  329TMC3    H2 4998   3.782   0.939   0.121 -1.3764  1.0658 -1.0423
  329TMC3    C7 4999   3.728   0.780  17.668  0.5392  0.6311 -0.2819
  329TMC3    C8 5000   3.910   1.182   0.123  1.0817  0.8330 -0.5180
  329TMC3    O1 5001   3.715   0.730   0.033 -0.2629  0.2605 -0.2416
  329TMC3    O2 5002   4.020   1.239   0.133  0.4559 -0.3273  0.5032
  330TMC3    C1 5003   1.625   0.732   9.332  0.2934  0.1383  0.3860
  330TMC3    C2 5004   1.606   0.665   9.454  0.1361 -0.6420  0.6134
  330TMC3    C3 5005   1.718   0.647   9.533 -0.3540 -0.0120 -0.2040
  330TMC3    C4 5006   1.749   0.789   9.304 -0.0386  0.2929  0.2832
  330TMC3    C5 5007   1.853   0.768   9.390  0.3270 -0.5020  0.8675
  330TMC3    C6 5008   1.841   0.693   9.508  0.2956  0.1048  0.4198
  330TMC3     C 5009   1.511   0.808   9.277  0.0328  0.6842 -0.8683
  330TMC3     O 5010   1.546   0.917   9.234  0.2740 -0.4047 -0.3630
  330TMC3     H 5011   1.522   0.597   9.459 -0.7695  0.4131 -0.4219
  330TMC3    H1 5012   1.765   0.843   9.211  1.4241  1.5585  1.2817
  330TMC3    H2 5013   1.919   0.699   9.583 -0.3901 -1.5598  1.2526
  330TMC3    C7 5014   1.987   0.781   9.330 -0.8127 -0.7224  0.0864
  330TMC3    C8 5015   1.705   0.555   9.644 -0.2519  0.0197 -0.9566
  330TMC3    O1 5016   1.995   0.827   9.214 -0.2534 -0.6318  0.2962
  330TMC3    O2 5017   1.811   0.514   9.696  0.1564 -0.8493 -0.5141
  331MPD2     C 5018   0.545   4.654  12.866 -0.1507 -0.1594 -0.1232
  331MPD2    C1 5019   0.420   4.703  12.842  0.2427 -0.0916 -1.3075
  331MPD2    C2 5020   0.335   4.615  12.778  0.3302  0.2499 -0.2738
  331MPD2    C3 5021   0.374   4.484  12.739 -0.2594 -0.6395 -0.0119
  331MPD2    C4 5022   0.495   4.441  12.776  0.2889  0.3392  0.3907
  331MPD2    C5 5023   0.577   4.525  12.844 -0.2566  0.6025  0.1921
  331MPD2     H 5024   0.243   4.655  12.737 -1.3116 -0.9637  2.2032
  331MPD2    H1 5025   0.535   4.344  12.749 -1.7138 -0.1115 -0.8890
  331MPD2    H2 5026   0.619   4.718  12.913  0.7730 -1.2133 -0.1519
  331MPD2    H3 5027   0.675   4.489  12.870  0.1996  0.1113 -2.2182
  331MPD2     N 5028   0.279   4.408  12.665  0.2042  0.1607 -0.3134
  331MPD2    H5 5029   0.188   4.448  12.647  1.0191  1.5268 -1.3434
  331MPD2    N1 5030   0.382   0.101  12.874 -0.8671  0.5425  0.3971
  331MPD2    H7 5031   0.455   0.170  12.889 -1.3049  0.2702  3.7263
  332TMC3    C1 5032   0.176   4.228  12.560 -0.5284  0.1553 -0.5049
  332TMC3    C2 5033   0.113   4.307  12.470 -0.1489 -0.5695 -0.8979
  332TMC3    C3 5034   4.735   4.257  12.415 -0.1370  0.2026 -0.3811
  332TMC3    C4 5035   0.136   4.107  12.607 -0.9043  0.2291  0.3769
  332TMC3    C5 5036   0.008   4.072  12.562  0.6621 -0.7123 -0.3385
  332TMC3    C6 5037   4.676   4.146  12.469 -0.3664 -1.0539 -0.1238
  332TMC3     C 5038   0.295   4.275  12.634  0.4248  0.5857  0.2439
  332TMC3     O 5039   0.374   4.193  12.673  0.1861  0.3337 -0.2638
  332TMC3     H 5040   0.162   4.401  12.445 -0.3163 -0.2077  0.1083
  332TMC3    H1 5041   0.192   4.051  12.681 -2.2942  0.0123  1.2684
  332TMC3    H2 5042   4.582   4.117  12.424 -0.5087 -1.1852  0.2583
  332TMC3    C7 5043   4.687   3.941  12.579 -0.3841 -0.1453 -0.2446
  332TMC3    C8 5044   4.673   4.339  12.331  0.0203 -0.1596 -0.0246
  332TMC3    O1 5045   4.607   3.894  12.497 -0.1213 -0.0510 -0.0974
  332TMC3    O2 5046   0.007   4.394  12.252 -0.0096  0.0790  0.6585
  333MPD2     C 5047   4.023   0.083  11.088  0.2348  0.6671 -0.5268
  333MPD2    C1 5048   4.143   0.022  11.078  0.0313  0.5341 -0.6500
  333MPD2    C2 5049   4.176   4.641  11.139  0.2521 -0.2046  0.4465
  333MPD2    C3 5050   4.078   4.580  11.216 -0.3367 -0.2915 -0.4760
  333MPD2    C4 5051   3.955   4.638  11.233 -0.7023  0.4087 -0.1004
  333MPD2    C5 5052   3.930   0.020  11.160  0.1763  0.1327 -0.1541
  333MPD2     H 5053   4.277   4.601  11.134  0.4973  0.4305  0.3603
  333MPD2    H1 5054   3.884   4.597  11.304  0.0782  0.0250  0.4591
  333MPD2    H2 5055   4.002   0.177  11.038 -1.9376  0.6673  0.3923
  333MPD2    H3 5056   3.834   0.069  11.162  0.1503  0.0228  1.3812
  333MPD2     N 5057   4.115   4.469  11.301  0.0712 -0.6346 -0.9302
  333MPD2    H5 5058   4.216   4.461  11.309 -0.1762 -3.9082 -1.2226
  333MPD2    N1 5059   4.230   0.085  10.989 -0.3913 -0.1461 -0.4039
  333MPD2    H7 5060   4.196   0.173  10.954  2.4476  0.8854 -0.6027
  334TMC3    C1 5061   4.415   0.115  10.855 -0.5323  0.0560  0.9832
  334TMC3    C2 5062   4.501   0.059  10.760  0.3714 -0.0025  0.8063
  334TMC3    C3 5063   4.603   0.134  10.703  0.6226 -0.4451 -0.5515
  334TMC3    C4 5064   4.420   0.248  10.881 -0.2546  0.0100 -0.5750
  334TMC3    C5 5065   4.523   0.311  10.823  0.3419 -0.0085 -0.9047
  334TMC3    C6 5066   4.613   0.267  10.730  0.6226 -0.6801  0.4835
  334TMC3     C 5067   4.338   0.021  10.934  0.0649 -0.6072  0.1135
  334TMC3     O 5068   4.376   4.645  10.932  0.0173 -0.2225 -0.0634
  334TMC3     H 5069   4.494   4.695  10.720 -0.9320 -0.5677  2.4492
  334TMC3    H1 5070   4.364   0.294  10.962  0.0039  0.8125 -0.8466
  334TMC3    H2 5071   4.678   0.333  10.674 -0.0677  2.9410  3.8787
  334TMC3    C7 5072   4.509   0.459  10.827 -0.1717 -0.8608 -0.8831
  334TMC3    C8 5073   4.710   0.070  10.626 -0.2990 -0.1317  0.6848
  334TMC3    O1 5074   4.616   0.521  10.847 -1.0291 -0.0683 -0.6436
  334TMC3    O2 5075   4.686   4.692  10.586 -0.0367 -0.3296 -0.5687
  335TMC3    C1 5076   4.336   0.862  17.729 -0.7180 -0.4161 -0.1786
  335TMC3    C2 5077   4.235   0.845  17.641  0.0327  0.0769 -1.1963
  335TMC3    C3 5078   4.272   0.871  17.512  0.2301  0.2803 -0.1745
  335TMC3    C4 5079   4.468   0.895  17.698  0.0989  0.5952  0.1393
  335TMC3    C5 5080   4.501   0.915  17.565  0.0965 -0.3207  0.4883
  335TMC3    C6 5081   4.398   0.906  17.475 -0.1689  0.1840 -0.6988
  335TMC3     C 5082   4.288   0.899   0.120  0.2580  0.0262  0.0850
  335TMC3     O 5083   4.349   0.997   0.162  0.1144  0.0644  0.2157
  335TMC3     H 5084   4.130   0.829  17.663  0.0683 -1.7129 -2.4003
  335TMC3    H1 5085   4.532   0.897   0.041 -0.2915  0.4478  0.4291
  335TMC3    H2 5086   4.424   0.917  17.370 -1.7773 -0.3848 -1.1470
  335TMC3    C7 5087   4.637   0.927  17.516 -0.0111  0.1553  0.5493
  335TMC3    C8 5088   4.181   0.833  17.401 -0.0486  0.4079 -0.5681
  335TMC3    O1 5089   4.665   0.886  17.402 -0.3322  0.0558  0.3942
  335TMC3    O2 5090   4.209   0.882  17.292 -0.7153  0.4163  0.1379
  336MPD2     C 5091   3.529   3.695  16.320 -0.9137  0.0899 -0.2536
  336MPD2    C1 5092   3.610   3.653  16.213  0.2630 -0.4712 -0.1615
  336MPD2    C2 5093   3.699   3.556  16.232 -0.2025  0.5867  0.2592
  336MPD2    C3 5094   3.700   3.491  16.353 -0.1715  0.4941 -0.5137
  336MPD2    C4 5095   3.618   3.534  16.465 -0.4093  0.1079 -0.3855
  336MPD2    C5 5096   3.534   3.639  16.441  0.0937 -0.5843 -0.5980
  336MPD2     H 5097   3.777   3.528  16.162  0.1323  0.8800  0.5101
  336MPD2    H1 5098   3.630   3.496  16.566 -0.4780  3.4049  0.8578
  336MPD2    H2 5099   3.460   3.779  16.315 -0.9397  0.0528 -0.5152
  336MPD2    H3 5100   3.469   3.682  16.516  0.1074 -0.7765 -0.4779
  336MPD2     N 5101   3.771   3.375  16.372 -0.3952 -0.3657 -0.6111
  336MPD2    H5 5102   3.765   3.333  16.464  0.0633 -1.4879 -1.0900
  336MPD2    N1 5103   3.618   3.718  16.090  0.7327 -0.7247 -0.4137
  336MPD2    H7 5104   3.686   3.693  16.018 -2.6668 -1.8000 -3.2831
  337TMC3    C1 5105   3.546   3.850  15.911 -0.4132  0.0218 -0.1824
  337TMC3    C2 5106   3.432   3.849  15.839  0.1394  0.3583 -0.1046
  337TMC3    C3 5107   3.440   3.830  15.704  0.1801 -0.4931 -0.3361
  337TMC3    C4 5108   3.669   3.853  15.858  0.5040 -0.5227 -0.2977
  337TMC3    C5 5109   3.673   3.832  15.719  0.1463 -0.2913 -0.3868
  337TMC3    C6 5110   3.558   3.822  15.638 -0.0283 -0.7743  0.8119
  337TMC3     C 5111   3.539   3.821  16.051  0.4605  0.5656  0.4358
  337TMC3     O 5112   3.447   3.865  16.112 -0.7848  0.1494  0.4416
  337TMC3     H 5113   3.334   3.850  15.886  0.1396  3.6019 -0.1378
  337TMC3    H1 5114   3.761   3.832  15.911 -0.2881 -1.5654  0.6748
  337TMC3    H2 5115   3.573   3.799  15.534 -1.9976 -1.2475  0.6340
  337TMC3    C7 5116   3.785   3.743  15.685  0.1812  0.0888  0.6027
  337TMC3    C8 5117   3.315   3.823  15.630  0.2103 -0.2656 -0.2730
  337TMC3    O1 5118   3.814   3.671  15.782 -0.0468 -0.2853 -0.3835
  337TMC3    O2 5119   3.212   3.826  15.698 -0.5227 -0.5153  0.2423
  338MPD2     C 5120   4.178   2.946   1.273  0.4756 -0.6999 -0.2612
  338MPD2    C1 5121   4.123   2.950   1.149  0.2341 -0.3728 -0.3466
  338MPD2    C2 5122   3.989   2.977   1.136  0.2076 -0.1555  0.9824
  338MPD2    C3 5123   3.908   2.970   1.247 -0.0762  0.2101  0.3691
  338MPD2    C4 5124   3.961   2.964   1.375  0.2037 -0.2068  0.8236
  338MPD2    C5 5125   4.099   2.968   1.385  0.3714  0.3846  0.0942
  338MPD2     H 5126   3.939   2.986   1.040  1.3897 -0.5317  0.3361
  338MPD2    H1 5127   3.898   2.955   1.463  2.3838  0.5255  2.4365
  338MPD2    H2 5128   4.285   2.930   1.279  0.5581 -1.0563 -2.7253
  338MPD2    H3 5129   4.152   2.955   1.479  0.5627  0.9980  0.0757
  338MPD2     N 5130   3.765   2.967   1.230  0.3054  0.0155  0.0749
  338MPD2    H5 5131   3.732   2.991   1.137 -0.1390 -0.1500  0.1931
  338MPD2    N1 5132   4.186   2.917   1.024  0.4113  0.7589  0.1824
  338MPD2    H7 5133   4.139   2.944   0.938 -0.2652  0.9260  0.6040
  339TMC3    C1 5134   3.537   2.972   1.290 -0.5400 -0.4999  0.5987
  339TMC3    C2 5135   3.466   2.856   1.280 -0.0014 -0.4076 -0.3183
  339TMC3    C3 5136   3.366   2.848   1.185 -0.3553 -0.4705  0.4073
  339TMC3    C4 5137   3.520   3.077   1.208  0.3038  0.4002  0.4801
  339TMC3    C5 5138   3.411   3.067   1.123 -0.3598  0.1736  0.8491
  339TMC3    C6 5139   3.323   2.960   1.121  0.2488  0.0526 -0.4723
  339TMC3     C 5140   3.672   2.937   1.331 -0.4789 -0.0183 -0.1835
  339TMC3     O 5141   3.680   2.874   1.435  0.3535  0.2760  0.7645
  339TMC3     H 5142   3.500   2.762   1.324 -3.5786 -0.8387  1.5233
  339TMC3    H1 5143   3.591   3.159   1.211 -0.1744  0.9704 -4.0099
  339TMC3    H2 5144   3.243   2.945   1.049  1.2547  0.0230 -1.5814
  339TMC3    C7 5145   3.399   3.160   1.009 -0.4599 -0.1843 -0.3047
  339TMC3    C8 5146   3.399   2.760   1.077 -0.1052 -0.4850 -0.0167
  339TMC3    O1 5147   3.467   3.259   1.028  0.0323  0.5351 -0.1627
  339TMC3    O2 5148   3.441   2.804   0.967  0.3991  0.5197  0.1793
  340MPD2     C 5149   3.936   1.190   9.777  0.1318  0.1414  0.6382
  340MPD2    C1 5150   3.953   1.056   9.783  0.0565  0.7842 -0.2315
  340MPD2    C2 5151   3.960   0.999   9.906  0.3723 -0.6750 -0.4398
  340MPD2    C3 5152   3.958   1.082  10.023  0.0380 -0.3101 -0.2354
  340MPD2    C4 5153   3.933   1.215  10.012  0.3389 -0.6814  0.2766
  340MPD2    C5 5154   3.938   1.274   9.885 -0.6912 -0.4995  0.1037
  340MPD2     H 5155   3.981   0.892   9.912  1.5033 -0.4145  0.3428
  340MPD2    H1 5156   3.918   1.286  10.093 -1.0455 -1.3042  0.5767
  340MPD2    H2 5157   3.924   1.240   9.681 -1.7879 -0.3927  0.6052
  340MPD2    H3 5158   3.903   1.376   9.871 -1.4802 -0.8542 -0.5235
  340MPD2     N 5159   3.986   1.030  10.148  0.0231 -0.3285  0.2011
  340MPD2    H5 5160   3.989   1.098  10.224  0.3531 -0.2050  0.0810
  340MPD2    N1 5161   3.950   0.982   9.658  0.7333  0.4393 -0.2122
  340MPD2    H7 5162   3.969   1.043   9.579 -3.3070  2.0941  0.1154
  341TMC3    C1 5163   4.028   0.802   9.523 -0.4662 -0.7812  0.4411
  341TMC3    C2 5164   3.975   0.687   9.468  0.7796  0.0761 -0.2010
  341TMC3    C3 5165   4.030   0.629   9.360 -0.1812  0.1346  0.0668
  341TMC3    C4 5166   4.144   0.854   9.476 -0.4419 -0.3928 -0.0727
  341TMC3    C5 5167   4.190   0.794   9.366 -0.5905 -0.6030 -0.0147
  341TMC3    C6 5168   4.144   0.681   9.309 -0.0763 -0.4711 -0.2575
  341TMC3     C 5169   3.972   0.851   9.652 -0.0294  0.1715 -0.3962
  341TMC3     O 5170   3.916   0.770   9.725  0.7796 -0.1337 -0.1573
  341TMC3     H 5171   3.896   0.634   9.520  2.1737 -0.1906  1.6173
  341TMC3    H1 5172   4.180   0.945   9.522 -2.2368  1.3388 -2.0828
  341TMC3    H2 5173   4.206   0.632   9.235  0.6858 -1.1572  0.8272
  341TMC3    C7 5174   4.317   0.844   9.325  0.2578 -0.2948 -0.6429
  341TMC3    C8 5175   3.983   0.495   9.326 -0.0323 -0.3176  0.1656
  341TMC3    O1 5176   4.381   0.901   9.410  0.0225  0.2744  0.1258
  341TMC3    O2 5177   3.890   0.440   9.388  0.2415 -0.3490 -0.3561
  342MPD2     C 5178   2.114   3.765   0.309  0.3830  0.5713 -0.4085
  342MPD2    C1 5179   2.237   3.788   0.254 -0.7038 -0.2403  0.3502
  342MPD2    C2 5180   2.289   3.914   0.249 -0.2306  0.4962 -0.2931
  342MPD2    C3 5181   2.224   4.024   0.298  0.7789  0.3803  0.0420
  342MPD2    C4 5182   2.101   4.004   0.358 -0.5853  0.1921 -0.6720
  342MPD2    C5 5183   2.050   3.872   0.362  0.3898  1.2800 -0.1633
  342MPD2     H 5184   2.392   3.923   0.217 -0.5189 -0.1249 -1.3822
  342MPD2    H1 5185   2.048   4.085   0.407 -2.4660 -1.0301 -0.6551
  342MPD2    H2 5186   2.061   3.671   0.310  0.8520  0.2842 -1.7482
  342MPD2    H3 5187   1.958   3.866   0.419 -0.2600  1.5616 -1.1846
  342MPD2     N 5188   2.283   4.149   0.294 -0.2141  0.5365  0.1951
  342MPD2    H5 5189   2.233   4.221   0.346 -0.6977 -1.3407  2.3136
  342MPD2    N1 5190   2.315   3.682   0.200  0.4773  0.3941  0.1511
  342MPD2    H7 5191   2.401   3.703   0.151  0.6981  1.1287  0.8428
  343TMC3    C1 5192   2.374   3.472   0.110  0.7124  0.5467 -0.2598
  343TMC3    C2 5193   2.484   3.526   0.051  0.2985  0.0680 -0.0070
  343TMC3    C3 5194   2.547   3.458  17.693 -0.4623 -0.6055  0.5328
  343TMC3    C4 5195   2.332   3.350   0.070  0.4327 -0.1177  0.0077
  343TMC3    C5 5196   2.381   3.299  17.698 -0.2466 -0.0675  0.3593
  343TMC3    C6 5197   2.483   3.353  17.632 -0.0928  0.2770 -0.3482
  343TMC3     C 5198   2.280   3.546   0.192  0.0321 -0.2197 -0.4087
  343TMC3     O 5199   2.192   3.487   0.253 -0.1367  0.6275  0.5556
  343TMC3     H 5200   2.540   3.598   0.110 -0.3184  1.4451 -1.0888
  343TMC3    H1 5201   2.245   3.296   0.105 -1.7623  1.8500 -2.4391
  343TMC3    H2 5202   2.507   3.308  17.536  0.6911  1.5265 -0.7231
  343TMC3    C7 5203   2.327   3.171  17.660  0.5800  0.1705  0.1482
  343TMC3    C8 5204   2.671   3.514  17.635  0.1525  0.6575 -0.2406
  343TMC3    O1 5205   2.308   3.147  17.541  0.2432  0.2550  0.3984
  343TMC3    O2 5206   2.701   3.622  17.688  0.4234 -0.4035  0.3495
  344MPD2     C 5207   2.683   3.266  10.580  0.5425  0.8504 -0.1900
  344MPD2    C1 5208   2.750   3.224  10.697  0.4867 -0.0242  0.0227
  344MPD2    C2 5209   2.888   3.250  10.708  0.3488 -0.3295 -0.6126
  344MPD2    C3 5210   2.942   3.319  10.599 -0.4072 -0.5761 -0.0004
  344MPD2    C4 5211   2.867   3.361  10.493  0.4632 -0.1428 -0.0180
  344MPD2    C5 5212   2.735   3.340  10.487  0.1317  0.3223  0.5537
  344MPD2     H 5213   2.939   3.217  10.798  1.7401  1.1143 -0.8712
  344MPD2    H1 5214   2.914   3.422  10.417 -0.9825  0.0230 -0.7919
  344MPD2    H2 5215   2.579   3.240  10.560  0.4518 -0.6003  2.1305
  344MPD2    H3 5216   2.687   3.363  10.392  1.9750  0.9690 -0.2294
  344MPD2     N 5217   3.075   3.383  10.604  0.5543 -0.0990 -0.8569
  344MPD2    H5 5218   3.095   3.446  10.526  2.1328 -0.2170 -0.5549
  344MPD2    N1 5219   2.695   3.140  10.799  0.4161 -0.0123 -0.2416
  344MPD2    H7 5220   2.754   3.109  10.874  0.5880 -0.7353 -0.6801
  345TMC3    C1 5221   3.301   3.417  10.688  0.0466  0.0199 -0.1178
  345TMC3    C2 5222   3.352   3.475  10.799  0.0735  0.0905 -0.1253
  345TMC3    C3 5223   3.460   3.562  10.787 -0.7405 -0.1341  0.2536
  345TMC3    C4 5224   3.340   3.447  10.557 -0.1417 -0.1903 -0.0711
  345TMC3    C5 5225   3.438   3.537  10.550 -0.2175 -0.3387 -0.7739
  345TMC3    C6 5226   3.502   3.590  10.654  0.5151  0.2273 -1.0478
  345TMC3     C 5227   3.167   3.367  10.704  0.7102  0.4325 -0.0312
  345TMC3     O 5228   3.153   3.314  10.816  0.0096  0.7364 -0.2494
  345TMC3     H 5229   3.312   3.459  10.898 -1.4782  0.5956 -0.6639
  345TMC3    H1 5230   3.301   3.394  10.471  0.5501 -1.4754  0.4199
  345TMC3    H2 5231   3.599   3.636  10.641  0.2133  1.4345  0.9536
  345TMC3    C7 5232   3.413   3.650  10.470  0.0037  0.2531 -0.0072
  345TMC3    C8 5233   3.452   3.680  10.869 -0.7478 -1.0232 -0.3089
  345TMC3    O1 5234   3.478   3.750  10.500 -0.1199  0.5216 -0.0663
  345TMC3    O2 5235   3.451   3.669  10.992 -0.4983 -0.8460  0.4552
  346MPD2     C 5236   3.212   4.714  14.139  0.4218  0.4393  0.0423
  346MPD2    C1 5237   3.207   0.113  14.148  0.3881 -0.9144 -0.2969
  346MPD2    C2 5238   3.162   0.177  14.255  0.4757 -0.5377 -0.7012
  346MPD2    C3 5239   3.109   0.104  14.360 -0.1763 -0.4097 -0.1704
  346MPD2    C4 5240   3.113   4.705  14.349 -0.6738 -0.8095 -0.3153
  346MPD2    C5 5241   3.177   4.643  14.246  0.2827 -0.0021 -0.0561
  346MPD2     H 5242   3.157   0.284  14.267  0.5138 -0.5912 -0.1979
  346MPD2    H1 5243   3.090   4.642  14.434  1.8938 -0.7468  0.4348
  346MPD2    H2 5244   3.253   4.671  14.049 -1.5602 -0.3432 -0.4811
  346MPD2    H3 5245   3.202   4.537  14.251  0.1895  0.0067  0.5920
  346MPD2     N 5246   3.064   0.165  14.471  0.1690 -0.1869  0.0037
  346MPD2    H5 5247   3.083   0.264  14.474  0.7586 -0.2549 -1.4757
  346MPD2    N1 5248   3.262   0.194  14.047  0.7359 -0.8444  0.3765
  346MPD2    H7 5249   3.255   0.294  14.062 -0.8811 -0.9369  0.2348
  347TMC3    C1 5250   2.918   0.220  14.634 -0.3455  0.5032 -0.7524
  347TMC3    C2 5251   2.999   0.287  14.724  0.3283  0.5264  0.3933
  347TMC3    C3 5252   2.974   0.421  14.737 -0.0264  0.4198  0.0713
  347TMC3    C4 5253   2.815   0.282  14.565 -0.3714 -0.6125 -1.2216
  347TMC3    C5 5254   2.795   0.408  14.586  0.5539 -0.3425  0.2143
  347TMC3    C6 5255   2.873   0.481  14.673 -0.0057  0.6802  0.0707
  347TMC3     C 5256   2.981   0.109  14.564  0.1456  0.3721 -0.7929
  347TMC3     O 5257   2.918   0.011  14.550 -0.4467  0.4486 -0.4875
  347TMC3     H 5258   3.087   0.229  14.749 -0.3615 -0.7267 -0.0809
  347TMC3    H1 5259   2.755   0.227  14.495 -1.1757 -1.1929 -0.0779
  347TMC3    H2 5260   2.852   0.584  14.697 -0.7961  0.4519  0.3824
  347TMC3    C7 5261   2.702   0.480  14.491  0.2104 -0.0185  0.7731
  347TMC3    C8 5262   3.085   0.510  14.784  0.4724  0.4749  0.4911
  347TMC3    O1 5263   2.628   0.408  14.428 -0.0291  0.6639 -0.6558
  347TMC3    O2 5264   3.053   0.623  14.813 -0.2090  0.5897 -0.4123
  348MPD2     C 5265   2.246   0.111  11.726  0.2151 -0.1731 -0.6965
  348MPD2    C1 5266   2.373   0.152  11.700 -0.1463  1.0075  0.5011
  348MPD2    C2 5267   2.402   0.218  11.582 -0.3806 -0.2545 -0.5179
  348MPD2    C3 5268   2.306   0.242  11.485 -0.1861  0.5021  0.6665
  348MPD2    C4 5269   2.172   0.203  11.516  0.1422  0.1797  0.3400
  348MPD2    C5 5270   2.148   0.137  11.639 -0.2197  0.0555  0.3114
  348MPD2     H 5271   2.504   0.247  11.562 -0.2444  1.1169  2.2688
  348MPD2    H1 5272   2.100   0.227  11.438 -0.5140  1.4358  1.3358
  348MPD2    H2 5273   2.222   0.054  11.815  2.2571 -0.9952 -0.6647
  348MPD2    H3 5274   2.051   0.100  11.669 -0.5576  0.9758  0.3298
  348MPD2     N 5275   2.344   0.299  11.357 -0.5174 -0.4349  0.1489
  348MPD2    H5 5276   2.443   0.302  11.333 -0.3178 -2.6386  0.7088
  348MPD2    N1 5277   2.477   0.100  11.772 -0.2433  1.2004 -0.3438
  348MPD2    H7 5278   2.568   0.129  11.737 -0.3237 -1.9022 -3.1334
  349TMC3    C1 5279   2.582   4.649  11.861  0.8258 -0.6249  0.9064
  349TMC3    C2 5280   2.550   4.537  11.938  0.5165  0.1292 -0.2107
  349TMC3    C3 5281   2.509   4.426  11.878 -0.2786 -1.0583  0.1075
  349TMC3    C4 5282   2.603   4.638  11.726 -0.2878 -0.1848  0.5517
  349TMC3    C5 5283   2.546   4.525  11.672 -0.0437 -0.0799 -0.0310
  349TMC3    C6 5284   2.496   4.420  11.743 -0.4549  0.1693 -0.4228
  349TMC3     C 5285   2.480   0.016  11.885 -0.4189  0.2324  0.6858
  349TMC3     O 5286   2.385   4.713  11.955 -0.4261 -0.2328 -0.5631
  349TMC3     H 5287   2.556   4.547  12.046 -0.8123  1.3115 -0.2518
  349TMC3    H1 5288   2.643   4.717  11.662 -0.8489 -0.6677 -0.3851
  349TMC3    H2 5289   2.465   4.333  11.686  0.7200 -0.7558  0.3597
  349TMC3    C7 5290   2.469   4.555  11.553 -0.7829 -0.3138  0.4515
  349TMC3    C8 5291   2.496   4.311  11.963  0.4557  0.2942  0.4975
  349TMC3    O1 5292   2.359   4.499  11.547 -0.1718  0.1957 -0.2356
  349TMC3    O2 5293   2.494   4.332  12.081 -0.7539 -0.4252 -0.2482
  350MPD2     C 5294   1.348   3.262  10.794  0.4946 -0.5128 -0.3499
  350MPD2    C1 5295   1.323   3.125  10.775  0.2834  1.1846  0.4763
  350MPD2    C2 5296   1.356   3.033  10.875 -0.4075  0.2953 -0.1523
  350MPD2    C3 5297   1.393   3.082  10.995  0.0964  0.3101  0.6857
  350MPD2    C4 5298   1.421   3.214  11.015 -0.4494 -0.0503 -0.0396
  350MPD2    C5 5299   1.407   3.307  10.914 -0.1478  0.7491 -0.2195
  350MPD2     H 5300   1.323   2.930  10.863  2.4459 -0.4657 -1.5460
  350MPD2    H1 5301   1.466   3.248  11.107  1.0677  0.2282 -0.8728
  350MPD2    H2 5302   1.342   3.331  10.711  0.4188  1.9954  1.7523
  350MPD2    H3 5303   1.435   3.410  10.931 -0.0001  0.5502  0.7435
  350MPD2     N 5304   1.407   2.986  11.099 -0.0864 -0.6014 -0.1794
  350MPD2    H5 5305   1.390   2.891  11.067 -0.1327  0.0229 -2.0085
  350MPD2    N1 5306   1.263   3.075  10.655 -0.2530  0.3769 -0.4320
  350MPD2    H7 5307   1.271   2.975  10.641 -1.0786  0.2834 -0.2799
  351TMC3    C1 5308   1.157   3.071  10.451 -0.0191  0.3342 -0.2655
  351TMC3    C2 5309   1.223   2.957  10.441  0.4858  0.1614  0.1574
  351TMC3    C3 5310   1.155   2.857  10.398  0.2041  0.0437 -0.8124
  351TMC3    C4 5311   1.030   3.099  10.401  0.3862 -0.5301 -0.3648
  351TMC3    C5 5312   0.957   2.992  10.362  0.6726  0.0444 -0.4644
  351TMC3    C6 5313   1.022   2.870  10.351 -0.3640 -0.0924  0.0590
  351TMC3     C 5314   1.201   3.157  10.559 -0.0948 -0.3293  0.0694
  351TMC3     O 5315   1.165   3.272  10.575 -0.1779 -0.2163 -0.7219
  351TMC3     H 5316   1.322   2.929  10.478  0.0824 -0.5866  0.6653
  351TMC3    H1 5317   0.974   3.189  10.423 -2.3098 -2.1359 -0.6965
  351TMC3    H2 5318   0.975   2.783  10.307 -1.7158  1.7617 -2.1158
  351TMC3    C7 5319   0.814   3.003  10.351  0.0085  0.2134 -0.3955
  351TMC3    C8 5320   1.243   2.760  10.328  0.6743 -0.3320  0.2467
  351TMC3    O1 5321   0.759   2.896  10.330 -0.2477 -0.2051 -0.4914
  351TMC3    O2 5322   1.357   2.794  10.294  0.3866 -0.2883 -0.2629
  352MPD2     C 5323   0.225   0.263   1.141  0.1825 -0.2417  0.5197
  352MPD2    C1 5324   0.116   0.201   1.197 -0.1167 -0.3434  0.4108
  352MPD2    C2 5325   0.112   0.063   1.211  0.2060 -0.0335 -0.2398
  352MPD2    C3 5326   0.206   4.717   1.152 -0.1863 -0.3464  0.5088
  352MPD2    C4 5327   0.318   0.038   1.101 -0.3110  0.2682  0.4426
  352MPD2    C5 5328   0.329   0.176   1.097 -0.2072  0.0058 -0.2487
  352MPD2     H 5329   0.025   0.015   1.253 -0.6400  1.9985  0.3195
  352MPD2    H1 5330   0.401   4.721   1.056 -0.0631  0.9565  0.0783
  352MPD2    H2 5331   0.236   0.371   1.144 -0.3410 -0.1737 -0.0550
  352MPD2    H3 5332   0.424   0.218   1.065 -0.6803  2.0097  0.9412
  352MPD2     N 5333   0.194   4.575   1.148 -0.0281  0.4622 -0.0889
  352MPD2    H5 5334   0.272   4.528   1.103 -1.0584 -0.7551 -0.6123
  352MPD2    N1 5335   0.011   0.290   1.230 -0.3446 -0.1669 -0.2846
  352MPD2    H7 5336   0.017   0.382   1.189 -1.1906  1.4111  3.1644
  353TMC3    C1 5337   0.091   4.363   1.124 -0.6369  0.5323 -0.2343
  353TMC3    C2 5338   0.208   4.294   1.131 -0.0804  0.5311 -0.2996
  353TMC3    C3 5339   0.196   4.154   1.126  0.0442 -0.2098  0.0980
  353TMC3    C4 5340   4.703   4.302   1.103  0.4810 -0.4289 -0.0226
  353TMC3    C5 5341   4.705   4.166   1.122 -0.5324 -0.7639  0.3278
  353TMC3    C6 5342   0.078   4.090   1.132 -0.3401  0.3174  0.4148
  353TMC3     C 5343   0.081   4.499   1.167 -0.1548  0.1332 -0.4561
  353TMC3     O 5344   4.704   4.542   1.190 -0.5174  0.3325 -0.1293
  353TMC3     H 5345   0.304   4.341   1.147 -1.0255  2.2622  0.3188
  353TMC3    H1 5346   4.613   4.362   1.094  0.3523 -0.4138  1.4121
  353TMC3    H2 5347   0.069   3.984   1.149 -0.9497  0.4705  1.0565
  353TMC3    C7 5348   4.580   4.099   1.079 -0.0150 -0.3506  0.2014
  353TMC3    C8 5349   0.313   4.084   1.114 -0.4211  0.6525 -0.6755
  353TMC3    O1 5350   4.565   3.991   1.134  0.1356  0.1962  0.1717
  353TMC3    O2 5351   0.415   4.145   1.143 -0.1062  0.0247 -0.2916
  354TMC3    C1 5352   1.167   1.172  13.814 -0.2901  0.9613 -0.6327
  354TMC3    C2 5353   1.105   1.273  13.753  0.5151 -1.0588 -0.0849
  354TMC3    C3 5354   1.168   1.328  13.642  0.0026 -0.6489  0.1179
  354TMC3    C4 5355   1.295   1.122  13.778 -0.1097  0.9100 -0.1341
  354TMC3    C5 5356   1.351   1.170  13.665 -0.1111 -0.8078  0.5296
  354TMC3    C6 5357   1.285   1.271  13.593 -0.6309 -0.2976 -0.1588
  354TMC3     C 5358   1.105   1.119  13.929 -0.6565  0.4278  0.4481
  354TMC3     O 5359   0.984   1.131  13.934 -0.1345  0.1912  0.0308
  354TMC3     H 5360   1.013   1.319  13.787 -0.3006 -1.5749 -1.5639
  354TMC3    H1 5361   1.328   1.025  13.812 -0.6572  0.7976  0.0712
  354TMC3    H2 5362   1.331   1.305  13.501 -1.1564  0.8799  0.0233
  354TMC3    C7 5363   1.468   1.092  13.604  0.2520 -0.5335  0.4995
  354TMC3    C8 5364   1.138   1.467  13.642  0.1910 -0.6540  0.3081
  354TMC3    O1 5365   1.504   0.991  13.656  0.0281 -0.5056  0.9474
  354TMC3    O2 5366   1.028   1.504  13.602  0.2414 -0.0886 -0.2362
  355MPD2     C 5367   1.892   2.180  11.652  1.2434  0.2851 -0.4259
  355MPD2    C1 5368   1.930   2.261  11.755  0.2703 -0.2892 -0.3687
  355MPD2    C2 5369   1.936   2.214  11.890  0.2491 -0.1825 -0.1577
  355MPD2    C3 5370   1.922   2.080  11.923  0.0737 -0.3271 -0.9032
  355MPD2    C4 5371   1.890   1.999  11.815  0.5527 -0.1393 -0.4360
  355MPD2    C5 5372   1.879   2.045  11.684 -0.2201 -0.2006  0.0988
  355MPD2     H 5373   1.946   2.284  11.972 -0.3933 -0.2631 -0.0054
  355MPD2    H1 5374   1.870   1.894  11.832  1.3434 -0.1923  0.1783
  355MPD2    H2 5375   1.864   2.224  11.557  2.6357 -0.4350 -1.1650
  355MPD2    H3 5376   1.837   1.978  11.610  1.2278  0.4018 -1.2683
  355MPD2     N 5377   1.937   2.019  12.054 -0.1181 -0.5485  0.3880
  355MPD2    H5 5378   1.905   1.923  12.058  1.4126 -1.1791 -2.1338
  355MPD2    N1 5379   1.966   2.393  11.710  0.3485 -0.6885 -0.1979
  355MPD2    H7 5380   1.967   2.402  11.609 -0.9590  2.0684  0.0288
  356TMC3    C1 5381   2.078   2.176  12.181  0.4996  0.1486  0.3389
  356TMC3    C2 5382   2.163   2.184  12.086 -0.0308 -0.3408  0.0892
  356TMC3    C3 5383   2.241   2.295  12.083  0.3549 -0.3803 -0.4529
  356TMC3    C4 5384   2.077   2.255  12.292  0.1506 -0.3573  0.2188
  356TMC3    C5 5385   2.158   2.370  12.283 -0.8222  0.3866  0.0034
  356TMC3    C6 5386   2.246   2.390  12.182  0.1756 -0.5145  0.0819
  356TMC3     C 5387   1.972   2.077  12.174 -1.1274  0.5266 -0.4573
  356TMC3     O 5388   1.917   2.055  12.279 -0.3476  0.6145  0.4429
  356TMC3     H 5389   2.166   2.124  11.996  1.5003 -1.5875  0.9785
  356TMC3    H1 5390   2.013   2.235  12.377 -2.2202 -2.6727 -2.0975
  356TMC3    H2 5391   2.321   2.467  12.190 -0.8661  0.4229  0.8099
  356TMC3    C7 5392   2.171   2.447  12.405  0.4072  0.3570 -0.4226
  356TMC3    C8 5393   2.309   2.319  11.954 -0.0770 -1.4479  0.3790
  356TMC3    O1 5394   2.137   2.386  12.509 -0.0570 -0.5400 -0.2095
  356TMC3    O2 5395   2.332   2.217  11.889  0.5488 -0.4402 -0.3716
  357MPD2     C 5396   0.910   1.385   0.896  0.2265  0.4620  0.2116
  357MPD2    C1 5397   0.986   1.311   0.984 -0.2224 -0.4758 -0.1199
  357MPD2    C2 5398   0.925   1.204   1.043 -0.2977 -0.2542 -0.1760
  357MPD2    C3 5399   0.796   1.174   1.018 -0.1802 -0.5395 -0.6895
  357MPD2    C4 5400   0.721   1.256   0.942 -0.0367 -0.3993 -0.0716
  357MPD2    C5 5401   0.780   1.361   0.879 -0.0097  0.3735  0.3795
  357MPD2     H 5402   0.984   1.160   1.123  0.6899 -0.7370 -1.1615
  357MPD2    H1 5403   0.616   1.231   0.930 -0.6241  0.3258  3.5809
  357MPD2    H2 5404   0.954   1.470   0.846 -1.0121  0.5134 -0.7697
  357MPD2    H3 5405   0.726   1.429   0.814  2.3407  1.4141 -0.4988
  357MPD2     N 5406   0.722   1.070   1.087 -0.0439  0.0721  0.3383
  357MPD2    H5 5407   0.621   1.074   1.073  0.4230 -0.0271 -3.2082
  357MPD2    N1 5408   1.121   1.329   1.008 -1.0857 -0.4096  0.2241
  357MPD2    H7 5409   1.173   1.256   1.056 -1.3391 -0.3400  0.5994
  358TMC3    C1 5410   1.332   1.372   0.934 -0.6767 -0.5080  0.1405
  358TMC3    C2 5411   1.362   1.335   0.809  0.4091  0.2158 -0.0965
  358TMC3    C3 5412   1.446   1.236   0.787  0.1633 -0.3159 -0.2640
  358TMC3    C4 5413   1.393   1.313   1.040  0.1909  0.3380  0.3095
  358TMC3    C5 5414   1.480   1.212   1.023 -0.4362  0.4261  0.4223
  358TMC3    C6 5415   1.510   1.172   0.889 -0.2471  0.7805  0.0134
  358TMC3     C 5416   1.196   1.428   0.948 -0.2820 -0.6282 -0.2949
  358TMC3     O 5417   1.171   1.516   0.869  0.2842 -0.3862  0.0917
  358TMC3     H 5418   1.323   1.388   0.723  3.5076 -0.5136 -1.9601
  358TMC3    H1 5419   1.354   1.322   1.141 -0.6590 -0.6444  0.0651
  358TMC3    H2 5420   1.604   1.122   0.869  0.1460  2.4156 -2.1821
  358TMC3    C7 5421   1.558   1.181   1.139  0.0820 -0.0774 -0.0348
  358TMC3    C8 5422   1.408   1.146   0.676 -0.0070 -0.3940  0.2939
  358TMC3    O1 5423   1.532   1.224   1.249 -0.0958  0.1498  0.2518
  358TMC3    O2 5424   1.333   1.194   0.586  0.7766 -0.1302 -0.3461
  359MPD2     C 5425   1.795   0.618  12.155 -0.4076 -0.6026 -0.5358
  359MPD2    C1 5426   1.724   0.603  12.040 -1.0480 -0.6895 -0.4745
  359MPD2    C2 5427   1.608   0.673  12.013 -0.4567 -0.4733  0.0350
  359MPD2    C3 5428   1.553   0.758  12.109 -0.6044 -0.7676  0.2571
  359MPD2    C4 5429   1.615   0.769  12.231 -0.7885 -0.5250 -0.3176
  359MPD2    C5 5430   1.736   0.701  12.244 -0.0379 -0.2872  0.5693
  359MPD2     H 5431   1.554   0.651  11.921  1.4058 -1.4888 -0.8204
  359MPD2    H1 5432   1.587   0.837  12.311 -1.2585 -1.0233 -0.0613
  359MPD2    H2 5433   1.887   0.561  12.163 -0.2425 -0.3159 -0.4097
  359MPD2    H3 5434   1.775   0.712  12.344 -1.3620  1.6570  0.8647
  359MPD2     N 5435   1.432   0.833  12.094 -0.0063 -0.4684 -0.1538
  359MPD2    H5 5436   1.391   0.877  12.176 -1.1591 -2.7093  0.4663
  359MPD2    N1 5437   1.785   0.523  11.944  0.2095  0.1791  0.2574
  359MPD2    H7 5438   1.863   0.474  11.988 -0.0543  2.8147  3.6425
  360TMC3    C1 5439   1.864   0.465  11.726  0.1295  0.3211  0.1625
  360TMC3    C2 5440   1.997   0.476  11.772 -0.6875  0.4010 -0.4905
  360TMC3    C3 5441   2.098   0.497  11.681 -0.3201  0.0067  0.0763
  360TMC3    C4 5442   1.830   0.458  11.596  0.6076  0.4525  0.5009
  360TMC3    C5 5443   1.938   0.472  11.509  0.4224  0.2540  0.3253
  360TMC3    C6 5444   2.071   0.502  11.544 -0.6099  0.2892 -0.4517
  360TMC3     C 5445   1.753   0.509  11.812 -0.1293  0.7863  0.0102
  360TMC3     O 5446   1.648   0.536  11.758 -0.4858 -0.1332 -0.3674
  360TMC3     H 5447   2.016   0.501  11.876  2.7197 -0.7866 -0.7952
  360TMC3    H1 5448   1.728   0.449  11.561  1.7492  0.0320 -2.7783
  360TMC3    H2 5449   2.148   0.530  11.473  0.1288 -1.5719 -0.3850
  360TMC3    C7 5450   1.897   0.541  11.387 -0.4810  0.1180 -0.0929
  360TMC3    C8 5451   2.227   0.532  11.743 -0.1743  0.2495 -0.5622
  360TMC3    O1 5452   1.800   0.607  11.404  0.0837 -0.4851  0.4693
  360TMC3    O2 5453   2.240   0.546  11.866  0.1242  0.0192  0.0680
  361MPD2     C 5454   3.565   4.460  16.799  0.3593 -0.2092  0.4033
  361MPD2    C1 5455   3.460   4.432  16.885  0.4757  0.3906  0.1533
  361MPD2    C2 5456   3.482   4.341  16.984 -0.5354  0.5561 -0.6117
  361MPD2    C3 5457   3.599   4.273  16.987  0.2129 -0.1308  0.0991
  361MPD2    C4 5458   3.701   4.305  16.903 -0.1471 -0.5702 -0.1546
  361MPD2    C5 5459   3.687   4.399  16.805  0.2202 -0.2043  0.4580
  361MPD2     H 5460   3.402   4.310  17.050 -0.1579 -0.2517 -0.5305
  361MPD2    H1 5461   3.789   4.242  16.914 -0.8266 -1.5216 -0.2084
  361MPD2    H2 5462   3.556   4.540  16.726  0.7590 -0.7055 -0.1846
  361MPD2    H3 5463   3.761   4.414  16.727 -2.6037 -0.1632 -2.1839
  361MPD2     N 5464   3.631   4.172  17.083  0.0539 -0.2314  0.3746
  361MPD2    H5 5465   3.719   4.121  17.073 -0.1960 -0.1745 -2.0680
  361MPD2    N1 5466   3.326   4.480  16.872  0.4338  0.2537 -0.7125
  361MPD2    H7 5467   3.263   4.446  16.944  0.2290  1.9352 -0.0988
  362TMC3    C1 5468   3.142   4.605  16.784  0.0910 -0.3384 -0.4644
  362TMC3    C2 5469   3.096   4.650  16.910 -0.6028 -0.3270  0.5367
  362TMC3    C3 5470   2.997   4.735  16.912 -0.3771  0.4045  0.3815
  362TMC3    C4 5471   3.074   4.638  16.670  0.2670  0.1164 -0.1733
  362TMC3    C5 5472   2.964   4.717  16.681  0.9737  0.1428 -0.1286
  362TMC3    C6 5473   2.922   0.025  16.802  1.0703  0.1041  0.5843
  362TMC3     C 5474   3.277   4.557  16.768 -0.4052  0.6470 -0.4172
  362TMC3     O 5475   3.326   4.577  16.662  0.2365 -0.6943  0.2012
  362TMC3     H 5476   3.151   4.638  17.003  0.9860 -1.3221 -0.5169
  362TMC3    H1 5477   3.127   4.623  16.577  1.6934 -0.6134  0.7528
  362TMC3    H2 5478   2.846   0.103  16.801 -0.5322 -1.4573  1.3940
  362TMC3    C7 5479   2.948   0.072  16.567  0.2439 -0.4510 -0.4836
  362TMC3    C8 5480   3.028   0.114  16.997 -0.3666 -0.2451  0.9956
  362TMC3    O1 5481   2.895   0.180  16.590 -0.0143 -0.4478  0.1374
  362TMC3    O2 5482   3.147   0.128  17.035  0.1830 -0.1276 -0.3722
  363TMC3    C1 5483   1.697   1.463   8.986  0.1457  0.2273 -0.1819
  363TMC3    C2 5484   1.776   1.409   8.884 -0.3686 -0.1707  0.3848
  363TMC3    C3 5485   1.897   1.351   8.917 -0.7698  0.2169 -0.0584
  363TMC3    C4 5486   1.740   1.456   9.116  0.0426 -0.1261  0.2712
  363TMC3    C5 5487   1.859   1.395   9.150 -0.3693 -0.3788 -0.6886
  363TMC3    C6 5488   1.937   1.340   9.053 -0.7179  0.5574  0.0160
  363TMC3     C 5489   1.563   1.520   8.963 -0.1410 -0.7075 -0.0009
  363TMC3     O 5490   1.492   1.465   8.877  0.6785 -0.0620  0.4566
  363TMC3     H 5491   1.742   1.396   8.782  0.4654  1.1987 -0.0712
  363TMC3    H1 5492   1.669   1.475   9.196  2.0083 -0.0882  2.0180
  363TMC3    H2 5493   2.037   1.306   9.076 -1.3606 -1.4832 -0.1745
  363TMC3    C7 5494   1.917   1.423   9.284 -0.4176 -0.7814 -0.0366
  363TMC3    C8 5495   1.972   1.272   8.829  0.1353 -0.3415  0.2638
  363TMC3    O1 5496   1.880   1.521   9.346 -0.5411  0.4002  0.4509
  363TMC3    O2 5497   1.981   1.308   8.714  0.3755 -0.3185  0.4293
  364MPD2     C 5498   0.155   1.760  10.521  0.8272 -0.2302  0.9204
  364MPD2    C1 5499   0.248   1.855  10.560  0.3911 -0.2770  0.7922
  364MPD2    C2 5500   0.347   1.830  10.650 -0.4450 -0.0991  0.0517
  364MPD2    C3 5501   0.359   1.702  10.700  0.4762  0.4022  0.5511
  364MPD2    C4 5502   0.268   1.609  10.655  0.0745 -0.2869 -0.5900
  364MPD2    C5 5503   0.163   1.631  10.567 -0.5316  0.3373 -0.5156
  364MPD2     H 5504   0.405   1.915  10.683 -0.9865  0.6971 -1.0714
  364MPD2    H1 5505   0.272   1.506  10.688 -2.8393 -0.3667 -0.5076
  364MPD2    H2 5506   0.083   1.779  10.442  1.9308  0.7097  0.1295
  364MPD2    H3 5507   0.094   1.550  10.544 -0.5652  0.2886 -0.2426
  364MPD2     N 5508   0.454   1.665  10.793  0.4608  0.0459  0.3450
  364MPD2    H5 5509   0.468   1.569  10.823  1.5942  0.1741  0.2312
  364MPD2    N1 5510   0.244   1.970  10.479  0.0758  0.2587 -0.6800
  364MPD2    H7 5511   0.159   1.983  10.425  0.2348  0.4680 -0.8797
  365TMC3    C1 5512   0.298   2.171  10.379  0.0616  0.5478 -0.0382
  365TMC3    C2 5513   0.324   2.115  10.258 -0.1044 -0.1996  0.2069
  365TMC3    C3 5514   0.353   2.208  10.156  0.1737 -0.5736  0.2864
  365TMC3    C4 5515   0.339   2.297  10.407 -0.0976  0.2781 -0.0535
  365TMC3    C5 5516   0.393   2.380  10.313  0.0188  0.2900 -0.4520
  365TMC3    C6 5517   0.396   2.331  10.182  0.1681 -0.1089 -0.1763
  365TMC3     C 5518   0.336   2.075  10.484 -0.0578 -0.3635  0.3611
  365TMC3     O 5519   0.437   2.098  10.550 -0.0014 -0.7767 -0.4078
  365TMC3     H 5520   0.302   2.012  10.232  0.6123 -0.5814  1.1557
  365TMC3    H1 5521   0.323   2.336  10.507  2.2823 -2.6839  1.4696
  365TMC3    H2 5522   0.434   2.400  10.107  0.3182 -1.7545 -1.6222
  365TMC3    C7 5523   0.476   2.495  10.356 -0.4698 -0.0348  0.4038
  365TMC3    C8 5524   0.398   2.162  10.029 -0.4032 -0.7023  0.1295
  365TMC3    O1 5525   0.478   2.600  10.286  0.5279  0.1444 -0.1133
  365TMC3    O2 5526   0.444   2.244   9.953 -0.3784 -0.3042 -0.0885
  366MPD2     C 5527   3.214   3.189  15.719  0.1673  0.1468  0.6422
  366MPD2    C1 5528   3.345   3.150  15.725  0.9014 -0.7525  0.5015
  366MPD2    C2 5529   3.371   3.014  15.719  0.0471  0.2327  0.3930
  366MPD2    C3 5530   3.286   2.919  15.684  0.0334  0.3702  0.4363
  366MPD2    C4 5531   3.153   2.961  15.667  0.4055  0.4154 -0.6269
  366MPD2    C5 5532   3.121   3.091  15.682 -0.0640  0.2164  0.0911
  366MPD2     H 5533   3.474   2.982  15.728 -0.5020 -1.5991  0.2377
  366MPD2    H1 5534   3.080   2.890  15.627  2.4211 -1.2727 -1.3007
  366MPD2    H2 5535   3.183   3.293  15.720 -1.0848 -0.2097 -1.7136
  366MPD2    H3 5536   3.025   3.132  15.654 -0.7995 -0.8243  1.0501
  366MPD2     N 5537   3.324   2.779  15.672 -0.2510 -0.2811 -0.5592
  366MPD2    H5 5538   3.418   2.758  15.702 -0.8194  2.0280  2.8951
  366MPD2    N1 5539   3.455   3.232  15.752 -0.0423 -0.7028 -0.0022
  366MPD2    H7 5540   3.547   3.188  15.751  0.3504  0.1271 -1.0329
  367TMC3    C1 5541   3.580   3.425  15.707 -0.4302  0.4941  0.2285
  367TMC3    C2 5542   3.686   3.362  15.769  0.1141  0.2423  0.8434
  367TMC3    C3 5543   3.788   3.323  15.693 -0.4890  0.7178  0.0765
  367TMC3    C4 5544   3.578   3.449  15.573  0.5450  0.3657 -0.7116
  367TMC3    C5 5545   3.687   3.406  15.500  0.2968  1.0062  0.3588
  367TMC3    C6 5546   3.795   3.351  15.560  0.4839  0.5748 -0.0463
  367TMC3     C 5547   3.454   3.370  15.748  0.6001 -0.7247 -0.2240
  367TMC3     O 5548   3.352   3.434  15.722 -0.2900 -0.6607  0.0519
  367TMC3     H 5549   3.690   3.346  15.876  0.7463  1.6464  1.0380
  367TMC3    H1 5550   3.500   3.504  15.521  0.2770 -0.3338 -1.0458
  367TMC3    H2 5551   3.879   3.317  15.500  0.2388  1.5165 -0.9251
  367TMC3    C7 5552   3.693   3.463  15.365  0.6784 -0.2971  0.6255
  367TMC3    C8 5553   3.908   3.293  15.763 -0.5440  0.2825 -0.1778
  367TMC3    O1 5554   3.630   3.564  15.342 -0.0757  0.0980  0.0459
  367TMC3    O2 5555   3.982   3.203  15.719  0.1473  0.1568  0.2081
  368MPD2     C 5556   0.575   0.116  13.366  0.3025  0.5081 -0.5143
  368MPD2    C1 5557   0.509   0.214  13.292  0.3018 -0.0261  0.9302
  368MPD2    C2 5558   0.564   0.252  13.173 -0.3678  0.1665  0.6746
  368MPD2    C3 5559   0.687   0.198  13.142 -0.0344  0.2954 -0.2660
  368MPD2    C4 5560   0.761   0.113  13.221  0.1026 -0.6309 -0.1169
  368MPD2    C5 5561   0.696   0.075  13.336 -0.3930  0.0741 -0.8561
  368MPD2     H 5562   0.516   0.328  13.113 -0.2192  0.7227  1.2617
  368MPD2    H1 5563   0.865   0.084  13.211  0.0619  0.2284 -3.0026
  368MPD2    H2 5564   0.527   0.082  13.456  1.4324  0.6336  0.1358
  368MPD2    H3 5565   0.752   0.003  13.396  0.1425 -0.9938 -2.6360
  368MPD2     N 5566   0.754   0.244  13.021 -0.0112  0.1769 -0.8388
  368MPD2    H5 5567   0.850   0.221  12.998  0.4012 -0.5181  1.5636
  368MPD2    N1 5568   0.393   0.269  13.348 -0.4164 -0.1247 -0.0258
  368MPD2    H7 5569   0.359   0.222  13.432  0.3246 -0.4425  0.0977
  369TMC3    C1 5570   0.210   0.430  13.363 -0.3925  0.1489 -0.5186
  369TMC3    C2 5571   0.172   0.548  13.306  0.0687 -0.4214 -0.3636
  369TMC3    C3 5572   0.047   0.557  13.256 -0.0808  0.7613  0.5040
  369TMC3    C4 5573   0.121   0.325  13.375 -0.2240 -0.3256 -1.0730
  369TMC3    C5 5574   0.001   0.338  13.312 -0.2356  0.0922 -0.2880
  369TMC3    C6 5575   4.695   0.456  13.253 -0.1640  0.8752  0.3661
  369TMC3     C 5576   0.341   0.398  13.307 -0.3574 -0.0484 -0.2558
  369TMC3     O 5577   0.376   0.478  13.217  0.5235 -0.2687  1.0183
  369TMC3     H 5578   0.217   0.646  13.320  3.3503 -1.9236 -0.3666
  369TMC3    H1 5579   0.154   0.243  13.438  2.9885  1.5220 -0.3326
  369TMC3    H2 5580   4.601   0.468  13.201  0.4719  1.6808 -0.5981
  369TMC3    C7 5581   4.644   0.234  13.351  0.1471 -0.0664 -0.3210
  369TMC3    C8 5582   0.050   0.643  13.141  0.0300  0.3142 -0.2501
  369TMC3    O1 5583   4.685   0.164  13.445 -0.0674 -0.5105 -0.4928
  369TMC3    O2 5584   4.682   0.676  13.084 -0.6305 -0.5518 -0.0965
  370TMC3    C1 5585   4.105   0.569  16.375 -0.3007 -0.1372 -0.5044
  370TMC3    C2 5586   4.057   0.468  16.454 -0.1230 -0.1247 -0.0198
  370TMC3    C3 5587   4.060   0.335  16.407 -0.5245 -0.0877 -0.2321
  370TMC3    C4 5588   4.124   0.538  16.240  0.2009 -0.0585 -0.7189
  370TMC3    C5 5589   4.121   0.409  16.197  0.8002  0.6038  0.9096
  370TMC3    C6 5590   4.092   0.304  16.279  0.4962 -0.0883  0.2687
  370TMC3     C 5591   4.235   0.614  16.435 -0.0331 -0.4427 -0.8834
  370TMC3     O 5592   4.260   0.586  16.550 -0.0040  0.4444 -0.9035
  370TMC3     H 5593   4.025   0.494  16.555  0.4549 -0.7529  0.3304
  370TMC3    H1 5594   4.168   0.617  16.180  0.0304  0.0632 -0.6805
  370TMC3    H2 5595   4.085   0.200  16.251 -0.7311  0.5163 -1.6234
  370TMC3    C7 5596   4.191   0.385  16.071  0.5826 -0.0815 -0.6956
  370TMC3    C8 5597   4.068   0.235  16.508  0.5407  0.4460 -0.1923
  370TMC3    O1 5598   4.185   0.476  15.991 -0.2438 -0.3118 -0.4309
  370TMC3    O2 5599   4.097   0.123  16.474  0.3395 -0.2511  0.1746
  371TMC3    C1 5600   1.049   3.857  15.592  0.3528  0.6571 -0.1916
  371TMC3    C2 5601   0.923   3.817  15.553 -0.6917  0.2259  0.7527
  371TMC3    C3 5602   0.822   3.905  15.568 -0.5959 -0.4805  0.8944
  371TMC3    C4 5603   1.082   3.986  15.608  0.6361 -0.3670  0.1591
  371TMC3    C5 5604   0.979   4.075  15.608  0.4256 -0.0963 -0.4823
  371TMC3    C6 5605   0.845   4.035  15.602 -0.7609  0.2838  0.6844
  371TMC3     C 5606   1.161   3.763  15.569 -0.1364  0.1450 -0.2188
  371TMC3     O 5607   1.271   3.812  15.557  0.2992  0.0630 -0.1432
  371TMC3     H 5608   0.912   3.710  15.539  1.3666  0.2296 -0.8036
  371TMC3    H1 5609   1.186   4.014  15.624  0.5606 -0.7955  1.4358
  371TMC3    H2 5610   0.774   4.115  15.614 -1.2751 -0.4057  2.1336
  371TMC3    C7 5611   1.017   4.220  15.608 -0.0445  0.1267 -0.2921
  371TMC3    C8 5612   0.700   3.842  15.622  0.3447 -0.1617 -0.2209
  371TMC3    O1 5613   0.933   4.297  15.643  0.0200 -0.4426  0.3732
  371TMC3    O2 5614   0.716   3.719  15.639  0.0402  0.1251 -0.5368
  372MPD2     C 5615   1.101   0.462  13.175 -0.1632  0.4135  0.4901
  372MPD2    C1 5616   1.120   0.349  13.253 -0.0505  0.4842 -1.2527
  372MPD2    C2 5617   1.030   0.328  13.356 -0.0024  0.7185  0.2663
  372MPD2    C3 5618   0.927   0.414  13.382 -0.6697 -0.1407  0.3978
  372MPD2    C4 5619   0.907   0.522  13.300 -0.0624  0.0505  0.2121
  372MPD2    C5 5620   0.995   0.549  13.198 -0.4688 -0.5410 -0.1013
  372MPD2     H 5621   1.041   0.244  13.423 -1.0589  1.1832  1.0147
  372MPD2    H1 5622   0.837   0.601  13.322 -0.2512  0.3405 -1.4427
  372MPD2    H2 5623   1.169   0.504  13.103  0.9588  0.7882  1.7675
  372MPD2    H3 5624   0.979   0.633  13.132  0.2257 -0.4526 -0.1646
  372MPD2     N 5625   0.849   0.386  13.496  0.1833  0.3313 -0.4602
  372MPD2    H5 5626   0.885   0.320  13.565  1.2113  1.9354  0.5199
  372MPD2    N1 5627   1.228   0.260  13.234  0.1281 -0.9229  0.4848
  372MPD2    H7 5628   1.239   0.182  13.297  0.9294 -1.1738  0.0343
  373TMC3    C1 5629   0.679   0.382  13.654 -0.2686  0.3265  0.1960
  373TMC3    C2 5630   0.614   0.456  13.749  0.1570  0.1704 -0.2715
  373TMC3    C3 5631   0.563   0.388  13.863 -0.6727  0.3875 -0.2778
  373TMC3    C4 5632   0.690   0.241  13.666 -0.0612  0.4258 -0.0153
  373TMC3    C5 5633   0.646   0.187  13.783 -0.1313  0.3925  0.6885
  373TMC3    C6 5634   0.573   0.254  13.872  0.3631  0.2290  0.1048
  373TMC3     C 5635   0.727   0.443  13.536 -0.0789 -0.8220  0.5260
  373TMC3     O 5636   0.664   0.535  13.482  0.2350 -0.6439 -0.2861
  373TMC3     H 5637   0.602   0.561  13.727 -0.9166 -0.1040 -0.9525
  373TMC3    H1 5638   0.735   0.180  13.589 -0.4289  1.8086 -1.3256
  373TMC3    H2 5639   0.554   0.216  13.972 -0.2497 -1.3556 -0.6078
  373TMC3    C7 5640   0.641   0.038  13.786  0.2740  0.7819  0.6100
  373TMC3    C8 5641   0.459   0.454  13.943  0.6048 -0.0952 -0.4912
  373TMC3    O1 5642   0.683   4.716  13.687  0.0657 -0.7507 -0.3520
  373TMC3    O2 5643   0.344   0.442  13.898  0.3655  0.0704  0.5100
  374TMC3    C1 5644   0.754   0.703   9.819 -0.6849 -0.8449  0.0749
  374TMC3    C2 5645   0.872   0.768   9.784 -0.0283 -0.1444  0.4080
  374TMC3    C3 5646   0.941   0.719   9.673  0.6164 -0.6273  0.7458
  374TMC3    C4 5647   0.693   0.605   9.740 -0.5508  0.5525 -0.2817
  374TMC3    C5 5648   0.759   0.573   9.625 -0.2799  0.2065  0.1342
  374TMC3    C6 5649   0.876   0.631   9.591 -0.5347 -0.3464  0.2402
  374TMC3     C 5650   0.687   0.728   9.946 -0.5231  0.4959  0.5632
  374TMC3     O 5651   0.567   0.716   9.944  0.0941  0.6234 -0.1752
  374TMC3     H 5652   0.917   0.841   9.850  0.7596 -0.9567  0.7667
  374TMC3    H1 5653   0.609   0.554   9.785 -1.1437  1.2635 -0.5861
  374TMC3    H2 5654   0.922   0.608   9.496 -2.3548  3.5784 -1.5722
  374TMC3    C7 5655   0.688   0.486   9.526 -0.0950  0.2042  0.1259
  374TMC3    C8 5656   1.076   0.761   9.642  0.0758 -0.3678  0.0494
  374TMC3    O1 5657   0.731   0.499   9.409 -0.1672  0.1100 -0.0261
  374TMC3    O2 5658   1.102   0.745   9.521 -0.1011 -0.1083  0.3408
  375MPD2     C 5659   1.123   0.407  17.169 -0.0183  0.4106 -0.1370
  375MPD2    C1 5660   1.076   0.489  17.067 -0.2562 -0.2250  0.0929
  375MPD2    C2 5661   1.138   0.501  16.947 -0.0793 -0.9024 -1.1644
  375MPD2    C3 5662   1.259   0.442  16.925  0.4006 -0.2024  0.0310
  375MPD2    C4 5663   1.312   0.354  17.021  0.4007 -0.1111  0.3866
  375MPD2    C5 5664   1.238   0.336  17.140  0.6765  0.7423 -0.3520
  375MPD2     H 5665   1.102   0.579  16.881  0.9265 -0.9104 -1.7191
  375MPD2    H1 5666   1.412   0.314  17.017 -0.5100 -2.1659 -1.6988
  375MPD2    H2 5667   1.087   0.397  17.271  2.4783  2.1842  0.9126
  375MPD2    H3 5668   1.285   0.266  17.209 -1.8763  0.4962  1.1299
  375MPD2     N 5669   1.345   0.463  16.813  0.4400  0.2333 -0.1129
  375MPD2    H5 5670   1.436   0.421  16.822  0.5843  0.9884  1.9084
  375MPD2    N1 5671   0.957   0.568  17.082 -0.5965 -0.7834  0.0495
  375MPD2    H7 5672   0.913   0.611  17.001 -0.4897  0.9582  0.8957
  376TMC3    C1 5673   1.408   0.547  16.597 -1.4612  0.1596 -0.4126
  376TMC3    C2 5674   1.540   0.555  16.635  0.2120  0.2926 -0.3980
  376TMC3    C3 5675   1.626   0.552  16.528 -0.0949 -0.0983 -0.1224
  376TMC3    C4 5676   1.355   0.560  16.471 -0.3410 -0.1509 -0.2928
  376TMC3    C5 5677   1.446   0.567  16.371 -0.9385 -0.4367 -0.8719
  376TMC3    C6 5678   1.581   0.566  16.399  0.0222  0.2520 -0.6618
  376TMC3     C 5679   1.305   0.531  16.697  0.0750 -0.2243  0.4335
  376TMC3     O 5680   1.193   0.571  16.666 -0.1042 -0.4568  0.0758
  376TMC3     H 5681   1.576   0.571  16.736  0.3686  1.3266 -0.6174
  376TMC3    H1 5682   1.250   0.543  16.451 -0.1295 -1.8606  0.0643
  376TMC3    H2 5683   1.652   0.575  16.317  0.7234 -1.6872 -0.2728
  376TMC3    C7 5684   1.415   0.662  16.272  0.3773 -1.0679 -0.0874
  376TMC3    C8 5685   1.770   0.573  16.554 -0.1107  0.2602 -0.2752
  376TMC3    O1 5686   1.511   0.722  16.235  0.3656  0.1696  0.2900
  376TMC3    O2 5687   1.838   0.631  16.473 -0.0098 -0.4218 -0.9086
  377MPD2     C 5688   4.430   0.658  13.269  0.2289  0.2186  0.0317
  377MPD2    C1 5689   4.325   0.605  13.195  0.2814 -0.4992  0.5319
  377MPD2    C2 5690   4.233   0.529  13.264  0.2976 -0.5801  0.3330
  377MPD2    C3 5691   4.250   0.505  13.398  0.3003 -0.6063 -0.7657
  377MPD2    C4 5692   4.361   0.548  13.464  0.5448  0.1473  0.0865
  377MPD2    C5 5693   4.455   0.622  13.398  0.1311 -0.2952  0.6737
  377MPD2     H 5694   4.154   0.484  13.204  0.6906  0.1262 -0.7158
  377MPD2    H1 5695   4.391   0.500  13.557 -0.1176 -0.0593  0.1944
  377MPD2    H2 5696   4.499   0.729  13.226 -0.8970  0.6668 -1.0381
  377MPD2    H3 5697   4.541   0.671  13.444  1.2308 -1.1751 -0.4580
  377MPD2     N 5698   4.168   0.418  13.470 -0.6867  0.3185  0.3466
  377MPD2    H5 5699   4.196   0.382  13.561  2.2101 -0.5382 -0.9144
  377MPD2    N1 5700   4.315   0.621  13.059 -0.1000  0.3724 -0.1587
  377MPD2    H7 5701   4.387   0.675  13.012 -0.4719  1.4667  0.5376
  378TMC3    C1 5702   4.155   0.650  12.618 -0.0423 -0.1006 -0.1237
  378TMC3    C2 5703   4.133   0.621  12.750  0.3468  0.0002 -0.1684
  378TMC3    C3 5704   4.248   0.618  12.832 -0.1754 -0.4556 -0.2525
  378TMC3    C4 5705   4.280   0.693  12.576 -0.1118  0.3142 -0.3331
  378TMC3    C5 5706   4.384   0.700  12.667 -0.9919  0.1768  0.2334
  378TMC3    C6 5707   4.369   0.671  12.796 -0.5901 -0.9713 -0.1578
  378TMC3     C 5708   4.047   0.626  12.521  0.1929 -0.3392 -0.0859
  378TMC3     O 5709   3.947   0.565  12.562  0.0088  0.0060  0.0649
  378TMC3     H 5710   4.039   0.581  12.785 -0.1188  0.7838 -0.5314
  378TMC3    H1 5711   4.302   0.703  12.470  1.6533 -0.4238 -0.0235
  378TMC3    H2 5712   4.446   0.692  12.869  0.5395 -1.8590 -1.0874
  378TMC3    C7 5713   4.524   0.706  12.627 -1.2444  0.6084 -0.0097
  378TMC3    C8 5714   4.216   0.583  12.969  0.0805 -0.3750  0.3651
  378TMC3    O1 5715   4.608   0.701  12.712 -0.3133  0.2080  0.5107
  378TMC3    O2 5716   4.100   0.559  12.990  0.9106  0.2546  0.5886
  379MPD2     C 5717   0.203   3.371  16.290 -0.3585  0.0969 -0.6076
  379MPD2    C1 5718   0.178   3.247  16.350  0.0530 -0.2127  0.4606
  379MPD2    C2 5719   0.248   3.215  16.463 -0.9201  0.7984 -0.4636
  379MPD2    C3 5720   0.349   3.297  16.510  1.2639  0.2138  1.0204
  379MPD2    C4 5721   0.382   3.411  16.439 -0.8393 -0.1686  0.0882
  379MPD2    C5 5722   0.307   3.451  16.330  0.5929  0.2143  0.2241
  379MPD2     H 5723   0.229   3.122  16.515  0.6184  1.6011  1.5957
  379MPD2    H1 5724   0.455   3.478  16.483 -1.1080  0.4334 -0.3865
  379MPD2    H2 5725   0.148   3.399  16.200  0.7569  0.0290 -1.3075
  379MPD2    H3 5726   0.323   3.546  16.281  0.0235 -0.9078 -2.1168
  379MPD2     N 5727   0.410   3.267  16.636 -0.0662 -0.3881 -0.5672
  379MPD2    H5 5728   0.487   3.332  16.652  0.3836 -1.1744  0.4161
  379MPD2    N1 5729   0.086   3.164  16.288 -0.3443  0.1344  0.0002
  379MPD2    H7 5730   0.039   3.180  16.199  0.5160  0.0474 -0.4649
  380TMC3    C1 5731   4.667   3.006  16.263 -0.0696 -0.2444 -0.0896
  380TMC3    C2 5732   4.701   2.959  16.138 -0.4611 -0.1662 -0.3179
  380TMC3    C3 5733   4.590   2.933  16.061 -0.4584 -0.3729  1.0065
  380TMC3    C4 5734   4.538   3.024  16.304 -0.0701 -0.4704  0.1393
  380TMC3    C5 5735   4.441   3.017  16.219  0.2310  0.0730  0.1885
  380TMC3    C6 5736   4.465   2.962  16.095  0.4631  0.1033 -0.6359
  380TMC3     C 5737   0.034   3.057  16.350  0.0113  0.5838 -0.2759
  380TMC3     O 5738   0.027   3.022  16.466  0.0831 -0.0077  0.4656
  380TMC3     H 5739   0.067   2.943  16.108  0.2387  5.4365 -1.0188
  380TMC3    H1 5740   4.526   3.058  16.406  1.7428 -1.9037  0.8253
  380TMC3    H2 5741   4.380   2.955  16.028  0.4096  3.8763 -1.0040
  380TMC3    C7 5742   4.369   3.142  16.219  0.2442 -0.5051  0.3002
  380TMC3    C8 5743   4.612   2.909  15.920 -0.3793 -0.3153  0.4425
  380TMC3    O1 5744   4.399   3.220  16.308  0.1095 -0.0569 -0.3806
  380TMC3    O2 5745   4.705   2.960  15.863  0.6640 -0.6922  0.0799
  381TMC3    C1 5746   4.226   4.287  16.232  0.0132 -0.3183 -0.5400
  381TMC3    C2 5747   4.274   4.412  16.200  0.0213  0.6318 -0.1726
  381TMC3    C3 5748   4.286   4.505  16.304 -0.5148 -0.2643  0.8534
  381TMC3    C4 5749   4.185   4.247  16.359  0.2589 -0.6654  0.1842
  381TMC3    C5 5750   4.196   4.338  16.457 -0.3578 -0.6562  0.1747
  381TMC3    C6 5751   4.246   4.467  16.436  0.8937  0.3283  0.8475
  381TMC3     C 5752   4.225   4.182  16.131 -0.1221 -0.4551  0.3088
  381TMC3     O 5753   4.254   4.070  16.171  0.0849 -0.1905  0.0291
  381TMC3     H 5754   4.275   4.440  16.095 -3.1100  1.9028  0.1204
  381TMC3    H1 5755   4.158   4.145  16.381  0.2849 -0.9829 -1.2479
  381TMC3    H2 5756   4.255   4.536  16.519 -2.0277 -0.7833  2.0956
  381TMC3    C7 5757   4.180   4.287  16.591 -0.0612  0.4696  0.0306
  381TMC3    C8 5758   4.374   4.615  16.272  0.2925  0.5346 -0.8556
  381TMC3    O1 5759   4.190   4.167  16.603 -0.0157 -0.3634  0.4605
  381TMC3    O2 5760   4.445   4.597  16.173 -0.2508 -0.3660  0.0444
  382MPD2     C 5761   3.636   2.586  17.200  0.0145 -0.0762 -0.4813
  382MPD2    C1 5762   3.726   2.540  17.297  0.0365 -0.1749 -0.1472
  382MPD2    C2 5763   3.734   2.409  17.329 -0.2453 -0.2354 -0.7135
  382MPD2    C3 5764   3.641   2.322  17.265  0.7201  0.2488 -0.2398
  382MPD2    C4 5765   3.543   2.380  17.185 -0.3835 -0.3514 -0.4882
  382MPD2    C5 5766   3.543   2.506  17.144 -0.0056 -0.2141 -0.4759
  382MPD2     H 5767   3.816   2.378  17.393 -1.7235 -0.4742  1.0637
  382MPD2    H1 5768   3.465   2.319  17.142 -0.4049 -0.5727 -0.1325
  382MPD2    H2 5769   3.651   2.685  17.157  1.7490  0.1224  0.5764
  382MPD2    H3 5770   3.469   2.553  17.081 -1.9270 -0.5685  1.5354
  382MPD2     N 5771   3.626   2.183  17.283  0.0463 -0.1591  0.0006
  382MPD2    H5 5772   3.540   2.136  17.259 -1.6869  2.0048  1.9275
  382MPD2    N1 5773   3.806   2.624  17.370 -0.1973  0.2069  0.0070
  382MPD2    H7 5774   3.877   2.585  17.431 -2.9952 -0.8730  2.5562
  383TMC3    C1 5775   3.685   1.979  17.377 -0.3166 -0.3094 -0.6118
  383TMC3    C2 5776   3.573   1.925  17.331 -0.3591 -0.0078  0.2961
  383TMC3    C3 5777   3.523   1.818  17.397 -0.0344  0.1691  1.2233
  383TMC3    C4 5778   3.760   1.922  17.474 -0.2161 -0.4226 -0.3333
  383TMC3    C5 5779   3.695   1.839  17.561 -1.0942  0.2795  0.6479
  383TMC3    C6 5780   3.579   1.782  17.516 -0.4820  0.6729 -0.2620
  383TMC3     C 5781   3.729   2.111  17.341  0.1236  0.2076  0.3225
  383TMC3     O 5782   3.847   2.139  17.362  0.1939  0.3059  0.8214
  383TMC3     H 5783   3.532   1.959  17.237 -3.6524  1.2588  2.1500
  383TMC3    H1 5784   3.855   1.965  17.502 -0.1363  0.0563 -1.3291
  383TMC3    H2 5785   3.527   1.715  17.583  0.8409  0.2348  0.3228
  383TMC3    C7 5786   3.745   1.826  17.700  0.3116  0.6710  0.2772
  383TMC3    C8 5787   3.446   1.719  17.330  0.5425 -0.3733  0.3138
  383TMC3    O1 5788   3.712   1.728   0.023 -0.1828 -0.4082  0.2905
  383TMC3    O2 5789   3.374   1.760  17.239 -0.4269  0.0119 -0.0063
  384MPD2     C 5790   0.829   3.712  11.792  0.0080  0.2007 -0.2623
  384MPD2    C1 5791   0.785   3.606  11.868 -0.5766 -0.3205 -0.5413
  384MPD2    C2 5792   0.857   3.491  11.865 -0.3263  0.1855  0.3527
  384MPD2    C3 5793   0.971   3.489  11.788 -0.3822 -0.4703 -0.3684
  384MPD2    C4 5794   1.020   3.596  11.717  0.5192  0.4124  0.7670
  384MPD2    C5 5795   0.945   3.708  11.717  0.2500  0.8349  0.2787
  384MPD2     H 5796   0.835   3.415  11.939 -2.2094 -0.2300 -0.6422
  384MPD2    H1 5797   1.112   3.586  11.660  0.3258 -0.4427  0.5959
  384MPD2    H2 5798   0.770   3.802  11.788 -0.4483 -0.0868  0.1026
  384MPD2    H3 5799   0.977   3.800  11.668  0.1608  0.2740 -0.8163
  384MPD2     N 5800   1.058   3.374  11.781  0.1543 -0.2976 -0.3925
  384MPD2    H5 5801   1.152   3.378  11.742  0.9222 -0.3959  1.4595
  384MPD2    N1 5802   0.673   3.623  11.949 -0.0168 -0.2620 -0.0782
  384MPD2    H7 5803   0.636   3.717  11.957  0.6234 -0.0793  0.8416
  385TMC3    C1 5804   1.155   3.179  11.867  0.3277  0.5220 -0.0665
  385TMC3    C2 5805   1.127   3.050  11.854  0.3315 -0.2738  0.3047
  385TMC3    C3 5806   1.187   2.953  11.938 -0.7723  0.8412 -1.5269
  385TMC3    C4 5807   1.236   3.223  11.968  0.0780  0.3593  0.1044
  385TMC3    C5 5808   1.298   3.122  12.044 -0.6513  0.0103  0.3761
  385TMC3    C6 5809   1.274   2.990  12.034 -0.2345 -0.7653 -0.1475
  385TMC3     C 5810   1.039   3.254  11.838 -0.4229  0.7486  0.1462
  385TMC3     O 5811   0.929   3.213  11.874 -0.0356 -0.6017  0.0970
  385TMC3     H 5812   1.054   3.019  11.780  1.3543  0.5945 -1.0679
  385TMC3    H1 5813   1.253   3.329  11.980  0.8644  0.2032  0.3559
  385TMC3    H2 5814   1.325   2.917  12.095 -1.1033 -1.6248 -0.4452
  385TMC3    C7 5815   1.301   3.164  12.181  0.1296  0.4151  0.3924
  385TMC3    C8 5816   1.148   2.816  11.945 -0.6787  0.6704  0.4716
  385TMC3    O1 5817   1.384   3.118  12.253  0.1567 -0.2635  0.3729
  385TMC3    O2 5818   1.212   2.739  12.014  0.3400 -0.1030  0.8726
  386TMC3    C1 5819   0.613   0.821  11.752 -0.4549 -0.1836  0.8787
  386TMC3    C2 5820   0.648   0.908  11.651 -0.0642 -0.3922 -0.1384
  386TMC3    C3 5821   0.577   1.026  11.635  0.1806  0.6012 -0.1327
  386TMC3    C4 5822   0.504   0.842  11.834 -0.6479  0.0570  0.7204
  386TMC3    C5 5823   0.437   0.961  11.821 -0.2704  0.2402  0.4322
  386TMC3    C6 5824   0.484   1.054  11.738  0.1820  0.3967  0.7082
  386TMC3     C 5825   0.702   0.711  11.761  0.3160  0.4089 -0.3138
  386TMC3     O 5826   0.802   0.698  11.694 -0.1635  0.0283 -0.6808
  386TMC3     H 5827   0.732   0.878  11.589 -0.9762 -1.5259 -0.8220
  386TMC3    H1 5828   0.470   0.777  11.914  2.6243  0.8766  2.7917
  386TMC3    H2 5829   0.424   1.145  11.736  1.0745  0.9917  1.4054
  386TMC3    C7 5830   0.302   0.977  11.879  0.3484  0.3178 -0.7466
  386TMC3    C8 5831   0.546   1.082  11.500  0.4606 -0.3428  0.2025
  386TMC3    O1 5832   0.276   0.911  11.976  0.0491 -0.0898 -0.3575
  386TMC3    O2 5833   0.471   1.173  11.501 -0.1665 -0.4366 -0.1153
  387MPD2     C 5834   3.050   0.387   9.951 -1.1259 -0.4167  0.4440
  387MPD2    C1 5835   3.081   0.349  10.083 -0.1676  0.5550  0.2178
  387MPD2    C2 5836   3.099   0.219  10.117  0.4352  0.0863  0.1280
  387MPD2    C3 5837   3.100   0.119  10.020 -0.3089 -0.4795 -0.1595
  387MPD2    C4 5838   3.063   0.154   9.896  0.4198  0.7832  0.0482
  387MPD2    C5 5839   3.041   0.280   9.857 -0.5095  0.0072  0.2185
  387MPD2     H 5840   3.121   0.195  10.220 -0.3456  1.9625  0.7245
  387MPD2    H1 5841   3.049   0.085   9.814 -2.1773  0.5672  0.6942
  387MPD2    H2 5842   3.039   0.491   9.925 -0.7275 -0.9542 -1.8689
  387MPD2    H3 5843   3.023   0.299   9.752 -2.7024  1.0568  0.7907
  387MPD2     N 5844   3.120   4.728  10.070  0.0141  0.1924  0.0764
  387MPD2    H5 5845   3.121   4.711  10.170  0.9468  1.2836  0.2525
  387MPD2    N1 5846   3.113   0.432  10.189  0.6375 -0.4959 -0.1297
  387MPD2    H7 5847   3.149   0.378  10.266  1.4035 -0.0768 -0.1878
  388TMC3    C1 5848   3.232   0.621  10.261  0.7602  0.4414  0.4345
  388TMC3    C2 5849   3.220   0.754  10.292 -0.3764 -0.4089  0.8192
  388TMC3    C3 5850   3.285   0.799  10.399  0.3263  0.7890 -0.9247
  388TMC3    C4 5851   3.318   0.534  10.325 -0.2733 -0.4450 -0.8765
  388TMC3    C5 5852   3.396   0.590  10.420 -0.4903  0.5166 -0.4067
  388TMC3    C6 5853   3.374   0.717  10.466  0.3362 -0.2066 -0.9490
  388TMC3     C 5854   3.135   0.570  10.169  0.0890  0.1234  0.1795
  388TMC3     O 5855   3.085   0.649  10.095  0.9749 -0.1966  0.0066
  388TMC3     H 5856   3.151   0.817  10.237 -0.7423 -1.7789 -0.2762
  388TMC3    H1 5857   3.330   0.430  10.297 -1.8405 -0.8201 -0.1643
  388TMC3    H2 5858   3.451   0.767  10.523  0.7714  0.2862 -1.9654
  388TMC3    C7 5859   3.474   0.495  10.502  0.1662 -0.1646  0.0539
  388TMC3    C8 5860   3.285   0.938  10.429  0.5022 -0.7472 -0.3476
  388TMC3    O1 5861   3.487   0.520  10.620  0.2660 -0.3412 -0.0628
  388TMC3    O2 5862   3.356   0.977  10.509  0.5642  0.4021 -0.7007
  389MPD2     C 5863   1.961   3.816  10.851  0.1204 -0.6395 -0.3132
  389MPD2    C1 5864   2.064   3.738  10.831  0.3229  0.5610 -0.0753
  389MPD2    C2 5865   2.153   3.713  10.932  0.2705 -0.2053 -0.3095
  389MPD2    C3 5866   2.136   3.780  11.049 -0.5157  0.2015 -0.0772
  389MPD2    C4 5867   2.029   3.866  11.065  0.2899  0.2905 -0.4129
  389MPD2    C5 5868   1.937   3.887  10.962 -0.1985 -0.2327  0.3778
  389MPD2     H 5869   2.236   3.644  10.924  1.4815  1.1246  0.9395
  389MPD2    H1 5870   2.015   3.930  11.152  0.9522  0.4218 -0.4084
  389MPD2    H2 5871   1.897   3.851  10.771 -2.3154  0.0385  1.9142
  389MPD2    H3 5872   1.847   3.947  10.965 -1.9357 -2.7235 -1.7749
  389MPD2     N 5873   2.242   3.788  11.150  0.3240 -0.0931  0.1396
  389MPD2    H5 5874   2.220   3.828  11.240  2.1540  1.0776  0.0763
  389MPD2    N1 5875   2.078   3.666  10.710  0.4169  0.0369  0.9883
  389MPD2    H7 5876   2.026   3.697  10.628  0.8408 -0.2609  0.6088
  390TMC3    C1 5877   2.434   3.743  11.268  0.4613  0.0471 -0.5521
  390TMC3    C2 5878   2.496   3.626  11.309 -0.4793 -0.3399  0.2647
  390TMC3    C3 5879   2.504   3.602  11.445  0.4521 -0.0496 -0.2589
  390TMC3    C4 5880   2.379   3.835  11.352  0.4697  0.0550  0.8771
  390TMC3    C5 5881   2.378   3.806  11.485  0.7232  0.3313  1.1058
  390TMC3    C6 5882   2.453   3.699  11.524 -0.0699  0.1232  0.4785
  390TMC3     C 5883   2.373   3.745  11.140  0.1373 -0.3707  0.1464
  390TMC3     O 5884   2.417   3.673  11.052 -0.1771 -0.3425 -0.0563
  390TMC3     H 5885   2.536   3.561  11.232 -1.3650  0.5201 -0.9309
  390TMC3    H1 5886   2.343   3.931  11.320 -0.3766 -0.0149  1.6065
  390TMC3    H2 5887   2.468   3.691  11.631  1.3590 -0.0360  0.2729
  390TMC3    C7 5888   2.245   3.791  11.532 -0.2867  0.1265 -0.0503
  390TMC3    C8 5889   2.493   3.469  11.503  0.1702  0.5208 -0.0615
  390TMC3    O1 5890   2.165   3.837  11.448  0.8142  0.1796  0.1638
  390TMC3    O2 5891   2.443   3.390  11.429  0.0486  0.6518  0.0109
  391MPD2     C 5892   2.066   0.118  10.621 -0.1768  0.0653  0.4061
  391MPD2    C1 5893   2.095   0.246  10.660  0.2559  0.1505  0.7799
  391MPD2    C2 5894   2.053   0.350  10.577  0.3796  0.0352 -0.5601
  391MPD2    C3 5895   1.981   0.325  10.457 -0.1820  0.0923 -1.1584
  391MPD2    C4 5896   1.955   0.196  10.420  0.8230 -0.3324 -0.2459
  391MPD2    C5 5897   1.997   0.093  10.498  0.1453  0.5765  0.7637
  391MPD2     H 5898   2.085   0.450  10.601  1.0904 -0.6138  1.2488
  391MPD2    H1 5899   1.887   0.175  10.338  0.0191  1.4754 -0.0524
  391MPD2    H2 5900   2.108   0.030  10.669 -3.2994  0.0470  3.1356
  391MPD2    H3 5901   1.984   4.730  10.456 -1.7907  0.9137  0.5595
  391MPD2     N 5902   1.973   0.433  10.364 -0.3368  0.1113  0.2273
  391MPD2    H5 5903   2.022   0.516  10.395 -2.1272  1.2628 -0.0630
  391MPD2    N1 5904   2.171   0.268  10.780 -0.0657  0.2187  0.2592
  391MPD2    H7 5905   2.191   0.188  10.839  0.6143 -0.6475 -1.1510
  392TMC3    C1 5906   1.904   0.553  10.179 -0.0549  0.4572 -0.4429
  392TMC3    C2 5907   1.789   0.581  10.109  0.2585  0.6902 -0.1282
  392TMC3    C3 5908   1.767   0.703  10.063  0.6222  0.1602 -0.2306
  392TMC3    C4 5909   1.997   0.651  10.210  0.1099  0.3306 -0.9626
  392TMC3    C5 5910   1.967   0.778  10.176  0.3760  0.6486  0.0309
  392TMC3    C6 5911   1.853   0.809  10.098 -0.3182 -0.2605 -0.7663
  392TMC3     C 5912   1.901   0.426  10.249  0.9082  0.6792 -0.1623
  392TMC3     O 5913   1.834   0.338  10.199 -0.2456  0.4428 -0.2341
  392TMC3     H 5914   1.719   0.500  10.094  1.2036  0.0084 -0.8428
  392TMC3    H1 5915   2.082   0.635  10.275 -1.8235 -1.2543  1.2048
  392TMC3    H2 5916   1.824   0.908  10.065  0.7110 -0.3991 -2.0938
  392TMC3    C7 5917   2.057   0.870  10.225  0.9526  0.4177  0.6010
  392TMC3    C8 5918   1.636   0.740  10.004 -0.2700  0.1350 -0.8083
  392TMC3    O1 5919   2.174   0.839  10.239  0.1212  0.2461 -0.1336
  392TMC3    O2 5920   1.542   0.673  10.040 -0.6374  0.0690  0.3512
  393TMC3    C1 5921   0.517   3.440  10.670  0.7475  0.6574 -0.2636
  393TMC3    C2 5922   0.401   3.370  10.694  0.1765 -0.0682  0.3242
  393TMC3    C3 5923   0.414   3.241  10.749  0.4733  1.0632  0.2138
  393TMC3    C4 5924   0.644   3.379  10.680  0.8477 -0.2209 -0.6599
  393TMC3    C5 5925   0.646   3.254  10.727 -0.0045 -0.2393 -0.0445
  393TMC3    C6 5926   0.538   3.187  10.763 -0.0777  0.1169 -0.5047
  393TMC3     C 5927   0.503   3.577  10.621  0.3060  0.5679  0.3331
  393TMC3     O 5928   0.397   3.628  10.586  0.0355  0.1220  0.6806
  393TMC3     H 5929   0.303   3.416  10.689 -0.5250 -1.4854  1.2582
  393TMC3    H1 5930   0.738   3.431  10.670  1.0311 -0.3873  0.1539
  393TMC3    H2 5931   0.540   3.083  10.793  0.9032  0.2839  0.0090
  393TMC3    C7 5932   0.778   3.175  10.724 -0.2307  0.2131  0.7518
  393TMC3    C8 5933   0.298   3.147  10.747 -0.2331  0.0218 -0.0608
  393TMC3    O1 5934   0.860   3.205  10.633 -0.1083 -0.1625  0.5778
  393TMC3    O2 5935   0.324   3.040  10.801 -0.0353  0.8696  0.5105
  394TMC3    C1 5936   2.092   3.490  10.568 -0.0584  0.1341 -0.0213
  394TMC3    C2 5937   1.962   3.511  10.542 -0.3971 -0.9248  0.2356
  394TMC3    C3 5938   1.927   3.488  10.410 -0.6852  0.2838 -0.0986
  394TMC3    C4 5939   2.177   3.444  10.471  0.2854  0.4387 -0.1564
  394TMC3    C5 5940   2.139   3.436  10.343 -0.8846 -0.1548 -0.1413
  394TMC3    C6 5941   2.014   3.470  10.304  0.5824  0.0015  0.2674
  394TMC3     C 5942   2.153   3.556  10.677 -0.6941  0.4193 -0.4755
  394TMC3     O 5943   2.229   3.495  10.748  0.0218  0.0298  0.1546
  394TMC3     H 5944   1.884   3.508  10.617 -1.4627  1.5918 -0.8023
  394TMC3    H1 5945   2.282   3.435  10.498  0.0542 -2.4054 -0.1536
  394TMC3    H2 5946   1.980   3.461  10.201  1.2824  1.8556 -0.1258
  394TMC3    C7 5947   2.235   3.400  10.240 -0.2779 -0.2716  0.6705
  394TMC3    C8 5948   1.788   3.473  10.386 -0.0278  0.5770  0.0482
  394TMC3    O1 5949   2.200   3.410  10.121 -0.2095 -0.0153 -0.2399
  394TMC3    O2 5950   1.706   3.561  10.399  0.4597  0.6460  0.3824
  395TMC3    C1 5951   2.091   0.576  14.749 -0.7766 -0.2872  0.1465
  395TMC3    C2 5952   1.988   0.545  14.659  0.0528 -0.0734 -0.4819
  395TMC3    C3 5953   1.918   0.645  14.598  1.0172 -0.3165  0.1209
  395TMC3    C4 5954   2.140   0.710  14.764  0.2542  0.6306 -0.0858
  395TMC3    C5 5955   2.066   0.797  14.695 -0.7127  0.2650 -0.2597
  395TMC3    C6 5956   1.959   0.772  14.615 -0.4895  0.3146  0.1716
  395TMC3     C 5957   2.087   0.504  14.876 -0.2745 -0.1182 -1.1666
  395TMC3     O 5958   1.976   0.460  14.905 -0.2218  0.4990  0.2892
  395TMC3     H 5959   1.943   0.447  14.663  0.5900 -0.2341  1.2977
  395TMC3    H1 5960   2.217   0.734  14.836  2.7707 -2.7288 -1.6196
  395TMC3    H2 5961   1.901   0.850  14.567 -0.0633  1.6084  1.7350
  395TMC3    C7 5962   2.116   0.937  14.707  0.2385  0.1581 -0.3421
  395TMC3    C8 5963   1.779   0.616  14.587  0.1360  0.2354  0.3628
  395TMC3    O1 5964   2.237   0.953  14.731 -0.4231  0.0204  0.7289
  395TMC3    O2 5965   1.709   0.690  14.657  0.0294 -0.0280  0.3995
  396MPD2     C 5966   1.880   1.553  16.917 -0.1820  0.0922  0.3492
  396MPD2    C1 5967   1.979   1.596  16.999 -0.4391  0.5029  0.1064
  396MPD2    C2 5968   2.039   1.715  16.968 -0.5173 -0.6236 -0.5770
  396MPD2    C3 5969   1.999   1.793  16.864 -0.2043  0.0083  0.0760
  396MPD2    C4 5970   1.895   1.745  16.784 -0.2236 -0.0305 -0.9673
  396MPD2    C5 5971   1.834   1.627  16.812 -0.0905 -0.8071  0.1287
  396MPD2     H 5972   2.127   1.752  17.021 -0.3636 -0.1910 -1.1391
  396MPD2    H1 5973   1.853   1.801  16.701 -0.6552 -2.4301 -2.3801
  396MPD2    H2 5974   1.831   1.460  16.946 -1.9085  0.6041 -0.9608
  396MPD2    H3 5975   1.745   1.595  16.759 -0.2147 -0.8181  0.3439
  396MPD2     N 5976   2.044   1.928  16.856  0.3331 -0.3897  0.4514
  396MPD2    H5 5977   2.115   1.959  16.922  1.7415 -1.5014 -0.5424
  396MPD2    N1 5978   2.018   1.515  17.112  0.0248 -0.5718  0.0785
  396MPD2    H7 5979   1.969   1.426  17.115 -0.3410 -0.3381  1.1281
  397TMC3    C1 5980   2.141   1.455  17.311 -0.4595 -0.1747 -0.1316
  397TMC3    C2 5981   2.275   1.454  17.335 -0.4455  0.1132 -0.9491
  397TMC3    C3 5982   2.346   1.341  17.332  0.1726  0.0129 -0.2098
  397TMC3    C4 5983   2.081   1.337  17.296  0.0453 -0.3086  0.2021
  397TMC3    C5 5984   2.151   1.224  17.301 -1.2187 -0.3940 -0.6198
  397TMC3    C6 5985   2.286   1.222  17.323 -0.0465  0.1090  0.2133
  397TMC3     C 5986   2.108   1.555  17.208  0.2666 -0.2326 -0.0242
  397TMC3     O 5987   2.177   1.657  17.210 -0.1704  0.0530 -0.5137
  397TMC3     H 5988   2.327   1.548  17.350 -0.8318  0.1251  0.3648
  397TMC3    H1 5989   1.973   1.338  17.290  0.1215  2.0854 -0.7695
  397TMC3    H2 5990   2.341   1.132  17.347  0.1677  0.4215  0.8892
  397TMC3    C7 5991   2.086   1.110  17.369 -0.6094  0.2721 -0.6914
  397TMC3    C8 5992   2.493   1.347  17.357  0.0566 -0.4447 -0.6477
  397TMC3    O1 5993   2.149   1.052  17.460 -0.6287  0.2427 -0.9140
  397TMC3    O2 5994   2.538   1.254  17.416 -0.2420 -0.0421 -0.6103
  398MPD2     C 5995   0.003   3.094   0.429 -0.1626 -0.7440 -0.5948
  398MPD2    C1 5996   0.069   3.023   0.525  0.0068  0.9063  0.3407
  398MPD2    C2 5997   0.186   3.078   0.581 -0.1168 -0.2490  0.0298
  398MPD2    C3 5998   0.225   3.204   0.553 -0.2371  0.1382  0.4299
  398MPD2    C4 5999   0.157   3.277   0.459 -0.8813  0.1115  0.3679
  398MPD2    C5 6000   0.044   3.218   0.405  0.1166 -0.1079  0.5422
  398MPD2     H 6001   0.248   3.015   0.644  0.6982 -1.3275 -1.8555
  398MPD2    H1 6002   0.191   3.366   0.408  1.7399  0.5195  2.8321
  398MPD2    H2 6003   4.656   3.059   0.369  0.6054 -1.2955 -1.3488
  398MPD2    H3 6004   0.005   3.273   0.321  1.1590 -0.2018 -0.0054
  398MPD2     N 6005   0.362   3.235   0.591  0.3502  0.4640 -0.2222
  398MPD2    H5 6006   0.412   3.163   0.642 -1.4729  0.5169  1.6324
  398MPD2    N1 6007   0.031   2.892   0.553 -0.0150  0.1831 -0.0631
  398MPD2    H7 6008   0.095   2.831   0.603 -1.3327 -2.4183 -1.5354
  399TMC3    C1 6009   4.649   2.679   0.530 -0.4195 -0.1877  0.1696
  399TMC3    C2 6010   0.008   2.625   0.615  0.1201  0.2375 -0.2851
  399TMC3    C3 6011   0.024   2.496   0.616  0.0438  0.3581 -0.7546
  399TMC3    C4 6012   4.591   2.590   0.438  0.2653 -0.2716  0.0783
  399TMC3    C5 6013   4.616   2.459   0.445 -0.2614 -0.3318  0.1617
  399TMC3    C6 6014   4.697   2.404   0.540 -0.4754 -0.2681  0.2393
  399TMC3     C 6015   4.653   2.822   0.502 -0.0445  0.4626 -0.0060
  399TMC3     O 6016   4.554   2.857   0.443  0.0294 -0.0027  0.0824
  399TMC3     H 6017   0.060   2.684   0.689 -2.3713 -0.4394  2.0178
  399TMC3    H1 6018   4.516   2.626   0.368 -0.4293  0.9627  1.4566
  399TMC3    H2 6019   4.726   2.299   0.538  0.4416 -0.0250  1.0793
  399TMC3    C7 6020   4.545   2.364   0.362  0.2599 -0.9984 -0.9654
  399TMC3    C8 6021   0.142   2.449   0.691  0.5234  0.3034 -0.3300
  399TMC3    O1 6022   4.538   2.252   0.409 -0.4474  0.3067  0.0334
  399TMC3    O2 6023   0.231   2.529   0.724 -0.2950 -0.0968 -0.7605
  400TMC3    C1 6024   3.461   1.457  17.012 -0.2948 -0.0663 -0.3581
  400TMC3    C2 6025   3.388   1.353  16.964  0.0190  0.5643  0.3209
  400TMC3    C3 6026   3.282   1.387  16.887 -0.6615  0.4193  0.2928
  400TMC3    C4 6027   3.437   1.588  16.982 -0.4913 -0.1093  0.8280
  400TMC3    C5 6028   3.319   1.615  16.912 -0.0190  0.4327  0.5452
  400TMC3    C6 6029   3.248   1.514  16.863 -0.0728  0.3906  0.2351
  400TMC3     C 6030   3.582   1.419  17.092 -0.0662 -0.1646  0.4431
  400TMC3     O 6031   3.598   1.298  17.106  0.0519  0.4304  0.2294
  400TMC3     H 6032   3.419   1.251  16.983  1.3421  1.1163  1.1141
  400TMC3    H1 6033   3.499   1.669  17.019 -0.8606  0.8394 -0.6327
  400TMC3    H2 6034   3.162   1.533  16.799 -2.7089 -2.9066  2.8098
  400TMC3    C7 6035   3.297   1.744  16.861 -0.3736  0.2578  0.4257
  400TMC3    C8 6036   3.163   1.301  16.899 -0.7164  0.3074  0.1916
  400TMC3    O1 6037   3.256   1.762  16.750 -0.3994  0.4955  0.1720
  400TMC3    O2 6038   3.159   1.240  17.004 -0.2933  0.2278 -0.1548
  401MPD2     C 6039   2.196   4.401   0.591  0.1866 -0.2086 -0.1696
  401MPD2    C1 6040   2.290   4.328   0.662  0.4259 -0.0124  0.4824
  401MPD2    C2 6041   2.250   4.203   0.715 -0.1469  0.1389 -0.1672
  401MPD2    C3 6042   2.122   4.154   0.691  0.1180  0.5307 -1.4545
  401MPD2    C4 6043   2.033   4.235   0.623 -0.1592  1.0431  1.1814
  401MPD2    C5 6044   2.067   4.359   0.575 -0.4224  0.3661 -0.6777
  401MPD2     H 6045   2.316   4.140   0.773 -1.1349  0.0246  0.8179
  401MPD2    H1 6046   1.929   4.207   0.608  1.0830 -2.0668 -1.5076
  401MPD2    H2 6047   2.220   4.494   0.541  0.2642 -0.5560 -0.7749
  401MPD2    H3 6048   1.994   4.420   0.522 -1.8315  0.8908  1.8900
  401MPD2     N 6049   2.096   4.024   0.737 -0.0702  0.0627 -0.4539
  401MPD2    H5 6050   2.171   3.984   0.792 -0.1671  0.4449 -0.0424
  401MPD2    N1 6051   2.422   4.366   0.684  0.1965  0.1469  0.1137
  401MPD2    H7 6052   2.483   4.304   0.736 -0.0186  0.6949  1.0209
  402TMC3    C1 6053   1.963   3.832   0.788  0.5502  1.2027 -0.4069
  402TMC3    C2 6054   2.058   3.807   0.881  0.2055  0.0706 -0.3010
  402TMC3    C3 6055   2.067   3.679   0.918  0.6608 -0.7644  0.5605
  402TMC3    C4 6056   1.886   3.737   0.727 -0.2796  0.3576 -0.5011
  402TMC3    C5 6057   1.908   3.608   0.759 -0.7296  0.1156 -0.1847
  402TMC3    C6 6058   1.998   3.575   0.854 -0.5588  0.3428 -0.4903
  402TMC3     C 6059   1.969   3.966   0.730 -0.2800 -0.5093  0.5383
  402TMC3     O 6060   1.877   4.000   0.654 -0.1595 -0.3962  0.3610
  402TMC3     H 6061   2.118   3.884   0.928  0.6029 -0.2801 -0.2322
  402TMC3    H1 6062   1.820   3.765   0.645 -0.1745  1.3477 -0.2440
  402TMC3    H2 6063   2.027   3.473   0.873  1.2005  0.6513 -1.5378
  402TMC3    C7 6064   1.786   3.528   0.741 -0.1238  0.4416  0.4991
  402TMC3    C8 6065   2.172   3.637   1.015  0.7582 -0.7389 -0.3578
  402TMC3    O1 6066   1.683   3.594   0.728  0.6258  0.6215  0.1740
  402TMC3    O2 6067   2.183   3.516   1.024 -0.5786 -0.2751  0.3144
  403MPD2     C 6068   4.543   3.282  13.650 -0.5197  0.1838 -0.0912
  403MPD2    C1 6069   4.653   3.203  13.629 -0.2673 -0.2863  0.5865
  403MPD2    C2 6070   0.044   3.252  13.646 -0.1997 -0.3445  0.7780
  403MPD2    C3 6071   0.067   3.385  13.670 -0.0437  0.3669 -0.2784
  403MPD2    C4 6072   4.692   3.469  13.678  0.0981  0.4370 -0.2453
  403MPD2    C5 6073   4.563   3.418  13.673  0.1397  0.2696  0.0868
  403MPD2     H 6074   0.120   3.176  13.661  0.7358  0.4048 -0.1844
  403MPD2    H1 6075   4.702   3.569  13.718 -0.3644 -0.0271  1.0366
  403MPD2    H2 6076   4.440   3.251  13.660  0.0720 -1.3643  1.3017
  403MPD2    H3 6077   4.481   3.486  13.694 -0.9856 -1.3787  1.0761
  403MPD2     N 6078   0.203   3.418  13.691  0.3954  0.3361  0.6241
  403MPD2    H5 6079   0.274   3.348  13.672  0.5458  0.9567 -1.0946
  403MPD2    N1 6080   4.631   3.065  13.610 -0.1747 -0.0333 -0.4550
  403MPD2    H7 6081   4.701   3.012  13.561 -1.1278 -2.0687  0.4041
  404TMC3    C1 6082   4.552   2.853  13.650 -0.4475 -0.1821  0.6660
  404TMC3    C2 6083   4.589   2.798  13.766  0.0527  0.0752  0.6478
  404TMC3    C3 6084   4.652   2.672  13.759 -0.1670 -0.0572 -0.4803
  404TMC3    C4 6085   4.587   2.803  13.530  0.1891 -0.0201  0.1261
  404TMC3    C5 6086   4.664   2.687  13.530  0.3906  0.2715  0.1617
  404TMC3    C6 6087   4.693   2.618  13.643  0.3061  0.0664  0.8442
  404TMC3     C 6088   4.523   2.991  13.653 -0.2697  0.0927  0.0030
  404TMC3     O 6089   4.434   3.029  13.729 -0.5476 -0.6346  0.6811
  404TMC3     H 6090   4.556   2.847  13.857 -2.9157 -2.0821  0.7401
  404TMC3    H1 6091   4.579   2.866  13.442 -2.1095 -0.1151  0.2862
  404TMC3    H2 6092   0.034   2.542  13.636 -0.9622 -1.2282  1.0323
  404TMC3    C7 6093   4.731   2.642  13.413  0.2668 -1.5274 -0.3739
  404TMC3    C8 6094   4.724   2.647  13.879 -0.1885 -0.3319 -0.5673
  404TMC3    O1 6095   0.112   2.618  13.425  0.0048  0.1452  0.7853
  404TMC3    O2 6096   0.104   2.608  13.863  0.2111  0.2033  0.3157
  405MPD2     C 6097   0.429   4.136  14.781 -0.2287 -0.2330  0.0954
  405MPD2    C1 6098   0.438   3.998  14.771 -0.8273 -0.2867 -0.0689
  405MPD2    C2 6099   0.364   3.945  14.666 -0.3585  0.1032 -0.6516
  405MPD2    C3 6100   0.297   4.020  14.570 -0.2062  0.0916  0.2303
  405MPD2    C4 6101   0.294   4.152  14.583 -0.4348 -0.3409 -0.2235
  405MPD2    C5 6102   0.355   4.214  14.692 -0.2495 -0.5517  0.2010
  405MPD2     H 6103   0.369   3.838  14.647  1.4716 -0.1095  1.0526
  405MPD2    H1 6104   0.230   4.208  14.516  0.1118  0.5968  0.0419
  405MPD2    H2 6105   0.493   4.182  14.856  0.7891 -0.2672 -0.7472
  405MPD2    H3 6106   0.356   4.321  14.709 -2.7291 -1.0875  3.6719
  405MPD2     N 6107   0.239   3.937  14.464 -0.5149  0.1233 -0.0841
  405MPD2    H5 6108   0.256   3.838  14.467 -0.6734  0.1185  0.5162
  405MPD2    N1 6109   0.511   3.919  14.868 -0.3866  0.2357  0.0498
  405MPD2    H7 6110   0.561   3.975  14.936  2.6613  0.2945 -2.2147
  406TMC3    C1 6111   0.075   3.775  14.064  0.3150  0.5397  0.4500
  406TMC3    C2 6112   0.152   3.669  14.076 -0.5515 -0.1854  0.0111
  406TMC3    C3 6113   0.259   3.677  14.163  0.5024  0.6002  0.8976
  406TMC3    C4 6114   0.099   3.889  14.131 -0.9056 -0.9537 -0.6122
  406TMC3    C5 6115   0.189   3.893  14.236  0.2107 -0.6790 -0.7188
  406TMC3    C6 6116   0.276   3.790  14.243 -0.2685 -0.4292  0.1955
  406TMC3     C 6117   4.683   3.771  13.991  0.1201 -0.6619  0.1977
  406TMC3     O 6118   4.659   3.875  13.933  0.1885 -0.0595  0.7613
  406TMC3     H 6119   0.137   3.575  14.025 -1.0346 -0.4238  0.5837
  406TMC3    H1 6120   0.023   3.966  14.133  0.7092  0.5822  1.9563
  406TMC3    H2 6121   0.365   3.796  14.306  0.4396 -0.7944 -0.7736
  406TMC3    C7 6122   0.190   3.991  14.349 -0.1382  0.8552 -0.0852
  406TMC3    C8 6123   0.374   3.581  14.166 -0.3827 -0.4010  0.4216
  406TMC3    O1 6124   0.139   4.100  14.324  0.0763 -0.0305 -0.2319
  406TMC3    O2 6125   0.404   3.509  14.072  0.1366  0.1845  0.2102
  407MPD2     C 6126   3.022   3.875   9.576  0.5588 -0.2175  0.5142
  407MPD2    C1 6127   3.070   3.942   9.683 -0.4596  0.1228  0.0070
  407MPD2    C2 6128   2.998   4.056   9.731 -0.3600 -0.3152 -0.3518
  407MPD2    C3 6129   2.892   4.102   9.658 -0.3667 -0.0037  0.4647
  407MPD2    C4 6130   2.860   4.044   9.539 -0.0242 -0.8032 -0.0125
  407MPD2    C5 6131   2.931   3.932   9.498  0.3521  0.5888 -0.1414
  407MPD2     H 6132   3.032   4.104   9.822  2.3428 -3.3269  0.2202
  407MPD2    H1 6133   2.789   4.092   9.472 -0.3553 -1.4606 -0.1246
  407MPD2    H2 6134   3.073   3.790   9.532 -2.3653 -0.2834 -2.6773
  407MPD2    H3 6135   2.903   3.884   9.405 -0.2604 -1.3696  1.0343
  407MPD2     N 6136   2.822   4.221   9.684 -0.3490 -0.0069  0.1396
  407MPD2    H5 6137   2.748   4.249   9.620  1.1527 -0.7741 -1.9592
  407MPD2    N1 6138   3.176   3.907   9.759 -0.0703 -0.0354 -0.0927
  407MPD2    H7 6139   3.205   3.978   9.826 -2.1028  0.5873  0.1230
  408TMC3    C1 6140   3.362   3.792   9.834 -0.4549  0.4037  0.6357
  408TMC3    C2 6141   3.404   3.903   9.903 -0.3282  0.5299  0.7593
  408TMC3    C3 6142   3.479   3.882  10.015 -0.6630 -0.2886  0.1609
  408TMC3    C4 6143   3.398   3.663   9.865  0.6119  0.4010 -0.3146
  408TMC3    C5 6144   3.478   3.648   9.973  0.7324  0.0880  0.3120
  408TMC3    C6 6145   3.508   3.756  10.058  0.0410  0.3949  0.4684
  408TMC3     C 6146   3.247   3.795   9.753 -0.9793  0.2865  0.4905
  408TMC3     O 6147   3.238   3.703   9.674 -0.1686 -0.2922  0.4762
  408TMC3     H 6148   3.374   4.005   9.884 -2.1085  0.5808  3.7371
  408TMC3    H1 6149   3.379   3.577   9.802  1.8132  0.0102 -0.1457
  408TMC3    H2 6150   3.560   3.746  10.153  0.2724 -1.7428  0.1314
  408TMC3    C7 6151   3.481   3.515  10.028  0.7028 -0.4251 -0.4820
  408TMC3    C8 6152   3.538   3.990  10.091 -0.3180 -0.3468 -0.1099
  408TMC3    O1 6153   3.415   3.423   9.982  0.1648 -0.2176 -0.1849
  408TMC3    O2 6154   3.587   3.980  10.203 -0.0636  0.2389  0.2795
  409MPD2     C 6155   2.170   0.940  17.007  0.0743 -0.7507 -0.0702
  409MPD2    C1 6156   2.274   0.934  17.093  0.4093  0.5306  0.1662
  409MPD2    C2 6157   2.380   1.020  17.069 -0.8905  0.0796 -0.3373
  409MPD2    C3 6158   2.377   1.126  16.978  0.5340  0.1250 -0.2954
  409MPD2    C4 6159   2.260   1.139  16.907 -0.1766 -0.8554 -0.2531
  409MPD2    C5 6160   2.160   1.050  16.924 -0.1197 -0.3121 -0.0082
  409MPD2     H 6161   2.467   1.008  17.132 -0.7618  1.1273 -0.3262
  409MPD2    H1 6162   2.241   1.219  16.836  0.2190 -0.7102 -0.1944
  409MPD2    H2 6163   2.085   0.875  17.020 -0.8241  0.2080 -1.0960
  409MPD2    H3 6164   2.070   1.056  16.863 -1.7183 -0.0722  2.3807
  409MPD2     N 6165   2.485   1.217  16.951 -0.2329  0.8129  0.1642
  409MPD2    H5 6166   2.462   1.295  16.890  0.0928  0.6518 -0.1597
  409MPD2    N1 6167   2.286   0.835  17.193  0.4697 -0.5060  0.4147
  409MPD2    H7 6168   2.375   0.824  17.242  0.1396  2.1852  1.6385
  410TMC3    C1 6169   2.682   1.341  16.991 -0.4781  0.3151  1.0050
  410TMC3    C2 6170   2.778   1.379  17.083  0.1377  0.2447  0.2663
  410TMC3    C3 6171   2.868   1.477  17.039  0.1184  0.5419 -0.3129
  410TMC3    C4 6172   2.667   1.395  16.867 -0.0645  0.2755 -0.0931
  410TMC3    C5 6173   2.753   1.501  16.846  0.2853  0.1547 -0.2889
  410TMC3    C6 6174   2.857   1.545  16.925 -0.1802 -0.3303 -0.2035
  410TMC3     C 6175   2.596   1.232  17.029  0.8050 -0.5593 -0.0036
  410TMC3     O 6176   2.634   1.167  17.129 -0.1988 -0.5462  0.0543
  410TMC3     H 6177   2.781   1.348  17.187  1.3204 -0.3485  0.0627
  410TMC3    H1 6178   2.586   1.371  16.799 -0.3042  1.6576 -0.2968
  410TMC3    H2 6179   2.932   1.617  16.895 -1.9748  1.6383  0.0447
  410TMC3    C7 6180   2.741   1.567  16.717  0.3650  0.3320 -0.3436
  410TMC3    C8 6181   2.996   1.501  17.114  0.1970 -0.1830 -1.3149
  410TMC3    O1 6182   2.695   1.490  16.632  0.1617  0.3637  0.3537
  410TMC3    O2 6183   3.056   1.608  17.105  0.1853  0.0581  0.0417
  411MPD2     C 6184   1.538   1.681  14.299 -0.2542 -0.5108 -0.0666
  411MPD2    C1 6185   1.585   1.651  14.426 -0.0331 -0.7021  0.0865
  411MPD2    C2 6186   1.495   1.608  14.523 -0.4338  0.3297  0.2796
  411MPD2    C3 6187   1.363   1.592  14.496  0.5126 -0.1387 -0.3082
  411MPD2    C4 6188   1.318   1.636  14.368 -0.5513  0.2393 -0.5566
  411MPD2    C5 6189   1.407   1.682  14.276 -0.2272  0.2108 -0.2127
  411MPD2     H 6190   1.533   1.582  14.621 -1.0036 -1.9499 -0.0903
  411MPD2    H1 6191   1.219   1.615  14.329 -0.6394 -2.5413  1.1333
  411MPD2    H2 6192   1.610   1.721  14.228 -1.6839  0.1885 -1.1078
  411MPD2    H3 6193   1.369   1.704  14.177 -0.1047  1.3799 -0.0076
  411MPD2     N 6194   1.263   1.527  14.576  0.0326 -0.0451  0.0765
  411MPD2    H5 6195   1.173   1.509  14.531 -0.6888  0.3222  1.3618
  411MPD2    N1 6196   1.724   1.669  14.445 -0.4966  0.3392 -0.2668
  411MPD2    H7 6197   1.769   1.715  14.366 -2.5704  2.8448  0.0039
  412TMC3    C1 6198   1.215   1.369  14.727  0.9653  0.1315  0.0583
  412TMC3    C2 6199   1.114   1.350  14.643  0.1320  0.5176  0.2315
  412TMC3    C3 6200   1.097   1.235  14.574  1.0683  0.0074  0.2207
  412TMC3    C4 6201   1.308   1.274  14.740  0.3772 -0.1968 -0.5779
  412TMC3    C5 6202   1.295   1.154  14.675 -0.6513  0.2194 -0.5223
  412TMC3    C6 6203   1.181   1.131  14.598 -0.3221 -0.4233  0.5169
  412TMC3     C 6204   1.283   1.493  14.707  0.0014  0.4581  0.0849
  412TMC3     O 6205   1.379   1.528  14.775 -0.2143 -0.3126  1.0410
  412TMC3     H 6206   1.043   1.431  14.632  0.2332  0.6523  0.5658
  412TMC3    H1 6207   1.396   1.302  14.796  0.0520 -1.3319  0.4823
  412TMC3    H2 6208   1.169   1.041  14.540  0.9956 -0.2684  0.0140
  412TMC3    C7 6209   1.426   1.112  14.610 -0.2269  0.2067 -1.1755
  412TMC3    C8 6210   1.088   1.274  14.428 -0.7189  0.6735 -0.4209
  412TMC3    O1 6211   1.515   1.200  14.610 -0.4785 -0.0005  0.0293
  412TMC3    O2 6212   0.981   1.318  14.388 -0.1328  0.1429 -0.2623
  413MPD2     C 6213   4.203   4.486  15.609  0.3848 -0.2397  0.4029
  413MPD2    C1 6214   4.148   4.466  15.484 -0.1756 -0.6041 -0.1244
  413MPD2    C2 6215   4.217   4.409  15.381 -0.2265  0.1651 -0.0247
  413MPD2    C3 6216   4.354   4.383  15.397 -0.0918 -0.3595 -0.1364
  413MPD2    C4 6217   4.412   4.412  15.518 -0.1469  0.3838  0.2014
  413MPD2    C5 6218   4.332   4.454  15.625  0.5225 -0.0505 -0.1036
  413MPD2     H 6219   4.163   4.379  15.292  2.4484 -0.7104 -1.3559
  413MPD2    H1 6220   4.515   4.393  15.548 -0.2854 -0.8314 -0.1024
  413MPD2    H2 6221   4.136   4.509  15.691 -0.2288  0.1434 -0.2106
  413MPD2    H3 6222   4.381   4.456  15.721  1.5307 -2.1302 -0.5802
  413MPD2     N 6223   4.415   4.316  15.290  0.4439 -1.0230 -0.1945
  413MPD2    H5 6224   4.352   4.300  15.212  1.3899 -2.0247 -0.7480
  413MPD2    N1 6225   4.009   4.490  15.470  0.3620 -0.0680  0.7411
  413MPD2    H7 6226   3.962   4.512  15.558 -0.3990  1.0677  0.0405
  414TMC3    C1 6227   4.577   4.184  15.171 -0.1343 -0.1931  0.1947
  414TMC3    C2 6228   4.649   4.068  15.185  0.4256  0.2331 -0.0981
  414TMC3    C3 6229   4.680   4.008  15.065  0.0283  1.4702 -0.5285
  414TMC3    C4 6230   4.528   4.239  15.053  0.1643  0.8147 -0.6759
  414TMC3    C5 6231   4.559   4.169  14.940 -0.7435  0.0134 -0.3569
  414TMC3    C6 6232   4.631   4.049  14.945 -0.2937 -0.2425  0.2862
  414TMC3     C 6233   4.542   4.256  15.295 -0.9150 -0.0586 -1.1162
  414TMC3     O 6234   4.614   4.250  15.393  0.6246  0.2134  0.1522
  414TMC3     H 6235   4.677   4.019  15.277 -0.5290  0.9612  0.5881
  414TMC3    H1 6236   4.488   4.339  15.042 -1.7680 -0.0927 -1.8419
  414TMC3    H2 6237   4.653   3.995  14.854 -3.8000 -0.8171 -0.2092
  414TMC3    C7 6238   4.589   4.237  14.819 -0.2860  0.8941  0.1738
  414TMC3    C8 6239   0.048   3.911  15.049 -0.5154 -0.2835 -0.6210
  414TMC3    O1 6240   4.573   4.176  14.713  0.0434  0.4537 -0.0249
  414TMC3    O2 6241   0.010   3.813  14.987  0.8817  0.0295  0.4687
  415TMC3    C1 6242   4.653   2.437  10.273 -0.0463 -0.2290 -0.6194
  415TMC3    C2 6243   4.656   2.566  10.224 -0.2604  1.3207 -0.5252
  415TMC3    C3 6244   4.579   2.595  10.110  0.0631 -0.4719 -0.4980
  415TMC3    C4 6245   4.569   2.344  10.215 -0.7985  0.1886  0.2211
  415TMC3    C5 6246   4.503   2.372  10.098 -0.2686 -0.3525  0.4192
  415TMC3    C6 6247   4.516   2.495  10.037  0.0201  0.4214  0.1544
  415TMC3     C 6248   4.725   2.395  10.393  0.5139  0.0573  0.4746
  415TMC3     O 6249   4.708   2.277  10.432  0.1953  0.1088 -0.5487
  415TMC3     H 6250   4.696   2.649  10.281  1.0717  0.8540 -0.7637
  415TMC3    H1 6251   4.564   2.243  10.252 -1.4856 -0.8156 -2.6176
  415TMC3    H2 6252   4.459   2.519   9.948  1.7624 -0.7450 -1.2647
  415TMC3    C7 6253   4.402   2.281  10.042  0.2444 -0.1975  0.2503
  415TMC3    C8 6254   4.544   2.731  10.083  0.1855 -0.3523  0.5394
  415TMC3    O1 6255   4.364   2.297   9.928  0.2916 -0.1809 -0.1088
  415TMC3    O2 6256   4.436   2.743  10.029  0.1713 -0.2188 -0.0129
  416MPD2     C 6257   1.986   1.597  11.844  0.0417  0.9669  0.6881
  416MPD2    C1 6258   1.856   1.569  11.829  0.3985  0.8004 -0.2600
  416MPD2    C2 6259   1.803   1.498  11.723  0.0848 -0.0872  0.8578
  416MPD2    C3 6260   1.884   1.474  11.613  0.1437  0.0100  0.6275
  416MPD2    C4 6261   2.016   1.504  11.633 -0.4115  0.5337 -0.0593
  416MPD2    C5 6262   2.071   1.553  11.746  0.1481 -0.1847  0.1472
  416MPD2     H 6263   1.696   1.485  11.714  0.1956 -0.5758  0.2487
  416MPD2    H1 6264   2.082   1.462  11.557  0.0608 -0.6245  0.9867
  416MPD2    H2 6265   2.028   1.637  11.936 -1.7415  2.8121  0.6913
  416MPD2    H3 6266   2.178   1.566  11.755  0.4703 -1.2472 -2.0149
  416MPD2     N 6267   1.846   1.409  11.494 -0.6112 -0.4837  0.1870
  416MPD2    H5 6268   1.916   1.398  11.421  0.6783 -0.9834  1.4869
  416MPD2    N1 6269   1.765   1.632  11.920  0.2566 -0.6017  0.8109
  416MPD2    H7 6270   1.670   1.611  11.891  0.3995 -0.6123  0.3470
  417TMC3    C1 6271   1.680   1.751  12.101  0.8258 -0.5762  0.7479
  417TMC3    C2 6272   1.679   1.761  12.236 -0.3759  0.1408 -0.0169
  417TMC3    C3 6273   1.573   1.834  12.288  0.2040  0.1832  0.5333
  417TMC3    C4 6274   1.589   1.822  12.023  0.0072 -0.2553  0.5597
  417TMC3    C5 6275   1.487   1.888  12.089  0.3946  0.5901  0.1519
  417TMC3    C6 6276   1.481   1.899  12.219  0.6132 -0.4957  0.1971
  417TMC3     C 6277   1.792   1.702  12.035  0.1794 -0.4998  0.6584
  417TMC3     O 6278   1.901   1.740  12.079 -0.0530 -0.0845  0.0322
  417TMC3     H 6279   1.762   1.719  12.292 -1.9139 -0.4918  1.8068
  417TMC3    H1 6280   1.587   1.840  11.916  2.9078  0.2561  0.5765
  417TMC3    H2 6281   1.408   1.957  12.275  0.0062 -0.3880 -0.7116
  417TMC3    C7 6282   1.412   1.983  12.006 -0.2916 -0.0522 -0.2378
  417TMC3    C8 6283   1.548   1.809  12.432  0.1645  0.3846 -0.7516
  417TMC3    O1 6284   1.475   2.034  11.915  0.5236  1.0231  0.2064
  417TMC3    O2 6285   1.496   1.900  12.495 -0.0558 -0.4708  0.1617
  418TMC3    C1 6286   0.762   3.263   0.447  0.1098  0.2102  1.3587
  418TMC3    C2 6287   0.641   3.328   0.456  0.1464  0.6395 -0.4425
  418TMC3    C3 6288   0.573   3.326   0.575 -0.5179  0.1117 -0.4756
  418TMC3    C4 6289   0.816   3.188   0.544 -0.4486  0.4088 -0.0128
  418TMC3    C5 6290   0.742   3.185   0.661  0.1056  0.0301  0.6577
  418TMC3    C6 6291   0.621   3.253   0.679  0.0219 -0.2947 -0.2322
  418TMC3     C 6292   0.815   3.266   0.311 -0.2652 -0.1625 -0.5813
  418TMC3     O 6293   0.786   3.361   0.240 -0.1122  0.0884  0.4582
  418TMC3     H 6294   0.600   3.367   0.364 -0.6838  0.5224 -0.1176
  418TMC3    H1 6295   0.913   3.142   0.534 -0.7420  0.0674 -1.3069
  418TMC3    H2 6296   0.564   3.256   0.771  0.9130 -1.8319  0.3698
  418TMC3    C7 6297   0.790   3.078   0.750 -0.3800  0.0601 -0.0969
  418TMC3    C8 6298   0.428   3.352   0.563 -0.0553 -0.0837  0.0027
  418TMC3    O1 6299   0.848   2.981   0.699  0.2653 -0.3812 -0.0809
  418TMC3    O2 6300   0.394   3.451   0.500 -0.6098 -0.0941  0.1347
  419MPD2     C 6301   3.889   1.411  12.214  0.5907 -0.5140 -0.7805
  419MPD2    C1 6302   3.793   1.514  12.233  0.3719  0.2836 -0.1550
  419MPD2    C2 6303   3.754   1.537  12.359  0.3238 -0.0233 -0.1308
  419MPD2    C3 6304   3.811   1.473  12.473  0.1338  0.1363  0.7215
  419MPD2    C4 6305   3.917   1.383  12.454  0.6665  0.2622  0.4817
  419MPD2    C5 6306   3.944   1.353  12.324 -0.1189  0.0027  0.2712
  419MPD2     H 6307   3.674   1.606  12.384 -0.1333  0.6289 -3.4312
  419MPD2    H1 6308   3.958   1.327  12.538 -0.1800  0.3390  0.9479
  419MPD2    H2 6309   3.942   1.381  12.125 -0.9143 -1.4051 -1.3921
  419MPD2    H3 6310   4.025   1.283  12.311 -1.3023 -0.9766 -1.7268
  419MPD2     N 6311   3.753   1.497  12.604  0.1903 -0.1126 -0.6328
  419MPD2    H5 6312   3.680   1.567  12.615  0.1330  0.2025 -2.8479
  419MPD2    N1 6313   3.745   1.604  12.133 -0.0007  0.2367  0.0372
  419MPD2    H7 6314   3.683   1.679  12.162 -0.1809  0.0496  0.1319
  420TMC3    C1 6315   3.704   1.477  12.830 -0.3356 -0.5493 -0.0624
  420TMC3    C2 6316   3.617   1.577  12.810 -0.0588  0.3955  0.5111
  420TMC3    C3 6317   3.541   1.616  12.916  0.0379 -0.2253 -0.0871
  420TMC3    C4 6318   3.729   1.419  12.951 -0.1784  0.4074 -0.4242
  420TMC3    C5 6319   3.656   1.464  13.053 -0.3510  0.1112 -0.1017
  420TMC3    C6 6320   3.556   1.561  13.039  0.0122 -0.8027  0.1306
  420TMC3     C 6321   3.786   1.434  12.721 -0.6351 -0.2119 -0.4438
  420TMC3     O 6322   3.875   1.351  12.742  0.4083  0.6084  0.2025
  420TMC3     H 6323   3.601   1.628  12.716  2.7114 -0.0137 -0.2006
  420TMC3    H1 6324   3.812   1.350  12.963  0.0564  0.5125 -1.4379
  420TMC3    H2 6325   3.495   1.603  13.117 -0.6867 -0.7541 -0.4396
  420TMC3    C7 6326   3.703   1.446  13.194  0.1226  0.5520 -0.8259
  420TMC3    C8 6327   3.423   1.698  12.898 -0.8118 -0.0779 -0.3196
  420TMC3    O1 6328   3.649   1.517  13.273 -0.2423  0.2912  0.2560
  420TMC3    O2 6329   3.417   1.756  12.790  0.4842 -0.3912  0.3535
  421TMC3    C1 6330   0.385   3.563  13.758  0.6246  0.0102  0.1846
  421TMC3    C2 6331   0.426   3.670  13.835  0.4912  0.5498  0.8847
  421TMC3    C3 6332   0.558   3.691  13.852 -0.0131 -0.1696 -0.2076
  421TMC3    C4 6333   0.479   3.479  13.694 -0.3723  0.4207 -0.1547
  421TMC3    C5 6334   0.610   3.516  13.699  0.3140  0.2739 -0.4065
  421TMC3    C6 6335   0.647   3.616  13.785  0.6005 -0.8008  0.6686
  421TMC3     C 6336   0.238   3.537  13.753  0.6569 -0.1783 -0.4118
  421TMC3     O 6337   0.171   3.624  13.803  0.2341  0.0674 -0.3630
  421TMC3     H 6338   0.349   3.724  13.889 -0.4655  2.2882 -2.2476
  421TMC3    H1 6339   0.437   3.408  13.623  0.1641 -1.4300  1.3872
  421TMC3    H2 6340   0.752   3.642  13.792  0.2398  1.1896 -1.0335
  421TMC3    C7 6341   0.705   3.412  13.670 -0.7088  0.8799 -0.3611
  421TMC3    C8 6342   0.609   3.766  13.970  0.3383  0.0956 -0.5575
  421TMC3    O1 6343   0.826   3.447  13.687 -0.1698  0.1731 -0.6195
  421TMC3    O2 6344   0.719   3.737  14.014  0.4775  0.1533 -0.2668
  422TMC3    C1 6345   2.683   4.403  12.472 -0.0133  0.4983  0.3694
  422TMC3    C2 6346   2.682   4.456  12.596 -0.2319  0.4279 -0.4643
  422TMC3    C3 6347   2.577   4.418  12.683 -0.8503  0.4951 -0.2338
  422TMC3    C4 6348   2.572   4.330  12.426 -0.4431  0.1631 -0.6094
  422TMC3    C5 6349   2.470   4.297  12.514 -0.3420  0.4871 -0.7992
  422TMC3    C6 6350   2.469   4.338  12.646  0.0356  0.0205 -0.3681
  422TMC3     C 6351   2.812   4.380  12.407  0.5854 -0.5992  0.3744
  422TMC3     O 6352   2.907   4.416  12.474 -0.1248  0.0409 -0.2357
  422TMC3     H 6353   2.760   4.526  12.624 -1.7087  1.4684  1.0093
  422TMC3    H1 6354   2.551   4.325  12.320 -3.1600  1.4498 -0.1304
  422TMC3    H2 6355   2.397   4.302  12.718 -1.6696 -0.3108 -2.2526
  422TMC3    C7 6356   2.360   4.216  12.459 -0.5265  0.0292  0.7237
  422TMC3    C8 6357   2.599   4.466  12.823 -0.3837  0.5041 -0.3449
  422TMC3    O1 6358   2.399   4.123  12.393 -0.0312 -0.1239 -0.4700
  422TMC3    O2 6359   2.656   4.576  12.834 -0.1587 -0.2544  0.1670
  423MPD2     C 6360   4.564   0.427   0.641 -0.2742  0.9647  0.3097
  423MPD2    C1 6361   4.467   0.342   0.701 -0.0486  0.7780  0.2876
  423MPD2    C2 6362   4.394   0.267   0.611  0.0257  0.0767  0.3519
  423MPD2    C3 6363   4.411   0.277   0.469 -0.1456 -0.1303  0.4553
  423MPD2    C4 6364   4.507   0.362   0.420 -0.4730 -0.1070 -0.1894
  423MPD2    C5 6365   4.586   0.429   0.505 -0.0989  0.4375  0.6144
  423MPD2     H 6366   4.327   0.192   0.649  0.6261 -1.0908 -0.9039
  423MPD2    H1 6367   4.519   0.363   0.312  2.4776 -0.2982  0.1447
  423MPD2    H2 6368   4.624   0.489   0.706  1.8395 -0.3655 -0.3766
  423MPD2    H3 6369   4.654   0.497   0.455 -0.1924  0.0720 -0.0118
  423MPD2     N 6370   4.342   0.195   0.370  0.8482 -1.4442  0.1460
  423MPD2    H5 6371   4.360   0.201   0.271 -0.6028 -0.7331 -0.0723
  423MPD2    N1 6372   4.461   0.332   0.844  0.2333  0.5056 -0.2280
  423MPD2    H7 6373   4.529   0.393   0.889  0.5192  0.2728 -0.3390
  424TMC3    C1 6374   4.374   0.273   1.058 -0.6205  0.3457 -0.4964
  424TMC3    C2 6375   4.497   0.297   1.114 -0.4398  0.3701  0.1269
  424TMC3    C3 6376   4.512   0.306   1.252 -0.9682 -0.0292  0.1733
  424TMC3    C4 6377   4.265   0.256   1.129 -0.0463  0.0486 -0.0368
  424TMC3    C5 6378   4.281   0.267   1.268  0.0996  0.0231  0.0681
  424TMC3    C6 6379   4.399   0.300   1.331  0.2765 -0.0127  0.4362
  424TMC3     C 6380   4.364   0.263   0.911  0.0891  0.2045 -0.3630
  424TMC3     O 6381   4.255   0.225   0.866 -0.3976 -0.6348  0.2214
  424TMC3     H 6382   4.589   0.292   1.057 -1.0945 -0.3187 -0.8922
  424TMC3    H1 6383   4.174   0.231   1.075 -0.4927  2.0774 -0.2403
  424TMC3    H2 6384   4.410   0.308   1.438 -0.4857 -2.7633  0.7415
  424TMC3    C7 6385   4.165   0.283   1.351  0.5946  0.7742  0.4539
  424TMC3    C8 6386   4.633   0.252   1.302 -0.5374 -0.1250 -0.6826
  424TMC3    O1 6387   4.193   0.276   1.471 -0.0062 -0.2042  0.0141
  424TMC3    O2 6388   4.609   0.155   1.373  0.6456  0.4730  0.9281
  425MPD2     C 6389   3.240   4.281   0.057  0.0089 -0.2699 -0.0138
  425MPD2    C1 6390   3.159   4.171   0.078 -0.1163 -0.5170  0.0679
  425MPD2    C2 6391   3.035   4.191   0.135  0.3307  0.0332  0.4464
  425MPD2    C3 6392   2.994   4.320   0.155 -0.2113  0.7786  0.1880
  425MPD2    C4 6393   3.074   4.434   0.124 -1.1146 -0.0036 -0.2896
  425MPD2    C5 6394   3.202   4.413   0.076 -0.0935 -1.0034  0.0035
  425MPD2     H 6395   2.966   4.111   0.161 -0.2899 -0.3730 -2.4016
  425MPD2    H1 6396   3.042   4.534   0.149 -2.8317 -0.7711  0.5300
  425MPD2    H2 6397   3.339   4.272   0.014  0.6446 -0.3670  1.4728
  425MPD2    H3 6398   3.272   4.492   0.052 -1.0902  0.7848  2.9509
  425MPD2     N 6399   2.859   4.327   0.207  0.1672  0.4158  0.5670
  425MPD2    H5 6400   2.811   4.238   0.215  1.3489 -0.2573  0.1363
  425MPD2    N1 6401   3.205   4.041   0.061 -0.3012  0.1821  0.1618
  425MPD2    H7 6402   3.299   4.030   0.023  0.5074  1.5770  1.7732
  426TMC3    C1 6403   3.193   3.809   0.040 -0.3163 -0.4044  0.1866
  426TMC3    C2 6404   3.249   3.821  17.663  0.3104  0.6163 -0.6998
  426TMC3    C3 6405   3.314   3.710  17.610  0.2336  0.2445 -0.1809
  426TMC3    C4 6406   3.170   3.691   0.107  0.0979 -0.2391  0.6261
  426TMC3    C5 6407   3.230   3.582   0.050 -0.4482  0.3678 -0.1889
  426TMC3    C6 6408   3.296   3.587  17.674  0.5637  0.1346 -0.4132
  426TMC3     C 6409   3.151   3.928   0.108 -0.3696  0.3604  1.0821
  426TMC3     O 6410   3.073   3.917   0.198 -0.2433 -0.4710  0.5065
  426TMC3     H 6411   3.281   3.918  17.625  4.7934 -0.2247  0.9219
  426TMC3    H1 6412   3.148   3.701   0.212  0.8850  4.5141  0.3155
  426TMC3    H2 6413   3.352   3.502  17.637  0.5651 -0.6661  1.4148
  426TMC3    C7 6414   3.154   3.457   0.061  0.0380  0.2147  0.2151
  426TMC3    C8 6415   3.356   3.700  17.468  0.3463 -0.1593 -0.7268
  426TMC3    O1 6416   3.185   3.363  17.729  0.1800 -0.0146 -0.1376
  426TMC3    O2 6417   3.398   3.592  17.427 -0.0665 -0.4370 -0.0698
  427MPD2     C 6418   0.842   1.206  14.889 -0.0316 -0.2731 -0.7467
  427MPD2    C1 6419   0.929   1.272  14.977  0.5218  0.6710  0.4260
  427MPD2    C2 6420   0.923   1.413  14.980  0.4302  0.6075 -0.3095
  427MPD2    C3 6421   0.843   1.491  14.895  0.1129  0.2336 -0.1831
  427MPD2    C4 6422   0.757   1.424  14.810  0.5337 -0.0762  0.1884
  427MPD2    C5 6423   0.752   1.281  14.816 -0.3165  0.0199 -0.2015
  427MPD2     H 6424   0.996   1.455  15.048 -2.1978  4.1758  0.2765
  427MPD2    H1 6425   0.694   1.479  14.741 -0.0331  0.0586  0.8134
  427MPD2    H2 6426   0.847   1.098  14.894  0.6285 -0.2712 -1.3761
  427MPD2    H3 6427   0.687   1.223  14.751  0.7057  0.7318 -1.8732
  427MPD2     N 6428   0.845   1.634  14.898  0.5076 -0.0367  0.4743
  427MPD2    H5 6429   0.776   1.692  14.851  0.9484 -0.6829 -0.9411
  427MPD2    N1 6430   1.018   1.212  15.068 -0.2403  0.0011  0.2467
  427MPD2    H7 6431   1.077   1.277  15.119  0.4074  0.6225 -1.2998
  428TMC3    C1 6432   1.165   1.058  15.169  0.0136 -0.0152  0.2627
  428TMC3    C2 6433   1.178   0.927  15.204  0.6466  0.0070 -0.1431
  428TMC3    C3 6434   1.223   0.894  15.322  0.0644 -0.1648 -0.1587
  428TMC3    C4 6435   1.214   1.163  15.247 -0.7241 -0.3788  0.5125
  428TMC3    C5 6436   1.271   1.116  15.368 -0.1188 -0.6703  0.1306
  428TMC3    C6 6437   1.278   0.984  15.408  0.2893 -0.1949 -0.0250
  428TMC3     C 6438   1.053   1.076  15.071 -0.1528  0.0326 -0.2253
  428TMC3     O 6439   1.013   0.986  15.008 -0.1257 -0.0763  0.9121
  428TMC3     H 6440   1.140   0.845  15.145  1.3862  0.9084 -1.8544
  428TMC3    H1 6441   1.209   1.264  15.210  0.9953 -0.8559 -1.0452
  428TMC3    H2 6442   1.340   0.951  15.491 -0.2497 -0.2373  0.3624
  428TMC3    C7 6443   1.379   1.204  15.412  0.4636 -0.6899  0.0284
  428TMC3    C8 6444   1.255   0.758  15.344  0.4131 -0.2602  0.0778
  428TMC3    O1 6445   1.460   1.151  15.488  0.0224  0.4517 -0.1789
  428TMC3    O2 6446   1.311   0.690  15.254 -0.2543  0.0227  0.5148
  429MPD2     C 6447   2.810   1.943   0.241  0.0139  0.0923  0.3763
  429MPD2    C1 6448   2.910   1.892   0.161 -0.0096 -0.2906  0.9225
  429MPD2    C2 6449   2.988   1.984   0.087  0.0693 -0.6053  0.0050
  429MPD2    C3 6450   2.954   2.116   0.082  0.0342  0.1307 -0.2319
  429MPD2    C4 6451   2.854   2.160   0.171  0.7322  0.8908 -0.6003
  429MPD2    C5 6452   2.799   2.075   0.258  0.2130  0.6085  0.0727
  429MPD2     H 6453   3.060   1.946   0.015  0.2806 -0.5609  0.1938
  429MPD2    H1 6454   2.836   2.266   0.184  0.5188  0.5455  1.8812
  429MPD2    H2 6455   2.747   1.883   0.306  0.6554  0.8730  1.7282
  429MPD2    H3 6456   2.717   2.107   0.322 -0.7101  0.9183 -1.2847
  429MPD2     N 6457   3.009   2.192  17.720  0.2265  0.1329  0.1693
  429MPD2    H5 6458   3.088   2.146  17.677 -2.7674 -3.7134 -1.2079
  429MPD2    N1 6459   2.937   1.753   0.145  0.5957 -0.4261 -0.5490
  429MPD2    H7 6460   3.025   1.734   0.098 -0.1812  0.9048 -2.5577
  430TMC3    C1 6461   3.073   2.363  17.574  0.2269 -0.4997  0.0703
  430TMC3    C2 6462   3.042   2.479  17.507 -0.5597  0.6401  0.8004
  430TMC3    C3 6463   3.119   2.508  17.394 -0.2913 -0.0712 -0.7418
  430TMC3    C4 6464   3.173   2.277  17.533 -0.6685  0.3391 -0.1347
  430TMC3    C5 6465   3.245   2.308  17.423 -0.0055  0.5710 -0.1451
  430TMC3    C6 6466   3.230   2.432  17.367 -0.3421 -0.1475 -0.0638
  430TMC3     C 6467   2.977   2.321  17.677 -1.2046  0.1245 -0.9088
  430TMC3     O 6468   2.902   2.410  17.722 -0.0151  0.6024  0.3099
  430TMC3     H 6469   2.969   2.547  17.550  1.5392  2.4260  1.5405
  430TMC3    H1 6470   3.197   2.180  17.576  1.4466  0.1389 -1.7068
  430TMC3    H2 6471   3.295   2.456  17.284 -2.5887  0.4740 -1.6328
  430TMC3    C7 6472   3.258   2.194  17.330 -0.8418 -0.1900 -0.7002
  430TMC3    C8 6473   3.061   2.555  17.266 -0.2257  0.0809  0.4824
  430TMC3    O1 6474   3.287   2.085  17.369  0.2132  0.2435  0.3152
  430TMC3    O2 6475   3.128   2.538  17.166 -0.2714 -0.0793  0.0403
  431MPD2     C 6476   3.789   2.303  12.501 -0.4347  0.2365  0.4257
  431MPD2    C1 6477   3.885   2.306  12.400 -0.0066 -0.5133  0.2466
  431MPD2    C2 6478   3.871   2.229  12.284  0.2674 -0.3186 -0.2468
  431MPD2    C3 6479   3.746   2.161  12.270 -0.0278  0.1916  0.4821
  431MPD2    C4 6480   3.652   2.162  12.366 -0.2463 -0.3850 -0.1874
  431MPD2    C5 6481   3.678   2.227  12.480 -1.0312  0.5170 -0.5659
  431MPD2     H 6482   3.948   2.241  12.208  0.5053  2.0438  0.3805
  431MPD2    H1 6483   3.559   2.106  12.364 -0.4456 -0.0730  0.6657
  431MPD2    H2 6484   3.790   2.353  12.597  0.8100 -2.1040  1.6272
  431MPD2    H3 6485   3.606   2.228  12.560  1.3804  0.1835  1.6227
  431MPD2     N 6486   3.714   2.091  12.154  0.3043  0.1832 -0.1820
  431MPD2    H5 6487   3.619   2.055  12.155  0.7353 -1.0115 -1.8579
  431MPD2    N1 6488   4.009   2.379  12.422 -0.1481  0.6065 -0.4340
  431MPD2    H7 6489   4.081   2.376  12.350  1.4057 -0.3160  1.1723
  432TMC3    C1 6490   3.749   1.962  11.958  0.1499  0.2039  0.7768
  432TMC3    C2 6491   3.815   1.973  11.839  0.3583  0.1591 -0.4780
  432TMC3    C3 6492   3.834   1.856  11.769 -0.4763 -0.3592  0.1920
  432TMC3    C4 6493   3.711   1.834  12.007  0.1139 -0.4330 -0.1236
  432TMC3    C5 6494   3.743   1.719  11.930  1.0655 -0.6236 -0.0057
  432TMC3    C6 6495   3.809   1.731  11.809 -0.2022 -0.3172 -0.4439
  432TMC3     C 6496   3.798   2.069  12.047 -0.2019 -0.1967 -0.2043
  432TMC3     O 6497   3.903   2.121  12.014 -0.0005 -0.0824  0.5751
  432TMC3     H 6498   3.856   2.069  11.809  0.7957  0.2780  0.4923
  432TMC3    H1 6499   3.655   1.829  12.100 -0.1071  1.5066 -0.1388
  432TMC3    H2 6500   3.845   1.647  11.750  0.2984  0.9240 -1.9080
  432TMC3    C7 6501   3.787   1.604  12.004  0.3016  0.1100  0.0954
  432TMC3    C8 6502   3.928   1.868  11.658  0.1356  0.4944  0.5329
  432TMC3    O1 6503   3.869   1.531  11.953  0.1111 -0.1709 -0.3171
  432TMC3    O2 6504   3.920   1.800  11.559  0.0267  1.0842 -0.1343
  433MPD2     C 6505   2.525   0.368  10.542 -0.0102 -0.2195  0.1387
  433MPD2    C1 6506   2.533   0.260  10.628  0.5729 -0.8359  0.0116
  433MPD2    C2 6507   2.621   0.256  10.735  0.5015 -0.4920  0.1804
  433MPD2    C3 6508   2.697   0.366  10.772  0.8405 -0.3382  0.2736
  433MPD2    C4 6509   2.691   0.473  10.685 -0.0110 -0.5479  0.2596
  433MPD2    C5 6510   2.613   0.474  10.569  0.0737 -0.7145 -0.5036
  433MPD2     H 6511   2.624   0.170  10.801 -1.0001 -2.1118 -1.8817
  433MPD2    H1 6512   2.740   0.567  10.707  2.3515 -1.9550  0.9802
  433MPD2    H2 6513   2.454   0.374  10.460 -0.1890  0.6664  0.3556
  433MPD2    H3 6514   2.600   0.562  10.507 -1.0636 -1.0056 -0.6683
  433MPD2     N 6515   2.779   0.363  10.888 -0.5349 -0.5433 -0.0347
  433MPD2    H5 6516   2.824   0.449  10.918 -1.1753 -0.2150 -0.0059
  433MPD2    N1 6517   2.455   0.143  10.595  0.2110  0.5464 -0.2016
  433MPD2    H7 6518   2.411   0.149  10.504  0.9438  0.9775 -0.5341
  434TMC3    C1 6519   2.374   4.655  10.583  0.6771 -0.0735 -0.4455
  434TMC3    C2 6520   2.378   4.539  10.655  0.2037  0.2939 -0.0720
  434TMC3    C3 6521   2.400   4.418  10.594  0.5132  0.2024  0.2389
  434TMC3    C4 6522   2.397   4.655  10.447 -0.3879  0.0221 -0.2830
  434TMC3    C5 6523   2.399   4.531  10.390  0.2643 -0.1963  0.7429
  434TMC3    C6 6524   2.403   4.411  10.459 -0.4065 -0.3826  0.1369
  434TMC3     C 6525   2.436   0.025  10.661 -0.6614 -0.3174  0.1295
  434TMC3     O 6526   2.476   0.000  10.769  0.5270  0.5516  0.0733
  434TMC3     H 6527   2.359   4.548  10.761 -0.2274  1.1601 -0.2258
  434TMC3    H1 6528   2.402   0.013  10.393 -2.7240 -0.8872 -2.0615
  434TMC3    H2 6529   2.419   4.315  10.410  2.1392 -1.1673  2.4928
  434TMC3    C7 6530   2.338   4.528  10.263 -0.4373  0.1186 -0.3625
  434TMC3    C8 6531   2.450   4.318  10.680 -0.3514 -0.1318  0.5066
  434TMC3    O1 6532   2.342   4.421  10.204 -0.0983  0.7575  0.1171
  434TMC3    O2 6533   2.405   4.322  10.794  0.6979 -0.4930  0.0925
  435MPD2     C 6534   4.323   0.632  15.483  0.2747 -0.1390 -0.2999
  435MPD2    C1 6535   4.305   0.636  15.621  0.2185 -0.4806  0.6746
  435MPD2    C2 6536   4.405   0.589  15.702  0.0051  0.0873  0.0073
  435MPD2    C3 6537   4.526   0.556  15.646 -0.2495 -0.2957 -0.3856
  435MPD2    C4 6538   4.538   0.559  15.514  0.3868  0.3140 -0.1699
  435MPD2    C5 6539   4.441   0.608  15.434 -0.2278  1.2354  0.1628
  435MPD2     H 6540   4.391   0.586  15.809 -0.1546  3.2595  0.0964
  435MPD2    H1 6541   4.631   0.551  15.459  0.5330 -2.5383  0.5131
  435MPD2    H2 6542   4.245   0.661  15.413 -0.3962  0.8609  0.8647
  435MPD2    H3 6543   4.463   0.620  15.328  1.7856 -2.0748  0.2095
  435MPD2     N 6544   4.637   0.515  15.731  0.5388 -0.2244  0.0255
  435MPD2    H5 6545   4.611   0.519  15.829  0.6007 -0.1954  0.0408
  435MPD2    N1 6546   4.184   0.667  15.682  0.5404  0.3409  0.2903
  435MPD2    H7 6547   4.180   0.652  15.782 -2.6529 -3.6196 -0.4216
  436TMC3    C1 6548   3.830   0.598  15.866 -0.0011  0.6067  0.2363
  436TMC3    C2 6549   3.943   0.595  15.789  0.0145 -0.0097 -0.0768
  436TMC3    C3 6550   3.955   0.706  15.711 -0.6460  0.6816 -0.5685
  436TMC3    C4 6551   3.732   0.693  15.855 -0.8228 -0.1297 -0.0903
  436TMC3    C5 6552   3.747   0.797  15.770 -0.8315 -0.4349  0.7416
  436TMC3    C6 6553   3.864   0.813  15.706  0.3366 -0.1526  0.0045
  436TMC3     C 6554   3.816   0.490  15.967  0.5659 -0.9960 -0.0992
  436TMC3     O 6555   3.865   0.382  15.929  0.1947 -0.2250 -0.1594
  436TMC3     H 6556   4.016   0.515  15.793 -0.7464 -0.7349 -0.8104
  436TMC3    H1 6557   3.638   0.692  15.909 -1.7400 -0.3312 -1.6807
  436TMC3    H2 6558   3.880   0.897  15.640  1.6767  1.0970  1.9361
  436TMC3    C7 6559   3.654   0.906  15.783 -0.4990  0.0891 -0.1983
  436TMC3    C8 6560   4.069   0.712  15.628 -1.0297  0.0982 -0.7606
  436TMC3    O1 6561   3.591   0.914  15.889  0.6171 -0.6149  0.4031
  436TMC3    O2 6562   4.058   0.764  15.521 -0.2250  0.0125  1.0720
  437TMC3    C1 6563   3.479   2.622  12.526 -0.7165 -0.9115 -0.0538
  437TMC3    C2 6564   3.376   2.704  12.484  0.1959  0.5247 -0.1870
  437TMC3    C3 6565   3.408   2.812  12.399 -0.2196 -0.7752 -0.0668
  437TMC3    C4 6566   3.611   2.649  12.493 -0.7070  0.1026 -0.0958
  437TMC3    C5 6567   3.632   2.758  12.413 -0.1838 -0.0918  0.4589
  437TMC3    C6 6568   3.538   2.837  12.356  0.3335 -0.2140  0.1533
  437TMC3     C 6569   3.451   2.500  12.611 -0.2475  0.3438 -0.0622
  437TMC3     O 6570   3.551   2.450  12.670 -0.5375  0.2462 -0.4250
  437TMC3     H 6571   3.275   2.669  12.495  1.0616 -1.7854  0.4086
  437TMC3    H1 6572   3.701   2.595  12.521 -0.7700  0.8715  1.5409
  437TMC3    H2 6573   3.563   2.916  12.286 -1.6701 -0.9924 -1.4689
  437TMC3    C7 6574   3.751   2.751  12.336 -0.5174 -0.2078 -0.7130
  437TMC3    C8 6575   3.314   2.843  12.301 -0.3091 -0.0560 -0.0178
  437TMC3    O1 6576   3.746   2.716  12.219  0.1953 -0.2138 -0.5785
  437TMC3    O2 6577   3.365   2.876  12.191  0.2984  0.1422  0.0355
  438MPD2     C 6578   0.739   3.310  16.987  0.6431  0.2709  0.1313
  438MPD2    C1 6579   0.830   3.221  17.042  0.0822 -0.1627  0.3270
  438MPD2    C2 6580   0.797   3.170  17.168  0.0645  0.1712  0.1959
  438MPD2    C3 6581   0.691   3.216  17.236  0.4397  0.3493  0.4452
  438MPD2    C4 6582   0.613   3.318  17.187  0.5458 -0.0429  0.2868
  438MPD2    C5 6583   0.634   3.361  17.061 -0.1073  0.7396 -0.6181
  438MPD2     H 6584   0.873   3.112  17.219  1.2860  2.0085  0.4774
  438MPD2    H1 6585   0.532   3.359  17.246 -0.6233 -2.2657  0.2216
  438MPD2    H2 6586   0.746   3.351  16.887  1.6238  0.8348  0.4358
  438MPD2    H3 6587   0.564   3.433  17.019 -0.8803 -0.4193 -1.3000
  438MPD2     N 6588   0.651   3.171  17.366 -0.1066 -0.0575  0.3448
  438MPD2    H5 6589   0.568   3.218  17.401  0.7909  0.0758  2.2843
  438MPD2    N1 6590   0.931   3.160  16.964 -0.5746 -0.4096  0.6995
  438MPD2    H7 6591   0.970   3.076  17.006  1.2180 -0.4944 -1.1344
  439TMC3    C1 6592   1.042   3.087  16.763 -0.3357 -0.1702 -0.5012
  439TMC3    C2 6593   1.076   3.117  16.627  0.2546  0.2945  0.7287
  439TMC3    C3 6594   1.158   3.031  16.563  0.5339  0.4526  0.1120
  439TMC3    C4 6595   1.111   2.986  16.834 -0.1156  0.2467  0.4341
  439TMC3    C5 6596   1.205   2.916  16.761  0.1964 -0.1270 -0.4616
  439TMC3    C6 6597   1.224   2.934  16.627  0.1965 -0.8446  0.2177
  439TMC3     C 6598   0.943   3.173  16.825  0.6887  0.2514  0.6802
  439TMC3     O 6599   0.906   3.263  16.754  0.7166  0.4605  0.1617
  439TMC3     H 6600   1.013   3.187  16.573 -0.5501 -1.2419 -0.3419
  439TMC3    H1 6601   1.101   2.972  16.941  0.9046 -0.3724  0.4430
  439TMC3    H2 6602   1.311   2.893  16.576  1.3283  1.6566  0.1481
  439TMC3    C7 6603   1.291   2.831  16.830  0.0118  0.7443 -0.8431
  439TMC3    C8 6604   1.171   3.031  16.415  0.2757  0.6643 -0.4756
  439TMC3    O1 6605   1.318   2.864  16.946 -0.2538 -0.2176  0.1413
  439TMC3    O2 6606   1.204   2.920  16.368 -0.3284 -0.4390  0.1741
  440MPD2     C 6607   4.457   3.400  14.537  0.9513 -0.0438 -0.4281
  440MPD2    C1 6608   4.430   3.443  14.665  1.0799  0.2090  0.9519
  440MPD2    C2 6609   4.477   3.377  14.777 -0.6379 -0.0211 -0.2429
  440MPD2    C3 6610   4.561   3.271  14.763 -0.2112 -0.3111 -0.3188
  440MPD2    C4 6611   4.588   3.234  14.640 -0.5028  0.0087 -0.0602
  440MPD2    C5 6612   4.539   3.291  14.528 -0.2848 -0.0182  0.5594
  440MPD2     H 6613   4.449   3.417  14.874 -0.7438  0.2515 -0.3842
  440MPD2    H1 6614   4.649   3.148  14.617  0.2213  0.4591  0.1928
  440MPD2    H2 6615   4.434   3.465  14.454 -2.7998  0.8695  1.3486
  440MPD2    H3 6616   4.559   3.253  14.428  1.0124 -0.9287  1.1689
  440MPD2     N 6617   4.619   3.197  14.866  0.0118 -0.3385 -0.4214
  440MPD2    H5 6618   4.698   3.139  14.839 -1.1026 -1.8943 -0.3748
  440MPD2    N1 6619   4.368   3.565  14.694  0.0458  0.5606 -0.0024
  440MPD2    H7 6620   4.354   3.567  14.794 -0.3598 -1.7659 -0.0147
  441TMC3    C1 6621   4.695   3.163  15.083  0.1260 -0.0096  0.6638
  441TMC3    C2 6622   0.082   3.224  15.077 -0.0775 -0.0984 -0.3337
  441TMC3    C3 6623   0.157   3.224  15.193 -0.5516 -0.2506 -0.8193
  441TMC3    C4 6624   4.652   3.091  15.190 -0.2355 -0.1156 -0.3004
  441TMC3    C5 6625   0.002   3.075  15.293  0.4599  0.0397 -0.5442
  441TMC3    C6 6626   0.122   3.142  15.295  0.0671 -0.0039 -0.0822
  441TMC3     C 6627   4.593   3.217  15.002  0.3426  0.1810 -0.0263
  441TMC3     O 6628   4.491   3.262  15.056  0.1523 -0.1878  0.9978
  441TMC3     H 6629   0.108   3.289  14.994  0.1798  1.9350  1.3292
  441TMC3    H1 6630   4.551   3.054  15.192  0.3386 -1.7449 -1.1443
  441TMC3    H2 6631   0.185   3.142  15.383  0.7615 -0.0241 -0.5800
  441TMC3    C7 6632   4.704   2.999  15.410  0.0694  0.2115 -0.0128
  441TMC3    C8 6633   0.244   3.334  15.233  0.4158 -0.1253  0.0737
  441TMC3    O1 6634   0.036   3.011  15.509 -0.4157  0.0224 -0.1233
  441TMC3    O2 6635   0.326   3.310  15.319 -0.0605  0.0557 -0.5930
  442MPD2     C 6636   3.088   4.200  16.848  0.0178 -0.0184 -0.3372
  442MPD2    C1 6637   2.965   4.148  16.905  0.1652  0.7668 -0.3115
  442MPD2    C2 6638   2.899   4.038  16.846  0.8780 -0.1993 -0.2992
  442MPD2    C3 6639   2.958   3.971  16.739 -0.2607 -0.1248 -0.1621
  442MPD2    C4 6640   3.076   4.020  16.693 -0.2236 -0.3152  0.0776
  442MPD2    C5 6641   3.132   4.142  16.739  0.7275 -0.2122  0.7452
  442MPD2     H 6642   2.811   4.005  16.900  1.4171 -2.7075 -0.9332
  442MPD2    H1 6643   3.137   3.973  16.617  0.9892 -0.7838  1.3404
  442MPD2    H2 6644   3.155   4.267  16.902  1.7352 -2.5835  0.7094
  442MPD2    H3 6645   3.225   4.174  16.694 -1.0717  1.0639 -2.1008
  442MPD2     N 6646   2.914   3.840  16.682 -0.6225  0.5986  0.3325
  442MPD2    H5 6647   2.970   3.810  16.603 -1.0269 -1.4537  0.8274
  442MPD2    N1 6648   2.901   4.209  17.017 -0.4685 -0.2712  0.6531
  442MPD2    H7 6649   2.804   4.188  17.038 -0.5629  0.3110  0.8020
  443TMC3    C1 6650   2.877   4.374  17.185 -0.7988  0.0152  0.1359
  443TMC3    C2 6651   2.846   4.499  17.161  0.5221 -0.2860  0.2000
  443TMC3    C3 6652   2.724   4.542  17.200 -0.0060  0.0526 -0.3346
  443TMC3    C4 6653   2.797   4.291  17.258  0.3668 -0.6526 -0.3953
  443TMC3    C5 6654   2.679   4.341  17.303  0.1529  0.1085  0.0738
  443TMC3    C6 6655   2.637   4.467  17.278 -0.2119  0.4076 -0.3451
  443TMC3     C 6656   2.966   4.306  17.088 -0.0525  0.1704 -1.0006
  443TMC3     O 6657   3.073   4.370  17.074 -0.9246 -0.2919  0.2363
  443TMC3     H 6658   2.915   4.565  17.111  0.5661 -1.7045 -1.6100
  443TMC3    H1 6659   2.827   4.191  17.287 -0.0261 -0.9762 -1.1202
  443TMC3    H2 6660   2.534   4.500  17.292 -0.6130 -0.4504 -1.2515
  443TMC3    C7 6661   2.591   4.251  17.370  0.2321 -0.2002  0.7000
  443TMC3    C8 6662   2.649   4.621  17.105  0.1599  0.4230 -0.8266
  443TMC3    O1 6663   2.612   4.129  17.355  0.5163 -0.3170  0.4163
  443TMC3    O2 6664   2.691   4.730  17.068 -0.1183  0.3989 -1.2512
  444MPD2     C 6665   2.872   3.597  17.448  0.8280  0.3246  0.0157
  444MPD2    C1 6666   2.831   3.465  17.464  0.7204  1.0841 -0.2776
  444MPD2    C2 6667   2.907   3.366  17.402 -0.1928  0.3585  0.5331
  444MPD2    C3 6668   3.022   3.395  17.333  0.8206  0.2220  0.4579
  444MPD2    C4 6669   3.069   3.526  17.332 -0.1491 -0.3702 -0.3011
  444MPD2    C5 6670   2.989   3.623  17.381  0.3236  0.8598 -0.2300
  444MPD2     H 6671   2.892   3.262  17.430  1.6092 -0.3871 -1.2606
  444MPD2    H1 6672   3.169   3.548  17.297 -1.2209  1.7228 -2.0464
  444MPD2    H2 6673   2.807   3.680  17.473  1.6480  1.3560 -1.2542
  444MPD2    H3 6674   3.030   3.723  17.381  2.9936 -0.2358  1.7474
  444MPD2     N 6675   3.099   3.285  17.281  0.7605 -0.8164 -0.2347
  444MPD2    H5 6676   3.064   3.195  17.312 -0.6023 -0.0420  0.4760
  444MPD2    N1 6677   2.723   3.428  17.540  0.2121  0.7739 -0.1742
  444MPD2    H7 6678   2.681   3.337  17.525 -1.8546  1.6362  0.3505
  445TMC3    C1 6679   3.290   3.173  17.210 -0.4122  0.0218 -0.3371
  445TMC3    C2 6680   3.254   3.068  17.290 -0.9259 -0.1797 -0.3324
  445TMC3    C3 6681   3.341   2.957  17.290  0.1173  0.9194  0.1033
  445TMC3    C4 6682   3.405   3.170  17.142  1.1387 -0.3187  0.4934
  445TMC3    C5 6683   3.490   3.066  17.142  0.2327  0.6667 -0.5993
  445TMC3    C6 6684   3.459   2.956  17.217 -0.3915  0.6697 -0.1902
  445TMC3     C 6685   3.206   3.290  17.199  0.0347 -0.3767 -0.1934
  445TMC3     O 6686   3.252   3.377  17.127  0.4152 -0.2235  0.1627
  445TMC3     H 6687   3.162   3.063  17.348 -1.8347  1.4366 -1.6403
  445TMC3    H1 6688   3.422   3.242  17.062  1.1218  0.2320  0.9871
  445TMC3    H2 6689   3.511   2.863  17.197  0.7309  0.8011  2.1056
  445TMC3    C7 6690   3.588   3.057  17.040  0.1179  0.3849 -0.1576
  445TMC3    C8 6691   3.293   2.835  17.357 -0.2912 -0.2953  0.3077
  445TMC3    O1 6692   3.581   3.133  16.944  0.2398 -0.2004  0.1868
  445TMC3    O2 6693   3.178   2.833  17.389 -0.5783 -0.4994 -0.0868
  446MPD2     C 6694   2.227   4.247  11.293  0.3491  0.3460 -0.7844
  446MPD2    C1 6695   2.188   4.299  11.172  0.1984 -0.5832 -0.1686
  446MPD2    C2 6696   2.286   4.360  11.099  0.0590 -0.1043  0.5949
  446MPD2    C3 6697   2.421   4.352  11.134 -0.0137 -0.0793 -1.0328
  446MPD2    C4 6698   2.450   4.297  11.257  0.4022  0.2238  0.0642
  446MPD2    C5 6699   2.350   4.245  11.338 -0.0388 -0.4719  0.2613
  446MPD2     H 6700   2.269   4.400  11.000 -0.0911  0.0160  0.6716
  446MPD2    H1 6701   2.548   4.302  11.303 -0.3220  0.5390  1.5760
  446MPD2    H2 6702   2.154   4.198  11.357 -0.6524  1.1893 -1.2872
  446MPD2    H3 6703   2.364   4.196  11.434  0.5169  2.1936  1.5304
  446MPD2     N 6704   2.516   4.410  11.046  0.7632  0.3837 -0.8757
  446MPD2    H5 6705   2.476   4.432  10.955  1.7903  0.9204 -1.1951
  446MPD2    N1 6706   2.058   4.303  11.120  0.1000 -0.1291 -0.0106
  446MPD2    H7 6707   2.059   4.341  11.026 -3.8868 -0.2533 -0.1229
  447TMC3    C1 6708   2.733   4.467  10.970  0.1785  0.5125 -0.8641
  447TMC3    C2 6709   2.685   4.502  10.850  0.0424  0.1682  0.4322
  447TMC3    C3 6710   2.772   4.568  10.759 -0.4515 -0.2500  0.4906
  447TMC3    C4 6711   2.860   4.492  11.006 -0.3813 -0.5365 -0.3106
  447TMC3    C5 6712   2.942   4.556  10.919  0.2260 -0.0416 -0.3230
  447TMC3    C6 6713   2.902   4.599  10.792 -0.5882 -0.4727 -0.4529
  447TMC3     C 6714   2.646   4.424  11.078 -0.5016  0.1813 -0.0794
  447TMC3     O 6715   2.705   4.394  11.179  0.1150 -0.0907  0.3069
  447TMC3     H 6716   2.583   4.479  10.823  0.7067 -0.6236 -1.3749
  447TMC3    H1 6717   2.908   4.439  11.087 -0.4672 -0.3298 -0.1238
  447TMC3    H2 6718   2.972   4.642  10.722 -0.3360  2.2617  1.5107
  447TMC3    C7 6719   3.085   4.542  10.934 -0.3561  0.5943  0.2209
  447TMC3    C8 6720   2.744   4.583  10.620 -0.1724  0.6363  0.0041
  447TMC3    O1 6721   3.156   4.572  10.842  0.3326 -0.9728 -0.5994
  447TMC3    O2 6722   2.706   4.492  10.552  0.2301 -0.1478  0.5186
  448TMC3    C1 6723   0.434   4.487  17.494  0.1505  0.8305 -0.3246
  448TMC3    C2 6724   0.473   4.379  17.422 -0.6631  0.2215 -0.2506
  448TMC3    C3 6725   0.518   4.268  17.486  0.5085 -0.1511 -0.7140
  448TMC3    C4 6726   0.440   4.494  17.628  0.3400  0.2304  0.1162
  448TMC3    C5 6727   0.492   4.390  17.692 -0.1391 -0.0857  0.3190
  448TMC3    C6 6728   0.522   4.275  17.622 -0.0639  0.2567  0.4014
  448TMC3     C 6729   0.371   4.591  17.420  0.0145 -0.0430 -0.1840
  448TMC3     O 6730   0.415   4.622  17.308  0.4927 -0.0785  0.4206
  448TMC3     H 6731   0.479   4.388  17.314 -0.0589  0.0904 -0.2285
  448TMC3    H1 6732   0.435   4.588  17.682  3.0694  0.3683  0.1121
  448TMC3    H2 6733   0.583   4.198  17.668  1.2112  0.9319 -0.1570
  448TMC3    C7 6734   0.589   4.434   0.047  0.6129 -0.5602 -0.0202
  448TMC3    C8 6735   0.562   4.152  17.408  0.2949  1.2677  0.3013
  448TMC3    O1 6736   0.658   4.531   0.020 -0.3088 -0.2165  0.4928
  448TMC3    O2 6737   0.611   4.057  17.470 -0.1499 -0.2713  0.2057
  449MPD2     C 6738   2.463   2.877  14.146  0.3357  0.6736 -0.2986
  449MPD2    C1 6739   2.372   2.980  14.117 -0.0411  0.2717  0.6136
  449MPD2    C2 6740   2.240   2.967  14.145  0.9124 -0.6499 -0.5636
  449MPD2    C3 6741   2.196   2.841  14.177 -0.2708  0.2364 -0.2843
  449MPD2    C4 6742   2.281   2.735  14.201 -0.5197 -0.7134 -0.3291
  449MPD2    C5 6743   2.417   2.749  14.174  0.2534  0.6585 -0.2523
  449MPD2     H 6744   2.175   3.053  14.135  0.1719 -0.9538  1.8448
  449MPD2    H1 6745   2.235   2.638  14.219 -0.1992 -1.1339 -1.7849
  449MPD2    H2 6746   2.571   2.874  14.134  0.5178 -3.2674  2.2284
  449MPD2    H3 6747   2.492   2.672  14.183  0.7530  1.3707  1.6961
  449MPD2     N 6748   2.056   2.837  14.201 -0.4885  0.2403 -0.2819
  449MPD2    H5 6749   2.003   2.917  14.166 -1.2134 -0.9386 -1.8676
  449MPD2    N1 6750   2.419   3.108  14.089 -0.2909 -0.7872 -0.3251
  449MPD2    H7 6751   2.363   3.192  14.091  1.0279  0.1337 -1.6932
  450TMC3    C1 6752   2.563   3.285  14.032 -0.7127 -0.4371  0.5663
  450TMC3    C2 6753   2.586   3.325  13.900 -0.1115  0.3262 -0.0101
  450TMC3    C3 6754   2.507   3.422  13.852  0.0814  0.8288  0.7231
  450TMC3    C4 6755   2.469   3.349  14.110  0.1925 -0.2254 -0.1469
  450TMC3    C5 6756   2.399   3.454  14.053 -0.2757 -0.8264  0.2228
  450TMC3    C6 6757   2.416   3.492  13.921  0.0650  0.5438  0.4214
  450TMC3     C 6758   2.543   3.137  14.032  0.4781  0.4182  0.0228
  450TMC3     O 6759   2.639   3.063  14.002 -0.7315  0.6485 -0.3400
  450TMC3     H 6760   2.666   3.277  13.844  0.0794  0.7430 -0.0953
  450TMC3    H1 6761   2.445   3.321  14.212 -0.6716 -1.1050 -0.5854
  450TMC3    H2 6762   2.343   3.565  13.886 -1.7880 -1.0559  0.9089
  450TMC3    C7 6763   2.256   3.433  14.085 -0.5984  0.5496 -0.1571
  450TMC3    C8 6764   2.507   3.445  13.709  0.1306 -0.1777 -0.2025
  450TMC3    O1 6765   2.234   3.315  14.102  0.5426 -0.6952 -0.0947
  450TMC3    O2 6766   2.462   3.554  13.668 -0.5204 -0.1566 -0.1369
  451MPD2     C 6767   3.555   0.785   1.121 -0.2998  0.1321 -0.2075
  451MPD2    C1 6768   3.574   0.854   1.006  0.1384 -0.5945 -0.7099
  451MPD2    C2 6769   3.693   0.852   0.941  0.7713 -0.1808 -0.2063
  451MPD2    C3 6770   3.797   0.777   0.993 -0.1209 -0.0795 -0.5214
  451MPD2    C4 6771   3.785   0.711   1.117 -0.5503 -0.1552  0.1639
  451MPD2    C5 6772   3.660   0.715   1.175  0.8708 -0.7032 -0.0592
  451MPD2     H 6773   3.699   0.911   0.850 -1.9313  1.3823  0.5881
  451MPD2    H1 6774   3.865   0.651   1.158 -1.6573 -2.4778 -1.1056
  451MPD2    H2 6775   3.470   0.798   1.186  0.3251  0.3607  0.5660
  451MPD2    H3 6776   3.638   0.650   1.259 -1.5430 -0.7447 -0.7113
  451MPD2     N 6777   3.922   0.763   0.917 -0.9082  0.5513 -0.1095
  451MPD2    H5 6778   3.987   0.692   0.950 -2.5502 -2.1578 -2.7718
  451MPD2    N1 6779   3.459   0.932   0.965  0.2425  0.1922 -0.5996
  451MPD2    H7 6780   3.365   0.914   0.998 -0.0992 -0.5983 -2.0147
  452TMC3    C1 6781   4.073   0.776   0.749  0.2044 -0.7509  0.6491
  452TMC3    C2 6782   4.067   0.647   0.709 -0.4783 -0.1867  0.7677
  452TMC3    C3 6783   4.160   0.597   0.620  0.0574  0.8643 -0.0531
  452TMC3    C4 6784   4.177   0.852   0.716 -0.4216 -0.2486  0.5848
  452TMC3    C5 6785   4.282   0.791   0.655  0.2901  0.3193  0.1407
  452TMC3    C6 6786   4.279   0.662   0.609 -0.1702  0.1949 -0.0967
  452TMC3     C 6787   3.959   0.838   0.808  0.0994  0.0857 -0.4605
  452TMC3     O 6788   3.925   0.947   0.769 -0.4482  0.0568 -0.2875
  452TMC3     H 6789   3.988   0.579   0.739 -0.9349 -0.5279 -1.1761
  452TMC3    H1 6790   4.175   0.952   0.759  2.7293 -0.1390  0.4778
  452TMC3    H2 6791   4.369   0.620   0.564  0.0601  0.9194 -0.3021
  452TMC3    C7 6792   4.390   0.873   0.601  0.0742  0.3859 -0.3875
  452TMC3    C8 6793   4.119   0.510   0.512 -0.0993  0.6118 -0.5837
  452TMC3    O1 6794   4.493   0.821   0.556 -0.3771 -0.0711 -0.1940
  452TMC3    O2 6795   4.200   0.466   0.429 -0.0004 -0.5645 -0.8424
  453TMC3    C1 6796   4.628   4.060  12.128 -0.1438  0.2365  0.1791
  453TMC3    C2 6797   4.560   3.946  12.159 -0.2003  0.0471  0.6083
  453TMC3    C3 6798   4.444   3.923  12.088 -0.7843 -0.2637  0.0874
  453TMC3    C4 6799   4.585   4.156  12.035 -0.4451 -1.4471  0.2218
  453TMC3    C5 6800   4.468   4.130  11.967  0.0208  0.2390  0.3268
  453TMC3    C6 6801   4.395   4.012  11.990 -0.0634 -0.3110  1.0191
  453TMC3     C 6802   0.027   4.058  12.174 -0.3861  0.0345 -0.3719
  453TMC3     O 6803   0.088   4.152  12.129 -0.0162 -0.3250 -0.0931
  453TMC3     H 6804   4.579   3.899  12.255 -1.0483  1.0099  1.2468
  453TMC3    H1 6805   4.634   4.252  12.020 -0.3135 -1.5230  0.1603
  453TMC3    H2 6806   4.295   3.990  11.953 -0.4662  0.5034  1.6221
  453TMC3    C7 6807   4.414   4.225  11.873 -0.2527  0.4041 -0.1006
  453TMC3    C8 6808   4.366   3.814  12.139  0.3293  0.0088 -0.2727
  453TMC3    O1 6809   4.296   4.210  11.853 -0.4381 -0.2166 -0.0114
  453TMC3    O2 6810   4.246   3.803  12.108  0.4622 -0.0324 -0.1241
  454MPD2     C 6811   3.686   2.874  16.397 -0.2284  0.2109  0.6919
  454MPD2    C1 6812   3.605   2.982  16.358  0.7643  0.1271 -0.2203
  454MPD2    C2 6813   3.559   3.066  16.452 -0.6253 -1.2619  0.4348
  454MPD2    C3 6814   3.563   3.029  16.584  0.4714  0.1823  0.7377
  454MPD2    C4 6815   3.623   2.913  16.622 -0.4487  0.4054  0.6185
  454MPD2    C5 6816   3.697   2.851  16.535 -0.3797 -0.0119 -0.1833
  454MPD2     H 6817   3.498   3.149  16.419 -1.1562 -2.1865 -0.9132
  454MPD2    H1 6818   3.631   2.892  16.728 -1.5070  0.3738  0.6913
  454MPD2    H2 6819   3.737   2.805  16.331  3.3724  1.3188  2.3221
  454MPD2    H3 6820   3.757   2.767  16.568  1.8619  0.8451 -2.0334
  454MPD2     N 6821   3.504   3.105  16.678  0.0113  0.4751  0.1582
  454MPD2    H5 6822   3.519   3.061  16.768  0.5982 -0.6080 -0.4765
  454MPD2    N1 6823   3.561   3.004  16.222  0.2870 -0.4614 -0.2525
  454MPD2    H7 6824   3.513   3.092  16.205 -2.6357 -1.6564  1.7129
  455TMC3    C1 6825   3.352   3.260  16.761  0.2695 -0.3505  0.1508
  455TMC3    C2 6826   3.339   3.392  16.798  0.1454 -0.6045  0.0165
  455TMC3    C3 6827   3.211   3.434  16.802  0.8134 -0.6060 -0.1383
  455TMC3    C4 6828   3.244   3.179  16.743  0.3318  0.2753 -0.1682
  455TMC3    C5 6829   3.123   3.231  16.738 -0.3074  0.6683 -0.3641
  455TMC3    C6 6830   3.101   3.365  16.770  0.2045  0.0400  0.5920
  455TMC3     C 6831   3.459   3.236  16.666 -0.2877  0.4676 -0.4942
  455TMC3     O 6832   3.467   3.316  16.575  0.6908 -0.4699  0.0293
  455TMC3     H 6833   3.435   3.441  16.815 -0.1891  0.5492 -1.5073
  455TMC3    H1 6834   3.246   3.076  16.708  0.5066  1.0078 -2.2944
  455TMC3    H2 6835   3.018   3.432  16.749  1.0848  0.7611 -0.5361
  455TMC3    C7 6836   3.054   3.197  16.614  0.3468  0.2845  0.4943
  455TMC3    C8 6837   3.201   3.573  16.837  0.8231 -0.4243  0.3228
  455TMC3    O1 6838   3.119   3.173  16.517 -0.1847 -0.5672  0.2212
  455TMC3    O2 6839   3.104   3.635  16.800 -0.0483 -0.2824 -0.0261
  456MPD2     C 6840   1.352   3.420  16.462  0.2189 -0.0237 -0.3810
  456MPD2    C1 6841   1.402   3.336  16.559  0.3774 -0.4334  0.1854
  456MPD2    C2 6842   1.349   3.332  16.688  1.2018  0.3531  0.3498
  456MPD2    C3 6843   1.240   3.415  16.718  0.5402  1.0870 -0.0588
  456MPD2    C4 6844   1.185   3.501  16.620 -0.0870 -0.9006  0.2228
  456MPD2    C5 6845   1.251   3.511  16.496  0.2154 -0.3413 -0.4513
  456MPD2     H 6846   1.387   3.261  16.761  1.1589  0.8978  0.9041
  456MPD2    H1 6847   1.090   3.551  16.634  0.5442  0.4884 -0.3749
  456MPD2    H2 6848   1.381   3.409  16.358 -0.7153 -1.4242 -0.4882
  456MPD2    H3 6849   1.220   3.577  16.415 -0.1733 -1.2629 -1.0541
  456MPD2     N 6850   1.189   3.420  16.853  0.3941  0.0571 -0.4422
  456MPD2    H5 6851   1.228   3.355  16.920 -1.4732  0.9134  1.5105
  456MPD2    N1 6852   1.506   3.265  16.507  0.3414 -0.7383 -0.1374
  456MPD2    H7 6853   1.534   3.302  16.417  0.5512 -0.5575  0.0006
  457TMC3    C1 6854   1.027   3.509  17.023 -0.0008  0.6444  0.4788
  457TMC3    C2 6855   0.929   3.597  17.046 -0.4581 -0.2770  0.6184
  457TMC3    C3 6856   0.860   3.590  17.166 -0.5951 -0.4510  0.3555
  457TMC3    C4 6857   1.072   3.426  17.120  0.6191  0.0967  0.7522
  457TMC3    C5 6858   1.009   3.424  17.237 -0.1771 -0.6506 -0.2801
  457TMC3    C6 6859   0.904   3.509  17.266  0.3615  0.1878 -0.2069
  457TMC3     C 6860   1.100   3.523  16.894  0.8442  0.2062  0.0565
  457TMC3     O 6861   1.076   3.633  16.841 -0.0584 -0.0607  0.2563
  457TMC3     H 6862   0.904   3.668  16.969 -1.7894  1.2636  2.4541
  457TMC3    H1 6863   1.158   3.368  17.090 -2.4000 -3.9062 -0.1336
  457TMC3    H2 6864   0.867   3.513  17.368  0.5915  1.3112 -0.1569
  457TMC3    C7 6865   1.090   3.367  17.339  0.1959 -0.1462  0.2079
  457TMC3    C8 6866   0.754   3.683  17.201 -0.1072  0.6242  0.6105
  457TMC3    O1 6867   1.151   3.269  17.304 -0.1587 -0.5053 -0.3373
  457TMC3    O2 6868   0.718   3.699  17.318  0.4740 -0.0077 -0.0457
  458MPD2     C 6869   4.265   2.820  12.292  0.8909 -0.0649  0.3308
  458MPD2    C1 6870   4.228   2.849  12.421 -0.6198 -0.8071 -0.9680
  458MPD2    C2 6871   4.099   2.832  12.458 -0.7990  0.0766  0.2639
  458MPD2    C3 6872   3.998   2.805  12.369  0.6455  0.5572 -0.4419
  458MPD2    C4 6873   4.042   2.771  12.241 -0.6145  0.2512  0.7969
  458MPD2    C5 6874   4.173   2.782  12.198 -0.8972 -0.8062 -0.1218
  458MPD2     H 6875   4.065   2.852  12.559 -0.7959  1.1170  0.0584
  458MPD2    H1 6876   3.979   2.722  12.168 -2.2272  1.6002  1.2860
  458MPD2    H2 6877   4.367   2.831  12.256 -0.4505 -0.7998 -3.6692
  458MPD2    H3 6878   4.205   2.748  12.100  0.3926 -1.2328  0.4472
  458MPD2     N 6879   3.861   2.797  12.417  0.1597  0.7546 -0.2316
  458MPD2    H5 6880   3.837   2.804  12.516 -2.6673  0.8054 -0.9046
  458MPD2    N1 6881   4.330   2.884  12.512 -0.7454 -0.0025  0.4501
  458MPD2    H7 6882   4.425   2.886  12.475 -0.5877 -0.7857  0.8175
  459TMC3    C1 6883   4.446   2.948  12.713  0.2475 -0.3286  0.0321
  459TMC3    C2 6884   4.537   3.030  12.647  0.0913  0.3216 -0.0879
  459TMC3    C3 6885   4.629   3.091  12.723  1.0014  0.6869 -0.8990
  459TMC3    C4 6886   4.468   2.915  12.845 -0.5609  0.8120  0.5186
  459TMC3    C5 6887   4.566   2.968  12.915 -0.0209 -0.6811 -0.4309
  459TMC3    C6 6888   4.642   3.068  12.859  0.1778 -0.1451  0.7003
  459TMC3     C 6889   4.318   2.912  12.651 -0.0171 -0.8880 -0.6511
  459TMC3     O 6890   4.224   2.894  12.724  0.4802 -0.3618  0.1344
  459TMC3     H 6891   4.545   3.047  12.540 -0.2753  0.0593 -0.1563
  459TMC3    H1 6892   4.388   2.861  12.896 -0.3680 -0.9724 -1.0810
  459TMC3    H2 6893   4.719   3.119  12.915  0.3296  1.2527 -0.7782
  459TMC3    C7 6894   4.529   2.968  13.060 -0.8211 -0.4584  0.2489
  459TMC3    C8 6895   0.015   3.123  12.660  0.2061 -1.0565  0.2863
  459TMC3    O1 6896   4.512   2.857  13.105  0.3032 -0.1073  0.2630
  459TMC3    O2 6897   0.022   3.164  12.545  0.2844  0.3101 -0.5923
  460MPD2     C 6898   2.835   0.165  10.442  0.2311 -0.2245  0.0447
  460MPD2    C1 6899   2.782   0.038  10.461  0.2075  0.6976  0.5317
  460MPD2    C2 6900   2.742   4.712  10.344 -0.1325  0.0959  0.0130
  460MPD2    C3 6901   2.742   0.032  10.217 -0.2138 -0.0948 -0.2002
  460MPD2    C4 6902   2.787   0.164  10.205  0.6060 -0.0067  0.1709
  460MPD2    C5 6903   2.841   0.225  10.320  0.8549 -0.2670 -0.2628
  460MPD2     H 6904   2.708   4.610  10.355 -0.6422  0.2400 -0.2194
  460MPD2    H1 6905   2.802   0.207  10.106 -1.4964  1.3573  0.4389
  460MPD2    H2 6906   2.853   0.229  10.528 -3.1866  1.4006 -0.4195
  460MPD2    H3 6907   2.887   0.322  10.313  2.9088 -1.1263  1.2999
  460MPD2     N 6908   2.719   4.684  10.105  0.2962 -0.0558  1.0062
  460MPD2    H5 6909   2.717   4.587  10.134 -0.1875  0.1386  1.6301
  460MPD2    N1 6910   2.775   4.715  10.588 -0.0109 -0.2922 -0.0810
  460MPD2    H7 6911   2.792   0.039  10.668 -2.9256 -0.1526  0.4364
  461TMC3    C1 6912   2.675   4.617   9.883 -0.2734 -0.3567  0.4722
  461TMC3    C2 6913   2.767   4.513   9.879  0.1963  0.0805  0.2676
  461TMC3    C3 6914   2.765   4.433   9.771 -0.5683 -0.0940  0.2203
  461TMC3    C4 6915   2.591   4.645   9.783  0.1425 -0.4808 -0.2221
  461TMC3    C5 6916   2.594   4.557   9.680 -1.0100 -0.5330  0.4668
  461TMC3    C6 6917   2.677   4.454   9.663  0.5829  0.8878  0.3159
  461TMC3     C 6918   2.693   4.727   9.978  0.2616 -0.1361 -0.6451
  461TMC3     O 6919   2.675   0.109   9.939  0.7323  0.3615 -0.5006
  461TMC3     H 6920   2.843   4.505   9.956 -1.0090 -0.0784  1.4427
  461TMC3    H1 6921   2.508   4.714   9.786  1.0286  0.6226 -1.1690
  461TMC3    H2 6922   2.678   4.388   9.578 -0.4039  0.4888  0.6171
  461TMC3    C7 6923   2.529   4.607   9.566 -0.0237 -0.8215  0.5694
  461TMC3    C8 6924   2.851   4.312   9.781  0.1276  0.4075  0.3354
  461TMC3    O1 6925   2.410   4.647   9.578  0.1104  0.3479 -0.2753
  461TMC3    O2 6926   2.943   4.307   9.853  0.0681  0.4009  0.1020
  462TMC3    C1 6927   3.129   1.803   0.480 -0.0709  0.9819 -0.0726
  462TMC3    C2 6928   3.264   1.788   0.447 -0.4097  0.1330  0.0936
  462TMC3    C3 6929   3.314   1.666   0.444  0.0954 -1.0722  0.2924
  462TMC3    C4 6930   3.045   1.694   0.488 -0.3046  0.2437 -0.0645
  462TMC3    C5 6931   3.106   1.575   0.490 -0.2613 -0.5495  0.4424
  462TMC3    C6 6932   3.241   1.555   0.457  0.1663  0.4899 -0.4394
  462TMC3     C 6933   3.077   1.946   0.508 -0.1926  0.4107 -0.7049
  462TMC3     O 6934   2.987   1.957   0.593  0.2543  0.3090 -0.1297
  462TMC3     H 6935   3.336   1.866   0.426 -0.9596  1.1068  1.8816
  462TMC3    H1 6936   2.944   1.721   0.517 -0.3551 -1.0335  0.9531
  462TMC3    H2 6937   3.285   1.459   0.481 -1.0538 -0.3063 -1.3730
  462TMC3    C7 6938   3.036   1.454   0.481  0.4874 -0.8393  0.4008
  462TMC3    C8 6939   3.458   1.656   0.418 -0.1906 -0.3107 -0.0013
  462TMC3    O1 6940   3.104   1.352   0.473  0.0609 -0.5467  0.0694
  462TMC3    O2 6941   3.530   1.754   0.424  0.5593 -0.3621 -0.8132
  463MPD2     C 6942   0.591   3.335   1.442 -0.4305 -0.1158  0.6402
  463MPD2    C1 6943   0.578   3.465   1.399  0.2155 -0.3406 -0.8118
  463MPD2    C2 6944   0.694   3.541   1.385 -0.1614 -0.3380  0.6387
  463MPD2    C3 6945   0.815   3.475   1.398 -0.1378  0.7983  0.1022
  463MPD2    C4 6946   0.827   3.342   1.430  0.9041  0.3202 -0.2900
  463MPD2    C5 6947   0.713   3.274   1.455  0.1003  0.4413  0.7530
  463MPD2     H 6948   0.675   3.645   1.360 -3.4840 -1.2340 -0.6238
  463MPD2    H1 6949   0.921   3.290   1.445  0.9536  0.6345  0.4942
  463MPD2    H2 6950   0.508   3.268   1.462 -1.6783  1.0635 -0.6507
  463MPD2    H3 6951   0.724   3.173   1.492  0.7790  0.1877 -0.1479
  463MPD2     N 6952   0.943   3.541   1.396 -0.1256 -0.5175  0.5998
  463MPD2    H5 6953   1.025   3.485   1.414  1.0580  1.6177  1.8220
  463MPD2    N1 6954   0.446   3.525   1.382 -0.1990  0.5112  0.6269
  463MPD2    H7 6955   0.448   3.624   1.362 -1.4769  0.3829 -0.1519
  464TMC3    C1 6956   0.208   3.536   1.335 -0.3547 -0.2775 -0.1547
  464TMC3    C2 6957   0.193   3.661   1.383 -0.5125  0.4022 -0.5044
  464TMC3    C3 6958   0.062   3.701   1.390  0.2536 -0.2379 -0.7930
  464TMC3    C4 6959   0.099   3.459   1.304 -0.3614  0.4319  0.0467
  464TMC3    C5 6960   4.711   3.496   1.332 -0.1612  0.6142  0.1032
  464TMC3    C6 6961   4.686   3.624   1.367 -0.4855  1.0246 -0.1897
  464TMC3     C 6962   0.323   3.454   1.377  0.3199 -0.2927 -0.2094
  464TMC3     O 6963   0.310   3.336   1.354  0.1878 -0.6659  0.1083
  464TMC3     H 6964   0.276   3.717   1.425 -0.2115 -0.7364  0.4356
  464TMC3    H1 6965   0.106   3.354   1.279 -0.4784  0.1630  1.1073
  464TMC3    H2 6966   4.583   3.656   1.377 -1.6096 -2.8641  0.7423
  464TMC3    C7 6967   4.602   3.413   1.272 -0.4044  0.4858  0.1428
  464TMC3    C8 6968   0.029   3.838   1.433  0.5665 -1.1943  0.1987
  464TMC3    O1 6969   4.639   3.329   1.189  0.3871 -0.1285 -0.2657
  464TMC3    O2 6970   4.660   3.874   1.480 -0.4477 -0.6576  0.0904
  465MPD2     C 6971   0.315   3.473  17.292  0.5666 -0.5343  0.9426
  465MPD2    C1 6972   0.204   3.388  17.277 -0.3952 -0.2328  0.1567
  465MPD2    C2 6973   0.140   3.393  17.153  0.2388 -0.5515 -0.0256
  465MPD2    C3 6974   0.203   3.454  17.045 -0.5925  0.1765 -0.3674
  465MPD2    C4 6975   0.302   3.549  17.069  0.0590 -0.3134  0.1110
  465MPD2    C5 6976   0.359   3.555  17.191  0.1210 -0.9154  0.1916
  465MPD2     H 6977   0.050   3.335  17.137  0.2289 -0.2906 -0.8775
  465MPD2    H1 6978   0.334   3.612  16.986 -1.4618  1.3602  0.7855
  465MPD2    H2 6979   0.359   3.474  17.391 -0.0500  2.8080  1.1804
  465MPD2    H3 6980   0.433   3.630  17.216  1.8037 -2.7329  0.6514
  465MPD2     N 6981   0.141   3.433  16.924 -0.2894 -0.8186  0.0356
  465MPD2    H5 6982   0.052   3.384  16.922 -0.8754  0.2409 -0.0824
  465MPD2    N1 6983   0.155   3.305  17.382  0.3483 -0.1567  1.1584
  465MPD2    H7 6984   0.063   3.265  17.369 -0.0105  0.9925  0.0389
  466TMC3    C1 6985   4.663   3.290  16.600 -0.0441 -0.0361  0.1309
  466TMC3    C2 6986   4.643   3.386  16.505  0.3831 -0.0493 -0.1128
  466TMC3    C3 6987   4.722   3.498  16.500  0.4417  0.1120  0.8669
  466TMC3    C4 6988   0.029   3.316  16.697 -0.3273  0.4635  0.6642
  466TMC3    C5 6989   0.110   3.432  16.693 -0.4267 -0.0369  0.1011
  466TMC3    C6 6990   0.090   3.523  16.596 -0.0972  0.0576  0.1762
  466TMC3     C 6991   4.546   3.226  16.669  0.1464  0.2175 -0.3535
  466TMC3     O 6992   4.558   3.203  16.787 -0.2648  0.7527 -0.0344
  466TMC3     H 6993   4.554   3.382  16.443 -0.3372 -0.1876  0.9372
  466TMC3    H1 6994   0.047   3.237  16.769 -0.5226 -0.7110 -0.5627
  466TMC3    H2 6995   0.157   3.608  16.586  0.6086 -0.4705  0.4235
  466TMC3    C7 6996   0.189   3.478  16.803 -0.3494  0.1365 -0.3984
  466TMC3    C8 6997   4.652   3.610  16.436  0.5985  1.0679  0.5560
  466TMC3    O1 6998   0.291   3.537  16.774 -0.2272 -0.1370 -0.1564
  466TMC3    O2 6999   4.595   3.588  16.330  0.1533 -0.3566 -0.3770
  467TMC3    C1 7000   1.206   2.385  13.562 -0.4357 -0.1080 -0.2224
  467TMC3    C2 7001   1.283   2.476  13.497 -0.4854 -0.0271 -0.1554
  467TMC3    C3 7002   1.227   2.599  13.483  0.0147  0.8243 -0.1733
  467TMC3    C4 7003   1.076   2.416  13.600 -0.0735 -0.1177 -0.1864
  467TMC3    C5 7004   1.023   2.537  13.562 -0.5412 -0.6928 -0.3798
  467TMC3    C6 7005   1.100   2.635  13.512  0.0351  0.2834 -0.0556
  467TMC3     C 7006   1.292   2.292  13.633 -0.3714 -0.1145 -0.3067
  467TMC3     O 7007   1.381   2.237  13.561  0.1217  0.0707 -0.1711
  467TMC3     H 7008   1.387   2.453  13.478 -1.1221 -1.8132 -1.5239
  467TMC3    H1 7009   1.008   2.348  13.649 -2.4848  2.1751 -0.3179
  467TMC3    H2 7010   1.065   2.736  13.493 -1.2499 -0.5973 -2.4435
  467TMC3    C7 7011   0.882   2.557  13.554  0.1407 -0.5290  0.5434
  467TMC3    C8 7012   1.323   2.710  13.468 -0.0691 -0.5364 -0.3826
  467TMC3    O1 7013   0.845   2.627  13.460  0.2547 -0.0971 -0.2941
  467TMC3    O2 7014   1.278   2.820  13.456 -0.0988 -0.0825 -0.1642
  468MPD2     C 7015   4.213   0.886  10.824  0.0426  0.0866  0.1602
  468MPD2    C1 7016   4.350   0.879  10.826  0.0312 -0.4220  0.6047
  468MPD2    C2 7017   4.406   0.748  10.812 -0.3489 -0.1263 -0.4774
  468MPD2    C3 7018   4.324   0.634  10.813 -0.0963 -0.2061  0.4622
  468MPD2    C4 7019   4.186   0.644  10.815  0.7866 -0.0257 -0.0976
  468MPD2    C5 7020   4.140   0.769  10.802 -0.6270  0.2721  0.4341
  468MPD2     H 7021   4.513   0.732  10.806 -0.5504 -1.4310 -0.5442
  468MPD2    H1 7022   4.120   0.559  10.810 -2.1709  2.3454 -0.9454
  468MPD2    H2 7023   4.166   0.983  10.832 -2.4991 -1.0945 -0.3174
  468MPD2    H3 7024   4.032   0.775  10.793 -0.4355  3.6306  0.2280
  468MPD2     N 7025   4.376   0.501  10.827  0.8979  0.7594 -0.0146
  468MPD2    H5 7026   4.309   0.425  10.825  0.2099  1.3203  1.5942
  468MPD2    N1 7027   4.447   0.977  10.850  0.5591 -0.0186  0.0503
  468MPD2    H7 7028   4.541   0.939  10.844  1.2108  1.6361 -0.2007
  469TMC3    C1 7029   4.524   1.177  10.937 -0.2669  0.1761 -0.5158
  469TMC3    C2 7030   4.652   1.129  10.924  0.5264  0.8513  0.6203
  469TMC3    C3 7031   0.021   1.198  10.985  1.2569 -0.1271 -0.0420
  469TMC3    C4 7032   4.492   1.278  11.015 -0.2230  0.7179  0.5973
  469TMC3    C5 7033   4.597   1.343  11.081  0.2262  0.7541 -0.0893
  469TMC3    C6 7034   4.730   1.308  11.069 -0.8336  0.1931 -0.3663
  469TMC3     C 7035   4.414   1.103  10.875  0.5498 -0.2934 -0.2482
  469TMC3     O 7036   4.303   1.154  10.874 -0.2746  0.1738  0.4244
  469TMC3     H 7037   4.679   1.067  10.839 -0.1224 -0.0260  1.0537
  469TMC3    H1 7038   4.389   1.312  11.018  0.0217  1.4783  0.2658
  469TMC3    H2 7039   0.080   1.362  11.106 -2.1884  1.7057  0.5980
  469TMC3    C7 7040   4.555   1.442  11.179 -0.4642 -0.0229  0.5670
  469TMC3    C8 7041   0.153   1.147  10.968 -0.4181  0.1658 -0.5519
  469TMC3    O1 7042   4.437   1.483  11.170  0.4316 -0.4877 -0.1342
  469TMC3    O2 7043   0.180   1.098  10.861  0.1036  0.2638 -0.1808
  470TMC3    C1 7044   2.187   0.744   0.183  0.1575 -0.2540 -1.0192
  470TMC3    C2 7045   2.186   0.874   0.222  0.6542  0.6748 -0.4271
  470TMC3    C3 7046   2.230   0.903   0.353  0.7360 -0.1517 -0.0845
  470TMC3    C4 7047   2.245   0.648   0.257 -0.7855 -0.1377 -0.4384
  470TMC3    C5 7048   2.289   0.679   0.388 -0.7409 -0.1890  0.1532
  470TMC3    C6 7049   2.279   0.804   0.440 -0.1215 -0.4195  1.3638
  470TMC3     C 7050   2.101   0.703   0.077  0.2639  0.0255 -0.2621
  470TMC3     O 7051   2.073   0.784  17.732 -0.6662  0.5901 -0.3441
  470TMC3     H 7052   2.132   0.942   0.157 -3.2859  0.1527  2.3260
  470TMC3    H1 7053   2.252   0.544   0.227 -0.3227 -0.4572  0.8167
  470TMC3    H2 7054   2.335   0.835   0.527 -0.0931 -0.3518  1.3220
  470TMC3    C7 7055   2.401   0.604   0.444 -0.1453 -0.3034 -0.1645
  470TMC3    C8 7056   2.222   1.041   0.407 -0.4101 -0.3531 -0.4526
  470TMC3    O1 7057   2.442   0.530   0.358  0.4293 -0.5814  0.0769
  470TMC3    O2 7058   2.296   1.070   0.499  0.3567  0.4843 -0.5124
  471MPD2     C 7059   2.692   2.742  16.964  1.1932 -0.0473  0.4344
  471MPD2    C1 7060   2.796   2.654  16.938  1.1950 -0.3120 -0.2513
  471MPD2    C2 7061   2.884   2.625  17.042  0.8202  0.4782 -0.2995
  471MPD2    C3 7062   2.861   2.662  17.172 -0.4091 -0.2377 -0.4486
  471MPD2    C4 7063   2.748   2.734  17.195 -1.2626 -0.0625 -0.0112
  471MPD2    C5 7064   2.662   2.774  17.090  0.6088  0.1342  0.0905
  471MPD2     H 7065   2.967   2.559  17.021  0.7151  0.5547 -0.9819
  471MPD2    H1 7066   2.737   2.779  17.292  2.1730  0.7738  0.0180
  471MPD2    H2 7067   2.625   2.773  16.886  2.2010  0.0323 -0.4024
  471MPD2    H3 7068   2.562   2.812  17.110  0.2160 -0.6679 -0.3517
  471MPD2     N 7069   2.945   2.619  17.282  0.0743  0.2273 -0.1669
  471MPD2    H5 7070   2.928   2.653  17.376  0.4097  0.6910 -0.2745
  471MPD2    N1 7071   2.827   2.593  16.814 -0.1636  0.4366 -0.6347
  471MPD2    H7 7072   2.914   2.543  16.798 -1.1558 -1.4870  0.0022
  472TMC3    C1 7073   2.802   2.507  16.600  0.3080 -0.5006  1.4313
  472TMC3    C2 7074   2.747   2.519  16.481 -0.0624  0.8005 -0.3817
  472TMC3    C3 7075   2.799   2.457  16.378  0.0618 -0.1274 -0.0544
  472TMC3    C4 7076   2.897   2.414  16.640  0.3232 -0.3539 -0.1577
  472TMC3    C5 7077   2.928   2.330  16.539  0.1996  0.9422 -0.0112
  472TMC3    C6 7078   2.893   2.361  16.414 -0.2090 -0.1219  0.7861
  472TMC3     C 7079   2.754   2.606  16.699  0.2355 -0.3351 -0.2234
  472TMC3     O 7080   2.648   2.664  16.685  0.5044  0.4205  0.1758
  472TMC3     H 7081   2.675   2.599  16.467 -1.0265 -0.7125 -3.9799
  472TMC3    H1 7082   2.903   2.376  16.741 -0.7897  1.9960  0.7885
  472TMC3    H2 7083   2.924   2.306  16.326 -1.2901  1.2353 -0.4456
  472TMC3    C7 7084   2.917   2.189  16.575  0.1884 -0.7106 -0.1968
  472TMC3    C8 7085   2.713   2.394  16.284  0.4403  0.1651 -0.6727
  472TMC3    O1 7086   2.963   2.148  16.678  0.0157 -0.2702  0.0544
  472TMC3    O2 7087   2.770   2.342  16.190  0.0739 -0.2532 -0.3260
  473MPD2     C 7088   2.644   4.133  14.039  0.9057 -1.0003  0.1082
  473MPD2    C1 7089   2.539   4.200  13.988 -0.2313 -0.0734 -0.2153
  473MPD2    C2 7090   2.515   4.333  14.032 -0.1371  0.0175  0.1687
  473MPD2    C3 7091   2.596   4.388  14.131 -0.0507 -1.3771 -0.6574
  473MPD2    C4 7092   2.703   4.313  14.188 -0.1953  0.1201  0.1132
  473MPD2    C5 7093   2.732   4.186  14.136  0.3538  1.1174  0.0185
  473MPD2     H 7094   2.428   4.382  13.991  0.9601  1.0619 -0.8984
  473MPD2    H1 7095   2.773   4.357  14.259  0.5574 -0.6608 -0.1454
  473MPD2    H2 7096   2.662   4.027  14.021 -2.2728 -1.2454 -1.6007
  473MPD2    H3 7097   2.822   4.136  14.167 -0.0971  1.4132  1.8280
  473MPD2     N 7098   2.570   4.518  14.192 -0.4965  0.0074  0.2230
  473MPD2    H5 7099   2.638   4.537  14.265 -0.6768  2.1305 -0.1599
  473MPD2    N1 7100   2.455   4.145  13.887  0.3083  0.7425 -0.1342
  473MPD2    H7 7101   2.382   4.206  13.851 -3.0083 -2.0178  1.9950
  474TMC3    C1 7102   2.459   4.717  14.254  0.0559  0.3542  0.3798
  474TMC3    C2 7103   2.371   0.078  14.229 -1.0096  0.4270  0.1778
  474TMC3    C3 7104   2.345   0.178  14.317  0.5823  0.3819  0.1599
  474TMC3    C4 7105   2.527   4.712  14.366  0.4613  0.1467 -0.3247
  474TMC3    C5 7106   2.493   0.071  14.457 -0.2729  0.4160  0.4167
  474TMC3    C6 7107   2.403   0.175  14.439 -0.2269 -0.3552 -0.5837
  474TMC3     C 7108   2.476   4.614  14.151  0.3173  0.0027 -0.5745
  474TMC3     O 7109   2.415   4.635  14.046  0.0541  0.7227  0.3632
  474TMC3     H 7110   2.314   0.071  14.137 -0.2006 -1.8975 -0.1417
  474TMC3    H1 7111   2.583   4.625  14.398  0.9251  0.5081 -0.1610
  474TMC3    H2 7112   2.380   0.247  14.517  1.8138  2.3726 -2.4710
  474TMC3    C7 7113   2.518   0.026  14.594  0.3471  0.3516  0.0374
  474TMC3    C8 7114   2.221   0.253  14.290 -0.1440 -0.0658  0.4615
  474TMC3    O1 7115   2.530   4.640  14.604 -0.2361 -0.1438  0.0119
  474TMC3    O2 7116   2.145   0.207  14.211 -0.2868 -0.3110  0.3590
  475MPD2     C 7117   1.067   2.763  10.860  0.2822  0.0865 -0.5510
  475MPD2    C1 7118   1.032   2.832  10.978  0.6338  0.6435 -0.2758
  475MPD2    C2 7119   0.942   2.939  10.968 -0.3899 -0.9684  0.3434
  475MPD2    C3 7120   0.901   2.990  10.842  0.7357  0.0372  0.4325
  475MPD2    C4 7121   0.959   2.934  10.729 -0.4463 -0.1487 -0.2491
  475MPD2    C5 7122   1.039   2.827  10.736 -0.1361  0.6241 -0.0979
  475MPD2     H 7123   0.891   2.986  11.052  0.4926 -0.3670  0.5453
  475MPD2    H1 7124   0.928   2.968  10.632  0.0902  0.2430 -0.2854
  475MPD2    H2 7125   1.129   2.674  10.863 -0.7800 -0.7201 -2.4372
  475MPD2    H3 7126   1.072   2.774  10.647 -1.5360 -0.1022 -0.1788
  475MPD2     N 7127   0.794   3.089  10.831 -0.2719 -0.1982  0.2387
  475MPD2    H5 7128   0.747   3.116  10.917 -1.6812  0.0264 -0.6107
  475MPD2    N1 7129   1.075   2.791  11.106  0.5819 -0.6057 -0.6418
  475MPD2    H7 7130   1.025   2.832  11.184 -0.1862 -2.5011 -0.1444
  476TMC3    C1 7131   1.247   2.733  11.263 -0.5386 -0.0547  0.2848
  476TMC3    C2 7132   1.372   2.783  11.251  0.7827 -0.0454  0.6337
  476TMC3    C3 7133   1.415   2.893  11.322 -0.0789 -0.3346 -0.3254
  476TMC3    C4 7134   1.171   2.784  11.358  0.8865  0.0417 -0.5565
  476TMC3    C5 7135   1.216   2.882  11.439 -0.4613 -0.1675 -0.8186
  476TMC3    C6 7136   1.340   2.942  11.426  0.2010 -1.1226  0.3309
  476TMC3     C 7137   1.187   2.711  11.132 -0.6700  0.2398 -0.0903
  476TMC3     O 7138   1.257   2.642  11.058 -0.1534  0.0060  0.1232
  476TMC3     H 7139   1.419   2.751  11.158  2.1439  1.9380  0.6412
  476TMC3    H1 7140   1.075   2.738  11.379  1.3619 -0.9927 -0.6850
  476TMC3    H2 7141   1.361   3.023  11.494 -0.4633  0.0820 -0.8978
  476TMC3    C7 7142   1.110   2.961  11.508  0.4212 -0.0743  0.0520
  476TMC3    C8 7143   1.433   3.010  11.236  0.1049 -0.4924 -0.7282
  476TMC3    O1 7144   1.040   2.900  11.589  0.1035  0.1099 -0.2693
  476TMC3    O2 7145   1.461   3.115  11.293 -0.4103  0.1166  0.0128
  477MPD2     C 7146   3.131   3.532  11.471 -0.0554  0.8148  0.1320
  477MPD2    C1 7147   3.052   3.618  11.545 -0.1468  0.0854  0.2843
  477MPD2    C2 7148   3.088   3.652  11.677 -0.8026  0.3465  0.6625
  477MPD2    C3 7149   3.207   3.607  11.734 -0.2596 -0.4549 -0.2997
  477MPD2    C4 7150   3.287   3.517  11.656 -0.5456 -0.4392 -0.2406
  477MPD2    C5 7151   3.251   3.481  11.523 -0.2592  0.0856 -0.1308
  477MPD2     H 7152   3.026   3.716  11.738 -1.8466 -1.2737  1.3150
  477MPD2    H1 7153   3.380   3.479  11.697 -1.8504  0.3623  3.4206
  477MPD2    H2 7154   3.094   3.512  11.371  1.1588  0.6812 -0.2825
  477MPD2    H3 7155   3.312   3.410  11.468  1.2369  1.7215 -0.5493
  477MPD2     N 7156   3.233   3.661  11.861 -0.0321  1.0668  0.0094
  477MPD2    H5 7157   3.158   3.721  11.894 -0.5883  1.2895 -1.7037
  477MPD2    N1 7158   2.937   3.669  11.473 -0.2458 -0.4262  0.1049
  477MPD2    H7 7159   2.927   3.626  11.382 -0.6670 -4.0863  1.8772
  478TMC3    C1 7160   2.766   3.835  11.420 -0.5601 -0.4271 -0.3858
  478TMC3    C2 7161   2.690   3.939  11.474 -0.0718 -0.1730 -0.0034
  478TMC3    C3 7162   2.669   4.055  11.414 -0.4609  0.3084  0.1863
  478TMC3    C4 7163   2.826   3.858  11.301  0.8374  0.2003 -0.1696
  478TMC3    C5 7164   2.800   3.982  11.241 -0.4243  0.5836  1.0780
  478TMC3    C6 7165   2.724   4.081  11.293  0.1143  0.4960 -0.0166
  478TMC3     C 7166   2.855   3.771  11.518  0.5872 -0.7578 -0.0174
  478TMC3     O 7167   2.849   3.826  11.625  0.2017  0.3362 -0.2309
  478TMC3     H 7168   2.661   3.928  11.578  1.0215  2.4180  0.5536
  478TMC3    H1 7169   2.899   3.789  11.260  1.3460  0.7079 -0.1110
  478TMC3    H2 7170   2.726   4.177  11.243  2.5882  0.3772 -0.1503
  478TMC3    C7 7171   2.837   3.997  11.109 -0.4712  0.3057 -0.5060
  478TMC3    C8 7172   2.681   4.163  11.514 -0.2080  0.1840 -0.5340
  478TMC3    O1 7173   2.926   3.927  11.063  0.4613  0.0375  0.5124
  478TMC3    O2 7174   2.636   4.145  11.629 -0.5269  0.0450 -0.0591
  479MPD2     C 7175   1.403   1.565  15.406 -0.3392  0.7176 -0.0776
  479MPD2    C1 7176   1.459   1.438  15.414  0.1267  0.3148 -0.9199
  479MPD2    C2 7177   1.584   1.424  15.471  0.2528 -0.2292  0.1965
  479MPD2    C3 7178   1.652   1.536  15.528 -0.4618 -0.8739  0.4393
  479MPD2    C4 7179   1.593   1.664  15.516  0.1993 -0.1625 -0.3294
  479MPD2    C5 7180   1.469   1.677  15.460 -0.0497 -0.1621 -0.0194
  479MPD2     H 7181   1.628   1.329  15.497  0.3016 -1.2389 -3.6037
  479MPD2    H1 7182   1.636   1.756  15.556 -2.3946  0.2136  1.6387
  479MPD2    H2 7183   1.298   1.575  15.384 -0.4395  0.4578  0.2798
  479MPD2    H3 7184   1.414   1.770  15.451 -0.3551 -0.1079  2.2710
  479MPD2     N 7185   1.782   1.538  15.578 -0.6575 -0.2695 -0.8043
  479MPD2    H5 7186   1.817   1.630  15.606 -2.2356 -0.5531  2.0468
  479MPD2    N1 7187   1.374   1.335  15.368 -0.0797 -0.2223 -0.3556
  479MPD2    H7 7188   1.286   1.362  15.326 -0.3315  1.0614  0.9915
  480TMC3    C1 7189   2.184   1.467  15.761 -0.0594 -0.1403 -0.6627
  480TMC3    C2 7190   2.229   1.584  15.719 -0.2401  0.1345 -0.0552
  480TMC3    C3 7191   2.167   1.642  15.609 -0.0204 -0.3117 -0.1604
  480TMC3    C4 7192   2.074   1.406  15.708  0.4699 -0.1150 -0.0445
  480TMC3    C5 7193   2.001   1.485  15.621 -0.1728 -0.5286  0.4637
  480TMC3    C6 7194   2.045   1.601  15.567  0.5409  0.8768 -0.6173
  480TMC3     C 7195   2.220   1.420  15.893  0.2175 -0.4964 -0.0142
  480TMC3     O 7196   2.194   1.301  15.915  0.0601 -0.6187 -0.5747
  480TMC3     H 7197   2.315   1.637  15.757 -0.1193  0.1966 -0.4187
  480TMC3    H1 7198   2.036   1.310  15.742  0.7074  0.0329  0.6402
  480TMC3    H2 7199   1.995   1.652  15.486  0.2401  3.0231  0.9314
  480TMC3    C7 7200   1.871   1.435  15.578  0.2039  0.3777 -0.4173
  480TMC3    C8 7201   2.246   1.710  15.521 -0.0072  0.0316 -0.4704
  480TMC3    O1 7202   1.850   1.312  15.576 -0.0952 -0.2455  0.1864
  480TMC3    O2 7203   2.348   1.762  15.567 -0.4346 -0.2374  0.2024
  481MPD2     C 7204   4.069   1.647  14.426 -0.1390  0.3786  0.0962
  481MPD2    C1 7205   3.975   1.540  14.417 -0.3481 -0.0345  0.1397
  481MPD2    C2 7206   3.949   1.460  14.525 -0.2640  0.2002  0.4621
  481MPD2    C3 7207   4.011   1.484  14.646  0.4268 -0.1652  0.0680
  481MPD2    C4 7208   4.089   1.594  14.661 -0.0103 -0.4550  0.2479
  481MPD2    C5 7209   4.123   1.667  14.550 -0.7839 -0.5741  0.0106
  481MPD2     H 7210   3.901   1.366  14.498 -0.3635  0.6429 -0.8503
  481MPD2    H1 7211   4.145   1.624  14.749 -0.0124  0.3160 -0.0147
  481MPD2    H2 7212   4.098   1.717  14.348  0.6600  0.1484  0.1872
  481MPD2    H3 7213   4.205   1.737  14.555  0.6274 -2.2443  0.1691
  481MPD2     N 7214   3.975   1.414  14.764 -0.3039  0.1432 -0.7904
  481MPD2    H5 7215   4.007   1.455  14.851 -2.5230  2.2719 -0.9791
  481MPD2    N1 7216   3.896   1.537  14.299 -0.1424  0.3140 -0.4756
  481MPD2    H7 7217   3.897   1.616  14.235 -0.1791 -0.7145 -1.7385
  482TMC3    C1 7218   3.750   1.452  14.146 -0.1551 -0.2763 -1.5443
  482TMC3    C2 7219   3.626   1.398  14.125  0.4651 -0.0320  0.1423
  482TMC3    C3 7220   3.585   1.356  14.003  0.1233 -0.6761  0.0439
  482TMC3    C4 7221   3.842   1.456  14.046 -0.2039  0.6572 -0.2763
  482TMC3    C5 7222   3.799   1.419  13.920  0.0891  0.6239  0.2655
  482TMC3    C6 7223   3.670   1.365  13.895 -0.5025 -0.0858 -0.1896
  482TMC3     C 7224   3.794   1.454  14.282 -0.0864 -0.3713  0.4642
  482TMC3     O 7225   3.737   1.374  14.349 -0.3922  0.0038 -0.3557
  482TMC3     H 7226   3.558   1.407  14.209 -0.9335  0.1335 -1.0115
  482TMC3    H1 7227   3.946   1.483  14.057 -0.2347 -0.0078  1.7915
  482TMC3    H2 7228   3.641   1.334  13.795 -0.2216  0.9863 -0.6045
  482TMC3    C7 7229   3.903   1.387  13.822 -0.2871 -0.9451 -0.4508
  482TMC3    C8 7230   3.461   1.278  13.999 -0.3576 -1.0266  0.3447
  482TMC3    O1 7231   4.013   1.343  13.860 -0.0661  0.0223  0.0086
  482TMC3    O2 7232   3.398   1.270  14.102 -0.6884  0.1374 -0.0593
  483TMC3    C1 7233   2.613   4.518   0.705  0.2058  0.4374  0.5161
  483TMC3    C2 7234   2.687   4.606   0.624 -0.7041 -0.2958 -0.3731
  483TMC3    C3 7235   2.814   4.631   0.659  0.1264 -0.1887  0.4534
  483TMC3    C4 7236   2.669   4.451   0.809  0.1610 -0.0183 -1.1284
  483TMC3    C5 7237   2.796   4.478   0.839  0.2358  0.2628 -0.0754
  483TMC3    C6 7238   2.869   4.575   0.772  0.0806 -0.5148 -0.4780
  483TMC3     C 7239   2.482   4.488   0.655 -0.3775  0.1102 -0.3051
  483TMC3     O 7240   2.433   4.571   0.578  0.6889 -0.2193  0.0271
  483TMC3     H 7241   2.638   4.672   0.553  1.0508  0.9421 -0.4411
  483TMC3    H1 7242   2.618   4.380   0.874  2.4218 -2.0001 -1.5262
  483TMC3    H2 7243   2.976   4.577   0.788  0.1536 -1.4055 -0.8838
  483TMC3    C7 7244   2.856   4.394   0.941  0.2396 -0.1793 -0.1688
  483TMC3    C8 7245   2.879   4.735   0.588  0.2457  0.1719 -0.6439
  483TMC3    O1 7246   2.796   4.297   0.979 -0.7440  0.0086  0.0032
  483TMC3    O2 7247   2.837   0.039   0.482 -0.1875 -0.1508  0.7697
  484MPD2     C 7248   0.352   3.012  12.743  0.5415  0.9521 -0.1472
  484MPD2    C1 7249   0.257   3.091  12.686  0.3151  0.6916 -0.0475
  484MPD2    C2 7250   0.297   3.193  12.605 -0.0229 -0.2728  0.1707
  484MPD2    C3 7251   0.434   3.205  12.570  0.0131  0.5095  0.2809
  484MPD2    C4 7252   0.530   3.110  12.613  0.4119 -0.2173 -0.8240
  484MPD2    C5 7253   0.483   3.017  12.707 -0.1716  0.1670  0.3990
  484MPD2     H 7254   0.223   3.264  12.570  0.2465  0.0782  0.3162
  484MPD2    H1 7255   0.634   3.107  12.583  1.0878 -1.2985  1.5857
  484MPD2    H2 7256   0.328   2.931  12.811  1.3589  1.3893  0.6654
  484MPD2    H3 7257   0.545   2.937  12.745  1.5856  0.6317 -1.4780
  484MPD2     N 7258   0.486   3.304  12.487 -0.3665 -0.3851 -0.4670
  484MPD2    H5 7259   0.585   3.309  12.464 -0.0905  1.0241  1.0434
  484MPD2    N1 7260   0.123   3.066  12.721  0.0826  0.2888 -0.4306
  484MPD2    H7 7261   0.103   3.004  12.798 -0.3075  0.1163 -0.6686
  485TMC3    C1 7262   0.498   3.494  12.345 -0.3555  0.0987 -0.4625
  485TMC3    C2 7263   0.612   3.546  12.407  0.0735 -0.1394  0.9805
  485TMC3    C3 7264   0.692   3.631  12.334 -0.0481  0.4917 -1.5337
  485TMC3    C4 7265   0.478   3.510  12.210 -0.6795  0.3823  0.3757
  485TMC3    C5 7266   0.552   3.599  12.145 -0.1704 -0.3240  0.2669
  485TMC3    C6 7267   0.649   3.674  12.203  0.0688  0.3156 -0.0357
  485TMC3     C 7268   0.410   3.395  12.409  0.7718  0.1410  0.6793
  485TMC3     O 7269   0.296   3.376  12.380 -0.1917 -0.4842  0.1308
  485TMC3     H 7270   0.644   3.511  12.505 -0.7409 -0.5891  1.0864
  485TMC3    H1 7271   0.399   3.450  12.165 -0.5369  0.1135  0.4852
  485TMC3    H2 7272   0.720   3.736  12.151 -0.7067 -0.1886 -1.6916
  485TMC3    C7 7273   0.615   3.531  12.035 -0.3373 -0.1014 -0.1647
  485TMC3    C8 7274   0.828   3.586  12.330  0.1690 -0.4443  0.0896
  485TMC3    O1 7275   0.634   3.409  12.042 -0.5058 -0.3140 -0.1771
  485TMC3    O2 7276   0.890   3.612  12.225  0.0922  0.5343 -0.5685
  486MPD2     C 7277   2.006   2.016  13.395 -0.0068 -0.0565  0.3573
  486MPD2    C1 7278   1.981   1.986  13.266  0.2784  0.2864 -0.2273
  486MPD2    C2 7279   1.953   2.090  13.175  1.2866 -0.1187 -0.8104
  486MPD2    C3 7280   1.941   2.223  13.214  0.8637  0.5427 -0.2292
  486MPD2    C4 7281   1.963   2.256  13.353  1.0534 -0.4242  0.2233
  486MPD2    C5 7282   1.999   2.150  13.434  0.0067 -0.2346 -0.6767
  486MPD2     H 7283   1.935   2.064  13.071 -1.2561 -1.4403 -0.0335
  486MPD2    H1 7284   1.953   2.358  13.387 -0.5481 -0.6785  0.4925
  486MPD2    H2 7285   2.037   1.946  13.471 -2.2222 -0.9099  0.4751
  486MPD2    H3 7286   2.017   2.176  13.537 -0.1187 -3.9243  0.2792
  486MPD2     N 7287   1.897   2.318  13.119  0.3241 -0.3629  0.3808
  486MPD2    H5 7288   1.871   2.285  13.027  1.8305  0.2783 -0.2604
  486MPD2    N1 7289   1.998   1.855  13.226 -0.1902 -0.0104  0.4264
  486MPD2    H7 7290   2.052   1.797  13.290 -1.3387  0.3965  1.7850
  487TMC3    C1 7291   1.990   1.668  13.091 -0.2585  0.5160 -0.1836
  487TMC3    C2 7292   1.900   1.592  13.023 -0.0741  0.7801  0.8567
  487TMC3    C3 7293   1.918   1.462  13.027  0.5952 -0.6002  0.8502
  487TMC3    C4 7294   2.114   1.613  13.132 -0.1895 -0.3287 -0.6701
  487TMC3    C5 7295   2.130   1.477  13.119  0.1228 -1.0925 -0.4163
  487TMC3    C6 7296   2.044   1.403  13.048  0.2046 -0.1248 -0.3019
  487TMC3     C 7297   1.962   1.804  13.106  0.3663  0.5299  0.3369
  487TMC3     O 7298   1.872   1.847  13.036 -0.0491 -0.7761 -0.4538
  487TMC3     H 7299   1.799   1.626  13.004  0.0633  0.7455  0.0785
  487TMC3    H1 7300   2.190   1.661  13.193  0.6214 -0.4645 -1.5735
  487TMC3    H2 7301   2.053   1.295  13.045 -0.3343 -0.2026  0.9467
  487TMC3    C7 7302   2.166   1.413  13.246  0.4106  0.5888 -0.2879
  487TMC3    C8 7303   1.827   1.414  13.126 -0.0626  0.5209  0.3296
  487TMC3    O1 7304   2.155   1.481  13.346 -0.4088 -0.6337 -0.3356
  487TMC3    O2 7305   1.743   1.483  13.181  0.0133  0.0754  0.4804
  488MPD2     C 7306   2.270   3.461  16.760  0.3056  0.3586 -0.3612
  488MPD2    C1 7307   2.339   3.567  16.819  0.7434  0.6931 -0.0151
  488MPD2    C2 7308   2.343   3.571  16.958  0.5614 -0.6161 -0.1853
  488MPD2    C3 7309   2.280   3.483  17.038 -0.2716  0.1198  0.5808
  488MPD2    C4 7310   2.219   3.377  16.978 -0.4117 -0.3173  0.1227
  488MPD2    C5 7311   2.205   3.372  16.844 -0.1719 -0.0935  0.1330
  488MPD2     H 7312   2.384   3.655  17.013 -0.4868  1.0677 -1.9702
  488MPD2    H1 7313   2.167   3.300  17.034 -0.4328  1.4130  2.4782
  488MPD2    H2 7314   2.271   3.445  16.653 -1.5005 -1.4909 -0.1022
  488MPD2    H3 7315   2.145   3.292  16.804 -1.5944  0.3155  1.4480
  488MPD2     N 7316   2.279   3.508  17.173  0.2144 -0.0113  0.2182
  488MPD2    H5 7317   2.334   3.588  17.203 -0.0646  0.5591 -0.7896
  488MPD2    N1 7318   2.398   3.668  16.747 -0.1196  0.7154 -0.1855
  488MPD2    H7 7319   2.437   3.745  16.799 -0.9837  1.3154 -0.4213
  489TMC3    C1 7320   2.214   3.509  17.399  0.5559 -0.7868  1.0821
  489TMC3    C2 7321   2.294   3.622  17.411 -0.0655  0.7964 -0.4112
  489TMC3    C3 7322   2.265   3.696  17.520  0.2714 -0.6996 -0.6291
  489TMC3    C4 7323   2.116   3.473  17.489 -0.3291 -0.8765 -0.0548
  489TMC3    C5 7324   2.087   3.555  17.592  0.1660  0.9456  0.7176
  489TMC3    C6 7325   2.167   3.666  17.615  0.2540  0.0188  0.3134
  489TMC3     C 7326   2.218   3.435  17.274 -0.0015  0.2892  0.2758
  489TMC3     O 7327   2.152   3.334  17.261 -0.4395 -0.0993  0.7302
  489TMC3     H 7328   2.370   3.657  17.341  1.1055 -3.5584 -1.2677
  489TMC3    H1 7329   2.058   3.382  17.475  1.8019 -2.2538  0.1382
  489TMC3    H2 7330   2.157   3.716  17.710  1.6360 -1.9451  1.4959
  489TMC3    C7 7331   2.016   3.510  17.708 -0.1951  0.0379  0.1380
  489TMC3    C8 7332   2.321   3.827  17.516 -0.0609  0.3260 -0.0984
  489TMC3    O1 7333   2.012   3.388  17.725 -0.0067 -0.3338  0.4346
  489TMC3    O2 7334   2.433   3.842  17.466 -0.5905 -0.3795 -0.3169
  490MPD2     C 7335   2.968   2.888  17.651  0.0357 -0.4148 -0.5967
  490MPD2    C1 7336   2.902   2.847   0.024 -0.2780  0.1452 -0.3449
  490MPD2    C2 7337   2.931   2.903   0.148 -0.1293 -0.5529  0.4660
  490MPD2    C3 7338   3.031   2.995   0.154 -0.1054 -0.2806  0.2414
  490MPD2    C4 7339   3.102   3.031   0.044  0.4276 -0.3234  0.8368
  490MPD2    C5 7340   3.075   2.978  17.664 -0.1115 -0.3637  0.2154
  490MPD2     H 7341   2.871   2.884   0.236 -1.5257 -1.0216 -0.5843
  490MPD2    H1 7342   3.179   3.107   0.052 -1.5469  1.6078  1.2991
  490MPD2    H2 7343   2.934   2.881  17.548 -1.1741  0.7208 -0.2702
  490MPD2    H3 7344   3.112   3.034  17.580  0.0043 -0.9685 -0.1354
  490MPD2     N 7345   3.079   3.063   0.267 -0.1109 -0.1505 -0.3249
  490MPD2    H5 7346   3.153   3.131   0.250 -0.8413  0.1003 -2.4685
  490MPD2    N1 7347   2.793   2.761   0.014  0.0336 -0.2185  0.0287
  490MPD2    H7 7348   2.735   2.749   0.096 -0.0719 -0.3563 -0.0679
  491TMC3    C1 7349   2.625   2.640  17.671 -0.0617 -0.1424 -0.0538
  491TMC3    C2 7350   2.604   2.563   0.044  0.5950  0.3894 -0.3179
  491TMC3    C3 7351   2.499   2.481   0.048  0.1199  0.0455  0.5780
  491TMC3    C4 7352   2.547   2.629  17.558 -0.2230 -0.6249 -0.3717
  491TMC3    C5 7353   2.435   2.542  17.571  0.2337 -0.0933 -0.1594
  491TMC3    C6 7354   2.414   2.467  17.685  0.7691 -1.1220 -0.2663
  491TMC3     C 7355   2.757   2.697  17.645 -0.4926  0.3079  0.1077
  491TMC3     O 7356   2.798   2.703  17.527  0.7114  0.1334  0.2431
  491TMC3     H 7357   2.689   2.560   0.111  0.7025 -0.4866 -0.4953
  491TMC3    H1 7358   2.577   2.672  17.464 -1.4784  0.2554 -0.3660
  491TMC3    H2 7359   2.338   2.391  17.698 -1.6667  1.0857 -1.6328
  491TMC3    C7 7360   2.334   2.550  17.469 -0.4302  0.0632  0.5749
  491TMC3    C8 7361   2.489   2.389   0.149 -0.8643  0.0500  0.4450
  491TMC3    O1 7362   2.257   2.452  17.465 -0.6438 -0.1554  0.3086
  491TMC3    O2 7363   2.428   2.284   0.131  0.7466  0.3592 -0.1174
  492MPD2     C 7364   2.956   2.865  11.319  0.4115  0.2136 -0.4531
  492MPD2    C1 7365   2.845   2.792  11.296  0.0429  0.1330  0.0346
  492MPD2    C2 7366   2.813   2.684  11.380 -0.1468 -0.6769 -0.5953
  492MPD2    C3 7367   2.878   2.670  11.501 -0.2733  0.5238 -0.5736
  492MPD2    C4 7368   2.975   2.760  11.537 -0.7805  0.7545  0.4134
  492MPD2    C5 7369   3.017   2.849  11.446 -0.2173  0.3344  0.2234
  492MPD2     H 7370   2.734   2.613  11.356 -1.4460 -0.5534  3.3180
  492MPD2    H1 7371   3.019   2.766  11.636  0.1609  1.7658 -0.0614
  492MPD2    H2 7372   2.986   2.945  11.252 -0.3983  0.3171 -0.6987
  492MPD2    H3 7373   3.092   2.921  11.475  0.5309 -0.5823  0.5665
  492MPD2     N 7374   2.846   2.559  11.586 -0.1746  0.3589  0.1057
  492MPD2    H5 7375   2.894   2.564  11.675  2.7587  1.4913 -1.5323
  492MPD2    N1 7376   2.769   2.814  11.179 -0.3703 -0.7129 -0.3299
  492MPD2    H7 7377   2.817   2.867  11.107  0.0721  0.6360  0.9367
  493TMC3    C1 7378   2.617   2.789  11.005 -0.4916  0.2157  0.3630
  493TMC3    C2 7379   2.629   2.922  10.969  0.5085 -0.0769 -0.5837
  493TMC3    C3 7380   2.544   2.969  10.868 -0.7315  0.1081 -0.1832
  493TMC3    C4 7381   2.522   2.710  10.950  0.1319  0.3517  0.2289
  493TMC3    C5 7382   2.440   2.763  10.858 -0.1480 -0.4921  0.5519
  493TMC3    C6 7383   2.444   2.891  10.817  0.3382 -0.3020  0.7016
  493TMC3     C 7384   2.662   2.751  11.140  0.1502 -0.2971  0.1101
  493TMC3     O 7385   2.589   2.669  11.194  0.0548  0.1107  0.2548
  493TMC3     H 7386   2.693   2.997  11.014 -0.3929 -0.9962  2.1804
  493TMC3    H1 7387   2.516   2.606  10.978 -2.2789  0.6021  0.6351
  493TMC3    H2 7388   2.377   2.914  10.735 -1.9719 -1.7063  2.1625
  493TMC3    C7 7389   2.360   2.676  10.767  0.6489 -0.8459  0.3687
  493TMC3    C8 7390   2.568   3.095  10.800 -0.3781 -0.2883  0.0620
  493TMC3    O1 7391   2.283   2.727  10.686 -0.3058  0.7821 -0.0647
  493TMC3    O2 7392   2.473   3.148  10.743  0.0726 -0.3579  0.1302
  494TMC3    C1 7393   3.932   4.559   0.761  0.2451  0.2191 -0.0728
  494TMC3    C2 7394   3.842   4.474   0.811  0.0107 -0.8489 -0.8462
  494TMC3    C3 7395   3.743   4.416   0.730  0.7087 -0.7035  0.3261
  494TMC3    C4 7396   3.905   4.616   0.636 -0.4028  0.5501  0.5722
  494TMC3    C5 7397   3.791   4.580   0.571 -0.0034  0.2378  0.0140
  494TMC3    C6 7398   3.718   4.467   0.603  0.3881 -0.1108  0.5306
  494TMC3     C 7399   4.060   4.567   0.829  0.4123  0.3448  0.1962
  494TMC3     O 7400   4.062   4.507   0.937  0.1720  0.5043 -0.6847
  494TMC3     H 7401   3.844   4.439   0.914  0.5246  2.2721  0.1879
  494TMC3    H1 7402   3.946   4.712   0.607 -1.6566  0.5266 -1.3304
  494TMC3    H2 7403   3.624   4.441   0.556  1.0201  0.7955 -1.2310
  494TMC3    C7 7404   3.764   4.661   0.452 -0.0580  0.4736 -0.6440
  494TMC3    C8 7405   3.715   4.279   0.765 -0.0969 -0.5692  0.7414
  494TMC3    O1 7406   3.859   4.712   0.396 -0.3300 -0.0935  0.6237
  494TMC3    O2 7407   3.795   4.229   0.840 -0.0824 -0.1237  0.5354
  495TMC3    C1 7408   1.928   1.708  14.567  0.2433 -0.3637 -0.2603
  495TMC3    C2 7409   1.954   1.821  14.499  0.5452  0.7722 -0.3891
  495TMC3    C3 7410   2.043   1.913  14.546 -0.4949  0.7217  1.1752
  495TMC3    C4 7411   1.990   1.691  14.687  0.7632 -0.2208 -0.3768
  495TMC3    C5 7412   2.080   1.782  14.734 -0.6921 -0.1836 -0.2645
  495TMC3    C6 7413   2.099   1.905  14.669 -0.4714  1.3078  0.3680
  495TMC3     C 7414   1.794   1.653  14.567 -0.0023  0.0782  0.7868
  495TMC3     O 7415   1.757   1.619  14.679 -0.0142 -0.1886  0.3560
  495TMC3     H 7416   1.916   1.832  14.398 -0.7436 -1.8979 -0.1917
  495TMC3    H1 7417   1.977   1.599  14.743 -0.1680 -0.7566 -1.4801
  495TMC3    H2 7418   2.174   1.976  14.701  1.1422 -0.8367  1.3475
  495TMC3    C7 7419   2.109   1.775  14.878 -0.1422 -0.0101 -0.6413
  495TMC3    C8 7420   2.041   2.048  14.494  0.5565 -0.4228 -0.7262
  495TMC3    O1 7421   2.042   1.698  14.939  0.0593  0.5243 -0.3486
  495TMC3    O2 7422   1.999   2.139  14.570  0.4419  0.0782  0.2924
  496MPD2     C 7423   4.070   2.474  15.042  0.0438 -0.4529 -0.2256
  496MPD2    C1 7424   4.123   2.423  15.162 -0.3240  0.5456 -0.1756
  496MPD2    C2 7425   4.034   2.366  15.251  0.4359  0.5936 -0.5327
  496MPD2    C3 7426   3.892   2.367  15.232  0.4618  0.0595  1.3288
  496MPD2    C4 7427   3.849   2.408  15.105 -0.2908  0.3744 -0.1462
  496MPD2    C5 7428   3.940   2.454  15.012 -0.0777  0.3589 -0.6900
  496MPD2     H 7429   4.070   2.327  15.345 -2.1165 -0.8244 -0.1515
  496MPD2    H1 7430   3.744   2.403  15.079 -0.2301 -0.5098 -0.2250
  496MPD2    H2 7431   4.113   2.529  14.959 -0.6246  0.5287  0.0726
  496MPD2    H3 7432   3.908   2.492  14.915 -1.7974 -0.3725 -0.4093
  496MPD2     N 7433   3.802   2.314  15.324  0.7639 -0.0671  0.0718
  496MPD2    H5 7434   3.707   2.310  15.289  1.5744  0.6336 -2.1857
  496MPD2    N1 7435   4.258   2.441  15.192 -0.0174 -1.0437 -0.0365
  496MPD2    H7 7436   4.308   2.473  15.110 -2.8373 -0.5904 -1.5686
  497TMC3    C1 7437   3.720   2.277  15.540 -0.4807  0.4919  0.6061
  497TMC3    C2 7438   3.613   2.223  15.485  0.3033  0.6870 -0.1541
  497TMC3    C3 7439   3.512   2.190  15.568 -0.6808 -0.4076 -0.0839
  497TMC3    C4 7440   3.730   2.312  15.674  0.6032  0.1729 -0.0746
  497TMC3    C5 7441   3.625   2.268  15.754  0.1997 -0.2128 -0.1206
  497TMC3    C6 7442   3.514   2.208  15.700 -0.3902 -0.5099 -0.0792
  497TMC3     C 7443   3.832   2.308  15.461  0.1776 -0.2871  0.5446
  497TMC3     O 7444   3.934   2.336  15.518 -0.1292 -0.1127  0.4267
  497TMC3     H 7445   3.598   2.190  15.383 -0.3984  2.4197 -0.6032
  497TMC3    H1 7446   3.809   2.383  15.697  2.7346 -2.0115 -0.7068
  497TMC3    H2 7447   3.435   2.171  15.765 -1.6427 -0.8968 -1.8374
  497TMC3    C7 7448   3.604   2.321  15.893  0.5644 -0.1205  0.0163
  497TMC3    C8 7449   3.392   2.129  15.506  0.2091 -0.1982  0.1758
  497TMC3    O1 7450   3.495   2.314  15.939 -0.2172  0.0820 -0.8429
  497TMC3    O2 7451   3.408   2.063  15.406  0.4920 -0.1386 -0.4066
  498MPD2     C 7452   4.634   3.232  10.042  0.5002 -0.3705  0.1532
  498MPD2    C1 7453   0.017   3.168  10.066  0.1604 -0.3542 -0.3337
  498MPD2    C2 7454   0.012   3.038  10.093 -0.5515 -0.2379 -0.4216
  498MPD2    C3 7455   4.635   2.958  10.091  0.9529 -0.7113 -0.2168
  498MPD2    C4 7456   4.517   3.022  10.054 -0.2705 -0.1366  0.6585
  498MPD2    C5 7457   4.520   3.155  10.031 -1.0904  0.1186 -0.6789
  498MPD2     H 7458   0.107   2.994  10.120  0.3359  0.2500 -2.8046
  498MPD2    H1 7459   4.426   2.968  10.031  0.6330 -2.2742  2.1392
  498MPD2    H2 7460   4.632   3.336  10.014  0.4944 -0.0775  1.2272
  498MPD2    H3 7461   4.431   3.207   9.998 -0.8234  1.1840  0.2843
  498MPD2     N 7462   4.645   2.818  10.117 -0.1163  0.5428 -0.1633
  498MPD2    H5 7463   4.733   2.781  10.150  0.5684  0.6406 -1.8997
  498MPD2    N1 7464   0.142   3.232  10.068  0.4402  0.1751  0.2877
  498MPD2    H7 7465   0.219   3.166  10.076  0.1305  0.0237  1.9886
  499TMC3    C1 7466   0.292   3.416  10.084  0.5785 -0.0544 -0.6134
  499TMC3    C2 7467   0.390   3.346  10.018 -0.7921  0.1103 -0.2390
  499TMC3    C3 7468   0.514   3.403  10.022 -1.1792 -0.1053  0.0938
  499TMC3    C4 7469   0.315   3.543  10.137  0.6204 -0.2648 -0.1648
  499TMC3    C5 7470   0.437   3.602  10.126  0.4764  0.0608 -0.0121
  499TMC3    C6 7471   0.543   3.528  10.073  0.6387  0.0722  0.1495
  499TMC3     C 7472   0.152   3.367  10.073  0.1770 -0.6921 -0.4588
  499TMC3     O 7473   0.070   3.454  10.100  0.1490 -0.0389  0.3820
  499TMC3     H 7474   0.374   3.248   9.976 -1.2855  0.3080 -0.5111
  499TMC3    H1 7475   0.227   3.586  10.182  0.1214 -1.2520 -0.1988
  499TMC3    H2 7476   0.638   3.577  10.055  1.8175 -1.2550  2.7343
  499TMC3    C7 7477   0.436   3.745  10.092 -0.0137 -0.6218 -0.1238
  499TMC3    C8 7478   0.626   3.305  10.016  0.3922 -1.1037  0.4449
  499TMC3    O1 7479   0.529   3.788  10.023 -0.1409 -0.0056  0.1315
  499TMC3    O2 7480   0.601   3.194   9.976  0.4900 -0.7124 -0.4932
  500MPD2     C 7481   1.390   4.093  10.816  0.6329  0.0140 -0.4649
  500MPD2    C1 7482   1.439   4.187  10.731  0.3983  0.2294  0.4743
  500MPD2    C2 7483   1.376   4.305  10.716  0.3859 -0.1320 -0.2018
  500MPD2    C3 7484   1.269   4.334  10.794 -0.5869 -0.0902  0.1262
  500MPD2    C4 7485   1.220   4.240  10.888 -0.3725  0.6446  0.3814
  500MPD2    C5 7486   1.284   4.123  10.899  0.1627  0.0783 -0.2805
  500MPD2     H 7487   1.415   4.387  10.656 -0.5067  1.8681  1.9556
  500MPD2    H1 7488   1.131   4.261  10.946  0.1340  3.6765  0.0382
  500MPD2    H2 7489   1.426   3.991  10.822  0.5354  0.0144  0.0852
  500MPD2    H3 7490   1.243   4.052  10.969 -0.8926  2.5450  1.6084
  500MPD2     N 7491   1.186   4.444  10.768 -0.0035  0.0812  0.2667
  500MPD2    H5 7492   1.113   4.467  10.834 -0.0748  0.6361 -0.0075
  500MPD2    N1 7493   1.547   4.166  10.646  0.2271  0.1021 -0.0746
  500MPD2    H7 7494   1.578   4.239  10.581  0.3149  1.2838  1.2974
  501TMC3    C1 7495   1.696   4.061  10.511  0.7050  1.0906 -0.6873
  501TMC3    C2 7496   1.667   4.141  10.409  0.0385 -0.0872  0.6972
  501TMC3    C3 7497   1.755   4.149  10.302 -0.1679  0.1979  0.1021
  501TMC3    C4 7498   1.797   3.957  10.502 -1.2072  0.2879  0.6120
  501TMC3    C5 7499   1.877   3.962  10.389  0.0074 -0.2680  0.6454
  501TMC3    C6 7500   1.865   4.063  10.293 -0.8988  0.3850 -0.2377
  501TMC3     C 7501   1.610   4.045  10.624  0.3060  0.0445  0.5387
  501TMC3     O 7502   1.611   3.942  10.689 -0.6087  0.3246 -0.1133
  501TMC3     H 7503   1.579   4.204  10.406 -1.8509 -2.7274  0.6462
  501TMC3    H1 7504   1.812   3.879  10.575  0.6843 -0.0121 -0.0881
  501TMC3    H2 7505   1.949   4.084  10.228  1.7411 -2.5316  2.2473
  501TMC3    C7 7506   1.989   3.863  10.384  0.3735 -0.0036 -0.3925
  501TMC3    C8 7507   1.754   4.278  10.235  0.0629 -0.0690 -0.4895
  501TMC3    O1 7508   2.013   3.804  10.488 -0.2218  0.2318 -0.1097
  501TMC3    O2 7509   1.651   4.335  10.220 -0.2700  0.7317  0.3525
  502TMC3    C1 7510   1.910   3.190  15.134 -0.1117 -0.4463 -0.5621
  502TMC3    C2 7511   1.864   3.316  15.120 -0.3242  0.1598  0.4058
  502TMC3    C3 7512   1.747   3.345  15.180 -0.6378  0.0220  0.1594
  502TMC3    C4 7513   1.826   3.088  15.182  0.4277  0.1592  0.1564
  502TMC3    C5 7514   1.699   3.123  15.221  0.5218  0.6315  0.4933
  502TMC3    C6 7515   1.655   3.251  15.219  0.2015  0.1623  0.0555
  502TMC3     C 7516   2.039   3.183  15.187 -0.1925 -1.1130 -0.2809
  502TMC3     O 7517   2.120   3.266  15.146 -0.7171 -0.3182 -0.3657
  502TMC3     H 7518   1.937   3.391  15.091  1.2166 -1.0584  1.1463
  502TMC3    H1 7519   1.871   2.989  15.191  1.7824  0.5258 -2.4863
  502TMC3    H2 7520   1.577   3.288  15.285  1.1228  3.4286 -0.6930
  502TMC3    C7 7521   1.634   3.024  15.309  0.3376 -0.6004 -0.1141
  502TMC3    C8 7522   1.707   3.483  15.195 -0.0862  0.1527 -0.5480
  502TMC3    O1 7523   1.712   2.944  15.367 -0.1678 -0.5624  0.0881
  502TMC3    O2 7524   1.628   3.517  15.282 -0.5341 -0.0275  0.2195
  503MPD2     C 7525   3.768   3.400  17.078  0.5232  0.3435 -0.0354
  503MPD2    C1 7526   3.784   3.444  17.206 -0.7731 -0.3252 -0.3075
  503MPD2    C2 7527   3.862   3.368  17.294  0.5230  0.8675 -0.5135
  503MPD2    C3 7528   3.942   3.264  17.242  0.2007  0.1505  0.4720
  503MPD2    C4 7529   3.949   3.243  17.110  0.0771  0.4447  0.0231
  503MPD2    C5 7530   3.851   3.300  17.031 -0.3584  0.1868  0.3852
  503MPD2     H 7531   3.882   3.421  17.387 -3.5170 -0.9144  1.3847
  503MPD2    H1 7532   4.025   3.177  17.070 -0.7704 -1.4051  1.4529
  503MPD2    H2 7533   3.698   3.447  17.011 -0.1070  1.2427  1.2423
  503MPD2    H3 7534   3.840   3.277  16.925  3.5940  1.7220 -0.3669
  503MPD2     N 7535   4.026   3.202  17.339 -0.1589 -0.8673  0.1704
  503MPD2    H5 7536   4.008   3.229  17.435 -0.9702  1.0425 -0.5158
  503MPD2    N1 7537   3.736   3.572  17.256 -0.0860  0.3988 -0.0876
  503MPD2    H7 7538   3.751   3.590  17.355  2.7846  2.9387 -1.0124
  504TMC3    C1 7539   4.241   3.132  17.416  0.1966 -0.1727 -0.1456
  504TMC3    C2 7540   4.197   3.063  17.523  0.2897 -0.0764  0.4737
  504TMC3    C3 7541   4.287   2.998  17.603 -0.7989  0.6469 -0.7247
  504TMC3    C4 7542   4.367   3.140  17.386  0.7895 -0.6888  0.0438
  504TMC3    C5 7543   4.460   3.070  17.460 -0.3665  0.5932  0.1776
  504TMC3    C6 7544   4.423   2.997  17.571  0.2225 -0.0330 -0.2852
  504TMC3     C 7545   4.149   3.149  17.308 -0.1606 -0.6822  0.1012
  504TMC3     O 7546   4.200   3.137  17.200 -0.4815 -0.4874  0.6391
  504TMC3     H 7547   4.092   3.058  17.548  0.0933 -0.1746 -0.3516
  504TMC3    H1 7548   4.395   3.188  17.293 -1.8774 -1.0091 -0.9071
  504TMC3    H2 7549   4.494   2.936  17.624  0.7715  0.7066 -0.1652
  504TMC3    C7 7550   4.596   3.071  17.410  0.6107 -0.1744 -0.3750
  504TMC3    C8 7551   4.227   2.874  17.649 -0.5350 -0.3539  0.3631
  504TMC3    O1 7552   4.633   3.169  17.343 -0.1879 -0.0421 -0.4265
  504TMC3    O2 7553   4.137   2.822  17.585  0.0392  0.2973  0.2245
  505MPD2     C 7554   4.010   2.193  10.886  0.6611 -0.4727 -0.1183
  505MPD2    C1 7555   4.073   2.076  10.872  0.4379  0.9630  0.0569
  505MPD2    C2 7556   4.202   2.057  10.930 -0.1312 -0.0130 -0.2042
  505MPD2    C3 7557   4.257   2.155  11.013 -0.1401  0.1773 -0.4109
  505MPD2    C4 7558   4.188   2.273  11.032 -0.0180  0.3035 -0.5161
  505MPD2    C5 7559   4.069   2.291  10.963 -0.0011  0.6822 -0.4728
  505MPD2     H 7560   4.258   1.966  10.915  0.8391  0.8130 -1.5887
  505MPD2    H1 7561   4.242   2.346  11.090  0.9706 -1.5337  0.8565
  505MPD2    H2 7562   3.913   2.215  10.843  0.0445  1.2934  2.1769
  505MPD2    H3 7563   4.023   2.388  10.980  0.0915  0.6638 -0.1099
  505MPD2     N 7564   4.369   2.133  11.094  0.4078  0.1046  0.6179
  505MPD2    H5 7565   4.419   2.208  11.141 -1.4149  2.0097 -0.4865
  505MPD2    N1 7566   4.009   1.978  10.795  0.1200 -0.0071 -0.3469
  505MPD2    H7 7567   3.933   2.004  10.733  1.3099 -0.3307 -1.9314
  506TMC3    C1 7568   3.990   1.755  10.710 -0.6313 -0.5595  0.2398
  506TMC3    C2 7569   3.959   1.814  10.587 -1.1086 -0.3130 -0.6214
  506TMC3    C3 7570   3.961   1.743  10.476 -0.0113  0.2482 -0.0764
  506TMC3    C4 7571   4.014   1.620  10.726 -0.0287  0.0947  0.0833
  506TMC3    C5 7572   4.039   1.548  10.617  0.2646  0.6795 -0.2989
  506TMC3    C6 7573   4.004   1.608  10.494  0.3423 -0.3280  0.3282
  506TMC3     C 7574   4.027   1.844  10.823  0.7417  0.1719 -0.4545
  506TMC3     O 7575   4.102   1.790  10.907  0.0136  0.2543  0.1606
  506TMC3     H 7576   3.924   1.915  10.574  0.5839  0.3987  0.4702
  506TMC3    H1 7577   4.028   1.565  10.818 -3.3168  0.2826  0.7003
  506TMC3    H2 7578   4.041   1.560  10.404 -1.8912 -3.1299  0.8967
  506TMC3    C7 7579   4.170   1.487  10.616  0.2853  0.1119  0.8709
  506TMC3    C8 7580   3.964   1.804  10.343 -0.3939  0.3573 -0.9762
  506TMC3    O1 7581   4.199   1.416  10.521  0.0732 -0.3583  0.0801
  506TMC3    O2 7582   3.957   1.721  10.249 -0.0853  0.2248 -0.7188
  507TMC3    C1 7583   0.669   3.523  15.025 -0.0779 -0.3551 -0.0670
  507TMC3    C2 7584   0.771   3.505  14.935  0.4160  0.2529 -0.0564
  507TMC3    C3 7585   0.813   3.601  14.847 -0.8033  0.7659 -0.6506
  507TMC3    C4 7586   0.611   3.645  15.021  0.4484  0.3556  0.3818
  507TMC3    C5 7587   0.643   3.748  14.933 -0.3855  0.0867  0.6546
  507TMC3    C6 7588   0.743   3.721  14.847  0.1579  0.4728  0.3046
  507TMC3     C 7589   0.573   3.414  15.023 -0.0430 -1.1195  0.2430
  507TMC3     O 7590   0.613   3.302  15.055 -0.1935 -0.3642 -0.0538
  507TMC3     H 7591   0.811   3.405  14.922  0.8567  0.3808  0.3152
  507TMC3    H1 7592   0.524   3.668  15.082 -0.2647 -2.6616  0.5211
  507TMC3    H2 7593   0.767   3.800  14.778 -0.3408  0.6585  0.3430
  507TMC3    C7 7594   0.538   3.785  14.857 -0.2186 -0.2467  0.3633
  507TMC3    C8 7595   0.836   3.561  14.715 -0.0128 -1.0131  1.0757
  507TMC3    O1 7596   0.513   3.711  14.765 -0.5358 -0.1939  0.2233
  507TMC3    O2 7597   0.942   3.508  14.694 -0.2706  0.0385 -0.2806
  508MPD2     C 7598   1.108   0.657  16.078  0.8416  0.3515 -0.3416
  508MPD2    C1 7599   1.228   0.705  16.116 -0.5547  0.1136 -0.2658
  508MPD2    C2 7600   1.279   0.809  16.046 -0.1559 -0.7459  0.3642
  508MPD2    C3 7601   1.208   0.868  15.941 -0.0501 -0.3883 -0.1346
  508MPD2    C4 7602   1.091   0.813  15.896  0.4923 -0.1496 -0.4524
  508MPD2    C5 7603   1.039   0.711  15.970 -0.5261 -0.3648  0.2569
  508MPD2     H 7604   1.364   0.854  16.096 -0.8044  2.0907 -1.0566
  508MPD2    H1 7605   1.039   0.854  15.810 -0.3730  1.0878  0.6539
  508MPD2    H2 7606   1.058   0.580  16.135 -0.9449  0.0309 -2.3266
  508MPD2    H3 7607   0.941   0.673  15.943  0.6130 -2.3435 -1.0318
  508MPD2     N 7608   1.262   0.984  15.895  0.5667  0.1737 -0.0399
  508MPD2    H5 7609   1.348   1.010  15.943  1.6871  0.5447 -2.2538
  508MPD2    N1 7610   1.286   0.646  16.229 -0.3520  0.1404 -0.5461
  508MPD2    H7 7611   1.239   0.564  16.266  1.1917 -0.5132 -0.0041
  509TMC3    C1 7612   1.284   1.413  15.742 -0.6194 -0.4243 -0.5535
  509TMC3    C2 7613   1.411   1.428  15.762  0.0229  0.1896  0.3203
  509TMC3    C3 7614   1.475   1.334  15.840  0.5504 -0.1800 -0.3499
  509TMC3    C4 7615   1.218   1.296  15.757  0.1010 -0.0315 -0.5351
  509TMC3    C5 7616   1.285   1.189  15.799  0.1624 -0.4162  0.5209
  509TMC3    C6 7617   1.414   1.210  15.860 -0.0497  0.4434 -0.3387
  509TMC3     C 7618   1.208   1.519  15.676 -0.4791  0.2048 -0.2476
  509TMC3     O 7619   1.124   1.483  15.597  0.2526  0.4268 -0.3875
  509TMC3     H 7620   1.459   1.524  15.749 -0.5263  0.2516 -1.2114
  509TMC3    H1 7621   1.115   1.296  15.725 -0.7377  0.3712  2.1954
  509TMC3    H2 7622   1.448   1.137  15.933 -1.0613 -0.6195 -0.9460
  509TMC3    C7 7623   1.203   1.073  15.810 -0.1180  0.7362 -0.5222
  509TMC3    C8 7624   1.614   1.341  15.880  0.0634  0.3027  0.7002
  509TMC3    O1 7625   1.089   1.060  15.770 -0.5308 -0.7278  0.6195
  509TMC3    O2 7626   1.674   1.237  15.905 -0.0890  0.3027  0.1200
  510MPD2     C 7627   3.559   2.648  14.586  0.5029  0.0216 -0.5254
  510MPD2    C1 7628   3.585   2.568  14.691 -0.0431  0.1265  0.9393
  510MPD2    C2 7629   3.713   2.536  14.725 -0.3325 -0.5419 -0.0620
  510MPD2    C3 7630   3.821   2.579  14.650 -0.7345 -0.8759 -0.4106
  510MPD2    C4 7631   3.797   2.674  14.557 -1.3111 -0.0670 -0.1236
  510MPD2    C5 7632   3.666   2.709  14.528 -0.1878 -0.4468  0.7339
  510MPD2     H 7633   3.730   2.483  14.817 -1.2542  0.8337  0.8960
  510MPD2    H1 7634   3.871   2.723  14.494 -0.8564  1.3304  1.4888
  510MPD2    H2 7635   3.460   2.684  14.560 -0.5247 -3.3178 -1.2170
  510MPD2    H3 7636   3.654   2.778  14.446  0.3742 -0.1089  0.9388
  510MPD2     N 7637   3.960   2.533  14.675  0.1543  0.2136 -0.6302
  510MPD2    H5 7638   3.968   2.449  14.732  1.3939 -0.2945 -1.5606
  510MPD2    N1 7639   3.470   2.512  14.746  0.1144  0.8350 -0.1481
  510MPD2    H7 7640   3.383   2.536  14.700  0.2199  1.8959  0.2151
  511TMC3    C1 7641   3.332   2.387  14.883 -0.3744  0.2145 -0.2796
  511TMC3    C2 7642   3.293   2.403  15.010  0.1902 -0.4713  0.2727
  511TMC3    C3 7643   3.207   2.310  15.070  0.3302  0.3339  0.8052
  511TMC3    C4 7644   3.293   2.278  14.806 -0.1078  0.3518 -0.2201
  511TMC3    C5 7645   3.199   2.190  14.863 -0.4399 -0.7634 -0.4729
  511TMC3    C6 7646   3.163   2.197  15.001 -0.5426  0.4450 -0.5513
  511TMC3     C 7647   3.472   2.429  14.857  0.5027  0.6128 -0.5651
  511TMC3     O 7648   3.562   2.384  14.927  0.2734 -0.1754 -0.1953
  511TMC3     H 7649   3.307   2.504  15.047  1.3936 -0.3355 -0.5422
  511TMC3    H1 7650   3.337   2.271  14.707  0.4073  0.4427  0.0053
  511TMC3    H2 7651   3.108   2.112  15.040  1.4018 -0.2458  0.6807
  511TMC3    C7 7652   3.185   2.066  14.794 -0.1847  0.9730  0.1322
  511TMC3    C8 7653   3.143   2.362  15.196 -0.8705 -0.4967 -0.1881
  511TMC3    O1 7654   3.248   2.062  14.691 -0.2592 -0.3061  0.0419
  511TMC3    O2 7655   3.178   2.469  15.238  0.1066 -0.2457  0.1804
  512TMC3    C1 7656   2.541   1.155  13.703  0.1686 -0.2611  0.0500
  512TMC3    C2 7657   2.540   1.256  13.789  0.2906 -0.0601 -0.1413
  512TMC3    C3 7658   2.462   1.240  13.906 -1.2166 -0.0492 -0.2063
  512TMC3    C4 7659   2.448   1.051  13.711 -0.3063  0.5480 -0.7740
  512TMC3    C5 7660   2.366   1.040  13.825 -0.4639 -0.4072  0.9419
  512TMC3    C6 7661   2.383   1.131  13.925 -0.0348 -0.3619  0.4201
  512TMC3     C 7662   2.602   1.206  13.576  0.7110  0.8169 -0.1416
  512TMC3     O 7663   2.668   1.311  13.580  0.0570 -0.0899  0.2556
  512TMC3     H 7664   2.614   1.336  13.786  0.2130  0.0128 -0.1040
  512TMC3    H1 7665   2.443   0.976  13.634  1.4089  1.0664 -1.3828
  512TMC3    H2 7666   2.342   1.117  14.024  0.3580 -0.4335  0.5729
  512TMC3    C7 7667   2.321   0.907  13.871 -0.1788  0.7698 -0.3134
  512TMC3    C8 7668   2.515   1.284  14.030 -0.5061  0.1054  0.7030
  512TMC3    O1 7669   2.226   0.899  13.948 -0.2246 -0.3370 -0.2636
  512TMC3    O2 7670   2.504   1.210  14.133 -0.2458  0.0010  0.6517
  513MPD2     C 7671   4.442   2.177  13.487  0.2624  0.3409  1.0327
  513MPD2    C1 7672   4.522   2.167  13.376 -0.9362  0.2169 -0.2099
  513MPD2    C2 7673   4.664   2.192  13.385  0.2065  0.1818 -0.2946
  513MPD2    C3 7674   4.717   2.237  13.505 -0.4669  0.8263  0.3571
  513MPD2    C4 7675   4.630   2.259  13.613  0.6588  0.2132  0.2547
  513MPD2    C5 7676   4.498   2.219  13.609 -0.0033  0.1733  0.3549
  513MPD2     H 7677   4.730   2.167  13.303  0.5899  0.0392  0.0640
  513MPD2    H1 7678   4.665   2.294  13.709  0.1615  2.6265 -0.4391
  513MPD2    H2 7679   4.336   2.157  13.481  0.6821 -1.1451 -1.4263
  513MPD2    H3 7680   4.434   2.236  13.696  0.2361 -1.7269  0.9004
  513MPD2     N 7681   0.119   2.258  13.517 -0.0572  0.0254 -0.2603
  513MPD2    H5 7682   0.162   2.239  13.427  0.3973 -0.0388 -0.0283
  513MPD2    N1 7683   4.493   2.111  13.253 -0.0645  0.3040  0.3406
  513MPD2    H7 7684   4.569   2.082  13.192 -0.8370 -2.3741  0.6786
  514TMC3    C1 7685   4.390   2.017  13.075 -0.2703  0.1301 -0.4640
  514TMC3    C2 7686   4.337   2.081  12.967  0.2832  0.2305  0.8519
  514TMC3    C3 7687   4.418   2.096  12.857 -0.4257  0.2791  0.3803
  514TMC3    C4 7688   4.517   1.960  13.065 -0.1699 -0.0685  0.2152
  514TMC3    C5 7689   4.591   1.985  12.952 -0.9923  0.6748 -0.5221
  514TMC3    C6 7690   4.552   2.063  12.853 -0.4506 -0.8474  0.0180
  514TMC3     C 7691   4.372   2.074  13.208  0.9492 -0.0239  0.1141
  514TMC3     O 7692   4.267   2.124  13.242  0.8439 -0.1999  0.2389
  514TMC3     H 7693   4.235   2.117  12.970  0.1505 -0.0242 -0.7708
  514TMC3    H1 7694   4.550   1.892  13.143 -2.2601  0.4983  1.5951
  514TMC3    H2 7695   4.617   2.075  12.767  0.3835 -0.4104  0.7070
  514TMC3    C7 7696   4.731   1.990  12.992 -0.4610 -0.2330 -0.6865
  514TMC3    C8 7697   4.337   2.133  12.739  0.0348 -0.1723 -0.3196
  514TMC3    O1 7698   0.013   1.972  13.113  0.6201  0.4561  0.3199
  514TMC3    O2 7699   4.219   2.171  12.752  0.5280 -0.0688 -0.2329
  515MPD2     C 7700   2.880   2.999  14.855 -0.5467  0.3296 -0.0332
  515MPD2    C1 7701   2.856   3.068  14.741  0.9258  0.2055  0.5502
  515MPD2    C2 7702   2.921   3.189  14.730 -0.1920  0.0000  0.3798
  515MPD2    C3 7703   3.017   3.228  14.823  0.0838 -0.6039  0.3415
  515MPD2    C4 7704   3.054   3.148  14.926 -0.6208  0.4054  0.2501
  515MPD2    C5 7705   2.977   3.034  14.941 -0.2688  0.6073  0.1673
  515MPD2     H 7706   2.895   3.248  14.643 -1.5961 -0.2094  0.6603
  515MPD2    H1 7707   3.117   3.184  15.006  1.1591  0.1530 -1.0403
  515MPD2    H2 7708   2.817   2.920  14.894  1.0425 -0.8938  0.0262
  515MPD2    H3 7709   2.986   2.976  15.033  1.9336  0.0763 -0.3817
  515MPD2     N 7710   3.092   3.347  14.805  0.7264  0.8975 -0.0086
  515MPD2    H5 7711   3.168   3.359  14.871  0.4762 -1.0107  0.6527
  515MPD2    N1 7712   2.754   3.036  14.645  0.2275  0.2055  0.9491
  515MPD2    H7 7713   2.745   3.100  14.567 -2.9266  0.4021  1.4806
  516TMC3    C1 7714   2.564   2.907  14.557  0.8684 -0.3174  0.4107
  516TMC3    C2 7715   2.498   3.021  14.522 -0.2105  0.4383 -0.7930
  516TMC3    C3 7716   2.365   3.022  14.495  1.3858 -0.2655  0.6749
  516TMC3    C4 7717   2.500   2.788  14.556 -0.0407  0.6435  0.1035
  516TMC3    C5 7718   2.368   2.792  14.534  0.2327  0.5184 -0.4189
  516TMC3    C6 7719   2.294   2.905  14.498 -0.6258  0.6243  0.3164
  516TMC3     C 7720   2.677   2.918  14.649 -0.0520  0.1405 -0.4779
  516TMC3     O 7721   2.689   2.823  14.725  0.1883  0.8211  0.9082
  516TMC3     H 7722   2.549   3.117  14.525  1.0508 -0.2170 -1.4443
  516TMC3    H1 7723   2.554   2.699  14.588 -0.3831  1.0232  1.7144
  516TMC3    H2 7724   2.191   2.905  14.464  0.5024  1.8912 -3.1056
  516TMC3    C7 7725   2.311   2.722  14.643 -0.5015  0.3516  0.1355
  516TMC3    C8 7726   2.289   3.149  14.481  0.7170 -0.2309  0.4509
  516TMC3    O1 7727   2.388   2.671  14.720  0.3470 -0.1165 -0.4986
  516TMC3    O2 7728   2.166   3.137  14.481  0.2115 -0.3723  0.3634
  517MPD2     C 7729   2.320   0.153   0.041  0.5933 -0.0806 -0.2442
  517MPD2    C1 7730   2.420   0.151   0.135  0.6606 -0.4315 -0.5994
  517MPD2    C2 7731   2.510   0.264   0.146 -0.2088  0.0113  0.7319
  517MPD2    C3 7732   2.489   0.382   0.074 -0.1288  0.5931 -0.3262
  517MPD2    C4 7733   2.374   0.382  17.734 -0.0712 -0.0772  0.2889
  517MPD2    C5 7734   2.295   0.275  17.716 -0.4255 -0.7955 -0.5274
  517MPD2     H 7735   2.578   0.252   0.229  1.3257  1.0385 -0.3776
  517MPD2    H1 7736   2.343   0.473  17.683  1.7935  0.7863  0.7084
  517MPD2    H2 7737   2.254   0.071   0.021 -1.6416  1.3988  1.0901
  517MPD2    H3 7738   2.212   0.282  17.646 -0.9600  1.9171  0.3411
  517MPD2     N 7739   2.586   0.490   0.068  0.8799 -0.1660 -0.2088
  517MPD2    H5 7740   2.565   0.575   0.017  3.6706  0.5332 -0.1722
  517MPD2    N1 7741   2.456   0.038   0.206  0.1974 -0.3467  0.7444
  517MPD2    H7 7742   2.547   0.036   0.251  0.2438  0.2586  0.6753
  518TMC3    C1 7743   2.457   4.537   0.250 -0.1220 -0.5439 -0.2844
  518TMC3    C2 7744   2.392   4.417   0.245 -0.4133 -0.3941  0.3081
  518TMC3    C3 7745   2.460   4.305   0.287  0.1840 -0.5313  0.1100
  518TMC3    C4 7746   2.589   4.553   0.276  0.0001  0.0669  0.3110
  518TMC3    C5 7747   2.654   4.434   0.290 -0.0004  0.6888 -0.6046
  518TMC3    C6 7748   2.595   4.314   0.306  0.6692 -0.8320  0.4063
  518TMC3     C 7749   2.382   4.653   0.199  0.8131 -0.3139 -0.2456
  518TMC3     O 7750   2.279   4.632   0.143 -0.5091  0.3540  0.3752
  518TMC3     H 7751   2.286   4.427   0.227 -0.6240 -0.5268  1.4981
  518TMC3    H1 7752   2.644   4.647   0.269  1.5987 -0.8104  1.1628
  518TMC3    H2 7753   2.655   4.224   0.305  1.5518 -0.2334  0.2837
  518TMC3    C7 7754   2.801   4.441   0.243  0.0204 -0.2639  0.0116
  518TMC3    C8 7755   2.409   4.177   0.249 -0.3535 -0.7842 -0.8593
  518TMC3    O1 7756   2.844   4.557   0.245 -0.4082  0.2689 -0.3898
  518TMC3    O2 7757   2.491   4.111   0.191 -0.3589 -0.1393  0.2177
  519MPD2     C 7758   3.997   3.546  13.708  0.4762 -0.0302  0.9412
  519MPD2    C1 7759   3.897   3.477  13.765 -0.3675 -0.0126 -0.6133
  519MPD2    C2 7760   3.936   3.357  13.824 -0.1014  0.1437  0.4030
  519MPD2    C3 7761   4.065   3.316  13.823  1.2422  0.7072  0.3262
  519MPD2    C4 7762   4.160   3.394  13.759  0.1116  0.3074 -0.4636
  519MPD2    C5 7763   4.124   3.505  13.703 -0.5520  0.0890  0.3925
  519MPD2     H 7764   3.859   3.288  13.857  0.6275 -0.8152  0.0969
  519MPD2    H1 7765   4.264   3.364  13.759 -0.7296 -2.6567  0.3579
  519MPD2    H2 7766   3.972   3.636  13.652  0.3541  0.1922  1.3523
  519MPD2    H3 7767   4.191   3.571  13.648  0.8094 -2.0349 -0.4906
  519MPD2     N 7768   4.111   3.194  13.867 -0.0687 -0.6097  0.0489
  519MPD2    H5 7769   4.206   3.162  13.850  0.1384  0.7868 -1.3757
  519MPD2    N1 7770   3.759   3.508  13.745 -0.1766  0.8668  0.1416
  519MPD2    H7 7771   3.741   3.595  13.695 -1.8993 -1.1174 -2.6834
  520TMC3    C1 7772   4.119   2.993  13.988  0.2837 -0.2952 -0.3529
  520TMC3    C2 7773   4.058   2.878  14.019 -0.7145 -0.9404  0.2696
  520TMC3    C3 7774   4.118   2.787  14.097  0.5971 -0.3320 -0.4203
  520TMC3    C4 7775   4.245   3.022  14.030 -0.0828 -0.6661 -0.0829
  520TMC3    C5 7776   4.305   2.925  14.100  0.1434 -0.9627 -0.5247
  520TMC3    C6 7777   4.252   2.804  14.128  0.6138 -0.0403 -0.0696
  520TMC3     C 7778   4.040   3.106  13.943 -0.7817  0.1827  0.4507
  520TMC3     O 7779   3.925   3.121  13.988  0.2899  0.1591 -0.1474
  520TMC3     H 7780   3.959   2.868  13.976 -0.9935 -2.1900  1.1873
  520TMC3    H1 7781   4.274   3.127  14.028 -1.2682 -0.2992  1.7165
  520TMC3    H2 7782   4.297   2.732  14.195 -1.3363 -0.2565  1.0236
  520TMC3    C7 7783   4.440   2.951  14.151 -0.2339 -0.7542  0.7261
  520TMC3    C8 7784   4.057   2.652  14.119  0.2254 -0.0344 -0.3396
  520TMC3    O1 7785   4.470   2.899  14.257  0.5074 -0.7985  0.5171
  520TMC3    O2 7786   4.138   2.563  14.132  0.1193 -0.0067  0.5194
  521MPD2     C 7787   0.176   1.059  17.701 -0.0306  0.0269  0.3851
  521MPD2    C1 7788   0.117   0.982  17.606 -0.4056  0.4863  0.2420
  521MPD2    C2 7789   0.197   0.917  17.514 -0.7237  0.2521 -0.2865
  521MPD2    C3 7790   0.337   0.914  17.525 -0.3715 -0.5325 -0.6959
  521MPD2    C4 7791   0.390   0.978  17.633  0.5384  0.1711 -0.0076
  521MPD2    C5 7792   0.306   1.042  17.723 -1.0052 -0.6358  0.1313
  521MPD2     H 7793   0.149   0.853  17.440  0.1077 -0.0221 -0.5873
  521MPD2    H1 7794   0.496   0.989  17.657  0.4917 -2.2468  1.2951
  521MPD2    H2 7795   0.122   1.122   0.026 -2.4143 -1.5568 -0.0215
  521MPD2    H3 7796   0.344   1.093   0.067  0.6699 -0.4136 -0.7227
  521MPD2     N 7797   0.414   0.851  17.425  0.2862 -0.0939 -0.2263
  521MPD2    H5 7798   0.363   0.808  17.348  0.1177  1.2824 -0.8763
  521MPD2    N1 7799   4.716   0.976  17.613 -0.0848 -0.5825 -0.4322
  521MPD2    H7 7800   4.668   1.022  17.689 -2.1284 -0.3360 -1.8724
  522TMC3    C1 7801   0.615   0.798  17.307  0.6619  0.4622 -0.3946
  522TMC3    C2 7802   0.727   0.716  17.313  0.6740 -0.5825 -0.2555
  522TMC3    C3 7803   0.767   0.662  17.194  0.3888 -1.2204  0.1048
  522TMC3    C4 7804   0.554   0.837  17.188  0.2154  0.4885 -0.0525
  522TMC3    C5 7805   0.608   0.785  17.073  0.2126  0.2459 -0.0924
  522TMC3    C6 7806   0.716   0.698  17.076 -0.1004  0.0941  0.5286
  522TMC3     C 7807   0.550   0.839  17.436  0.3797  0.5274 -0.4956
  522TMC3     O 7808   0.623   0.841  17.539  0.2683  0.4224 -0.1586
  522TMC3     H 7809   0.767   0.696  17.411  3.4049  2.7636 -0.6947
  522TMC3    H1 7810   0.460   0.890  17.188 -0.1353 -0.1366  2.9973
  522TMC3    H2 7811   0.747   0.643  16.988  2.0601  0.7194  0.8951
  522TMC3    C7 7812   0.586   0.839  16.941 -0.4668  0.0198  0.6324
  522TMC3    C8 7813   0.886   0.569  17.198 -0.1435  0.0082 -0.1492
  522TMC3    O1 7814   0.676   0.842  16.856  0.0092 -0.0675  0.2637
  522TMC3    O2 7815   0.919   0.547  17.312  0.1606  0.1016  0.0253
  523MPD2     C 7816   2.662   4.630   9.229 -0.0192 -0.3567 -0.3681
  523MPD2    C1 7817   2.580   4.669   9.333 -0.0131  0.6255 -0.0504
  523MPD2    C2 7818   2.483   0.033   9.312  0.1692  0.2410  0.3188
  523MPD2    C3 7819   2.472   0.082   9.183  0.4754  0.0683 -0.3184
  523MPD2    C4 7820   2.550   0.039   9.083 -0.2491 -0.6911  0.1898
  523MPD2    C5 7821   2.639   4.680   9.105 -0.1693  0.3291 -0.3337
  523MPD2     H 7822   2.422   0.062   9.396 -0.9638 -1.8911  0.2355
  523MPD2    H1 7823   2.528   0.065   8.980 -1.7154 -1.3881  0.3243
  523MPD2    H2 7824   2.730   4.545   9.239  1.5879  1.0722  0.8773
  523MPD2    H3 7825   2.697   4.655   9.017  0.4662  0.6950 -0.0205
  523MPD2     N 7826   2.373   0.175   9.153  0.1055  0.1064 -0.0176
  523MPD2    H5 7827   2.349   0.196   9.057 -0.8806 -0.3133  0.1352
  523MPD2    N1 7828   2.607   4.607   9.454 -0.4530  0.3104 -0.6343
  523MPD2    H7 7829   2.690   4.550   9.461 -0.4574  0.2724 -0.9104
  524TMC3    C1 7830   2.193   0.327   9.203 -0.7455 -0.0939 -0.2135
  524TMC3    C2 7831   2.067   0.330   9.255 -0.2170  0.3695  0.1245
  524TMC3    C3 7832   1.974   0.415   9.196  0.9997  0.5234 -0.0178
  524TMC3    C4 7833   2.233   0.416   9.106  0.2209  1.3215  0.2071
  524TMC3    C5 7834   2.148   0.504   9.063 -0.1847  0.1351 -0.2634
  524TMC3    C6 7835   2.018   0.507   9.098 -0.3830 -0.1328 -0.0565
  524TMC3     C 7836   2.290   0.233   9.252  0.0315  0.8441 -0.8617
  524TMC3     O 7837   2.274   0.210   9.373  0.2743  0.7721  0.2048
  524TMC3     H 7838   2.031   0.252   9.321  0.8835 -1.2805 -1.2707
  524TMC3    H1 7839   2.341   0.420   9.095  0.3537 -1.2079  0.5891
  524TMC3    H2 7840   1.944   0.565   9.044  2.2483  1.7709 -1.6174
  524TMC3    C7 7841   2.197   0.598   8.962  0.1981 -0.7608  0.0826
  524TMC3    C8 7842   1.833   0.409   9.225  0.3477  0.2349  0.4227
  524TMC3    O1 7843   2.302   0.569   8.905  0.2363 -0.4138  0.1225
  524TMC3    O2 7844   1.763   0.492   9.178  0.4088  0.3912  0.1115
  525MPD2     C 7845   0.743   2.954  14.748  0.2324 -0.3766  0.2431
  525MPD2    C1 7846   0.858   2.921  14.815  0.3221  0.3249 -0.0680
  525MPD2    C2 7847   0.964   3.018  14.824  0.4651  0.3302 -0.1168
  525MPD2    C3 7848   0.955   3.139  14.750  0.0529 -0.0320  0.4210
  525MPD2    C4 7849   0.835   3.169  14.687 -0.3846  0.0926 -0.7928
  525MPD2    C5 7850   0.735   3.075  14.682  0.2799  0.0010 -0.0912
  525MPD2     H 7851   1.054   2.995  14.879 -1.1046 -1.6936  1.6184
  525MPD2    H1 7852   0.822   3.265  14.638 -0.3110  0.3627 -0.2874
  525MPD2    H2 7853   0.660   2.886  14.730  1.4140 -2.1291  1.3327
  525MPD2    H3 7854   0.637   3.092  14.638  0.9208  0.5093 -1.3304
  525MPD2     N 7855   1.056   3.242  14.766  0.7583  0.3530 -0.1375
  525MPD2    H5 7856   1.024   3.330  14.728 -0.3628 -0.3676 -0.8594
  525MPD2    N1 7857   0.873   2.797  14.878  0.0099 -0.2478  0.7060
  525MPD2    H7 7858   0.964   2.779  14.919  0.9981  0.8902 -0.9619
  526TMC3    C1 7859   0.802   2.611  14.997 -0.4548 -0.3563  0.0872
  526TMC3    C2 7860   0.730   2.600  15.112 -0.3268 -0.4719 -0.6568
  526TMC3    C3 7861   0.768   2.513  15.213 -0.2234 -0.7181 -0.5109
  526TMC3    C4 7862   0.916   2.549  14.977 -0.2418 -0.5586  0.1775
  526TMC3    C5 7863   0.966   2.473  15.078 -0.0928 -0.0001  0.3410
  526TMC3    C6 7864   0.893   2.445  15.192 -0.3245 -0.1094  0.0553
  526TMC3     C 7865   0.766   2.708  14.904  0.1325 -0.0202 -0.0315
  526TMC3     O 7866   0.650   2.712  14.868  0.7497 -0.6080  0.4114
  526TMC3     H 7867   0.636   2.654  15.119  1.1339  2.1544 -1.0865
  526TMC3    H1 7868   0.962   2.559  14.879  0.1379  1.0086  0.5346
  526TMC3    H2 7869   0.924   2.373  15.267 -0.9663 -0.5540 -0.1031
  526TMC3    C7 7870   1.075   2.398  15.034  0.1323 -0.7027  0.0003
  526TMC3    C8 7871   0.768   2.562  15.348  0.1881  0.3789 -0.9561
  526TMC3    O1 7872   1.109   2.397  14.916  1.0327  0.0425 -0.1065
  526TMC3    O2 7873   0.881   2.607  15.376  0.4390  0.8170 -0.0861
  527MPD2     C 7874   3.666   0.403   1.438 -0.2883  0.6163  0.0680
  527MPD2    C1 7875   3.680   0.381   1.300 -0.1021 -0.6301  0.4356
  527MPD2    C2 7876   3.811   0.368   1.250 -0.1837 -0.0677  0.1457
  527MPD2    C3 7877   3.920   0.341   1.336  0.0598 -0.0461  0.0105
  527MPD2    C4 7878   3.900   0.354   1.471 -0.4253 -0.0538  0.1358
  527MPD2    C5 7879   3.777   0.394   1.521 -0.0528  0.2380 -0.7607
  527MPD2     H 7880   3.827   0.367   1.142  1.9550  1.0117  0.4561
  527MPD2    H1 7881   3.985   0.369   1.535 -2.2550 -0.9368  2.7530
  527MPD2    H2 7882   3.567   0.425   1.476 -0.2011  2.0786 -0.5533
  527MPD2    H3 7883   3.769   0.406   1.628  0.4037  1.1457 -0.8284
  527MPD2     N 7884   4.054   0.325   1.283  0.1835  0.1963  0.1781
  527MPD2    H5 7885   4.066   0.310   1.184  2.6142  1.4258  0.2811
  527MPD2    N1 7886   3.572   0.387   1.209 -0.2125 -0.0906 -0.2435
  527MPD2    H7 7887   3.588   0.393   1.109  0.0901 -1.1766 -0.2615
  528TMC3    C1 7888   3.340   0.375   1.139 -0.5089 -0.2858 -0.1353
  528TMC3    C2 7889   3.370   0.450   1.030 -0.0938 -0.6004  0.1392
  528TMC3    C3 7890   3.258   0.497   0.957  0.3842  0.2802 -0.0026
  528TMC3    C4 7891   3.215   0.333   1.171  0.3201 -0.0715  0.7656
  528TMC3    C5 7892   3.115   0.380   1.094  0.3388  0.0470  0.1305
  528TMC3    C6 7893   3.135   0.461   0.990 -0.2430 -0.1042  0.0084
  528TMC3     C 7894   3.442   0.368   1.247  0.3773  0.1490 -0.2855
  528TMC3     O 7895   3.396   0.355   1.360 -0.2939  0.2074  0.6335
  528TMC3     H 7896   3.463   0.503   1.018  1.1710 -2.4087  2.1363
  528TMC3    H1 7897   3.203   0.285   1.267  0.7517  2.8891  2.2927
  528TMC3    H2 7898   3.046   0.504   0.944  0.7862  0.9258 -1.0166
  528TMC3    C7 7899   2.991   0.310   1.092 -0.9630  0.1186  0.0187
  528TMC3    C8 7900   3.279   0.611   0.862 -0.1164  0.3637  0.2865
  528TMC3    O1 7901   2.895   0.373   1.055  0.3809  0.2214  0.0620
  528TMC3    O2 7902   3.379   0.616   0.794 -0.3512 -0.0750  0.1417
  529MPD2     C 7903   1.125   3.290   0.507 -0.7341  0.2264 -0.0448
  529MPD2    C1 7904   1.082   3.309   0.643 -0.1803  0.5327 -0.2112
  529MPD2    C2 7905   1.005   3.422   0.675 -0.3236  0.3760 -0.1192
  529MPD2    C3 7906   0.963   3.518   0.582  0.8990  0.0759 -0.0531
  529MPD2    C4 7907   1.006   3.495   0.452 -0.6860 -0.1729 -0.2538
  529MPD2    C5 7908   1.087   3.390   0.418 -0.0998 -0.2162  0.0655
  529MPD2     H 7909   0.987   3.442   0.780 -1.8709 -1.1765 -0.0911
  529MPD2    H1 7910   0.965   3.566   0.380  2.3159  2.1978  0.3325
  529MPD2    H2 7911   1.198   3.216   0.479  1.9598  2.4525  1.1392
  529MPD2    H3 7912   1.118   3.384   0.314 -1.3104 -0.8485 -0.2568
  529MPD2     N 7913   0.879   3.629   0.606  0.1620 -0.2494 -0.2395
  529MPD2    H5 7914   0.877   3.709   0.544 -0.4641  0.5821  0.8546
  529MPD2    N1 7915   1.121   3.223   0.750 -0.0472 -0.3186  0.1210
  529MPD2    H7 7916   1.090   3.257   0.841  0.1937  1.0270 -0.3140
  530TMC3    C1 7917   1.169   3.022   0.854  0.6109  0.4427  0.5677
  530TMC3    C2 7918   1.216   3.087   0.962 -0.5897  0.0659 -0.1669
  530TMC3    C3 7919   1.233   3.013   1.074 -0.8877 -0.3062  0.4262
  530TMC3    C4 7920   1.141   2.888   0.852  0.1075  0.3737 -0.0980
  530TMC3    C5 7921   1.129   2.829   0.977  0.1313 -0.0702  0.5335
  530TMC3    C6 7922   1.181   2.893   1.091 -0.4871  0.2867  0.0852
  530TMC3     C 7923   1.152   3.094   0.731 -0.8117 -0.3096 -0.5484
  530TMC3     O 7924   1.153   3.029   0.626  0.3467  0.0046 -0.1123
  530TMC3     H 7925   1.240   3.192   0.961  1.6029 -0.4359 -1.2248
  530TMC3    H1 7926   1.118   2.832   0.762  1.2051  0.4434 -0.4181
  530TMC3    H2 7927   1.189   2.835   1.182  0.5432  0.9216  0.4021
  530TMC3    C7 7928   1.084   2.692   0.979 -0.5736 -0.5514  0.0017
  530TMC3    C8 7929   1.292   3.083   1.187 -0.6148 -0.0932 -0.5336
  530TMC3    O1 7930   1.069   2.630   0.869 -0.4401 -0.3202 -0.1803
  530TMC3    O2 7931   1.249   3.200   1.197 -0.8006  0.4789  0.2935
  531MPD2     C 7932   0.499   2.074  12.957  0.5209 -0.9193  0.4103
  531MPD2    C1 7933   0.415   2.101  13.061  0.7069 -0.7710  0.2762
  531MPD2    C2 7934   0.278   2.080  13.032 -0.2526  0.2497  0.2055
  531MPD2    C3 7935   0.227   2.023  12.919  0.5272 -1.1338 -0.5431
  531MPD2    C4 7936   0.315   1.964  12.828  0.4873  0.1141  0.4835
  531MPD2    C5 7937   0.451   2.000  12.843 -0.3222 -1.2182  0.1062
  531MPD2     H 7938   0.199   2.120  13.095  0.2893  0.4132  0.7753
  531MPD2    H1 7939   0.292   1.924  12.730  0.8825  0.7246  0.1369
  531MPD2    H2 7940   0.603   2.101  12.974  0.1468  0.4476  0.4856
  531MPD2    H3 7941   0.513   1.970  12.760 -2.5856  0.3614 -2.1543
  531MPD2     N 7942   0.087   2.014  12.897 -0.1974 -0.1376 -0.9368
  531MPD2    H5 7943   0.061   1.985  12.804 -1.2204  0.2463 -0.7616
  531MPD2    N1 7944   0.465   2.164  13.182 -0.6717  0.2319 -0.4878
  531MPD2    H7 7945   0.566   2.173  13.190 -0.4739 -2.3110 -0.1336
  532TMC3    C1 7946   0.462   2.250  13.399 -0.3984  0.6360  0.3684
  532TMC3    C2 7947   0.371   2.319  13.474  0.1905  0.1824 -0.0986
  532TMC3    C3 7948   0.334   2.266  13.598  0.5374  0.1014  0.6302
  532TMC3    C4 7949   0.547   2.157  13.460 -0.1581 -0.5004 -0.4573
  532TMC3    C5 7950   0.521   2.130  13.590  0.7146  0.5070 -0.3277
  532TMC3    C6 7951   0.417   2.177  13.666 -0.4797  0.0945  0.0851
  532TMC3     C 7952   0.386   2.209  13.282  0.0089  0.0194  0.1449
  532TMC3     O 7953   0.266   2.217  13.298 -0.5092  0.3409 -0.5543
  532TMC3     H 7954   0.312   2.393  13.423  0.7466  1.8245  1.6563
  532TMC3    H1 7955   0.632   2.120  13.403 -0.9063  0.1794 -1.9923
  532TMC3    H2 7956   0.387   2.147  13.765  0.4869 -2.1318 -0.2958
  532TMC3    C7 7957   0.618   2.041  13.654  0.9621 -0.2863 -0.6516
  532TMC3    C8 7958   0.193   2.277  13.633 -0.0260  0.4844 -0.0265
  532TMC3    O1 7959   0.736   2.074  13.649  0.4685 -0.1922 -0.0525
  532TMC3    O2 7960   0.166   2.264  13.755 -0.3032 -0.0503 -0.0658
  533TMC3    C1 7961   1.265   3.340  14.813  0.3460  0.1672  0.1174
  533TMC3    C2 7962   1.398   3.337  14.806 -0.2566 -0.7200 -0.5348
  533TMC3    C3 7963   1.466   3.443  14.866 -0.2636 -0.2014 -0.7323
  533TMC3    C4 7964   1.204   3.438  14.891  0.1141 -0.0897  0.0348
  533TMC3    C5 7965   1.268   3.539  14.954  0.0705 -0.0364  0.3590
  533TMC3    C6 7966   1.404   3.549  14.934  0.4636  0.3527 -0.4196
  533TMC3     C 7967   1.188   3.214  14.787 -0.1321  0.7448  0.3350
  533TMC3     O 7968   1.247   3.107  14.798  0.2044 -0.0346 -0.7974
  533TMC3     H 7969   1.435   3.263  14.736  2.0907 -0.7061  0.6860
  533TMC3    H1 7970   1.098   3.430  14.911 -0.1045  2.7770 -0.0017
  533TMC3    H2 7971   1.472   3.612  14.991  1.9191 -0.6793 -1.0193
  533TMC3    C7 7972   1.219   3.565  15.087  0.3784 -0.2582  0.6162
  533TMC3    C8 7973   1.611   3.465  14.846 -0.1994 -0.1033 -0.1948
  533TMC3    O1 7974   1.267   3.495  15.174  0.1191 -0.6105  0.0826
  533TMC3    O2 7975   1.658   3.581  14.844  0.6610 -0.0409  0.4026
  534MPD2     C 7976   4.344   3.300   1.161  0.4489  0.7660 -0.3556
  534MPD2    C1 7977   4.354   3.409   1.250 -0.2478  0.3176 -0.3091
  534MPD2    C2 7978   4.243   3.481   1.288  0.1232 -0.3814  0.7344
  534MPD2    C3 7979   4.114   3.442   1.247  0.1470 -0.5266  0.8765
  534MPD2    C4 7980   4.100   3.339   1.163  0.7185  0.7177  0.7961
  534MPD2    C5 7981   4.214   3.274   1.114 -0.6227 -0.1266 -0.0791
  534MPD2     H 7982   4.265   3.555   1.364 -1.1242  1.5345 -0.7759
  534MPD2    H1 7983   4.011   3.285   1.131  0.7334  1.6090 -0.7384
  534MPD2    H2 7984   4.422   3.233   1.129 -0.0212 -0.1060  0.3333
  534MPD2    H3 7985   4.195   3.183   1.058  0.3724  0.3565 -1.1873
  534MPD2     N 7986   3.996   3.503   1.287  0.3824  0.1576 -0.5511
  534MPD2    H5 7987   3.906   3.460   1.268  0.4182 -0.2128  0.1089
  534MPD2    N1 7988   4.471   3.460   1.293 -0.6400 -0.2529  0.2492
  534MPD2    H7 7989   4.465   3.537   1.359  0.3718 -0.5248  0.6554
  535TMC3    C1 7990   3.853   3.657   1.377 -0.8123 -0.5394  1.0876
  535TMC3    C2 7991   3.777   3.557   1.425 -0.1432  0.5963  0.1822
  535TMC3    C3 7992   3.641   3.580   1.425 -0.7211  0.0091 -0.1933
  535TMC3    C4 7993   3.804   3.776   1.322 -0.3449 -0.4020 -1.5764
  535TMC3    C5 7994   3.665   3.795   1.334  0.4380  0.3421 -0.3859
  535TMC3    C6 7995   3.585   3.704   1.391 -0.0309  0.3989  0.1249
  535TMC3     C 7996   3.995   3.632   1.337 -0.6017 -0.0038 -0.1279
  535TMC3     O 7997   4.077   3.719   1.339 -0.4912 -0.4902 -0.3053
  535TMC3     H 7998   3.817   3.461   1.455 -1.0872 -0.2704 -1.3235
  535TMC3    H1 7999   3.875   3.847   1.281  0.6791 -0.6598 -0.2842
  535TMC3    H2 8000   3.478   3.714   1.386 -0.1938 -0.8585  0.9127
  535TMC3    C7 8001   3.611   3.899   1.252  0.9255  0.1637  0.0247
  535TMC3    C8 8002   3.539   3.474   1.420  0.8951 -0.2324  0.4232
  535TMC3    O1 8003   3.508   3.870   1.202 -0.4898 -0.2685  0.0886
  535TMC3    O2 8004   3.445   3.499   1.344  0.6561  0.8145  0.0930
  536MPD2     C 8005   2.354   2.743  16.485  0.3217  0.4018 -0.4474
  536MPD2    C1 8006   2.246   2.649  16.480  0.2180  0.1683  0.1205
  536MPD2    C2 8007   2.150   2.666  16.381  0.4718 -0.1009  0.4652
  536MPD2    C3 8008   2.166   2.772  16.287 -0.6090 -0.3431  0.5678
  536MPD2    C4 8009   2.273   2.860  16.303  0.3119 -0.6559 -0.4226
  536MPD2    C5 8010   2.369   2.852  16.395 -0.1934  0.9027 -0.2395
  536MPD2     H 8011   2.067   2.597  16.375  0.4457  0.2395 -3.0267
  536MPD2    H1 8012   2.290   2.933  16.224  1.9550 -1.3496 -0.7126
  536MPD2    H2 8013   2.427   2.730  16.564 -0.4527 -2.0737 -0.1532
  536MPD2    H3 8014   2.452   2.921  16.394 -0.7059  1.5342  1.2761
  536MPD2     N 8015   2.085   2.795  16.169  0.4451 -0.0751 -0.4701
  536MPD2    H5 8016   2.111   2.862  16.098  1.0623  0.2270  0.0335
  536MPD2    N1 8017   2.249   2.527  16.558 -0.1790  0.2033  0.5096
  536MPD2    H7 8018   2.300   2.525  16.645  0.2290  2.7336  0.3069
  537TMC3    C1 8019   2.138   2.345  16.656  0.3753  0.5646 -0.5929
  537TMC3    C2 8020   2.130   2.409  16.776 -0.3207  0.5053 -0.3771
  537TMC3    C3 8021   2.097   2.337  16.892 -0.4523  0.1181  0.1862
  537TMC3    C4 8022   2.107   2.213  16.648 -0.1087 -0.1887 -0.1148
  537TMC3    C5 8023   2.069   2.148  16.763 -0.1687 -0.2225 -0.4617
  537TMC3    C6 8024   2.076   2.201  16.887  0.3338 -0.2556 -0.3688
  537TMC3     C 8025   2.183   2.413  16.534 -0.1792 -0.4603 -0.3089
  537TMC3     O 8026   2.143   2.365  16.425 -0.2816  0.4084  0.0969
  537TMC3     H 8027   2.165   2.511  16.777  0.4531  0.2369 -0.1440
  537TMC3    H1 8028   2.106   2.154  16.557 -0.1166 -2.1411  1.1433
  537TMC3    H2 8029   2.042   2.146  16.974 -1.2139 -1.6040 -1.8421
  537TMC3    C7 8030   2.016   2.012  16.748  0.0943 -0.7732 -0.2335
  537TMC3    C8 8031   2.100   2.406  17.016  0.2444 -0.1207 -1.0626
  537TMC3    O1 8032   1.969   1.975  16.642 -0.1985 -0.1615  0.0500
  537TMC3    O2 8033   2.104   2.335  17.116  0.1740  0.1668 -0.1217
  538TMC3    C1 8034   3.274   0.349  11.071 -0.3818  0.1484 -0.0544
  538TMC3    C2 8035   3.379   0.436  11.091  0.0734 -0.0876  0.7019
  538TMC3    C3 8036   3.402   0.518  10.987 -0.1397 -0.4983 -0.3408
  538TMC3    C4 8037   3.199   0.343  10.958  0.4069 -0.8264  0.0574
  538TMC3    C5 8038   3.231   0.425  10.853  0.3554  0.9761  0.2580
  538TMC3    C6 8039   3.327   0.517  10.871  0.4262  0.0419 -0.4123
  538TMC3     C 8040   3.261   0.230  11.159 -0.1963 -0.5452 -0.1880
  538TMC3     O 8041   3.241   0.123  11.107 -0.0972  0.1823  0.0740
  538TMC3     H 8042   3.435   0.443  11.183 -1.1392  3.2537  1.1613
  538TMC3    H1 8043   3.123   0.266  10.944  0.1088 -1.0909  3.1924
  538TMC3    H2 8044   3.341   0.589  10.792  0.5878  0.3189 -0.1296
  538TMC3    C7 8045   3.147   0.434  10.741  0.1851 -0.0372  0.7661
  538TMC3    C8 8046   3.528   0.586  10.991 -0.6199  0.4624  0.5625
  538TMC3    O1 8047   3.080   0.338  10.697  0.1519  0.6158  0.4660
  538TMC3    O2 8048   3.561   0.617  11.104  0.0865  0.1117 -0.4624
  539MPD2     C 8049   2.829   4.384  11.677 -1.0301  0.1218 -0.2873
  539MPD2    C1 8050   2.804   4.383  11.541 -0.7050 -0.0361  0.2282
  539MPD2    C2 8051   2.843   4.489  11.464  0.1323  0.2762  0.6560
  539MPD2    C3 8052   2.894   4.597  11.532 -0.3463  0.3613 -0.7518
  539MPD2    C4 8053   2.923   4.589  11.665 -0.3931  1.1136 -0.0426
  539MPD2    C5 8054   2.904   4.478  11.732 -0.2886  0.0840 -0.8340
  539MPD2     H 8055   2.835   4.483  11.356 -0.8877  1.9807  0.6315
  539MPD2    H1 8056   2.978   4.676  11.700  1.1873  0.9903 -2.2695
  539MPD2    H2 8057   2.806   4.295  11.735  1.5011 -0.8280 -0.7322
  539MPD2    H3 8058   2.931   4.473  11.838 -0.6203 -0.2934 -0.7660
  539MPD2     N 8059   2.929   4.715  11.462 -0.2243 -0.4055 -0.1283
  539MPD2    H5 8060   2.953   0.064  11.511  1.2065  0.1058 -1.7369
  539MPD2    N1 8061   2.747   4.272  11.464  0.5720  0.5041  0.4239
  539MPD2    H7 8062   2.754   4.286  11.364 -0.5512  1.5092  0.4902
  540TMC3    C1 8063   2.925   0.131  11.270  0.4201  0.2096 -0.3549
  540TMC3    C2 8064   2.935   0.150  11.132 -0.5066 -0.0617  1.2543
  540TMC3    C3 8065   2.886   0.262  11.078  0.8491  1.1487 -0.2418
  540TMC3    C4 8066   2.873   0.226  11.346 -0.3834  0.3568  0.7199
  540TMC3    C5 8067   2.842   0.348  11.289 -0.2048 -0.7009  0.2838
  540TMC3    C6 8068   2.848   0.370  11.155 -0.3073 -0.2827 -0.0885
  540TMC3     C 8069   2.926   4.729  11.329 -0.2160  0.2144 -0.0519
  540TMC3     O 8070   2.936   4.646  11.241  0.0256  0.2091 -0.0130
  540TMC3     H 8071   2.972   0.075  11.063  0.5646  1.1127  0.5481
  540TMC3    H1 8072   2.854   0.215  11.452 -1.8023  1.2055  0.5613
  540TMC3    H2 8073   2.807   0.463  11.116 -2.3201 -0.5761  1.3557
  540TMC3    C7 8074   2.729   0.403  11.356  0.4520  0.1824 -0.1422
  540TMC3    C8 8075   2.807   0.248  10.957  0.7248 -0.7503  0.2140
  540TMC3    O1 8076   2.621   0.366  11.316 -0.2251  0.1560 -0.2543
  540TMC3    O2 8077   2.812   0.135  10.916 -0.6365 -0.4065  1.0191
  541MPD2     C 8078   1.146   1.747  13.658 -0.3710 -0.6750  0.0588
  541MPD2    C1 8079   1.251   1.674  13.611 -0.0448 -0.3014  0.2456
  541MPD2    C2 8080   1.359   1.737  13.560 -0.4350 -0.1631  0.2190
  541MPD2    C3 8081   1.362   1.874  13.549 -0.0779 -0.0666 -0.0936
  541MPD2    C4 8082   1.257   1.941  13.600  0.2247 -0.6495  0.7225
  541MPD2    C5 8083   1.150   1.886  13.660 -0.6571 -0.3109 -0.1512
  541MPD2     H 8084   1.444   1.691  13.510  0.9815  0.6192  1.9289
  541MPD2    H1 8085   1.243   2.047  13.580 -1.5322 -0.9041  0.6249
  541MPD2    H2 8086   1.052   1.711  13.696 -0.8022  0.5828  0.1954
  541MPD2    H3 8087   1.067   1.945  13.695 -0.2889 -0.3587  0.8209
  541MPD2     N 8088   1.446   1.953  13.474  0.6658 -0.7428  0.7633
  541MPD2    H5 8089   1.409   2.048  13.464  0.8928 -0.7662 -0.2207
  541MPD2    N1 8090   1.253   1.540  13.627  0.6819  0.2370  0.1088
  541MPD2    H7 8091   1.344   1.496  13.614  1.4974  1.8405  0.3629
  542TMC3    C1 8092   1.615   1.996  13.310  0.5021  0.0544 -0.8722
  542TMC3    C2 8093   1.595   1.910  13.205 -0.4598  0.4852  0.7709
  542TMC3    C3 8094   1.546   1.974  13.093 -0.8225  0.0157 -0.1403
  542TMC3    C4 8095   1.575   2.124  13.312  0.4452  0.1829  0.3663
  542TMC3    C5 8096   1.541   2.184  13.195 -0.3567  0.2784  0.2696
  542TMC3    C6 8097   1.524   2.109  13.082  0.0313  0.0771  0.6760
  542TMC3     C 8098   1.566   1.914  13.427 -0.2700 -0.9519  0.4704
  542TMC3     O 8099   1.621   1.804  13.434 -0.2562 -0.4018  0.0495
  542TMC3     H 8100   1.604   1.802  13.213  0.2503  0.3919 -1.2639
  542TMC3    H1 8101   1.584   2.173  13.408 -0.4154 -2.3056  1.7352
  542TMC3    H2 8102   1.479   2.148  12.991 -0.1845 -1.9313 -0.0880
  542TMC3    C7 8103   1.550   2.329  13.193  0.6170  0.2555 -0.5862
  542TMC3    C8 8104   1.557   1.911  12.961 -0.1531 -0.0989 -0.4404
  542TMC3    O1 8105   1.553   2.393  13.296  0.5124 -0.3078  0.1587
  542TMC3    O2 8106   1.549   1.982  12.862 -0.1095 -1.2007  0.5278
  543TMC3    C1 8107   0.615   3.023  17.539  0.1493  0.0201  0.6626
  543TMC3    C2 8108   0.632   2.903  17.593  0.7121 -1.0908 -0.1510
  543TMC3    C3 8109   0.619   2.878  17.725 -0.2080  0.8199  0.1844
  543TMC3    C4 8110   0.596   3.130  17.630  0.1129 -0.2191 -0.4303
  543TMC3    C5 8111   0.595   3.103   0.024  0.4359  1.0225  0.2511
  543TMC3    C6 8112   0.595   2.975   0.074  0.3990  0.1134 -0.1350
  543TMC3     C 8113   0.691   3.048  17.417  0.3636 -0.0813 -1.1427
  543TMC3     O 8114   0.761   2.959  17.370 -0.7836  0.3380 -0.4433
  543TMC3     H 8115   0.664   2.826  17.523  0.3921  1.0664 -2.6705
  543TMC3    H1 8116   0.581   3.232  17.597  0.3693  0.0402  0.2480
  543TMC3    H2 8117   0.586   2.958   0.180 -3.9743 -1.9695 -0.8366
  543TMC3    C7 8118   0.517   3.198   0.103 -0.2227  0.5271  0.0780
  543TMC3    C8 8119   0.609   2.733   0.011 -0.2801  0.1249 -0.3039
  543TMC3    O1 8120   0.466   3.148   0.204 -0.3819 -0.8261 -0.3682
  543TMC3    O2 8121   0.574   2.661  17.659 -0.4884  0.0553 -0.0020
  544MPD2     C 8122   0.536   2.316   0.318  0.4165 -0.0651  0.7651
  544MPD2    C1 8123   0.532   2.327   0.180 -0.8162  0.4338 -0.1339
  544MPD2    C2 8124   0.555   2.450   0.121  0.6325  0.0073  0.2430
  544MPD2    C3 8125   0.604   2.558   0.197 -0.4109 -1.0339  0.6526
  544MPD2    C4 8126   0.622   2.541   0.331  0.3609 -0.0008 -1.0488
  544MPD2    C5 8127   0.572   2.430   0.390  0.3929 -0.2803 -0.7795
  544MPD2     H 8128   0.528   2.468   0.018  0.3356 -0.4567  0.2413
  544MPD2    H1 8129   0.650   2.619   0.401  1.3646 -0.9378 -0.4153
  544MPD2    H2 8130   0.507   2.226   0.370  0.8621 -0.8508 -0.3579
  544MPD2    H3 8131   0.588   2.428   0.497 -0.7563 -0.5503 -0.6083
  544MPD2     N 8132   0.629   2.691   0.146 -0.2256  1.3426  0.0510
  544MPD2    H5 8133   0.654   2.762   0.215  0.9875 -0.0827  1.0611
  544MPD2    N1 8134   0.499   2.215   0.110 -0.0184  0.1722 -0.7417
  544MPD2    H7 8135   0.500   2.129   0.165 -0.2968 -0.8583 -2.3306
  545TMC3    C1 8136   0.498   2.059  17.684  0.5929  0.4441  0.2274
  545TMC3    C2 8137   0.571   2.015  17.576  0.3072 -0.2772 -0.3780
  545TMC3    C3 8138   0.591   1.881  17.565 -0.7267  0.6085  0.1005
  545TMC3    C4 8139   0.457   1.978   0.046 -0.3960 -0.0694  0.4754
  545TMC3    C5 8140   0.492   1.847   0.038  0.6445 -0.4856  0.3060
  545TMC3    C6 8141   0.552   1.797  17.665  0.5395  0.2435  0.8345
  545TMC3     C 8142   0.488   2.195  17.719 -0.1207  1.0312 -0.5972
  545TMC3     O 8143   0.503   2.275  17.625  0.2171  0.0073 -0.1284
  545TMC3     H 8144   0.576   2.078  17.488  2.6602  0.0751 -0.0114
  545TMC3    H1 8145   0.401   2.005   0.135 -1.8276  3.3568 -1.4603
  545TMC3    H2 8146   0.562   1.690  17.650  0.2378  0.3489 -0.1217
  545TMC3    C7 8147   0.416   1.744   0.105 -0.1961 -0.0053  0.4514
  545TMC3    C8 8148   0.671   1.826  17.459  0.2025  0.6580  0.2471
  545TMC3    O1 8149   0.294   1.765   0.111 -0.0780 -0.0575  0.4204
  545TMC3    O2 8150   0.660   1.705  17.439 -0.0269  0.3273  0.1715
  546MPD2     C 8151   2.220   2.696   0.050  0.2354 -0.0858 -0.4645
  546MPD2    C1 8152   2.172   2.771  17.689 -0.3191  0.3604 -0.5843
  546MPD2    C2 8153   2.208   2.903  17.681 -0.4986  0.2327  0.3536
  546MPD2    C3 8154   2.289   2.958   0.035 -0.3591  0.1709  0.1359
  546MPD2    C4 8155   2.319   2.892   0.152  0.3701 -1.0930  0.5006
  546MPD2    C5 8156   2.296   2.755   0.157  0.4328  0.3172 -0.1494
  546MPD2     H 8157   2.183   2.959  17.592 -1.0590 -0.1819  0.2527
  546MPD2    H1 8158   2.383   2.933   0.229  1.2980 -1.2148 -0.2074
  546MPD2    H2 8159   2.189   2.592   0.058 -2.9177  1.0949  2.4797
  546MPD2    H3 8160   2.336   2.696   0.239 -2.1632  0.4714  1.2278
  546MPD2     N 8161   2.331   3.088   0.026  0.2665  0.3866 -0.4872
  546MPD2    H5 8162   2.382   3.119   0.108 -1.9642  2.8364 -0.0118
  546MPD2    N1 8163   2.085   2.715  17.597 -0.1223 -0.3201 -0.4309
  546MPD2    H7 8164   2.062   2.616  17.605 -2.4469 -0.0023 -3.0773
  547TMC3    C1 8165   1.950   2.680  17.403  1.2353 -0.1621 -0.0758
  547TMC3    C2 8166   1.880   2.718  17.289  0.1530  0.0469 -0.2050
  547TMC3    C3 8167   1.825   2.619  17.208  0.0257 -0.7092  0.0544
  547TMC3    C4 8168   1.961   2.545  17.437 -0.9682 -0.0299 -0.4289
  547TMC3    C5 8169   1.910   2.454  17.348 -0.0416 -0.0929 -1.0049
  547TMC3    C6 8170   1.847   2.483  17.235  0.3647 -0.0915  0.3951
  547TMC3     C 8171   2.014   2.781  17.492 -0.3040  0.4811 -0.7924
  547TMC3     O 8172   1.988   2.900  17.474  0.2699 -0.1458 -0.3497
  547TMC3     H 8173   1.863   2.820  17.258  0.4698  0.9457  2.6272
  547TMC3    H1 8174   2.022   2.510  17.519 -2.9323 -0.6712  0.7561
  547TMC3    H2 8175   1.807   2.404  17.172 -0.7890  1.6295 -1.0315
  547TMC3    C7 8176   1.906   2.324  17.401  0.3082  0.1466 -1.4416
  547TMC3    C8 8177   1.714   2.663  17.124 -0.3619 -0.1949 -0.2838
  547TMC3    O1 8178   1.904   2.306  17.524 -0.4709  0.4216 -0.6223
  547TMC3    O2 8179   1.668   2.776  17.136  0.4143  0.9524 -0.2408
  548MPD2     C 8180   1.912   3.734  12.123 -0.3606  0.0491  0.6458
  548MPD2    C1 8181   1.916   3.660  12.236  0.0120  0.0759 -0.8084
  548MPD2    C2 8182   2.036   3.597  12.270  0.3329 -0.4996 -0.2392
  548MPD2    C3 8183   2.147   3.601  12.191 -0.3355 -0.1973  0.1085
  548MPD2    C4 8184   2.148   3.696  12.087 -0.8371  1.1615 -0.2347
  548MPD2    C5 8185   2.024   3.756  12.051 -0.4091  0.4012 -0.5057
  548MPD2     H 8186   2.055   3.542  12.361  1.1058 -3.4615 -2.1752
  548MPD2    H1 8187   2.236   3.710  12.025 -2.3275 -0.5504 -2.7233
  548MPD2    H2 8188   1.817   3.769  12.085 -0.9600 -2.6483 -0.3832
  548MPD2    H3 8189   2.015   3.810  11.957  0.9556  3.7236  1.2687
  548MPD2     N 8190   2.255   3.532  12.247  0.5078  0.4224  0.2011
  548MPD2    H5 8191   2.237   3.479  12.331  1.4184 -1.4750 -0.7911
  548MPD2    N1 8192   1.798   3.654  12.314  0.2618 -0.3796  0.8242
  548MPD2    H7 8193   1.715   3.706  12.288 -0.3096 -1.7694 -0.1097
  549TMC3    C1 8194   1.669   3.576  12.506 -0.8911 -0.3205  0.4639
  549TMC3    C2 8195   1.584   3.685  12.475 -0.3250 -0.9710 -0.8647
  549TMC3    C3 8196   1.459   3.678  12.539  0.0984  0.2100 -0.4437
  549TMC3    C4 8197   1.646   3.489  12.608  0.2873 -0.1755 -0.1474
  549TMC3    C5 8198   1.518   3.488  12.660 -0.0260  0.8158  0.4142
  549TMC3    C6 8199   1.423   3.584  12.627  0.2418  0.0147 -0.2381
  549TMC3     C 8200   1.788   3.566  12.425  0.1647  0.1923 -0.0863
  549TMC3     O 8201   1.862   3.474  12.460 -0.1485  0.0909 -0.0716
  549TMC3     H 8202   1.606   3.760  12.400  1.5409  0.2155  0.8738
  549TMC3    H1 8203   1.725   3.417  12.622  1.9032  1.6943  0.3281
  549TMC3    H2 8204   1.323   3.571  12.669  0.0566  0.6364 -0.4871
  549TMC3    C7 8205   1.489   3.396  12.769 -0.2804 -0.2675  0.2599
  549TMC3    C8 8206   1.372   3.787  12.534  0.4215 -0.6448 -0.5776
  549TMC3    O1 8207   1.377   3.416  12.817  0.3449  0.0124 -0.6763
  549TMC3    O2 8208   1.256   3.770  12.563  0.1727  0.3803  0.2430
  550TMC3    C1 8209   0.940   1.518  12.277  0.0803  0.2708 -0.5231
  550TMC3    C2 8210   0.991   1.550  12.403  0.7386 -0.2348  0.2204
  550TMC3    C3 8211   0.950   1.670  12.461  1.2685  0.1182  0.5167
  550TMC3    C4 8212   0.868   1.609  12.208 -0.8701 -0.4682  0.6305
  550TMC3    C5 8213   0.842   1.730  12.263 -0.4968  0.3285 -0.2934
  550TMC3    C6 8214   0.868   1.758  12.396 -0.3342 -0.3115  0.5923
  550TMC3     C 8215   1.005   1.406  12.208 -0.5495 -0.1223 -0.4989
  550TMC3     O 8216   1.113   1.361  12.249 -0.5375  0.2697 -0.2327
  550TMC3     H 8217   1.015   1.471  12.473  1.7886  1.3983  1.7294
  550TMC3    H1 8218   0.840   1.612  12.104  0.5788 -1.2470  0.2128
  550TMC3    H2 8219   0.823   1.850  12.433 -1.4213 -0.8878  0.6760
  550TMC3    C7 8220   0.738   1.812  12.197 -0.3839 -0.9492 -0.4427
  550TMC3    C8 8221   0.952   1.680  12.604 -0.3746  0.4618  0.4177
  550TMC3    O1 8222   0.649   1.756  12.140  1.0178 -0.1128 -0.0130
  550TMC3    O2 8223   0.992   1.583  12.666 -0.1948 -0.3065  0.2972
  551TMC3    C1 8224   3.129   4.039  13.257  0.1334 -0.7511  1.0149
  551TMC3    C2 8225   3.220   4.125  13.202  1.2386 -0.4068 -0.5568
  551TMC3    C3 8226   3.298   4.210  13.281  0.4919 -0.3750  0.0614
  551TMC3    C4 8227   3.113   4.033  13.395 -0.6389  0.4868  0.2811
  551TMC3    C5 8228   3.178   4.125  13.466  0.4016 -0.4682  0.4067
  551TMC3    C6 8229   3.275   4.215  13.417 -0.2877 -0.5653  0.1159
  551TMC3     C 8230   3.063   3.945  13.169 -0.3919  0.4646  0.2647
  551TMC3     O 8231   3.085   3.964  13.049 -0.0336 -0.4971  0.7312
  551TMC3     H 8232   3.239   4.124  13.095  2.5360 -0.2691 -0.3285
  551TMC3    H1 8233   3.056   3.952  13.439 -2.2126  1.1355 -0.6111
  551TMC3    H2 8234   3.326   4.270  13.495 -0.4694  1.4247 -1.1763
  551TMC3    C7 8235   3.174   4.122  13.614 -0.3117  0.4838  0.5259
  551TMC3    C8 8236   3.407   4.271  13.215  0.3171 -0.0499  0.0737
  551TMC3    O1 8237   3.251   4.197  13.675  0.5882  0.0599  0.3181
  551TMC3    O2 8238   3.438   4.222  13.106 -0.5597 -0.3576  0.3304
  552MPD2     C 8239   4.469   1.799  14.315 -0.5226 -0.0146  0.1801
  552MPD2    C1 8240   4.482   1.683  14.385 -0.3198 -0.3863 -0.0438
  552MPD2    C2 8241   4.588   1.669  14.475  0.0978  0.7250  0.3215
  552MPD2    C3 8242   4.669   1.776  14.503  0.2243  0.1215 -0.3780
  552MPD2    C4 8243   4.635   1.899  14.451 -0.4773 -0.0232 -0.0042
  552MPD2    C5 8244   4.541   1.909  14.350  0.3819 -0.0264 -0.4320
  552MPD2     H 8245   4.596   1.573  14.525 -1.0180 -0.1632 -1.2052
  552MPD2    H1 8246   4.679   1.989  14.494 -0.4579 -0.6365  1.2730
  552MPD2    H2 8247   4.383   1.810  14.249  1.1140 -1.6160 -2.2227
  552MPD2    H3 8248   4.517   2.008  14.312  0.6352  0.1966 -0.0066
  552MPD2     N 8249   0.039   1.766  14.601  0.3565 -0.1331  0.2775
  552MPD2    H5 8250   0.081   1.855  14.624 -1.0743  0.8805 -1.0469
  552MPD2    N1 8251   4.404   1.571  14.351  0.1767  0.2972 -0.4956
  552MPD2    H7 8252   4.419   1.485  14.402 -1.5097  1.1480  1.4441
  553TMC3    C1 8253   4.287   1.419  14.215 -0.2873 -0.8857 -0.1072
  553TMC3    C2 8254   4.246   1.392  14.088 -0.3031  0.0750 -0.6901
  553TMC3    C3 8255   4.225   1.265  14.049  0.7506  0.3978  0.6821
  553TMC3    C4 8256   4.309   1.322  14.313  0.6388 -0.5565 -0.6611
  553TMC3    C5 8257   4.292   1.192  14.269 -0.1861 -0.0662  0.1641
  553TMC3    C6 8258   4.233   1.173  14.139 -1.1711  0.7230  0.0065
  553TMC3     C 8259   4.314   1.564  14.246  0.1927 -0.8093  0.2218
  553TMC3     O 8260   4.273   1.649  14.164 -0.3289  0.6749 -0.4654
  553TMC3     H 8261   4.257   1.473  14.017 -0.3187 -0.0894 -0.8791
  553TMC3    H1 8262   4.322   1.339  14.419  0.6839  2.4472 -1.1683
  553TMC3    H2 8263   4.219   1.069  14.109  1.0470  0.5739 -0.4768
  553TMC3    C7 8264   4.333   1.073  14.345  0.1458  0.2795  0.1516
  553TMC3    C8 8265   4.325   1.248  13.940  0.4557  1.0368  0.5328
  553TMC3    O1 8266   4.260   0.976  14.349 -0.0538 -0.3846  0.2805
  553TMC3    O2 8267   4.405   1.157  13.963 -0.3209 -0.0820  0.6769
  554TMC3    C1 8268   2.334   0.386  11.138  0.5399  0.2988  0.2923
  554TMC3    C2 8269   2.302   0.330  11.014 -0.0952 -0.6955  0.2622
  554TMC3    C3 8270   2.346   0.379  10.901  0.1855 -0.4247 -0.4764
  554TMC3    C4 8271   2.404   0.505  11.152  0.1761  0.0784 -0.0024
  554TMC3    C5 8272   2.459   0.552  11.033 -0.0881  0.1605  0.0555
  554TMC3    C6 8273   2.423   0.496  10.913 -0.9176  0.4804 -0.1849
  554TMC3     C 8274   2.268   0.334  11.253 -0.5943  0.3651 -0.4360
  554TMC3     O 8275   2.149   0.310  11.233 -0.5504 -0.6032 -0.2028
  554TMC3     H 8276   2.234   0.245  11.008 -0.1495 -0.5875 -0.7485
  554TMC3    H1 8277   2.442   0.542  11.246  0.2313 -1.8245  0.7228
  554TMC3    H2 8278   2.434   0.566  10.830  0.1934 -0.0604 -0.4952
  554TMC3    C7 8279   2.521   0.681  11.025 -1.1699 -0.0455  1.1533
  554TMC3    C8 8280   2.252   0.380  10.796  0.1970  0.2109  0.6454
  554TMC3    O1 8281   2.600   0.696  10.935  0.6785 -0.2927  0.1114
  554TMC3    O2 8282   2.251   0.485  10.727  0.0916  0.1394  0.6018
  555TMC3    C1 8283   0.863   0.303  15.556  0.5144  0.0666 -0.7916
  555TMC3    C2 8284   0.810   0.368  15.664 -0.7618 -0.1717 -0.1207
  555TMC3    C3 8285   0.820   0.311  15.789  0.0620 -0.4280 -0.2286
  555TMC3    C4 8286   0.926   0.182  15.560  0.6807 -0.5391 -0.5625
  555TMC3    C5 8287   0.927   0.128  15.685 -0.2880 -0.1518 -0.1709
  555TMC3    C6 8288   0.879   0.191  15.798  0.1906  0.0608 -0.6135
  555TMC3     C 8289   0.817   0.347  15.428 -0.1493 -1.2804 -0.1308
  555TMC3     O 8290   0.718   0.423  15.423  0.5214  0.2509 -0.2717
  555TMC3     H 8291   0.787   0.473  15.650 -1.0348 -0.0620  1.1463
  555TMC3    H1 8292   0.928   0.125  15.468  0.6304 -3.0033  0.9695
  555TMC3    H2 8293   0.880   0.127  15.886  0.2523  0.6044 -0.2199
  555TMC3    C7 8294   1.005   0.006  15.698 -0.0790 -0.1504 -0.1049
  555TMC3    C8 8295   0.792   0.402  15.899 -0.2174 -0.1541 -0.5617
  555TMC3    O1 8296   0.991   4.671  15.794 -0.6111 -0.5140 -0.4864
  555TMC3    O2 8297   0.756   0.515  15.866  0.1111  0.1688 -0.6988
  556MPD2     C 8298   3.582   1.783  10.609  0.2864 -0.1321 -0.0777
  556MPD2    C1 8299   3.629   1.678  10.688 -0.0335  0.2334 -0.0397
  556MPD2    C2 8300   3.647   1.561  10.622 -0.4248  0.3807 -0.7711
  556MPD2    C3 8301   3.616   1.536  10.484 -0.2929  0.4054 -0.2562
  556MPD2    C4 8302   3.580   1.649  10.407  0.3744  0.1160  0.6300
  556MPD2    C5 8303   3.561   1.766  10.475 -0.3564 -0.2057 -0.0109
  556MPD2     H 8304   3.696   1.481  10.677 -1.8358 -0.0653 -0.1489
  556MPD2    H1 8305   3.563   1.640  10.300  0.7468  2.1025  0.4075
  556MPD2    H2 8306   3.556   1.882  10.646 -0.5575 -0.5895  0.5533
  556MPD2    H3 8307   3.520   1.850  10.420  0.8694 -0.5651 -1.4782
  556MPD2     N 8308   3.625   1.404  10.429 -0.1892  0.2830 -0.8941
  556MPD2    H5 8309   3.623   1.336  10.504 -1.5256  0.0233 -1.1743
  556MPD2    N1 8310   3.654   1.689  10.825 -0.0521 -0.5112 -0.1103
  556MPD2    H7 8311   3.700   1.605  10.857  0.2076  0.1537  1.2267
  557TMC3    C1 8312   3.599   1.227  10.279  0.2199 -1.3022  0.3478
  557TMC3    C2 8313   3.530   1.180  10.174  0.2003 -0.7219 -0.0711
  557TMC3    C3 8314   3.509   1.055  10.156 -0.4003  0.2490 -0.2647
  557TMC3    C4 8315   3.665   1.151  10.366 -0.9039 -1.1522 -0.4804
  557TMC3    C5 8316   3.647   1.016  10.348  0.0087 -0.0444  0.2502
  557TMC3    C6 8317   3.568   0.967  10.246 -0.6985  0.8520 -0.1887
  557TMC3     C 8318   3.607   1.372  10.299 -0.6851  0.0444 -0.1881
  557TMC3     O 8319   3.598   1.443  10.201 -0.0046 -0.1704 -0.2563
  557TMC3     H 8320   3.476   1.249  10.111 -0.0859 -1.9772 -1.2093
  557TMC3    H1 8321   3.732   1.197  10.438 -1.9017  0.4311 -0.5638
  557TMC3    H2 8322   3.545   0.862  10.239 -1.2027  1.1361 -2.6507
  557TMC3    C7 8323   3.691   0.916  10.446  0.8547  0.2573 -0.4786
  557TMC3    C8 8324   3.414   1.006  10.058  0.1583  0.8671 -0.0817
  557TMC3    O1 8325   3.662   0.801  10.429 -0.1432 -0.2083  0.2003
  557TMC3    O2 8326   3.343   1.096  10.008  0.5747  0.2158  0.5943
  558TMC3    C1 8327   1.061   4.581  10.616 -0.8785  0.4030 -0.1059
  558TMC3    C2 8328   0.951   4.509  10.655  0.6202  0.0708  0.0690
  558TMC3    C3 8329   0.841   4.500  10.567  0.1416 -0.1219  0.2003
  558TMC3    C4 8330   1.055   4.667  10.510 -0.1733  0.5965  0.4809
  558TMC3    C5 8331   0.938   4.664  10.432  0.3751 -0.2964  0.7616
  558TMC3    C6 8332   0.838   4.569  10.453  0.6915 -0.2468  0.6701
  558TMC3     C 8333   1.190   4.541  10.668  0.0077 -0.5430 -0.6760
  558TMC3     O 8334   1.282   4.581  10.603 -0.1308 -0.1677  0.0148
  558TMC3     H 8335   0.956   4.447  10.743  0.4174  1.0568  0.7812
  558TMC3    H1 8336   1.134   0.002  10.490  0.4077 -0.1518  0.1029
  558TMC3    H2 8337   0.742   4.566  10.403  0.7777 -0.6760  0.5273
  558TMC3    C7 8338   0.961   4.710  10.295  1.0955  0.1774  0.6681
  558TMC3    C8 8339   0.732   4.403  10.587  0.4175  0.3379 -0.2625
  558TMC3    O1 8340   1.046   0.058  10.266  0.0703  0.5786 -0.2532
  558TMC3    O2 8341   0.648   4.384  10.499 -0.3324  0.2599  0.1413
  559MPD2     C 8342   1.490   0.187  10.671  0.4845 -0.2069  1.0175
  559MPD2    C1 8343   1.400   0.120  10.746 -0.1294  0.9875  0.0300
  559MPD2    C2 8344   1.441   0.008  10.818 -0.0835  0.4416 -0.1468
  559MPD2    C3 8345   1.560   4.691  10.805  0.1168 -0.0961 -0.7080
  559MPD2    C4 8346   1.647   0.016  10.724 -0.4322 -0.1988 -0.0552
  559MPD2    C5 8347   1.611   0.134  10.653  0.2246 -0.0665 -0.1835
  559MPD2     H 8348   1.373   4.691  10.884  0.8075 -0.4587  0.0330
  559MPD2    H1 8349   1.736   4.698  10.696 -0.1815 -0.1227  0.6043
  559MPD2    H2 8350   1.473   0.277  10.613  1.6059 -0.3930  0.3968
  559MPD2    H3 8351   1.665   0.166  10.565  1.2783 -2.9875 -0.6262
  559MPD2     N 8352   1.587   4.576  10.885  0.6867 -0.5583 -0.0928
  559MPD2    H5 8353   1.516   4.550  10.952 -0.6671  0.0744 -1.2848
  559MPD2    N1 8354   1.282   0.188  10.760  0.4816 -0.6818 -0.2361
  559MPD2    H7 8355   1.276   0.276  10.711 -2.9995 -1.3335 -0.9674
  560TMC3    C1 8356   1.713   4.395  10.974 -0.3704  0.1804 -0.5015
  560TMC3    C2 8357   1.598   4.344  11.031 -0.4120  0.2042 -0.1264
  560TMC3    C3 8358   1.598   4.239  11.116  0.1402 -0.2821 -0.3026
  560TMC3    C4 8359   1.835   4.351  11.006 -0.1658 -0.4361 -0.6247
  560TMC3    C5 8360   1.835   4.245  11.091  0.7922 -0.1657 -0.7458
  560TMC3    C6 8361   1.724   4.181  11.142  0.8143 -0.1013 -0.2635
  560TMC3     C 8362   1.704   4.502  10.878 -0.2909 -0.4860  0.9275
  560TMC3     O 8363   1.799   4.500  10.799  0.4567  0.2566  0.4002
  560TMC3     H 8364   1.504   4.389  10.999  0.2285  2.1917  0.7615
  560TMC3    H1 8365   1.922   4.407  10.971 -2.1474  3.5892  0.8329
  560TMC3    H2 8366   1.734   4.107  11.221  0.5850 -1.6998 -1.7255
  560TMC3    C7 8367   1.946   4.243  11.184 -0.1989  0.0918 -0.4625
  560TMC3    C8 8368   1.480   4.197  11.183 -0.5114  0.4359 -0.1112
  560TMC3    O1 8369   1.923   4.201  11.297  0.0276  0.2697  0.0936
  560TMC3    O2 8370   1.467   4.079  11.212  0.2195  0.4000  0.1653
  561TMC3    C1 8371   4.281   4.169  11.530 -0.4940 -0.1305  0.5701
  561TMC3    C2 8372   4.201   4.081  11.595  0.6807 -0.3375 -0.3534
  561TMC3    C3 8373   4.077   4.126  11.613  0.2267 -0.5833 -0.9746
  561TMC3    C4 8374   4.229   4.261  11.442  0.2311  0.2756 -0.3999
  561TMC3    C5 8375   4.094   4.284  11.450 -0.0584  0.5252  0.0247
  561TMC3    C6 8376   4.016   4.221  11.540 -0.0329 -0.3772  0.4437
  561TMC3     C 8377   4.416   4.130  11.513  0.8056 -0.1024 -0.1236
  561TMC3     O 8378   4.456   4.015  11.533 -0.2586 -0.1764  0.6622
  561TMC3     H 8379   4.245   3.993  11.641 -0.2713 -0.2905  0.6427
  561TMC3    H1 8380   4.291   4.310  11.367  1.2733 -0.5711 -0.1024
  561TMC3    H2 8381   3.914   4.248  11.562 -0.1724 -1.4264  1.0676
  561TMC3    C7 8382   4.033   4.386  11.366 -0.1282  0.0293  0.1511
  561TMC3    C8 8383   3.989   4.071  11.714 -0.0086 -0.3336  0.6113
  561TMC3    O1 8384   3.911   4.393  11.374 -0.0702 -0.5454  0.0617
  561TMC3    O2 8385   3.878   4.033  11.677  0.4669 -0.7238  0.5579
  562TMC3    C1 8386   0.507   0.471  16.699 -0.4675  0.0121  0.0995
  562TMC3    C2 8387   0.535   0.595  16.644 -0.3335 -1.0451  0.0032
  562TMC3    C3 8388   0.531   0.607  16.509  0.0467  0.5731 -0.0649
  562TMC3    C4 8389   0.487   0.363  16.618 -0.4952  0.0751  0.5303
  562TMC3    C5 8390   0.496   0.377  16.485 -0.2598 -0.5980 -0.4906
  562TMC3    C6 8391   0.511   0.497  16.431  0.0113  0.5239 -0.0841
  562TMC3     C 8392   0.509   0.458  16.846 -0.9016 -0.1233 -0.1389
  562TMC3     O 8393   0.481   0.561  16.910  0.2351 -0.8712 -0.3402
  562TMC3     H 8394   0.547   0.681  16.710  1.5836 -0.9735 -0.4324
  562TMC3    H1 8395   0.434   0.272  16.643 -0.1441 -0.3862 -0.3961
  562TMC3    H2 8396   0.505   0.505  16.323  0.4559  1.2469 -0.0578
  562TMC3    C7 8397   0.452   0.271  16.399 -0.2940 -0.1593  0.1966
  562TMC3    C8 8398   0.524   0.740  16.452  0.6306  0.2630  0.0535
  562TMC3    O1 8399   0.385   0.303  16.305 -0.2318 -0.1544 -0.6351
  562TMC3    O2 8400   0.586   0.826  16.511  0.6196  0.2044  0.0322
  563MPD2     C 8401   3.270   1.779  15.778 -0.0063 -0.0651  0.2434
  563MPD2    C1 8402   3.304   1.757  15.909 -0.5789  0.0367 -0.3448
  563MPD2    C2 8403   3.419   1.678  15.946  0.6518 -0.0368 -0.3702
  563MPD2    C3 8404   3.492   1.625  15.844 -0.0484 -0.4051  0.6853
  563MPD2    C4 8405   3.462   1.653  15.718 -0.0655 -0.1402  0.2050
  563MPD2    C5 8406   3.353   1.728  15.681 -0.0418 -0.1707 -0.2089
  563MPD2     H 8407   3.447   1.657  16.048 -1.0018  2.1864  0.5207
  563MPD2    H1 8408   3.503   1.602  15.632 -1.2164  1.0414 -1.0421
  563MPD2    H2 8409   3.183   1.842  15.762 -0.0035  0.0787  0.7935
  563MPD2    H3 8410   3.331   1.752  15.577  2.9263 -0.0232 -0.8194
  563MPD2     N 8411   3.593   1.534  15.887 -0.5778 -0.6594  0.0039
  563MPD2    H5 8412   3.600   1.525  15.988  0.4512 -0.9408 -0.0965
  563MPD2    N1 8413   3.210   1.790  16.009 -0.3291 -0.4100  0.6385
  563MPD2    H7 8414   3.118   1.819  15.976  0.7426  1.5658 -0.6164
  564TMC3    C1 8415   3.125   1.789  16.230  0.2878 -0.1433  0.3889
  564TMC3    C2 8416   3.008   1.779  16.160 -0.0091  0.1113 -1.1788
  564TMC3    C3 8417   2.912   1.695  16.213  1.0056  0.2217  0.0843
  564TMC3    C4 8418   3.154   1.707  16.333  0.0178 -0.1941  0.3829
  564TMC3    C5 8419   3.059   1.624  16.389  0.0689 -0.4093  0.5882
  564TMC3    C6 8420   2.939   1.623  16.326  0.2909 -0.5658 -0.0638
  564TMC3     C 8421   3.244   1.796  16.143  0.0731 -0.2678  0.4996
  564TMC3     O 8422   3.346   1.781  16.205 -0.3983  0.7881  0.1218
  564TMC3     H 8423   2.986   1.853  16.084  1.1689 -0.2367 -1.8629
  564TMC3    H1 8424   3.245   1.709  16.391  1.4870  2.4698 -2.0276
  564TMC3    H2 8425   2.871   1.544  16.358 -1.0531  0.3336 -0.7363
  564TMC3    C7 8426   3.096   1.487  16.417 -0.1311  0.6876  0.4372
  564TMC3    C8 8427   2.844   1.602  16.124 -0.6098 -0.0628  0.0033
  564TMC3    O1 8428   3.077   1.439  16.529 -0.0382 -0.1480  0.3251
  564TMC3    O2 8429   2.773   1.519  16.167 -0.6556 -0.1981  0.1304
  565TMC3    C1 8430   3.918   3.374  10.002  0.1701  0.2302 -0.1292
  565TMC3    C2 8431   3.899   3.253  10.066  0.2232 -0.3866  0.1401
  565TMC3    C3 8432   3.793   3.178  10.014 -0.1538 -0.3011  0.0476
  565TMC3    C4 8433   3.841   3.428   9.901 -0.1760  0.0949  0.1468
  565TMC3    C5 8434   3.736   3.348   9.851 -0.2108 -0.4846  0.2700
  565TMC3    C6 8435   3.709   3.224   9.912 -0.1720  0.9002 -0.0819
  565TMC3     C 8436   4.037   3.451  10.017  0.9567  0.1225 -0.0022
  565TMC3     O 8437   4.073   3.524   9.926  0.0476  0.0236  0.1866
  565TMC3     H 8438   3.975   3.211  10.131 -2.1823 -3.3142  1.0549
  565TMC3    H1 8439   3.864   3.523   9.854 -0.6706 -0.8386 -1.9688
  565TMC3    H2 8440   3.639   3.152   9.870  0.1585  0.5991 -0.1244
  565TMC3    C7 8441   3.686   3.377   9.723  0.3970  0.7535  0.0189
  565TMC3    C8 8442   3.766   3.056  10.087  0.1577 -0.2041 -0.1858
  565TMC3    O1 8443   3.699   3.494   9.690  0.1779  0.7056 -0.1450
  565TMC3    O2 8444   3.694   2.978  10.027  0.3289 -0.4966  0.5386
  566MPD2     C 8445   0.910   0.583  14.161  0.0141  0.4029  0.5713
  566MPD2    C1 8446   0.853   0.454  14.139 -0.3249  0.4909 -0.1605
  566MPD2    C2 8447   0.717   0.450  14.106  0.0943  0.5667  0.1781
  566MPD2    C3 8448   0.649   0.563  14.058 -0.2568  0.8038 -0.5073
  566MPD2    C4 8449   0.713   0.692  14.075 -0.1573 -0.9824  0.3945
  566MPD2    C5 8450   0.842   0.696  14.124 -0.3623  0.2682 -0.6362
  566MPD2     H 8451   0.665   0.355  14.114  0.9732 -0.0043 -1.0229
  566MPD2    H1 8452   0.662   0.784  14.049  1.9332 -0.6548 -2.4691
  566MPD2    H2 8453   1.008   0.597  14.207 -0.0680 -2.0927  1.4977
  566MPD2    H3 8454   0.881   0.796  14.128  0.6614 -0.1793  0.4824
  566MPD2     N 8455   0.517   0.563  14.004  0.6880 -0.1406  0.0376
  566MPD2    H5 8456   0.462   0.646  14.024 -0.3915 -0.6829 -0.6714
  566MPD2    N1 8457   0.932   0.341  14.163 -0.0531 -0.3786  0.1285
  566MPD2    H7 8458   1.028   0.363  14.190  0.7674 -2.3464 -1.1764
  567TMC3    C1 8459   1.003   0.120  14.147  0.6968  0.3451 -0.7232
  567TMC3    C2 8460   1.030   0.042  14.034  0.1838 -0.2621  0.1688
  567TMC3    C3 8461   1.150   4.712  14.029 -0.3789 -0.8252  0.2164
  567TMC3    C4 8462   1.079   0.120  14.257 -0.0824 -0.1257  0.1254
  567TMC3    C5 8463   1.190   0.041  14.249  0.2296  0.3920  0.0920
  567TMC3    C6 8464   1.235   4.707  14.143  0.0402  0.0838 -0.0470
  567TMC3     C 8465   0.894   0.213  14.133  0.8927  0.3550 -0.1090
  567TMC3     O 8466   0.801   0.162  14.067 -0.0961 -0.2476  0.5068
  567TMC3     H 8467   0.963   0.032  13.949 -1.1018 -0.6749  1.2284
  567TMC3    H1 8468   1.048   0.182  14.341  1.0004  1.2639 -0.5086
  567TMC3    H2 8469   1.318   4.639  14.160 -1.9494 -2.6841 -1.5072
  567TMC3    C7 8470   1.228   4.726  14.382  0.2240 -0.4802  0.0713
  567TMC3    C8 8471   1.202   4.696  13.894 -1.0560 -0.3609  0.0144
  567TMC3    O1 8472   1.349   4.699  14.410  0.1632  0.0183  0.4937
  567TMC3    O2 8473   1.169   0.043  13.813 -0.5065 -0.4293  0.0923
  568MPD2     C 8474   3.019   0.027  16.209 -0.3003 -0.1207  0.4097
  568MPD2    C1 8475   2.981   0.090  16.325 -0.0416 -0.2533 -0.3669
  568MPD2    C2 8476   2.973   0.229  16.320 -0.9256  0.2456 -0.0157
  568MPD2    C3 8477   2.996   0.299  16.198  0.6731  0.4547 -0.2582
  568MPD2    C4 8478   3.043   0.230  16.087  0.3684  0.4873 -0.4195
  568MPD2    C5 8479   3.044   0.094  16.093 -0.7845 -0.0870  0.1049
  568MPD2     H 8480   2.940   0.286  16.406 -2.4811  0.3661 -0.7050
  568MPD2    H1 8481   3.057   0.269  15.987  0.2318  0.4886 -0.4378
  568MPD2    H2 8482   3.043   4.657  16.204 -0.2356 -0.1640  1.7107
  568MPD2    H3 8483   3.074   0.038  16.005  0.4372 -1.2006  1.2223
  568MPD2     N 8484   2.979   0.438  16.211  0.6188  0.7838 -0.6532
  568MPD2    H5 8485   2.951   0.455  16.307  1.3200  0.0848 -0.3226
  568MPD2    N1 8486   2.977   0.020  16.447  0.1584 -0.2955  0.3734
  568MPD2    H7 8487   2.999   4.658  16.441  1.8097 -0.0812  3.2364
  569TMC3    C1 8488   3.011   0.667  16.141  0.4758  0.6844  0.6099
  569TMC3    C2 8489   2.959   0.697  16.268 -0.0300  0.3615 -0.2828
  569TMC3    C3 8490   2.971   0.830  16.307 -0.0963 -0.7171  0.0009
  569TMC3    C4 8491   3.041   0.757  16.053 -1.1245  0.1458  0.2149
  569TMC3    C5 8492   3.030   0.887  16.091 -1.0920 -0.3879 -0.3802
  569TMC3    C6 8493   2.996   0.932  16.219  0.4901  0.1791  0.5289
  569TMC3     C 8494   3.015   0.528  16.107  0.0008  0.6039  0.5621
  569TMC3     O 8495   3.055   0.504  15.993  0.0088  0.1252  0.8641
  569TMC3     H 8496   2.934   0.621  16.341  0.7505  1.4549  1.1175
  569TMC3    H1 8497   3.057   0.734  15.949 -2.9103 -0.6619  0.1267
  569TMC3    H2 8498   3.000   1.036  16.250 -0.9191  1.1325 -2.4378
  569TMC3    C7 8499   3.054   0.985  15.979 -0.3136  0.8095 -0.4921
  569TMC3    C8 8500   2.917   0.857  16.439  0.6527  0.0207 -0.1930
  569TMC3    O1 8501   3.148   0.956  15.907 -0.0146  0.1998  0.2879
  569TMC3    O2 8502   2.861   0.769  16.502  0.5301 -0.0863  0.0465
  570TMC3    C1 8503   2.476   3.796  16.566 -0.5054  1.2735 -0.7999
  570TMC3    C2 8504   2.546   3.795  16.448 -0.1073 -0.2362 -0.3372
  570TMC3    C3 8505   2.609   3.907  16.409 -0.3866 -0.1698 -0.0928
  570TMC3    C4 8506   2.477   3.906  16.647  0.0796 -0.1182 -0.4523
  570TMC3    C5 8507   2.538   4.019  16.603 -0.3218  0.7565 -0.4456
  570TMC3    C6 8508   2.611   4.019  16.486 -0.0041  0.9508  0.4056
  570TMC3     C 8509   2.410   3.673  16.611 -0.9036  0.1838 -0.5244
  570TMC3     O 8510   2.409   3.586  16.522  0.3472  0.4844 -0.4037
  570TMC3     H 8511   2.547   3.703  16.390 -0.6332 -0.1306 -0.5193
  570TMC3    H1 8512   2.410   3.903  16.732 -2.0968 -1.8193 -2.2265
  570TMC3    H2 8513   2.657   4.112  16.453  0.3960  0.3689 -0.6823
  570TMC3    C7 8514   2.518   4.142  16.683  0.7545 -0.0541 -0.5181
  570TMC3    C8 8515   2.680   3.904  16.284  0.1103  1.0131 -0.8488
  570TMC3    O1 8516   2.481   4.135  16.799 -0.0465  0.1912 -0.0146
  570TMC3    O2 8517   2.709   4.020  16.247  0.1954  0.7800  0.3912
  571MPD2     C 8518   0.134   0.571   0.186 -0.1033 -0.2198 -0.2764
  571MPD2    C1 8519   0.178   0.513   0.304 -0.0305 -0.0600 -0.6804
  571MPD2    C2 8520   0.236   0.592   0.395 -0.4856 -1.0431  0.6300
  571MPD2    C3 8521   0.270   0.723   0.368  0.1646 -0.4642 -0.1168
  571MPD2    C4 8522   0.234   0.775   0.246  0.8121  0.9013  0.3844
  571MPD2    C5 8523   0.170   0.700   0.157 -0.3931 -0.3650 -0.1320
  571MPD2     H 8524   0.273   0.552   0.489  1.9519 -2.1806 -0.8074
  571MPD2    H1 8525   0.270   0.872   0.215  1.6494  1.2164  2.3778
  571MPD2    H2 8526   0.094   0.510   0.107  3.1546 -0.4926 -1.7037
  571MPD2    H3 8527   0.140   0.744   0.063  0.7703 -1.6861 -1.1379
  571MPD2     N 8528   0.315   0.815   0.469 -0.1272 -0.1636  0.1798
  571MPD2    H5 8529   0.331   0.910   0.437 -0.6469 -0.1957 -0.1752
  571MPD2    N1 8530   0.141   0.380   0.325  0.3512  0.2933  0.3348
  571MPD2    H7 8531   0.098   0.330   0.248 -1.6043  1.9890  0.3075
  572TMC3    C1 8532   0.418   0.894   0.660  0.4250  0.7929 -0.1138
  572TMC3    C2 8533   0.537   0.843   0.714 -0.2732 -0.9881  0.6643
  572TMC3    C3 8534   0.647   0.922   0.717  0.0654  0.7704 -0.0837
  572TMC3    C4 8535   0.403   1.021   0.618 -0.0946  0.1839  0.0359
  572TMC3    C5 8536   0.521   1.088   0.616 -0.1271  0.8126  0.4142
  572TMC3    C6 8537   0.643   1.050   0.664  0.0031 -0.1312 -0.8714
  572TMC3     C 8538   0.335   0.790   0.606  0.1180 -0.4758 -0.0019
  572TMC3     O 8539   0.324   0.680   0.660  0.2272 -0.0122  0.7671
  572TMC3     H 8540   0.555   0.738   0.735  0.1100 -1.3254 -1.2768
  572TMC3    H1 8541   0.305   1.065   0.602  0.5048  1.2184 -0.7914
  572TMC3    H2 8542   0.728   1.117   0.663 -0.8936  1.0361  1.5996
  572TMC3    C7 8543   0.502   1.229   0.602  0.3680  0.0570  0.3260
  572TMC3    C8 8544   0.781   0.862   0.729  0.0120 -0.3096 -0.1933
  572TMC3    O1 8545   0.385   1.264   0.606 -0.2686 -0.4599  0.8987
  572TMC3    O2 8546   0.876   0.936   0.701 -0.4734 -0.6669 -0.6954
  573MPD2     C 8547   1.489   0.793   0.595 -0.7433 -0.1080  0.7626
  573MPD2    C1 8548   1.418   0.910   0.597  0.5801  0.4262 -0.0792
  573MPD2    C2 8549   1.290   0.908   0.534  0.4359 -0.3129 -0.8682
  573MPD2    C3 8550   1.234   0.798   0.474 -0.4197  0.8456  0.8395
  573MPD2    C4 8551   1.311   0.685   0.469 -0.2891 -0.0014 -0.8924
  573MPD2    C5 8552   1.438   0.686   0.519  0.4474  0.0594  0.6631
  573MPD2     H 8553   1.233   0.999   0.548  1.6667 -0.0367  2.3268
  573MPD2    H1 8554   1.266   0.592   0.436 -3.2950  1.5204 -1.0677
  573MPD2    H2 8555   1.595   0.790   0.620 -0.7927 -1.5770  0.7654
  573MPD2    H3 8556   1.509   0.605   0.527 -0.5587 -0.9984 -1.4468
  573MPD2     N 8557   1.095   0.793   0.435  0.6957 -0.5535 -0.1831
  573MPD2    H5 8558   1.067   0.700   0.404 -0.8242 -0.1299 -0.0754
  573MPD2    N1 8559   1.461   1.019   0.679 -0.2933 -0.7726 -0.2449
  573MPD2    H7 8560   1.546   1.003   0.732 -0.7001  0.8253  0.8921
  574TMC3    C1 8561   0.882   0.871   0.360  1.1114  0.8883  0.3603
  574TMC3    C2 8562   0.799   0.986   0.347  0.8378 -1.0393  0.3904
  574TMC3    C3 8563   0.693   0.971   0.258 -0.6619  0.1055  1.2362
  574TMC3    C4 8564   0.860   0.754   0.287 -0.2381  0.1176  0.2521
  574TMC3    C5 8565   0.741   0.747   0.214 -0.3557 -0.9275 -0.4431
  574TMC3    C6 8566   0.659   0.858   0.196  0.1450  0.3868 -1.2922
  574TMC3     C 8567   1.005   0.897   0.428  0.4825  0.0022  0.6621
  574TMC3     O 8568   1.027   1.014   0.449  0.0557 -0.0438  0.1936
  574TMC3     H 8569   0.800   1.074   0.410 -0.4989 -0.9645  0.3038
  574TMC3    H1 8570   0.921   0.665   0.283 -0.2139  0.1240  0.4351
  574TMC3    H2 8571   0.564   0.859   0.144  0.2890  0.6796 -1.5499
  574TMC3    C7 8572   0.704   0.625   0.154 -0.0511 -0.4371 -0.3480
  574TMC3    C8 8573   0.581   1.053   0.280  0.5302  0.0110 -0.6295
  574TMC3    O1 8574   0.782   0.530   0.168 -0.4041 -0.3361  0.1853
  574TMC3    O2 8575   0.472   0.994   0.292  0.0211  0.3183 -0.2241
  575TMC3    C1 8576   3.432   2.335  10.461 -0.1801 -0.3075 -0.0887
  575TMC3    C2 8577   3.303   2.335  10.421 -0.1505 -0.2152  0.2317
  575TMC3    C3 8578   3.273   2.395  10.303 -0.6015  0.4450  0.7345
  575TMC3    C4 8579   3.533   2.392  10.399 -0.0977  0.2746  0.3778
  575TMC3    C5 8580   3.494   2.468  10.291 -0.1633  0.5245  0.6106
  575TMC3    C6 8581   3.371   2.464  10.240 -0.0985 -0.3589  0.7107
  575TMC3     C 8582   3.456   2.277  10.597  0.3542 -0.3031 -0.2149
  575TMC3     O 8583   3.565   2.222  10.615  0.0972 -0.2825  0.1370
  575TMC3     H 8584   3.225   2.293  10.483 -0.1148  0.5926  0.8237
  575TMC3    H1 8585   3.636   2.378  10.430  0.1066  1.3563  0.1901
  575TMC3    H2 8586   3.358   2.516  10.146  1.1815 -1.0122  0.1706
  575TMC3    C7 8587   3.577   2.579  10.259  0.1730  0.0252 -0.2606
  575TMC3    C8 8588   3.143   2.371  10.242  0.1316  0.2483 -0.5380
  575TMC3    O1 8589   3.571   2.623  10.145 -0.5388  0.5041 -0.4944
  575TMC3    O2 8590   3.073   2.313  10.324 -0.1737 -0.3299 -0.3143
  576MPD2     C 8591   2.864   3.994  12.435 -0.3665  1.1671  0.2924
  576MPD2    C1 8592   2.991   3.998  12.474 -0.1550 -0.0529 -0.1453
  576MPD2    C2 8593   3.027   4.039  12.605  0.9237 -0.2624  0.5570
  576MPD2    C3 8594   2.926   4.086  12.690  0.2782 -0.9341 -0.5768
  576MPD2    C4 8595   2.796   4.090  12.642 -0.0895  0.1361 -0.1704
  576MPD2    C5 8596   2.765   4.042  12.520 -0.6872  0.1617  0.1196
  576MPD2     H 8597   3.132   4.039  12.633  1.1495 -0.7463 -0.3067
  576MPD2    H1 8598   2.711   4.131  12.696 -0.4565  0.7059 -1.1907
  576MPD2    H2 8599   2.835   3.974  12.333  0.9342 -1.4252  0.4361
  576MPD2    H3 8600   2.665   4.044  12.479 -0.9283  1.2133  0.7539
  576MPD2     N 8601   2.965   4.140  12.815  0.3554 -0.4925  0.3148
  576MPD2    H5 8602   3.065   4.154  12.828  0.5279  0.8588 -2.4821
  576MPD2    N1 8603   3.096   3.965  12.383  0.2054  0.1067  0.4767
  576MPD2    H7 8604   3.187   3.950  12.424  0.7149  1.1906 -0.2502
  577TMC3    C1 8605   3.222   3.883  12.201  0.1724 -0.2998  0.5594
  577TMC3    C2 8606   3.336   3.936  12.251  0.2266  0.1025  0.5228
  577TMC3    C3 8607   3.452   3.889  12.194 -0.1036  0.2812 -0.1617
  577TMC3    C4 8608   3.216   3.787  12.101  0.5363 -0.6975 -0.7923
  577TMC3    C5 8609   3.336   3.739  12.057 -0.4611 -0.4979 -0.4021
  577TMC3    C6 8610   3.459   3.790  12.100  0.1295  0.3045  0.4962
  577TMC3     C 8611   3.090   3.931  12.253  0.0460 -0.0071  0.6878
  577TMC3     O 8612   2.993   3.920  12.181 -0.1846 -0.5763  0.6266
  577TMC3     H 8613   3.341   4.007  12.332  0.3626 -1.1144  1.5862
  577TMC3    H1 8614   3.122   3.739  12.075 -1.3990  1.3088  2.4317
  577TMC3    H2 8615   3.554   3.741  12.080  0.7161  1.4574  0.4662
  577TMC3    C7 8616   3.346   3.656  11.940  0.0061  0.7750 -0.3832
  577TMC3    C8 8617   3.571   3.966  12.215  1.1281 -0.0876  0.1584
  577TMC3    O1 8618   3.453   3.617  11.902  0.5879  0.3900 -0.0086
  577TMC3    O2 8619   3.567   4.039  12.318 -0.1433  0.8265 -0.2954
  578MPD2     C 8620   2.392   3.820   1.246 -0.1365 -0.1688 -0.3277
  578MPD2    C1 8621   2.348   3.710   1.169  0.0608  0.5394 -0.3076
  578MPD2    C2 8622   2.421   3.598   1.178  0.1907 -0.4593  0.0448
  578MPD2    C3 8623   2.534   3.586   1.258 -0.2070 -0.3554  0.0047
  578MPD2    C4 8624   2.579   3.698   1.327 -0.5743  0.5067 -0.6441
  578MPD2    C5 8625   2.504   3.808   1.318  0.0148 -0.0745 -0.4067
  578MPD2     H 8626   2.399   3.507   1.123  0.7876  0.3111 -1.4890
  578MPD2    H1 8627   2.663   3.693   1.395  1.3957  1.0173 -3.0277
  578MPD2    H2 8628   2.340   3.915   1.237  3.0378  1.4648 -1.3987
  578MPD2    H3 8629   2.538   3.901   1.363  0.6371 -0.5032 -0.0033
  578MPD2     N 8630   2.605   3.463   1.256 -0.6339  0.3994  0.0585
  578MPD2    H5 8631   2.564   3.390   1.198 -0.6403 -0.0470  0.6169
  578MPD2    N1 8632   2.239   3.728   1.086 -0.4120  0.0687 -0.2931
  578MPD2    H7 8633   2.198   3.821   1.085 -0.4433  0.0481 -1.0433
  579TMC3    C1 8634   2.769   3.293   1.275  0.4396 -0.7101 -0.6877
  579TMC3    C2 8635   2.890   3.249   1.329 -0.8227  0.7089 -0.6137
  579TMC3    C3 8636   2.915   3.115   1.310  0.5763 -0.9330 -0.0910
  579TMC3    C4 8637   2.688   3.215   1.197  0.1845 -0.1058  0.1100
  579TMC3    C5 8638   2.715   3.082   1.192 -0.4906  1.0226 -0.5484
  579TMC3    C6 8639   2.830   3.033   1.246 -0.0715 -0.7925 -0.6992
  579TMC3     C 8640   2.730   3.432   1.305  0.2179  0.7440  0.3637
  579TMC3     O 8641   2.799   3.505   1.372 -0.1802  0.3403 -0.0933
  579TMC3     H 8642   2.951   3.309   1.395 -2.1773  2.6499 -1.1224
  579TMC3    H1 8643   2.619   3.261   1.128 -0.2573  0.0975  0.6836
  579TMC3    H2 8644   2.862   2.931   1.225  0.5405 -0.8938  0.6796
  579TMC3    C7 8645   2.643   2.991   1.107  0.4347  0.0870 -0.1723
  579TMC3    C8 8646   3.036   3.055   1.361  0.0932 -0.5951  0.1803
  579TMC3    O1 8647   2.694   2.880   1.084 -0.0435 -0.0950  0.1073
  579TMC3    O2 8648   3.032   2.937   1.398  0.1495  0.0583 -0.3946
  580TMC3    C1 8649   1.754   3.286  12.083  0.2582 -0.2277 -0.2308
  580TMC3    C2 8650   1.874   3.277  12.003 -0.4310 -0.4112 -0.4587
  580TMC3    C3 8651   1.921   3.156  11.955  0.0221  0.4499  0.8766
  580TMC3    C4 8652   1.693   3.167  12.126  0.6372 -0.2729 -0.3963
  580TMC3    C5 8653   1.741   3.052  12.071 -0.1679  0.1854 -0.1788
  580TMC3    C6 8654   1.849   3.046  11.982 -0.2855  0.0203 -0.6046
  580TMC3     C 8655   1.669   3.397  12.043 -0.1196  0.2182 -0.0202
  580TMC3     O 8656   1.701   3.451  11.936 -0.4582  0.3228  0.3310
  580TMC3     H 8657   1.913   3.371  11.967  0.6353 -0.5717  0.2666
  580TMC3    H1 8658   1.603   3.169  12.187 -0.1325 -3.0992 -1.4094
  580TMC3    H2 8659   1.877   2.947  11.949  1.2445  1.3470 -3.2882
  580TMC3    C7 8660   1.736   2.952  12.175  0.2804 -0.1941  0.4472
  580TMC3    C8 8661   1.976   3.172  11.821  0.2337 -0.4286 -0.1822
  580TMC3    O1 8662   1.711   3.003  12.282  0.9018  0.3876 -0.0542
  580TMC3    O2 8663   1.905   3.126  11.737  0.3147  0.0699  0.6368
  581MPD2     C 8664   3.834   2.753  15.021  0.5014  0.3158  0.2244
  581MPD2    C1 8665   3.699   2.741  15.056  0.5450  0.1151  0.6549
  581MPD2    C2 8666   3.601   2.799  14.974 -0.1990  0.5800 -0.1759
  581MPD2    C3 8667   3.640   2.876  14.861 -0.2280 -0.2650 -0.1920
  581MPD2    C4 8668   3.777   2.886  14.830  0.1307 -0.1985 -0.4824
  581MPD2    C5 8669   3.871   2.825  14.911  0.5767 -0.0323  0.3403
  581MPD2     H 8670   3.493   2.799  14.989 -0.2780  0.7976 -0.7154
  581MPD2    H1 8671   3.808   2.951  14.749 -0.9443  3.4375  2.0330
  581MPD2    H2 8672   3.917   2.723  15.083  0.6804  1.9983  0.7991
  581MPD2    H3 8673   3.976   2.847  14.897  0.3974 -0.4734 -1.7150
  581MPD2     N 8674   3.537   2.939  14.790  0.0607 -0.5977 -0.1220
  581MPD2    H5 8675   3.444   2.925  14.826  0.1781  1.9833  1.1950
  581MPD2    N1 8676   3.666   2.666  15.176 -1.2593 -0.9584  0.1152
  581MPD2    H7 8677   3.744   2.619  15.220 -1.4637  0.3655  1.9066
  582TMC3    C1 8678   3.518   2.614  15.371 -0.0861  0.6095  0.3160
  582TMC3    C2 8679   3.616   2.599  15.457  0.4661 -0.6464 -0.1843
  582TMC3    C3 8680   3.589   2.577  15.585  0.0950 -0.3128  0.1019
  582TMC3    C4 8681   3.387   2.617  15.416  0.1506 -0.1843  0.0075
  582TMC3    C5 8682   3.358   2.595  15.545 -0.3710 -0.1165 -0.2551
  582TMC3    C6 8683   3.461   2.561  15.632  0.0806 -0.3642 -0.2066
  582TMC3     C 8684   3.542   2.676  15.237  0.2653 -0.4105 -0.9359
  582TMC3     O 8685   3.454   2.754  15.205 -0.8354 -0.0435  0.1674
  582TMC3     H 8686   3.720   2.607  15.425  0.2333  2.5566 -0.0732
  582TMC3    H1 8687   3.318   2.669  15.351  1.8877 -1.3614 -2.7542
  582TMC3    H2 8688   3.430   2.559  15.736 -0.3660  1.2037 -0.3083
  582TMC3    C7 8689   3.258   2.687  15.599  0.4693  0.3163 -0.8019
  582TMC3    C8 8690   3.660   2.663  15.684  0.8033  0.0298  0.7077
  582TMC3    O1 8691   3.149   2.695  15.543 -0.3814 -0.0729  0.0020
  582TMC3    O2 8692   3.595   2.704  15.777  0.1922  0.0848 -0.0794
  583MPD2     C 8693   4.170   4.224  16.876  0.1723  0.9174  0.3395
  583MPD2    C1 8694   4.126   4.347  16.823  0.0788 -0.0029 -0.7807
  583MPD2    C2 8695   4.080   4.445  16.908 -0.1083 -0.1240 -0.0734
  583MPD2    C3 8696   4.065   4.419  17.045  0.3568 -0.0513  0.0887
  583MPD2    C4 8697   4.108   4.297  17.097 -0.0533  0.5284  0.6933
  583MPD2    C5 8698   4.149   4.195  17.012  0.6814 -0.4226  0.3377
  583MPD2     H 8699   4.047   4.540  16.867  1.1846  0.3579 -0.0227
  583MPD2    H1 8700   4.107   4.273  17.203 -0.0145  0.1164  0.5993
  583MPD2    H2 8701   4.221   4.143  16.826  1.4015  0.9712  1.4986
  583MPD2    H3 8702   4.173   4.099  17.056  0.7841 -2.2614 -3.7513
  583MPD2     N 8703   4.008   4.523  17.128  0.5438 -0.1951 -0.2049
  583MPD2    H5 8704   3.961   4.600  17.081 -0.5141 -1.1605 -0.7493
  583MPD2    N1 8705   4.155   4.380  16.686  0.4077  0.1661 -0.1843
  583MPD2    H7 8706   4.120   4.469  16.652 -0.2350  0.7383  1.9761
  584TMC3    C1 8707   3.918   4.631  17.324 -0.3110 -0.3618 -0.7572
  584TMC3    C2 8708   3.878   0.005  17.257  0.3063 -0.1059  0.3196
  584TMC3    C3 8709   3.815   0.100  17.328  0.0514 -0.9058 -0.2674
  584TMC3    C4 8710   3.873   4.609  17.455  0.1909  1.3915  0.6220
  584TMC3    C5 8711   3.814   4.711  17.522  0.1069  0.5980 -0.3186
  584TMC3    C6 8712   3.785   0.097  17.461  0.0125  0.8944 -0.6113
  584TMC3     C 8713   3.984   4.510  17.264  0.1850  0.2243  0.0115
  584TMC3     O 8714   4.030   4.433  17.351  0.0826  0.0339 -0.4114
  584TMC3     H 8715   3.914   0.018  17.156  0.7374 -1.4791  0.2990
  584TMC3    H1 8716   3.884   4.511  17.501  0.6293  0.9718 -0.3707
  584TMC3    H2 8717   3.742   0.176  17.522 -1.6739 -0.6533  0.1945
  584TMC3    C7 8718   3.775   4.689  17.660  0.6398  0.7988 -0.5374
  584TMC3    C8 8719   3.816   0.223  17.252 -0.2889 -0.0631  0.1332
  584TMC3    O1 8720   3.826   4.596  17.720  0.4818  0.5762 -0.4385
  584TMC3    O2 8721   3.784   0.215  17.133 -0.2027 -0.4785  0.3384
  585MPD2     C 8722   2.809   3.930   0.715 -0.1233 -0.4105  0.0700
  585MPD2    C1 8723   2.945   3.918   0.720 -0.2053  0.5428  0.2592
  585MPD2    C2 8724   2.999   3.791   0.730  0.7461  0.0579 -0.3541
  585MPD2    C3 8725   2.920   3.677   0.714  0.3347 -0.9496 -0.2408
  585MPD2    C4 8726   2.782   3.687   0.712 -0.1356 -0.3928 -0.0827
  585MPD2    C5 8727   2.736   3.816   0.721  0.2959  0.3299 -0.1144
  585MPD2     H 8728   3.106   3.783   0.740  0.7558 -0.2618 -0.7421
  585MPD2    H1 8729   2.714   3.604   0.698 -0.4117  0.0741 -1.4929
  585MPD2    H2 8730   2.755   4.024   0.724 -1.0039 -0.8100 -1.0780
  585MPD2    H3 8731   2.628   3.825   0.721  0.1540 -1.3400 -0.2507
  585MPD2     N 8732   2.988   3.553   0.693 -0.4403  0.6204  0.3509
  585MPD2    H5 8733   3.085   3.542   0.720 -0.6318 -0.1063  0.7395
  585MPD2    N1 8734   3.024   4.029   0.728 -0.7838 -1.3191  0.0971
  585MPD2    H7 8735   3.115   4.015   0.771 -0.3337  0.0237 -0.4245
  586TMC3    C1 8736   3.027   3.360   0.576 -0.1426  0.3857 -0.2256
  586TMC3    C2 8737   3.149   3.403   0.536  0.1203 -0.2853 -0.6523
  586TMC3    C3 8738   3.238   3.323   0.473  0.6412  0.5783 -0.4982
  586TMC3    C4 8739   2.986   3.233   0.538  0.3816 -0.3691 -0.0298
  586TMC3    C5 8740   3.081   3.147   0.480  0.2027  0.2758 -0.7440
  586TMC3    C6 8741   3.200   3.202   0.442 -0.1388 -0.6407  0.0576
  586TMC3     C 8742   2.933   3.454   0.623  0.2743 -0.2930 -0.1554
  586TMC3     O 8743   2.827   3.448   0.565  0.1568  0.3486  0.4671
  586TMC3     H 8744   3.178   3.500   0.575 -0.2704  0.7201 -2.8608
  586TMC3    H1 8745   2.881   3.204   0.539  0.1525  0.3175 -4.2615
  586TMC3    H2 8746   3.274   3.134   0.401  1.7044  1.0185  0.6782
  586TMC3    C7 8747   3.027   3.043   0.391  0.4014 -0.3411 -0.5186
  586TMC3    C8 8748   3.322   3.403   0.371 -0.3031  0.8009 -0.1445
  586TMC3    O1 8749   2.939   2.962   0.436  0.4525  0.0925  0.4573
  586TMC3    O2 8750   3.310   3.526   0.378 -0.6572  0.1315  0.3123
  587TMC3    C1 8751   0.602   2.480  16.011 -0.1770  0.2572  0.5718
  587TMC3    C2 8752   0.613   2.531  16.136 -0.6275  0.1744  0.7707
  587TMC3    C3 8753   0.731   2.517  16.203 -0.3505  0.0494  0.0990
  587TMC3    C4 8754   0.705   2.416  15.956 -0.4295 -0.0995  0.0762
  587TMC3    C5 8755   0.826   2.416  16.022 -0.3635  0.6452 -0.6096
  587TMC3    C6 8756   0.846   2.459  16.151 -0.6207 -0.1905 -1.3706
  587TMC3     C 8757   0.472   2.476  15.942  0.6714  0.2145 -0.5483
  587TMC3     O 8758   0.475   2.449  15.821  0.7129  0.3316 -0.7122
  587TMC3     H 8759   0.531   2.589  16.178  0.0567  0.5901  1.5328
  587TMC3    H1 8760   0.684   2.374  15.858  0.5892  3.0440 -1.5296
  587TMC3    H2 8761   0.942   2.466  16.202 -0.1276  1.6680 -2.5505
  587TMC3    C7 8762   0.951   2.359  15.969 -0.3257  0.3837  0.0416
  587TMC3    C8 8763   0.731   2.583  16.332  0.5932  0.2688  0.4484
  587TMC3    O1 8764   1.026   2.298  16.046  0.0431 -0.9171 -0.5056
  587TMC3    O2 8765   0.654   2.677  16.341  0.0945 -0.4832  0.4870
  588TMC3    C1 8766   3.216   4.527  10.070  0.1843 -0.4158 -0.4245
  588TMC3    C2 8767   3.191   4.392  10.051 -0.1143  0.1634 -0.5089
  588TMC3    C3 8768   3.241   4.312  10.152 -0.1335 -0.2000 -0.9763
  588TMC3    C4 8769   3.306   4.571  10.165  0.3982  0.8243 -0.3600
  588TMC3    C5 8770   3.354   4.482  10.256  0.4234 -0.7685 -0.4530
  588TMC3    C6 8771   3.325   4.349  10.249  0.0285 -0.7174 -0.0111
  588TMC3     C 8772   3.140   4.619   9.991 -1.2366  0.1001  0.1382
  588TMC3     O 8773   3.146   4.605   9.869 -0.4669  0.7618  0.2509
  588TMC3     H 8774   3.114   4.353   9.985 -0.5394 -0.2589  0.2400
  588TMC3    H1 8775   3.324   4.678  10.170 -0.2968  0.8673  0.9737
  588TMC3    H2 8776   3.368   4.277  10.318 -1.0437  0.3885  1.8348
  588TMC3    C7 8777   3.444   4.524  10.364 -0.7656 -0.0290 -0.2916
  588TMC3    C8 8778   3.220   4.172  10.121  0.2079  1.0000  0.5317
  588TMC3    O1 8779   3.429   4.463  10.468 -0.1501  0.1596 -0.4395
  588TMC3    O2 8780   3.206   4.151  10.002 -0.2767  0.2501  0.7004
  589TMC3    C1 8781   2.089   1.652   1.068  0.3503  0.2514 -0.7565
  589TMC3    C2 8782   2.198   1.627   1.157  0.0298 -0.9650  0.0045
  589TMC3    C3 8783   2.285   1.529   1.114  0.2775 -0.3794 -0.3381
  589TMC3    C4 8784   2.068   1.587   0.950  0.4215  0.1464  0.0488
  589TMC3    C5 8785   2.152   1.483   0.923  0.4591  0.0892  0.0175
  589TMC3    C6 8786   2.254   1.447   1.009  0.3663 -0.0402  0.0114
  589TMC3     C 8787   2.017   1.773   1.076  0.3679  0.1652 -0.5258
  589TMC3     O 8788   1.912   1.778   1.013 -0.6442  0.0653 -0.1958
  589TMC3     H 8789   2.218   1.678   1.250 -1.9243 -0.2097  0.0032
  589TMC3    H1 8790   1.973   1.592   0.898  0.0394 -0.0159  0.7374
  589TMC3    H2 8791   2.322   1.371   0.974  0.0957 -0.4728  0.4257
  589TMC3    C7 8792   2.135   1.394   0.804  0.5787  0.1767  1.0174
  589TMC3    C8 8793   2.387   1.478   1.204 -0.0531  0.2248 -0.0453
  589TMC3    O1 8794   2.176   1.279   0.814 -0.2899  0.4037 -0.5401
  589TMC3    O2 8795   2.368   1.494   1.323 -0.5507  0.3548  0.0353
  590MPD2     C 8796   1.951   0.536  16.877  0.2023 -0.4799 -0.2080
  590MPD2    C1 8797   1.926   0.586  16.748  0.2044 -0.7955  0.0380
  590MPD2    C2 8798   2.022   0.672  16.695 -0.3330 -0.6159 -0.2083
  590MPD2    C3 8799   2.152   0.684  16.753 -0.1103 -0.1389  0.1352
  590MPD2    C4 8800   2.168   0.626  16.877  0.6997  1.1737 -0.7081
  590MPD2    C5 8801   2.061   0.568  16.942 -0.3848  0.5777  0.1991
  590MPD2     H 8802   1.997   0.731  16.607  0.1901  1.7484  1.2145
  590MPD2    H1 8803   2.251   0.652  16.941  1.2324 -1.7307 -0.2337
  590MPD2    H2 8804   1.886   0.461  16.920 -0.1481  0.3292  0.6820
  590MPD2    H3 8805   2.075   0.535  17.045  0.7221 -1.6685 -0.6870
  590MPD2     N 8806   2.245   0.771  16.693 -0.2271  0.3861  0.4551
  590MPD2    H5 8807   2.212   0.832  16.619 -0.6702 -0.9582 -0.4590
  590MPD2    N1 8808   1.802   0.554  16.687  0.0266 -0.8487  0.2435
  590MPD2    H7 8809   1.730   0.514  16.746 -1.1884 -1.1118 -1.4323
  591TMC3    C1 8810   2.438   0.856  16.604 -0.2585  0.2821  0.2118
  591TMC3    C2 8811   2.505   0.799  16.501  0.1787 -0.2215  0.7100
  591TMC3    C3 8812   2.551   0.879  16.397 -0.2250 -0.1881  0.0781
  591TMC3    C4 8813   2.410   0.989  16.607  0.5990  0.1261  0.0411
  591TMC3    C5 8814   2.453   1.065  16.500 -0.0231  0.0683  0.1274
  591TMC3    C6 8815   2.525   1.011  16.394 -1.0687 -0.6553  0.1612
  591TMC3     C 8816   2.377   0.769  16.703  0.2554 -0.2538 -0.4666
  591TMC3     O 8817   2.440   0.672  16.744  0.3830  0.6975 -0.0069
  591TMC3     H 8818   2.530   0.695  16.520  1.4533  0.0054  0.2567
  591TMC3    H1 8819   2.342   1.029  16.681  0.2705 -1.6332  0.6745
  591TMC3    H2 8820   2.559   1.079  16.317  0.3059 -0.0868  1.2546
  591TMC3    C7 8821   2.411   1.205  16.491 -1.1578  0.6050 -0.0084
  591TMC3    C8 8822   2.570   0.802  16.271 -0.3025  0.1260 -0.2481
  591TMC3    O1 8823   2.381   1.261  16.597  0.1500  0.1716  0.1544
  591TMC3    O2 8824   2.579   0.681  16.277 -0.3309  0.2011 -0.4893
  592MPD2     C 8825   2.475   2.610  11.567 -0.2257  0.1437 -0.5032
  592MPD2    C1 8826   2.503   2.682  11.679 -0.3533  0.2131 -0.3461
  592MPD2    C2 8827   2.468   2.628  11.803  0.3112 -0.7600 -0.1553
  592MPD2    C3 8828   2.408   2.502  11.811  0.4060  0.8053  0.5323
  592MPD2    C4 8829   2.379   2.433  11.692 -0.1481 -0.1130 -0.1147
  592MPD2    C5 8830   2.419   2.486  11.574  0.2872 -0.8244 -1.0430
  592MPD2     H 8831   2.467   2.690  11.892  0.0800  0.1456 -0.7859
  592MPD2    H1 8832   2.323   2.340  11.694  1.9468 -1.2558  4.7207
  592MPD2    H2 8833   2.507   2.647  11.471 -3.2267 -1.2166 -2.0203
  592MPD2    H3 8834   2.387   2.433  11.485 -1.1341  1.0295 -1.6224
  592MPD2     N 8835   2.364   2.446  11.931  0.7380 -0.5081 -0.6354
  592MPD2    H5 8836   2.360   2.515  12.006 -3.2487 -2.7208  1.2008
  592MPD2    N1 8837   2.564   2.807  11.658 -0.1541 -0.1432 -0.2751
  592MPD2    H7 8838   2.563   2.848  11.565  0.4055 -0.1856 -0.2993
  593TMC3    C1 8839   2.722   2.987  11.688 -0.5353  0.0270  0.5701
  593TMC3    C2 8840   2.780   3.083  11.769 -0.3819  0.7471 -0.2207
  593TMC3    C3 8841   2.847   3.190  11.711 -1.0167 -0.0512 -0.4259
  593TMC3    C4 8842   2.706   3.005  11.555  0.1131 -0.1065  0.8133
  593TMC3    C5 8843   2.762   3.122  11.508  0.0963 -0.2772 -0.5990
  593TMC3    C6 8844   2.836   3.216  11.577  0.5152  0.2038 -0.0357
  593TMC3     C 8845   2.651   2.874  11.752  0.0781 -0.3558 -0.1218
  593TMC3     O 8846   2.679   2.847  11.867 -0.1275 -0.2667 -0.2763
  593TMC3     H 8847   2.778   3.061  11.875  0.8229  0.5533 -0.2449
  593TMC3    H1 8848   2.675   2.926  11.488  1.6720  0.3503 -0.4723
  593TMC3    H2 8849   2.869   3.313  11.541  1.4832 -0.7862 -1.7698
  593TMC3    C7 8850   2.736   3.167  11.376  0.4138  0.1600  0.9399
  593TMC3    C8 8851   2.881   3.296  11.803  0.4445 -0.6963  0.0775
  593TMC3    O1 8852   2.799   3.267  11.334 -0.0680 -0.0388  0.1573
  593TMC3    O2 8853   2.869   3.408  11.755 -0.4557  0.0514  0.0066
  594MPD2     C 8854   0.576   2.078  14.539 -0.3965  0.1782  0.0642
  594MPD2    C1 8855   0.614   1.951  14.579 -0.0055  0.0319 -0.7136
  594MPD2    C2 8856   0.732   1.897  14.541 -0.4052  0.6505  0.6187
  594MPD2    C3 8857   0.825   1.972  14.469  0.5320  0.2665  0.4717
  594MPD2    C4 8858   0.798   2.106  14.449 -0.4686  0.4966  0.3039
  594MPD2    C5 8859   0.673   2.157  14.480 -0.4209 -0.4182 -0.2222
  594MPD2     H 8860   0.751   1.794  14.569 -3.8690 -0.2890 -0.4549
  594MPD2    H1 8861   0.858   2.166  14.381 -0.0581 -1.2034 -0.8418
  594MPD2    H2 8862   0.496   2.137  14.584 -2.5587 -1.7844 -1.2357
  594MPD2    H3 8863   0.650   2.260  14.456 -0.9446 -0.4691  0.0648
  594MPD2     N 8864   0.954   1.916  14.439  0.5144 -0.1885 -0.6691
  594MPD2    H5 8865   0.977   1.830  14.487  0.1298  0.1399  0.1037
  594MPD2    N1 8866   0.525   1.884  14.662 -0.6464 -0.2302 -0.1276
  594MPD2    H7 8867   0.443   1.940  14.682  0.5321  1.4080  0.0622
  595TMC3    C1 8868   1.405   1.997  14.505 -0.2481 -0.0991 -0.2045
  595TMC3    C2 8869   1.308   1.983  14.405  0.2487 -0.1806  0.5553
  595TMC3    C3 8870   1.181   1.937  14.448 -0.2033 -0.9458 -0.2641
  595TMC3    C4 8871   1.392   1.958  14.633  0.0317  0.1254  0.1309
  595TMC3    C5 8872   1.267   1.916  14.671  0.8796  0.3711 -0.1305
  595TMC3    C6 8873   1.166   1.894  14.579  0.7361 -0.2298 -0.4782
  595TMC3     C 8874   1.545   2.020  14.461 -0.3063  0.0263 -0.6111
  595TMC3     O 8875   1.630   1.981  14.537  0.1931  0.1122  0.0265
  595TMC3     H 8876   1.327   2.013  14.303 -2.7146  1.0291  0.3469
  595TMC3    H1 8877   1.461   1.984  14.712 -2.1170 -1.2833  2.4343
  595TMC3    H2 8878   1.071   1.875  14.627  0.6295  0.9408 -0.2316
  595TMC3    C7 8879   1.225   1.976  14.798  0.4271 -0.4424  0.4980
  595TMC3    C8 8880   1.060   1.991  14.390  0.1285 -0.1157  0.2780
  595TMC3    O1 8881   1.110   2.014  14.793  0.7943 -0.4750 -0.1066
  595TMC3    O2 8882   1.067   2.087  14.309  0.8405  0.2818 -0.2597
  596MPD2     C 8883   0.212   4.223  16.701  0.5483 -0.8980  0.6827
  596MPD2    C1 8884   0.159   4.347  16.652 -0.1434 -0.2908 -0.7490
  596MPD2    C2 8885   0.136   4.370  16.517 -0.3860 -0.7293 -0.3769
  596MPD2    C3 8886   0.156   4.268  16.427  1.0150  0.4805  0.3159
  596MPD2    C4 8887   0.205   4.146  16.478 -0.1036 -0.1729 -1.0550
  596MPD2    C5 8888   0.233   4.126  16.607 -0.2046 -0.1560  0.4493
  596MPD2     H 8889   0.126   4.472  16.483 -1.3402  0.3587  3.1519
  596MPD2    H1 8890   0.223   4.063  16.410 -0.2078 -1.5561  0.5903
  596MPD2    H2 8891   0.235   4.198  16.804 -2.3724 -2.4340  0.9488
  596MPD2    H3 8892   0.278   4.030  16.630 -1.0365 -1.0028 -1.4416
  596MPD2     N 8893   0.140   4.286  16.291  0.0395 -0.0470 -0.0243
  596MPD2    H5 8894   0.144   4.194  16.250 -1.0616 -1.5885  3.3612
  596MPD2    N1 8895   0.128   4.455  16.740 -0.0470 -0.4906 -0.1218
  596MPD2    H7 8896   0.122   4.544  16.691  1.4529 -0.5190 -0.3528
  597TMC3    C1 8897   0.098   4.590  16.938  1.3780 -0.6296  0.3333
  597TMC3    C2 8898   0.143   4.705  16.879 -0.6302 -0.2858 -0.0259
  597TMC3    C3 8899   0.116   0.090  16.941  0.0857 -0.1472  0.1287
  597TMC3    C4 8900   0.026   4.598  17.060  0.0465  0.6838 -0.2433
  597TMC3    C5 8901   4.735   4.716  17.119  0.2505 -0.7328 -0.3602
  597TMC3    C6 8902   0.042   0.096  17.056 -0.7034  0.8408  0.0762
  597TMC3     C 8903   0.116   4.452  16.881  0.0696 -0.2075  0.2337
  597TMC3     O 8904   0.105   4.356  16.955  0.4825 -0.3143  0.0494
  597TMC3     H 8905   0.179   4.709  16.777  2.0273 -0.1683  0.9337
  597TMC3    H1 8906   4.731   4.506  17.108  3.5544 -1.1688 -1.4643
  597TMC3    H2 8907   0.029   0.195  17.098 -0.8865  1.2745 -1.0004
  597TMC3    C7 8908   4.625   4.729  17.212  0.5845  0.1109  0.4894
  597TMC3    C8 8909   0.159   0.217  16.891 -0.0241 -0.1372  0.8077
  597TMC3    O1 8910   4.598   4.628  17.283  0.3147  0.0899  0.1641
  597TMC3    O2 8911   0.164   0.308  16.970 -0.2700  0.0560 -0.4103
  598TMC3    C1 8912   2.805   1.244  15.150  0.3519  0.8085  0.1992
  598TMC3    C2 8913   2.681   1.180  15.145 -0.2299 -0.6924 -0.3234
  598TMC3    C3 8914   2.602   1.204  15.039 -0.5109 -0.4043 -1.0563
  598TMC3    C4 8915   2.842   1.330  15.054 -0.0026 -0.2610  0.1394
  598TMC3    C5 8916   2.770   1.343  14.942  0.1238  0.3319  0.4572
  598TMC3    C6 8917   2.641   1.285  14.936 -0.0827 -0.1641 -0.5480
  598TMC3     C 8918   2.914   1.214  15.250 -0.2880 -0.8883  0.5206
  598TMC3     O 8919   2.983   1.310  15.289 -0.5656 -0.3004  0.1836
  598TMC3     H 8920   2.659   1.112  15.227  0.1852 -1.3229 -0.7410
  598TMC3    H1 8921   2.943   1.367  15.065  0.2042 -0.9315  0.4833
  598TMC3    H2 8922   2.581   1.296  14.846  0.0994  4.8661 -0.0612
  598TMC3    C7 8923   2.794   1.435  14.837 -0.7001 -0.4034  0.2406
  598TMC3    C8 8924   2.471   1.145  15.035  0.8650  0.4194  0.5343
  598TMC3    O1 8925   2.756   1.411  14.723  0.9978 -0.4501 -0.1256
  598TMC3    O2 8926   2.387   1.205  14.968  0.5754  0.3394  0.0960
  599MPD2     C 8927   3.253   3.482  16.023 -0.1430 -0.9266  0.3337
  599MPD2    C1 8928   3.194   3.367  16.074  0.0496  0.7105 -0.0234
  599MPD2    C2 8929   3.091   3.390  16.166  0.0134 -0.4286 -0.1621
  599MPD2    C3 8930   3.059   3.518  16.214 -0.4460  0.0380  0.7348
  599MPD2    C4 8931   3.125   3.626  16.163 -0.1841  0.5357 -0.1323
  599MPD2    C5 8932   3.215   3.610  16.060 -0.0918  0.4561  0.5622
  599MPD2     H 8933   3.039   3.302  16.203 -0.3722 -0.4889 -0.8347
  599MPD2    H1 8934   3.110   3.726  16.201 -0.4010  0.2956  0.4184
  599MPD2    H2 8935   3.333   3.485  15.950  1.1979  2.7011  1.9566
  599MPD2    H3 8936   3.268   3.697  16.022 -1.1349  0.7204 -0.2757
  599MPD2     N 8937   2.964   3.544  16.318 -0.4578 -0.1860 -0.2629
  599MPD2    H5 8938   2.960   3.637  16.358  1.0355  0.4780 -1.6432
  599MPD2    N1 8939   3.236   3.239  16.039 -0.1353  0.1437  0.6626
  599MPD2    H7 8940   3.315   3.241  15.976  0.3211  1.1351  1.2717
  600TMC3    C1 8941   2.807   3.493  16.493  0.0558 -0.4459 -0.6716
  600TMC3    C2 8942   2.725   3.399  16.550 -0.0106  0.1281  0.4513
  600TMC3    C3 8943   2.683   3.422  16.676  0.4079  0.2220 -1.0460
  600TMC3    C4 8944   2.830   3.613  16.549 -0.0720 -0.3766 -0.1228
  600TMC3    C5 8945   2.778   3.638  16.675 -0.1979 -0.6068 -0.2756
  600TMC3    C6 8946   2.713   3.533  16.743 -0.4210  0.4300 -0.1207
  600TMC3     C 8947   2.879   3.451  16.369  0.5746  1.0029  0.7981
  600TMC3     O 8948   2.837   3.342  16.319  0.2305 -0.8336  0.2575
  600TMC3     H 8949   2.719   3.295  16.519 -2.0403  0.8023 -1.4256
  600TMC3    H1 8950   2.877   3.687  16.486  1.1428  0.8385  2.2019
  600TMC3    H2 8951   2.681   3.555  16.844  1.0133 -0.3217  0.4912
  600TMC3    C7 8952   2.815   3.765  16.742  0.2741  0.0023 -0.1457
  600TMC3    C8 8953   2.628   3.303  16.753  0.3709 -0.4741 -0.0186
  600TMC3    O1 8954   2.751   3.793  16.843 -0.5615  0.0670  0.2882
  600TMC3    O2 8955   2.650   3.286  16.873 -0.1447 -0.1923  0.2421
  601MPD2     C 8956   0.643   1.722   0.517  0.8587  0.8705 -0.1722
  601MPD2    C1 8957   0.516   1.670   0.521  0.1233 -0.0417 -0.9234
  601MPD2    C2 8958   0.501   1.536   0.557 -0.6741 -0.5311 -0.1882
  601MPD2    C3 8959   0.615   1.451   0.576  0.1186  0.3413  0.3152
  601MPD2    C4 8960   0.737   1.509   0.561  0.0460 -0.4281 -0.2780
  601MPD2    C5 8961   0.752   1.643   0.544  0.1034 -0.1636 -0.5478
  601MPD2     H 8962   0.401   1.495   0.548 -0.7959 -1.0050  3.2640
  601MPD2    H1 8963   0.823   1.449   0.588 -1.3961 -2.5427 -0.4093
  601MPD2    H2 8964   0.650   1.830   0.510 -0.2743  0.8650 -1.3475
  601MPD2    H3 8965   0.850   1.690   0.552  0.0413 -0.4357  1.7272
  601MPD2     N 8966   0.615   1.313   0.589 -0.1929  0.2987 -0.4667
  601MPD2    H5 8967   0.709   1.278   0.574 -0.9050 -2.0721  0.6421
  601MPD2    N1 8968   0.389   1.736   0.496  0.0569 -0.5971 -0.1226
  601MPD2    H7 8969   0.307   1.689   0.533  0.4070 -1.8260 -0.9017
  602TMC3    C1 8970   0.239   1.911   0.429  0.4145  0.0307 -0.7414
  602TMC3    C2 8971   0.220   2.042   0.416  0.1109 -0.0063 -0.1641
  602TMC3    C3 8972   0.108   2.086   0.344 -0.2786 -0.8951  0.3736
  602TMC3    C4 8973   0.139   1.827   0.394 -0.6163  0.1727  0.4537
  602TMC3    C5 8974   0.030   1.869   0.326  0.2750 -0.0304  0.0461
  602TMC3    C6 8975   0.012   2.001   0.288  0.4246 -0.3102 -0.7307
  602TMC3     C 8976   0.377   1.865   0.437 -0.3653  0.6316  0.2473
  602TMC3     O 8977   0.464   1.939   0.392 -0.1257 -0.4194 -0.4752
  602TMC3     H 8978   0.294   2.114   0.448  1.2042 -1.7421  1.2088
  602TMC3    H1 8979   0.153   1.720   0.402  0.6364  0.3280  0.4371
  602TMC3    H2 8980   4.669   2.038   0.224  0.1575 -0.5534 -0.5418
  602TMC3    C7 8981   4.711   1.758   0.251 -0.0470 -0.9650 -0.2581
  602TMC3    C8 8982   0.126   2.215   0.275  0.2144 -1.1609  0.0322
  602TMC3    O1 8983   4.684   1.645   0.299  0.1310  0.0125  0.4138
  602TMC3    O2 8984   0.192   2.299   0.332  0.6690 -0.4953 -0.4884
  603TMC3    C1 8985   3.029   2.169  10.970  0.0731  0.0537  0.6365
  603TMC3    C2 8986   2.993   2.147  11.104 -0.2342 -0.1533  0.2518
  603TMC3    C3 8987   2.963   2.261  11.175 -0.2499 -0.7114  0.5342
  603TMC3    C4 8988   3.027   2.290  10.917 -0.1542 -0.1070 -0.2510
  603TMC3    C5 8989   2.988   2.396  10.991  0.4745  0.1703  0.3617
  603TMC3    C6 8990   2.965   2.390  11.124 -0.5483 -0.4403 -0.2308
  603TMC3     C 8991   3.070   2.057  10.888 -0.6961  0.1027 -0.1448
  603TMC3     O 8992   3.048   1.949  10.932 -0.5399 -0.2218  0.3288
  603TMC3     H 8993   3.016   2.048  11.141  0.3793 -0.6297 -1.3742
  603TMC3    H1 8994   3.072   2.306  10.820 -1.0098  0.8592 -0.4989
  603TMC3    H2 8995   2.920   2.474  11.175 -1.2744 -1.4462  0.7864
  603TMC3    C7 8996   2.951   2.524  10.929  0.2882 -0.4966 -0.7031
  603TMC3    C8 8997   2.998   2.237  11.318  0.1990  0.7217 -0.2513
  603TMC3    O1 8998   2.961   2.625  10.998  0.4770 -0.2056  0.5254
  603TMC3    O2 8999   2.956   2.131  11.358  0.2152 -0.4500  0.6064
  604MPD2     C 9000   3.665   0.312  16.431 -0.6606 -0.0226 -0.1597
  604MPD2    C1 9001   3.618   0.439  16.412 -0.3054 -0.0380 -0.7258
  604MPD2    C2 9002   3.644   0.510  16.297  0.2298 -0.0543  0.3181
  604MPD2    C3 9003   3.722   0.452  16.196  0.4701  0.2439  0.5715
  604MPD2    C4 9004   3.768   0.325  16.212 -0.0748  0.6536 -0.4602
  604MPD2    C5 9005   3.743   0.254  16.332  0.3910 -0.0205 -0.8677
  604MPD2     H 9006   3.614   0.610  16.269  0.7335  0.6374  2.2498
  604MPD2    H1 9007   3.809   0.266  16.131 -1.7347 -1.2163  0.0307
  604MPD2    H2 9008   3.635   0.263  16.523 -1.5992 -1.0591 -1.0183
  604MPD2    H3 9009   3.780   0.153  16.345 -0.9023 -0.5394 -1.1830
  604MPD2     N 9010   3.753   0.537  16.084  0.5184  0.2450 -0.4811
  604MPD2    H5 9011   3.730   0.636  16.086 -1.7377 -0.3020  0.2297
  604MPD2    N1 9012   3.550   0.501  16.521 -0.8725  0.1950 -0.4286
  604MPD2    H7 9013   3.547   0.462  16.615  0.4284  0.4104 -0.2988
  605TMC3    C1 9014   3.467   0.702  16.615  0.2375 -0.0208 -0.3080
  605TMC3    C2 9015   3.583   0.718  16.688  0.4007  0.8378 -0.4575
  605TMC3    C3 9016   3.604   0.836  16.754  0.7444  0.8111 -0.2375
  605TMC3    C4 9017   3.377   0.809  16.604 -0.5763 -0.5743  0.1678
  605TMC3    C5 9018   3.396   0.922  16.676  0.5069  0.6561  0.3873
  605TMC3    C6 9019   3.510   0.936  16.747 -0.1020 -0.1447 -0.3499
  605TMC3     C 9020   3.462   0.606  16.502  0.3800 -0.6128  1.0902
  605TMC3     O 9021   3.410   0.646  16.397 -0.3362  0.5110 -0.3533
  605TMC3     H 9022   3.670   0.655  16.674  0.2930  0.7351 -0.6494
  605TMC3    H1 9023   3.288   0.791  16.546 -0.2715 -0.8998 -0.1960
  605TMC3    H2 9024   3.532   1.037  16.780 -1.9109  0.8411 -2.1567
  605TMC3    C7 9025   3.356   1.046  16.606  0.1838 -0.7573  0.0100
  605TMC3    C8 9026   3.742   0.876  16.774  0.1278 -0.5374 -0.6764
  605TMC3    O1 9027   3.354   1.153  16.661  0.2760  0.1800 -0.4408
  605TMC3    O2 9028   3.822   0.816  16.703  0.4295 -0.1177  0.3026
  606TMC3    C1 9029   0.144   4.340   0.124 -0.3307  0.2693  1.2065
  606TMC3    C2 9030   0.110   4.283   0.243  0.2425 -0.4061 -0.0470
  606TMC3    C3 9031   0.061   4.158   0.245  0.3959 -0.3155 -0.8670
  606TMC3    C4 9032   0.127   4.264   0.012  0.3307 -0.4842  0.5683
  606TMC3    C5 9033   0.070   4.138   0.021 -0.8566 -0.5633  0.5075
  606TMC3    C6 9034   0.037   4.082   0.138 -0.2717 -0.4789  0.1481
  606TMC3     C 9035   0.189   4.478   0.113 -0.1285 -0.1581  0.0845
  606TMC3     O 9036   0.162   4.542   0.012  0.3214  0.4765 -0.7814
  606TMC3     H 9037   0.118   4.332   0.340  1.2203 -1.7605  0.5505
  606TMC3    H1 9038   0.142   4.309  17.659 -1.8771 -1.2996 -0.1366
  606TMC3    H2 9039   0.009   3.978   0.150  1.7355 -1.1703 -1.1136
  606TMC3    C7 9040   0.076   4.073  17.638  0.7242  0.3521 -0.0973
  606TMC3    C8 9041   0.120   4.088   0.353  0.6134 -0.2077  0.1166
  606TMC3    O1 9042   0.146   4.118  17.545  0.7065 -0.1839  0.0033
  606TMC3    O2 9043   0.220   4.140   0.399 -0.2200 -0.6715  0.4312
  607MPD2     C 9044   2.456   1.773  11.793  0.1980 -0.1929 -0.1541
  607MPD2    C1 9045   2.437   1.893  11.855  0.4928  0.5068 -0.8459
  607MPD2    C2 9046   2.379   1.892  11.978 -0.6667  0.2864 -0.7216
  607MPD2    C3 9047   2.331   1.774  12.046 -0.2298 -0.1994 -0.6889
  607MPD2    C4 9048   2.347   1.658  11.977 -0.0052 -0.0124  0.1559
  607MPD2    C5 9049   2.414   1.656  11.858  0.2488 -0.9326 -0.6605
  607MPD2     H 9050   2.362   1.979  12.041  2.8036  0.2088  0.2810
  607MPD2    H1 9051   2.315   1.560  12.011 -0.5706  0.4768  1.0385
  607MPD2    H2 9052   2.491   1.765  11.691 -0.5533  1.3677 -0.5453
  607MPD2    H3 9053   2.420   1.562  11.803  0.4328 -2.6237  2.2285
  607MPD2     N 9054   2.285   1.781  12.175  0.3467 -0.4100  0.1007
  607MPD2    H5 9055   2.290   1.869  12.225  0.2191 -1.3236  1.7171
  607MPD2    N1 9056   2.497   2.018  11.820 -0.2887 -0.1860 -0.0441
  607MPD2    H7 9057   2.470   2.097  11.878  0.3074  0.8492 -1.1751
  608TMC3    C1 9058   2.673   2.158  11.752 -0.3140  0.4325 -0.7428
  608TMC3    C2 9059   2.675   2.206  11.882 -0.4981  0.3059  0.6477
  608TMC3    C3 9060   2.716   2.335  11.903  0.5820  0.3895  0.0843
  608TMC3    C4 9061   2.720   2.231  11.644 -0.6364  0.0152 -0.2241
  608TMC3    C5 9062   2.753   2.362  11.672 -0.3047 -0.2137 -0.2172
  608TMC3    C6 9063   2.739   2.420  11.797 -0.3744 -0.1705  0.3207
  608TMC3     C 9064   2.593   2.030  11.729 -0.1492  0.4015 -0.2328
  608TMC3     O 9065   2.622   1.959  11.635  0.4121 -0.5195 -0.0987
  608TMC3     H 9066   2.667   2.124  11.954 -1.3011 -0.3259 -0.1691
  608TMC3    H1 9067   2.737   2.186  11.547 -1.7532  0.9238 -0.8338
  608TMC3    H2 9068   2.755   2.526  11.808  3.3585 -0.4285 -2.6839
  608TMC3    C7 9069   2.777   2.446  11.556  0.3183  0.0992 -0.0611
  608TMC3    C8 9070   2.699   2.406  12.029 -0.2287 -0.2015  0.0424
  608TMC3    O1 9071   2.719   2.425  11.450 -0.3989  0.0343 -0.0112
  608TMC3    O2 9072   2.729   2.524  12.051  0.4328  0.1624 -0.2546
  609TMC3    C1 9073   0.870   1.619   9.610 -0.7642  0.0849  0.4652
  609TMC3    C2 9074   0.857   1.701   9.715 -0.0359  0.6695  0.3056
  609TMC3    C3 9075   0.973   1.764   9.747 -0.1362 -0.4758  0.5793
  609TMC3    C4 9076   0.992   1.574   9.567  0.5075  0.1342  0.1201
  609TMC3    C5 9077   1.105   1.639   9.605 -0.2401 -0.1048  0.4411
  609TMC3    C6 9078   1.096   1.748   9.691  0.0445 -0.4001 -0.4623
  609TMC3     C 9079   0.756   1.540   9.558 -0.1105  0.1204 -0.2037
  609TMC3     O 9080   0.660   1.526   9.633 -0.8141 -0.1865 -0.4345
  609TMC3     H 9081   0.761   1.737   9.751 -0.6035 -0.1286 -0.4047
  609TMC3    H1 9082   1.001   1.471   9.533  2.6257 -0.1724  1.6110
  609TMC3    H2 9083   1.176   1.802   9.740 -1.3745 -0.5473  2.0042
  609TMC3    C7 9084   1.240   1.588   9.570  0.5946  0.5099  0.3514
  609TMC3    C8 9085   0.958   1.891   9.810  0.3328 -0.1378  1.1233
  609TMC3    O1 9086   1.336   1.617   9.639 -0.0007 -0.0011 -0.1751
  609TMC3    O2 9087   1.014   1.992   9.771 -0.1318 -0.3490 -0.3166
  610TMC3    C1 9088   2.844   2.308  12.651 -0.7466 -0.0892  0.0603
  610TMC3    C2 9089   2.889   2.356  12.532 -0.3614 -0.1228  0.2758
  610TMC3    C3 9090   2.983   2.281  12.465  0.1864  0.4454  0.6769
  610TMC3    C4 9091   2.882   2.184  12.699 -0.0468  0.1731 -0.0384
  610TMC3    C5 9092   2.973   2.112  12.626 -0.1269  0.2609  0.1301
  610TMC3    C6 9093   3.022   2.159  12.512 -0.0695 -0.1561  0.3622
  610TMC3     C 9094   2.772   2.393  12.736 -0.3166  0.0139 -0.3377
  610TMC3     O 9095   2.730   2.360  12.847 -0.1053 -0.2060 -0.1284
  610TMC3     H 9096   2.868   2.456  12.495 -1.6748 -0.2090  0.7762
  610TMC3    H1 9097   2.858   2.153  12.800  3.1218  2.3451  1.3543
  610TMC3    H2 9098   3.085   2.096  12.450  0.3688 -0.1759  0.8269
  610TMC3    C7 9099   3.038   1.995  12.686  0.5296 -0.6347 -0.3185
  610TMC3    C8 9100   3.040   2.345  12.346  1.4176  0.4281 -0.2067
  610TMC3    O1 9101   3.143   1.957  12.637 -0.9639 -0.9780  0.4545
  610TMC3    O2 9102   2.973   2.426  12.282 -0.0859 -0.1012  0.2220
  611MPD2     C 9103   2.154   1.949  10.366 -0.2015  0.2516  0.6207
  611MPD2    C1 9104   2.054   2.043  10.342  0.4277  0.0683  1.0030
  611MPD2    C2 9105   2.095   2.173  10.326 -0.2729 -0.1952  0.0257
  611MPD2    C3 9106   2.221   2.215  10.346 -0.3116 -0.5262  0.6676
  611MPD2    C4 9107   2.321   2.125  10.377 -0.0425  0.0517  0.5211
  611MPD2    C5 9108   2.283   1.991  10.380 -0.3867 -0.2102 -0.7591
  611MPD2     H 9109   2.019   2.247  10.306 -0.7441 -0.7847 -0.3614
  611MPD2    H1 9110   2.425   2.155  10.378 -0.1352  0.3711  1.2419
  611MPD2    H2 9111   2.139   1.844  10.342  0.9304 -0.3990  2.7768
  611MPD2    H3 9112   2.360   1.916  10.395 -1.2673 -0.7378  1.1903
  611MPD2     N 9113   2.262   2.349  10.325  0.4767 -0.3501  0.6217
  611MPD2    H5 9114   2.354   2.377  10.355  0.8171 -0.1130 -0.6581
  611MPD2    N1 9115   1.918   2.005  10.329  0.2994 -0.5811 -0.4650
  611MPD2    H7 9116   1.899   1.906  10.315  0.4044 -0.4057 -1.8443
  612TMC3    C1 9117   2.268   2.568  10.243 -0.2810  0.7330 -0.1128
  612TMC3    C2 9118   2.353   2.615  10.342  0.7751 -0.6688  0.0428
  612TMC3    C3 9119   2.408   2.739  10.336 -0.0403  0.0215  0.1321
  612TMC3    C4 9120   2.226   2.652  10.147 -0.0019 -0.0275 -0.3418
  612TMC3    C5 9121   2.281   2.777  10.149 -0.8314  0.6442  0.7458
  612TMC3    C6 9122   2.377   2.827  10.236 -0.3352 -0.5439  0.4911
  612TMC3     C 9123   2.193   2.444  10.252 -0.5820  0.2818  0.3094
  612TMC3     O 9124   2.098   2.432  10.174 -0.0872  0.4336  0.1029
  612TMC3     H 9125   2.371   2.558  10.432  3.9451  0.4396  0.1478
  612TMC3    H1 9126   2.155   2.623  10.070  1.1469 -0.1548 -1.3587
  612TMC3    H2 9127   2.423   2.924  10.225 -1.7010 -0.2613 -2.6474
  612TMC3    C7 9128   2.230   2.860  10.045 -0.6425 -0.4798  0.3948
  612TMC3    C8 9129   2.483   2.789  10.450 -0.1779  0.0814  0.6704
  612TMC3    O1 9130   2.120   2.831   9.994 -0.2284 -0.2956 -0.7704
  612TMC3    O2 9131   2.486   2.913  10.466 -0.1245  0.0419  0.4537
  613MPD2     C 9132   0.880   4.543  17.213 -0.4851  0.4345 -0.7675
  613MPD2    C1 9133   0.869   4.582  17.087  0.1446  0.1925 -0.0719
  613MPD2    C2 9134   0.805   4.498  16.998 -0.5170  0.1713  0.5132
  613MPD2    C3 9135   0.763   4.365  17.037 -0.0676  0.4377 -0.5031
  613MPD2    C4 9136   0.778   4.325  17.170 -0.0026  0.5156  0.0162
  613MPD2    C5 9137   0.834   4.422  17.254 -0.9298 -0.3307  0.3702
  613MPD2     H 9138   0.805   4.528  16.894 -0.6395 -2.2210 -0.1561
  613MPD2    H1 9139   0.745   4.225  17.199  1.7720  0.1579  0.8203
  613MPD2    H2 9140   0.918   4.610  17.289  1.1986  0.5547 -1.7296
  613MPD2    H3 9141   0.838   4.397  17.360 -3.9094 -1.7508  0.1506
  613MPD2     N 9142   0.716   4.275  16.944  0.4901  0.7961 -0.2573
  613MPD2    H5 9143   0.729   4.181  16.981 -0.0709  1.3692  1.3888
  613MPD2    N1 9144   0.932   4.707  17.040 -0.2602 -0.3624 -0.4649
  613MPD2    H7 9145   0.996   0.018  17.103 -1.1671  0.0679  0.1431
  614TMC3    C1 9146   1.000   0.145  16.898  0.4909 -0.0923  0.2593
  614TMC3    C2 9147   1.123   0.096  16.863 -0.1630  0.1916  0.8282
  614TMC3    C3 9148   1.158   0.109  16.729 -0.9388  0.5553  0.3916
  614TMC3    C4 9149   0.925   0.230  16.828  0.3971 -0.1832  0.0438
  614TMC3    C5 9150   0.965   0.245  16.698 -0.2258  0.4717  0.0294
  614TMC3    C6 9151   1.087   0.198  16.652 -0.1084 -0.6859 -0.6253
  614TMC3     C 9152   0.906   0.039  16.924  0.4065 -0.2240 -0.0797
  614TMC3     O 9153   0.819   0.009  16.848 -0.1316 -0.5010 -0.4497
  614TMC3     H 9154   1.176   0.028  16.929  2.8467  0.7505 -1.0112
  614TMC3    H1 9155   0.822   0.258  16.847  0.9817  0.6382  2.0647
  614TMC3    H2 9156   1.112   0.206  16.547 -0.0460  0.1681 -0.5414
  614TMC3    C7 9157   0.908   0.356  16.626 -0.1732 -0.0506  0.2195
  614TMC3    C8 9158   1.198   4.725  16.666 -0.1631  0.4663 -0.0095
  614TMC3    O1 9159   0.841   0.446  16.679  0.1742  0.3037  0.0413
  614TMC3    O2 9160   1.213   4.626  16.739  0.2558  0.0317 -0.6819
  615MPD2     C 9161   0.811   0.989  16.096  0.1573  0.3427  0.1018
  615MPD2    C1 9162   0.875   1.109  16.090  0.0330  0.1221 -0.4460
  615MPD2    C2 9163   0.821   1.202  16.003 -0.0621  0.2966  0.3650
  615MPD2    C3 9164   0.711   1.173  15.928 -0.2736 -0.2194 -0.1874
  615MPD2    C4 9165   0.644   1.051  15.940  0.3304 -0.6103 -0.6882
  615MPD2    C5 9166   0.698   0.958  16.022 -0.2742  0.1126  0.6390
  615MPD2     H 9167   0.871   1.297  15.983 -0.9673  1.0007  1.4240
  615MPD2    H1 9168   0.559   1.019  15.881  0.7245  0.0825 -1.6401
  615MPD2    H2 9169   0.848   0.909  16.159 -1.5774 -0.1764  0.4749
  615MPD2    H3 9170   0.641   0.867  16.034 -0.8388  0.0008 -3.0022
  615MPD2     N 9171   0.664   1.290  15.847 -0.4947 -0.1981 -0.5700
  615MPD2    H5 9172   0.728   1.363  15.817  0.3776 -0.3526  0.9028
  615MPD2    N1 9173   1.002   1.143  16.142  0.5245  0.0133  0.3711
  615MPD2    H7 9174   1.051   1.226  16.111 -0.6959 -0.3041 -2.4327
  616TMC3    C1 9175   1.219   1.091  16.262  0.0487 -0.7160  0.4739
  616TMC3    C2 9176   1.288   1.180  16.194 -0.5910  0.2157 -0.1264
  616TMC3    C3 9177   1.417   1.214  16.228 -0.0315  0.3322  0.6694
  616TMC3    C4 9178   1.279   1.012  16.349 -0.2265  0.0665  0.6789
  616TMC3    C5 9179   1.412   1.035  16.377 -0.0128 -1.0849 -1.0040
  616TMC3    C6 9180   1.481   1.136  16.318 -0.5062  0.5161 -0.1353
  616TMC3     C 9181   1.074   1.062  16.229 -0.6583  0.4116  0.2055
  616TMC3     O 9182   1.023   0.985  16.314  0.1745 -0.1885  0.0917
  616TMC3     H 9183   1.238   1.242  16.120 -1.3174 -1.1076 -0.7318
  616TMC3    H1 9184   1.223   0.934  16.400  0.6672 -1.9857 -1.4718
  616TMC3    H2 9185   1.580   1.165  16.352  0.4791 -1.7525 -1.1130
  616TMC3    C7 9186   1.480   0.989  16.494  0.3297 -0.0578 -0.7072
  616TMC3    C8 9187   1.448   1.358  16.223  0.4110  0.1712 -0.6002
  616TMC3    O1 9188   1.602   0.984  16.487  1.2645 -0.1882 -0.6453
  616TMC3    O2 9189   1.370   1.437  16.166 -0.3337  0.1175 -0.0621
  617MPD2     C 9190   3.414   3.781  13.134 -0.7122  0.6783  0.3414
  617MPD2    C1 9191   3.412   3.830  13.266 -0.1083 -0.3904  0.7400
  617MPD2    C2 9192   3.333   3.767  13.361 -1.0051  0.4765  0.0826
  617MPD2    C3 9193   3.252   3.657  13.324 -0.3051 -0.3565  0.8214
  617MPD2    C4 9194   3.249   3.616  13.192 -0.1816  1.1070 -0.3799
  617MPD2    C5 9195   3.333   3.676  13.102  0.1320 -0.2188  0.4565
  617MPD2     H 9196   3.332   3.798  13.465 -1.0046 -0.1122  0.2593
  617MPD2    H1 9197   3.194   3.533  13.149  1.4737  0.0979 -0.5539
  617MPD2    H2 9198   3.485   3.821  13.062  0.9824 -2.1278  0.4651
  617MPD2    H3 9199   3.310   3.645  13.000  1.5709  3.0318 -0.8388
  617MPD2     N 9200   3.160   3.582  13.413  0.5750 -0.2122  0.5733
  617MPD2    H5 9201   3.102   3.514  13.366  0.9828 -0.8468  0.9971
  617MPD2    N1 9202   3.500   3.935  13.289  0.2239 -0.0578  0.1583
  617MPD2    H7 9203   3.554   3.964  13.208  0.4564 -2.0707 -0.3930
  618TMC3    C1 9204   3.638   4.083  13.404 -0.3877 -0.2993 -0.1015
  618TMC3    C2 9205   3.711   4.097  13.518  0.0438  0.4000  0.4389
  618TMC3    C3 9206   3.848   4.133  13.494 -0.6264 -0.2113  0.0548
  618TMC3    C4 9207   3.688   4.101  13.283 -0.4494  1.0342  0.0506
  618TMC3    C5 9208   3.821   4.144  13.266  0.4469  0.0089  0.2189
  618TMC3    C6 9209   3.908   4.158  13.372  0.5946 -1.0656  0.4177
  618TMC3     C 9210   3.525   3.994  13.411  0.5088 -0.0932  0.2332
  618TMC3     O 9211   3.480   3.958  13.519  0.4682  0.4026 -0.3881
  618TMC3     H 9212   3.673   4.081  13.619 -0.0352 -1.5394  0.1077
  618TMC3    H1 9213   3.632   4.100  13.190  1.0820  0.0162 -0.8489
  618TMC3    H2 9214   4.016   4.164  13.363  0.4253  0.7734 -0.4241
  618TMC3    C7 9215   3.883   4.106  13.139 -0.2525  0.4950 -0.3720
  618TMC3    C8 9216   3.930   4.139  13.614 -0.9160 -0.3731  0.1951
  618TMC3    O1 9217   3.808   4.075  13.051 -0.4438 -0.1289  0.3034
  618TMC3    O2 9218   3.863   4.173  13.715  0.0806 -0.0460 -0.2648
  619MPD2     C 9219   0.372   0.856  14.134  0.4949 -0.6434 -0.1460
  619MPD2    C1 9220   0.263   0.900  14.060 -0.5754  0.1960 -0.5506
  619MPD2    C2 9221   0.137   0.865  14.088  0.2445 -0.3703 -0.5309
  619MPD2    C3 9222   0.110   0.760  14.175  0.3287  0.2749  0.3105
  619MPD2    C4 9223   0.223   0.700  14.234  0.4242 -0.1087 -0.0071
  619MPD2    C5 9224   0.350   0.758  14.227 -0.6684  0.2708  0.7390
  619MPD2     H 9225   0.059   0.913  14.029 -0.5909  0.3303  1.1562
  619MPD2    H1 9226   0.225   0.611  14.294  0.5807 -1.0642 -1.4169
  619MPD2    H2 9227   0.474   0.891  14.137 -0.8027  3.1435  0.6728
  619MPD2    H3 9228   0.437   0.726  14.283 -0.4913  2.1916  1.5470
  619MPD2     N 9229   4.724   0.704  14.192 -0.0716 -0.5491  0.0322
  619MPD2    H5 9230   4.712   0.629  14.259 -4.1283 -0.0579 -0.0962
  619MPD2    N1 9231   0.282   0.985  13.949  0.5057  0.4450 -0.6224
  619MPD2    H7 9232   0.195   1.026  13.918 -0.1852  1.1017  2.1582
  620TMC3    C1 9233   0.372   1.096  13.765 -0.0764  0.8558  0.1309
  620TMC3    C2 9234   0.250   1.070  13.696  0.4163 -0.0073  0.2182
  620TMC3    C3 9235   0.199   1.171  13.633  0.5218 -0.9550 -0.0043
  620TMC3    C4 9236   0.437   1.214  13.764  0.2694 -0.3120 -0.8892
  620TMC3    C5 9237   0.381   1.312  13.695  0.5131 -0.2457  0.7123
  620TMC3    C6 9238   0.262   1.293  13.633  0.2527  0.2904 -0.0568
  620TMC3     C 9239   0.397   1.018  13.881  0.1700 -0.6119  0.4701
  620TMC3     O 9240   0.516   1.002  13.918 -0.0419 -0.3148  0.2973
  620TMC3     H 9241   0.193   0.979  13.707  0.0853 -0.0093 -1.4479
  620TMC3    H1 9242   0.516   1.233  13.836  1.1379 -2.8010 -1.1827
  620TMC3    H2 9243   0.214   1.372  13.576 -0.8760  0.2650  0.8715
  620TMC3    C7 9244   0.415   1.448  13.719  0.7276  0.2317  0.3818
  620TMC3    C8 9245   0.061   1.173  13.670  0.1322  0.5912 -0.8132
  620TMC3    O1 9246   0.327   1.528  13.688  0.0703 -0.1499  1.1620
  620TMC3    O2 9247   0.030   1.112  13.770  0.3584 -0.0292  0.0708
  621MPD2     C 9248   0.142   0.667  10.357  0.2338  0.0476  0.1723
  621MPD2    C1 9249   0.203   0.629  10.236  0.0545  0.1966 -0.1744
  621MPD2    C2 9250   0.253   0.730  10.156 -0.3379 -0.1175  0.1195
  621MPD2    C3 9251   0.251   0.861  10.194 -0.8050  0.1332 -0.4541
  621MPD2    C4 9252   0.189   0.900  10.306 -0.0055  0.4440  0.6702
  621MPD2    C5 9253   0.135   0.802  10.387  0.6149 -0.3713 -0.5417
  621MPD2     H 9254   0.287   0.704  10.057  0.1825 -0.4792  0.3903
  621MPD2    H1 9255   0.173   1.002  10.339  2.1815  1.3346 -1.0229
  621MPD2    H2 9256   0.106   0.597  10.431 -0.5573 -0.4397 -0.6856
  621MPD2    H3 9257   0.080   0.831  10.476  1.8679  0.0106  0.1117
  621MPD2     N 9258   0.312   0.952  10.101 -0.0216 -0.1938 -0.3768
  621MPD2    H5 9259   0.334   0.912  10.011 -1.8383 -1.0234 -0.4475
  621MPD2    N1 9260   0.185   0.499  10.187  0.0678  0.1943 -0.5895
  621MPD2    H7 9261   0.211   0.483  10.090  1.4716  0.4559 -0.2483
  622TMC3    C1 9262   0.112   0.284  10.157  0.9588  0.1018  0.1324
  622TMC3    C2 9263   0.062   0.179  10.230  0.0265 -0.1815  0.1859
  622TMC3    C3 9264   4.714   0.094  10.176 -0.2887 -0.6217  0.3378
  622TMC3    C4 9265   0.058   0.315  10.032  0.0493 -0.1956 -0.5387
  622TMC3    C5 9266   4.716   0.219   9.982 -0.5119  1.0362 -0.2570
  622TMC3    C6 9267   4.661   0.114  10.051  0.2144  0.0771  0.4083
  622TMC3     C 9268   0.119   0.396  10.246  0.3743 -0.0140 -0.1005
  622TMC3     O 9269   0.074   0.386  10.359 -0.2022 -0.1384 -0.2591
  622TMC3     H 9270   0.101   0.157  10.329 -0.3968  1.6164  0.7672
  622TMC3    H1 9271   0.098   0.403   9.984 -0.5897  0.6313  0.4436
  622TMC3    H2 9272   4.592   0.038  10.019 -0.8485  1.1586  0.1474
  622TMC3    C7 9273   4.705   0.203   9.839 -0.3919 -0.2955 -0.1003
  622TMC3    C8 9274   4.605   0.078  10.263  0.0101  0.1058 -0.6361
  622TMC3    O1 9275   4.648   0.105   9.800  0.2055  0.1582  0.4386
  622TMC3    O2 9276   4.532   4.722  10.257  0.2605 -0.0397  0.3819
  623MPD2     C 9277   4.271   1.442  15.981 -0.3372  0.2414  0.2248
  623MPD2    C1 9278   4.227   1.311  16.008  0.4988 -0.2382 -0.3482
  623MPD2    C2 9279   4.285   1.232  16.108 -0.4861  0.0208  0.0831
  623MPD2    C3 9280   4.381   1.289  16.194 -0.2601 -0.0671  0.6123
  623MPD2    C4 9281   4.416   1.418  16.165  0.6973 -0.1673 -0.0326
  623MPD2    C5 9282   4.366   1.493  16.066 -0.3448  0.5126 -0.1378
  623MPD2     H 9283   4.255   1.129  16.123 -0.8193  0.4953  2.7301
  623MPD2    H1 9284   4.476   1.476  16.235  1.7149 -1.4184  0.1250
  623MPD2    H2 9285   4.228   1.505  15.904 -0.8604 -0.5195 -0.1044
  623MPD2    H3 9286   4.394   1.597  16.052 -1.0334  0.8317  0.9391
  623MPD2     N 9287   4.416   1.210  16.309 -0.6890  0.0982  0.1490
  623MPD2    H5 9288   4.397   1.111  16.313 -0.4353 -0.0335 -2.2806
  623MPD2    N1 9289   4.117   1.268  15.926 -0.2926  0.4084 -0.4163
  623MPD2    H7 9290   4.080   1.338  15.862 -2.5012 -0.5587 -0.2106
  624TMC3    C1 9291   4.596   1.065  16.704  0.0186  0.2100  0.5242
  624TMC3    C2 9292   4.489   0.984  16.738 -0.4108  0.8704  0.1485
  624TMC3    C3 9293   4.380   0.987  16.651  1.3869  0.5036  0.4291
  624TMC3    C4 9294   4.593   1.160  16.610 -0.2829  0.4559  0.7377
  624TMC3    C5 9295   4.493   1.154  16.519 -0.6526 -0.0300 -0.5364
  624TMC3    C6 9296   4.392   1.068  16.539 -0.1230 -0.2481 -0.2356
  624TMC3     C 9297   4.723   1.026  16.759  0.0155 -0.3422  0.4316
  624TMC3     O 9298   4.719   0.944  16.851  0.3320 -0.1530  0.6856
  624TMC3     H 9299   4.484   0.929  16.831 -0.6904  0.5756 -0.0411
  624TMC3    H1 9300   4.671   1.233  16.594  0.1337 -0.0262  0.5709
  624TMC3    H2 9301   4.305   1.060  16.475  0.1743 -2.4209 -0.3782
  624TMC3    C7 9302   4.484   1.259  16.420  0.4464 -0.0379  0.7050
  624TMC3    C8 9303   4.249   0.973  16.704 -0.2938  0.5037 -0.6752
  624TMC3    O1 9304   4.550   1.361  16.434  0.4529  0.5475 -0.0405
  624TMC3    O2 9305   4.160   0.952  16.620  0.3947  0.6540 -0.5341
  625MPD2     C 9306   4.601   2.252   0.991 -0.6330  0.2425  1.3489
  625MPD2    C1 9307   4.661   2.378   0.977 -0.5764  0.2788 -0.1902
  625MPD2    C2 9308   0.055   2.389   1.024 -0.1743  0.3645  0.8919
  625MPD2    C3 9309   0.119   2.278   1.080  0.4911  0.5001 -0.6187
  625MPD2    C4 9310   0.054   2.158   1.094  0.1742 -0.2803 -0.6506
  625MPD2    C5 9311   4.660   2.152   1.049  0.0237 -0.2695  0.7391
  625MPD2     H 9312   0.112   2.478   1.004 -2.2299  1.5443  0.2646
  625MPD2    H1 9313   0.088   2.071   1.148 -3.1809  0.3283  2.4240
  625MPD2    H2 9314   4.515   2.215   0.936 -0.7043 -1.6802  2.7487
  625MPD2    H3 9315   4.613   2.054   1.044 -0.2352 -0.0577 -1.0300
  625MPD2     N 9316   0.250   2.299   1.120  0.2321 -0.3881 -0.1076
  625MPD2    H5 9317   0.291   2.388   1.094  0.5705 -0.8651 -1.2085
  625MPD2    N1 9318   4.600   2.489   0.919 -0.3391 -0.4742  0.1683
  625MPD2    H7 9319   4.642   2.579   0.941 -0.0763  0.3224 -3.6433
  626TMC3    C1 9320   4.438   2.608   0.804  0.1171  0.1991  0.0460
  626TMC3    C2 9321   4.358   2.604   0.692  0.1231 -0.8252 -0.2440
  626TMC3    C3 9322   4.279   2.717   0.675 -0.1853 -0.4945 -0.4825
  626TMC3    C4 9323   4.429   2.689   0.914 -0.3107  0.2940 -0.0666
  626TMC3    C5 9324   4.344   2.801   0.892 -0.0486 -0.0477  0.7543
  626TMC3    C6 9325   4.274   2.813   0.776 -0.4838  0.2708 -0.0752
  626TMC3     C 9326   4.493   2.477   0.836 -0.4088  0.0570  0.1384
  626TMC3     O 9327   4.452   2.379   0.772 -0.0804 -0.2831  0.2308
  626TMC3     H 9328   4.377   2.539   0.607  3.9548  0.7227 -0.5891
  626TMC3    H1 9329   4.495   2.681   1.000 -1.3856  4.6409  1.1631
  626TMC3    H2 9330   4.208   2.896   0.755 -2.1515 -0.7307  1.2581
  626TMC3    C7 9331   4.314   2.871   1.011 -0.3209  0.3203  0.3632
  626TMC3    C8 9332   4.215   2.750   0.552  0.5766 -0.7302 -0.4133
  626TMC3    O1 9333   4.400   2.856   1.099  0.5424  0.0172  0.0607
  626TMC3    O2 9334   4.207   2.871   0.531 -0.2287 -0.2353 -0.0135
  627MPD2     C 9335   2.957   2.821  14.305 -0.2422  0.6682  0.1480
  627MPD2    C1 9336   2.973   2.802  14.441  0.0538 -1.2150  0.7642
  627MPD2    C2 9337   2.912   2.690  14.500  0.4216  0.5294 -0.1489
  627MPD2    C3 9338   2.828   2.608  14.428 -0.1561  0.0618 -0.4555
  627MPD2    C4 9339   2.810   2.624  14.292 -0.6556  0.0287  0.7311
  627MPD2    C5 9340   2.872   2.739  14.240 -0.0295 -0.1541  0.0630
  627MPD2     H 9341   2.931   2.673  14.606  0.5818 -3.1005 -0.7768
  627MPD2    H1 9342   2.736   2.570  14.233  1.0097 -0.0653 -1.2733
  627MPD2    H2 9343   2.999   2.904  14.248 -0.6386 -0.2566 -1.4854
  627MPD2    H3 9344   2.855   2.769  14.137  3.2396 -0.4691 -0.5866
  627MPD2     N 9345   2.748   2.516  14.508  0.4083  0.1416 -0.0600
  627MPD2    H5 9346   2.764   2.506  14.608  1.9163  1.7184 -0.1416
  627MPD2    N1 9347   3.072   2.878  14.513  0.1731 -0.0213 -0.8375
  627MPD2    H7 9348   3.103   2.842  14.603 -1.6465 -2.0745 -1.0262
  628TMC3    C1 9349   3.209   3.079  14.561 -0.8374  0.1203  0.9259
  628TMC3    C2 9350   3.312   3.007  14.623 -0.2440  0.6586 -0.1291
  628TMC3    C3 9351   3.431   3.076  14.626 -0.2692  0.1240 -0.7161
  628TMC3    C4 9352   3.224   3.211  14.530 -0.1535  0.2412  0.1515
  628TMC3    C5 9353   3.347   3.272  14.524  1.2976 -0.3618 -0.1842
  628TMC3    C6 9354   3.451   3.207  14.589 -0.3301 -0.1080 -0.0186
  628TMC3     C 9355   3.120   3.000  14.471  0.5858 -0.3137 -0.8384
  628TMC3     O 9356   3.075   3.064  14.378 -0.2170 -0.3570 -0.4175
  628TMC3     H 9357   3.310   2.903  14.653 -0.5516  0.0989 -2.0878
  628TMC3    H1 9358   3.131   3.261  14.505 -1.3458 -1.5499  0.9471
  628TMC3    H2 9359   3.549   3.253  14.588 -0.6179  0.4874 -2.1424
  628TMC3    C7 9360   3.373   3.394  14.459 -0.2385  0.4036 -0.1404
  628TMC3    C8 9361   3.552   3.014  14.678 -0.3353  0.3050 -0.2367
  628TMC3    O1 9362   3.478   3.451  14.488 -0.1933  0.1934 -0.2632
  628TMC3    O2 9363   3.652   3.062  14.630  0.2793 -0.0372 -0.0268
  629MPD2     C 9364   1.713   1.735  16.418  0.1643  0.6423  0.0812
  629MPD2    C1 9365   1.799   1.633  16.406 -0.2296 -0.3841  0.2007
  629MPD2    C2 9366   1.758   1.517  16.352  0.2607  0.4300 -0.5386
  629MPD2    C3 9367   1.628   1.512  16.309  0.5232 -0.0395  0.0591
  629MPD2    C4 9368   1.547   1.620  16.307 -0.4737 -0.0239  0.1466
  629MPD2    C5 9369   1.590   1.736  16.365  0.5778  0.4980 -0.4048
  629MPD2     H 9370   1.814   1.425  16.351 -0.5061 -0.0515  0.3145
  629MPD2    H1 9371   1.448   1.624  16.263  0.2755  0.7973 -1.4825
  629MPD2    H2 9372   1.739   1.823  16.476  1.3567 -0.2898  0.9550
  629MPD2    H3 9373   1.521   1.818  16.383 -1.0545 -0.4477 -2.3752
  629MPD2     N 9374   1.583   1.386  16.259  0.2867  0.2377 -1.1389
  629MPD2    H5 9375   1.650   1.309  16.260  0.6589  0.5656 -0.7329
  629MPD2    N1 9376   1.927   1.651  16.464 -0.9192  0.2482 -0.0159
  629MPD2    H7 9377   1.950   1.747  16.490  1.0621 -0.2815  0.2202
  630TMC3    C1 9378   2.139   1.618  16.543 -0.0353  0.5663  0.3164
  630TMC3    C2 9379   2.185   1.741  16.492 -0.2365  0.0876  0.0589
  630TMC3    C3 9380   2.274   1.814  16.572 -0.0549 -1.1408  0.9973
  630TMC3    C4 9381   2.195   1.564  16.654 -0.2959  0.4259  0.0368
  630TMC3    C5 9382   2.292   1.637  16.722 -0.8761 -0.0780  1.2930
  630TMC3    C6 9383   2.329   1.765  16.684  0.1770  0.0849  0.0096
  630TMC3     C 9384   2.019   1.559  16.481 -0.4065  0.0333  0.1293
  630TMC3     O 9385   2.003   1.439  16.479 -0.0223  0.1165 -0.1957
  630TMC3     H 9386   2.156   1.768  16.391 -1.4005 -0.9455  0.1116
  630TMC3    H1 9387   2.148   1.483  16.708  2.5082  0.0933  1.9700
  630TMC3    H2 9388   2.413   1.815  16.732  0.8574 -0.8399 -0.2067
  630TMC3    C7 9389   2.342   1.586  16.852  0.6618  0.0286 -0.7465
  630TMC3    C8 9390   2.328   1.941  16.521  0.4862 -0.0281  0.0937
  630TMC3    O1 9391   2.352   1.462  16.855  0.2503 -0.7311  0.1195
  630TMC3    O2 9392   2.410   1.991  16.593  0.0553  0.3739  0.0826
  631MPD2     C 9393   4.516   1.902  15.631 -0.4710  0.3406 -0.6957
  631MPD2    C1 9394   4.624   1.964  15.583 -0.5702 -0.9674  0.4437
  631MPD2    C2 9395   0.009   1.895  15.595 -0.3465  0.5536  0.0247
  631MPD2    C3 9396   0.021   1.768  15.647  0.1148  0.4835  0.6930
  631MPD2    C4 9397   4.639   1.705  15.688  0.3271 -0.0299 -0.8139
  631MPD2    C5 9398   4.520   1.774  15.677  0.5550  0.2471 -0.0962
  631MPD2     H 9399   0.099   1.941  15.557 -0.1195 -0.7787 -1.0304
  631MPD2    H1 9400   4.643   1.609  15.738 -3.4043 -0.5234 -1.4823
  631MPD2    H2 9401   4.423   1.956  15.622 -0.0040  0.9772 -1.8308
  631MPD2    H3 9402   4.434   1.721  15.718  0.5106 -0.6823 -1.3661
  631MPD2     N 9403   0.158   1.717  15.650  0.2853 -0.0025 -0.2278
  631MPD2    H5 9404   0.227   1.785  15.620 -0.8744  0.9373 -0.7801
  631MPD2    N1 9405   4.608   2.093  15.524  0.7813 -0.5477 -0.1418
  631MPD2    H7 9406   4.512   2.124  15.533  1.0149  0.2887 -0.6172
  632TMC3    C1 9407   4.654   2.271  15.379 -0.1351 -0.1213 -0.3946
  632TMC3    C2 9408   4.525   2.312  15.396  0.0310  0.4503  0.3853
  632TMC3    C3 9409   4.461   2.367  15.289  0.1740 -0.3685  0.1100
  632TMC3    C4 9410   4.717   2.290  15.260 -0.1581 -0.9146 -0.7281
  632TMC3    C5 9411   4.662   2.363  15.161  0.4227  0.0234 -0.6219
  632TMC3    C6 9412   4.531   2.394  15.169 -0.1752  0.5183 -0.0954
  632TMC3     C 9413   4.706   2.169  15.469 -0.0803 -0.4910  0.6878
  632TMC3     O 9414   0.092   2.154  15.474  0.4340  0.1327 -0.3205
  632TMC3     H 9415   4.484   2.296  15.495 -1.1653  0.2122 -0.1475
  632TMC3    H1 9416   0.082   2.255  15.241  1.0241  0.8441  2.3788
  632TMC3    H2 9417   4.497   2.458  15.088 -3.1918 -0.0627  0.7175
  632TMC3    C7 9418   4.723   2.374  15.035  0.2697 -0.0474 -0.2003
  632TMC3    C8 9419   4.319   2.392  15.303 -0.4632 -0.4122 -0.4911
  632TMC3    O1 9420   4.660   2.320  14.947  0.2059 -0.3697  0.5125
  632TMC3    O2 9421   4.281   2.372  15.417  0.0088 -0.2049 -0.5856
  633MPD2     C 9422   4.275   4.215  17.394  0.1956 -0.2219  0.1522
  633MPD2    C1 9423   4.340   4.151  17.295  0.1926 -0.1260  0.1707
  633MPD2    C2 9424   4.321   4.013  17.285 -0.3964 -0.0247 -0.3323
  633MPD2    C3 9425   4.239   3.945  17.372 -0.2828  0.2360 -0.0555
  633MPD2    C4 9426   4.188   4.007  17.481  0.0019 -0.5416  0.5050
  633MPD2    C5 9427   4.199   4.150  17.485  0.1582  0.3621 -0.0293
  633MPD2     H 9428   4.366   3.950  17.209  0.3512  0.8545 -0.6145
  633MPD2    H1 9429   4.125   3.956  17.553  0.4779 -0.4049  1.0226
  633MPD2    H2 9430   4.286   4.323  17.403  0.9174 -0.2070 -0.8986
  633MPD2    H3 9431   4.152   4.213  17.559 -1.3575  1.2807 -1.7594
  633MPD2     N 9432   4.215   3.804  17.346  0.2534 -0.2500 -0.0445
  633MPD2    H5 9433   4.269   3.763  17.271  0.1919 -1.3380  0.4973
  633MPD2    N1 9434   4.426   4.215  17.204 -0.4506 -0.5157 -0.0056
  633MPD2    H7 9435   4.476   4.161  17.135 -1.6523 -1.2576 -0.3017
  634TMC3    C1 9436   4.483   4.385  17.045 -0.2378 -0.4386 -0.4577
  634TMC3    C2 9437   4.512   4.281  16.963 -0.5883  0.2418  0.1118
  634TMC3    C3 9438   4.516   4.298  16.830  0.4630  0.3378  0.1944
  634TMC3    C4 9439   4.452   4.508  16.997  0.0567  0.6506 -0.6069
  634TMC3    C5 9440   4.455   4.531  16.861 -0.6752 -0.2663  0.7066
  634TMC3    C6 9441   4.480   4.423  16.778 -0.7732 -0.2278 -0.2638
  634TMC3     C 9442   4.422   4.351  17.174  0.1406 -0.6694 -0.6266
  634TMC3     O 9443   4.369   4.438  17.243 -0.0782 -0.2547 -0.3269
  634TMC3     H 9444   4.530   4.181  17.001  2.6383  1.0916  0.8064
  634TMC3    H1 9445   4.424   4.585  17.068  1.0227  1.2642 -0.8931
  634TMC3    H2 9446   4.474   4.438  16.670  0.0542 -0.5529 -0.3543
  634TMC3    C7 9447   4.371   4.639  16.807 -0.4546 -0.6072  0.7619
  634TMC3    C8 9448   4.530   4.176  16.751 -0.4788 -0.7642 -0.6620
  634TMC3    O1 9449   4.379   4.663  16.687 -0.3492 -0.2947  0.3231
  634TMC3    O2 9450   4.496   4.070  16.808 -0.5307  0.0557  0.2386
  635TMC3    C1 9451   0.092   0.175   0.423 -0.3322  0.7278  0.3644
  635TMC3    C2 9452   0.030   0.132   0.312  0.3346 -0.0838 -0.0490
  635TMC3    C3 9453   4.703   0.013   0.322  0.1808 -0.0591 -0.0151
  635TMC3    C4 9454   0.117   0.089   0.528  0.4844 -0.7101 -0.1088
  635TMC3    C5 9455   0.066   4.702   0.525 -0.7631  0.3839  0.0730
  635TMC3    C6 9456   4.709   4.665   0.431 -0.4725 -0.5542 -0.1696
  635TMC3     C 9457   0.159   0.302   0.432 -0.3809  0.1853  0.5360
  635TMC3     O 9458   0.221   0.323   0.536 -0.0443 -0.1024  0.0839
  635TMC3     H 9459   0.016   0.204   0.232  2.4298  1.0857  0.6372
  635TMC3    H1 9460   0.162   0.125   0.620  1.2231 -0.2080 -0.6685
  635TMC3    H2 9461   4.664   4.566   0.432  2.8593 -2.0456  1.6692
  635TMC3    C7 9462   0.116   4.597   0.613  0.4151  0.2113  0.9758
  635TMC3    C8 9463   4.669   4.696   0.189  0.5565 -0.2357  0.3126
  635TMC3    O1 9464   0.053   4.492   0.617  0.7815  0.4586 -0.3806
  635TMC3    O2 9465   4.694   0.020   0.091 -0.1321 -0.6440 -0.0239
  636MPD2     C 9466   0.391   0.018  16.265 -0.3353 -0.3145 -0.1554
  636MPD2    C1 9467   0.490   0.035  16.367 -0.0772 -0.0923 -0.2665
  636MPD2    C2 9468   0.546   4.652  16.425  0.7071 -0.4428 -0.6247
  636MPD2    C3 9469   0.528   4.528  16.377  0.7184  0.0368  0.2673
  636MPD2    C4 9470   0.448   4.516  16.258  0.4366 -0.8036  0.8359
  636MPD2    C5 9471   0.384   4.626  16.208  0.7356  0.1819  0.0577
  636MPD2     H 9472   0.602   4.667  16.517  0.1207 -0.2043 -0.3042
  636MPD2    H1 9473   0.421   4.419  16.220  1.9625 -0.4141 -1.2305
  636MPD2    H2 9474   0.344   0.096  16.207 -0.2052 -0.5455 -0.5697
  636MPD2    H3 9475   0.309   4.609  16.131 -1.3399  0.0424  2.0846
  636MPD2     N 9476   0.585   4.414  16.437 -0.1351 -0.7595 -0.5347
  636MPD2    H5 9477   0.636   4.430  16.523 -2.3076  0.4092  0.5624
  636MPD2    N1 9478   0.515   0.152  16.432 -0.2194 -0.5288  0.3902
  636MPD2    H7 9479   0.568   0.155  16.518 -1.8190  0.2813  1.3434
  637TMC3    C1 9480   0.661   4.206  16.489  0.6685  0.0635 -0.0278
  637TMC3    C2 9481   0.608   4.218  16.619  0.4159 -0.2316  0.4294
  637TMC3    C3 9482   0.696   4.204  16.728 -0.0137 -0.5948 -0.5188
  637TMC3    C4 9483   0.792   4.171  16.463 -0.4068 -0.2328  0.3774
  637TMC3    C5 9484   0.874   4.173  16.576  0.2244 -0.6718 -0.3142
  637TMC3    C6 9485   0.824   4.170  16.705  0.0963  1.1890 -0.2430
  637TMC3     C 9486   0.603   4.291  16.388  0.0937  0.1810 -0.6154
  637TMC3     O 9487   0.594   4.257  16.270  0.5525  0.0816  0.1632
  637TMC3     H 9488   0.514   4.268  16.638 -0.3128 -0.6884 -1.8652
  637TMC3    H1 9489   0.829   4.177  16.362 -0.8980 -1.6273  0.1192
  637TMC3    H2 9490   0.891   4.158  16.788  0.9129  0.3662 -1.0209
  637TMC3    C7 9491   0.995   4.257  16.576 -0.5053  0.2320 -0.0314
  637TMC3    C8 9492   0.672   4.308  16.823  0.5706  0.2379  0.0084
  637TMC3    O1 9493   1.000   4.323  16.676 -0.0339 -0.3708  0.4086
  637TMC3    O2 9494   0.627   4.418  16.788  0.0898  0.4010 -0.4737
  638MPD2     C 9495   0.917   3.751  15.174  0.3744 -0.1441 -1.1998
  638MPD2    C1 9496   1.004   3.648  15.171 -0.3643 -0.5185  0.2955
  638MPD2    C2 9497   0.978   3.540  15.250  0.5089 -0.6578 -0.4289
  638MPD2    C3 9498   0.860   3.523  15.316  0.2821 -0.1362 -0.2639
  638MPD2    C4 9499   0.773   3.635  15.326 -0.4164 -0.4102 -0.9157
  638MPD2    C5 9500   0.810   3.750  15.261  0.0633  0.5496  0.7311
  638MPD2     H 9501   1.051   3.460  15.242  0.5030 -0.7075  0.0338
  638MPD2    H1 9502   0.678   3.637  15.378  0.3024  1.8289  0.3696
  638MPD2    H2 9503   0.925   3.841  15.114  1.1739  1.7082  1.6885
  638MPD2    H3 9504   0.741   3.833  15.268 -0.1644  0.5352 -1.1941
  638MPD2     N 9505   0.831   3.400  15.368  0.6423 -0.8852 -0.5092
  638MPD2    H5 9506   0.895   3.324  15.346 -1.0222 -1.9686 -1.5906
  638MPD2    N1 9507   1.112   3.652  15.080 -0.9602 -0.2416 -0.4905
  638MPD2    H7 9508   1.117   3.716  15.002 -2.0773  2.4973  1.7253
  639TMC3    C1 9509   0.716   3.229  15.471  0.0797 -0.4777  0.5375
  639TMC3    C2 9510   0.623   3.143  15.426  0.3190 -0.1126 -0.1105
  639TMC3    C3 9511   0.655   3.012  15.421  0.1107 -0.1445  0.4229
  639TMC3    C4 9512   0.823   3.188  15.543 -0.5688  0.3661 -0.2447
  639TMC3    C5 9513   0.868   3.063  15.524  0.0625 -0.1959  0.7031
  639TMC3    C6 9514   0.788   2.978  15.457  0.5482  0.0036 -0.1123
  639TMC3     C 9515   0.713   3.367  15.424  0.5608 -0.4088  0.0843
  639TMC3     O 9516   0.611   3.432  15.443 -0.1084  0.5763  0.1832
  639TMC3     H 9517   0.543   3.184  15.365  0.2448  1.1133  0.8076
  639TMC3    H1 9518   0.887   3.269  15.576 -0.3487  0.6034 -1.2696
  639TMC3    H2 9519   0.815   2.873  15.457 -0.5500 -0.2699 -3.7439
  639TMC3    C7 9520   1.000   3.064  15.485  0.3059  0.2818  0.0485
  639TMC3    C8 9521   0.608   2.938  15.305 -0.0939 -0.1707  0.1619
  639TMC3    O1 9522   1.037   3.161  15.416  0.4813  0.3872  0.0919
  639TMC3    O2 9523   0.683   2.895  15.215  0.8091  0.0307  0.0402
  640MPD2     C 9524   1.316   2.267  10.215 -0.0579 -0.7080  0.6497
  640MPD2    C1 9525   1.399   2.380  10.201 -1.0520  0.0698  0.4882
  640MPD2    C2 9526   1.365   2.502  10.255 -0.2755  0.8808 -0.2726
  640MPD2    C3 9527   1.236   2.515  10.300  0.3383  0.4527 -0.6469
  640MPD2    C4 9528   1.152   2.407  10.312  0.0685  1.1131  0.1290
  640MPD2    C5 9529   1.196   2.283  10.274  0.2254 -0.4985  0.2916
  640MPD2     H 9530   1.431   2.589  10.255  1.7770 -0.6679  0.2337
  640MPD2    H1 9531   1.053   2.428  10.349 -0.6096 -1.0585 -0.4878
  640MPD2    H2 9532   1.335   2.172  10.166 -0.0755  0.6687 -2.0570
  640MPD2    H3 9533   1.126   2.201  10.281 -1.2768  0.8081  0.5472
  640MPD2     N 9534   1.184   2.636  10.348 -0.5942 -0.7249 -0.1665
  640MPD2    H5 9535   1.093   2.631  10.393 -0.0187 -0.4964  1.0494
  640MPD2    N1 9536   1.515   2.349  10.128  0.2519  0.4357  0.0057
  640MPD2    H7 9537   1.532   2.252  10.105 -0.8271  0.6370 -1.6283
  641TMC3    C1 9538   1.722   2.388  10.018  0.1516 -0.5420  0.2573
  641TMC3    C2 9539   1.756   2.261  10.042  0.0105 -0.5461 -0.7043
  641TMC3    C3 9540   1.877   2.209   9.995  0.4141  0.1677  0.4227
  641TMC3    C4 9541   1.802   2.472   9.945 -0.9274 -0.3093 -1.1677
  641TMC3    C5 9542   1.923   2.420   9.899 -0.0782 -0.4574  0.2030
  641TMC3    C6 9543   1.959   2.288   9.924  0.0380 -0.7111 -0.5362
  641TMC3     C 9544   1.613   2.445  10.094 -0.3778 -0.2583  0.3221
  641TMC3     O 9545   1.615   2.568  10.094  0.4269  0.1171 -0.3050
  641TMC3     H 9546   1.701   2.191  10.103  0.5079  1.7123  2.3171
  641TMC3    H1 9547   1.780   2.578   9.937 -0.5019  0.1099  3.2571
  641TMC3    H2 9548   2.039   2.241   9.868  0.3007  0.6386 -1.2895
  641TMC3    C7 9549   2.005   2.511   9.819 -0.6142  0.1121  0.3425
  641TMC3    C8 9550   1.909   2.068   9.994  0.3943  0.0998  0.2350
  641TMC3    O1 9551   1.949   2.605   9.762 -0.9741  0.5466 -0.0464
  641TMC3    O2 9552   1.813   1.998   9.970 -0.7466  0.0999  0.5183
  642TMC3    C1 9553   2.440   3.394  12.243  0.1106 -0.0321  0.0797
  642TMC3    C2 9554   2.572   3.418  12.280  0.2805 -0.1580 -0.4536
  642TMC3    C3 9555   2.626   3.317  12.355 -0.2592  0.3860 -0.2050
  642TMC3    C4 9556   2.367   3.288  12.275  0.2415 -0.3155  0.3711
  642TMC3    C5 9557   2.419   3.193  12.355 -0.3104 -0.2253  0.2450
  642TMC3    C6 9558   2.550   3.207  12.394  0.0470 -0.6750 -0.5430
  642TMC3     C 9559   2.380   3.517  12.193 -0.2210  0.0216  0.1816
  642TMC3     O 9560   2.436   3.575  12.104  0.8823  0.6570  0.1231
  642TMC3     H 9561   2.628   3.503  12.242  1.2671 -1.2188 -1.3811
  642TMC3    H1 9562   2.263   3.277  12.245  0.4374  1.0200 -0.8311
  642TMC3    H2 9563   2.602   3.126  12.443 -0.3853 -0.5860  0.0543
  642TMC3    C7 9564   2.340   3.072  12.367 -0.8854 -0.1678  0.3422
  642TMC3    C8 9565   2.745   3.332  12.434  0.3508 -0.1117 -0.3477
  642TMC3    O1 9566   2.284   3.035  12.271 -0.0180 -0.2392 -0.2234
  642TMC3    O2 9567   2.775   3.235  12.505 -0.0873  0.1059  0.2849
  643TMC3    C1 9568   1.543   1.848   0.202 -0.6204  0.0857  0.0712
  643TMC3    C2 9569   1.417   1.843   0.138  0.1709  0.1767  0.0183
  643TMC3    C3 9570   1.422   1.805   0.004 -0.1306  0.1938  0.5860
  643TMC3    C4 9571   1.665   1.836   0.138 -1.0437  0.3252 -0.2676
  643TMC3    C5 9572   1.664   1.814   0.003 -0.3704 -0.0918 -0.6311
  643TMC3    C6 9573   1.547   1.791  17.685 -0.6083  0.3325  0.2374
  643TMC3     C 9574   1.546   1.902   0.338  0.7187  0.0629  0.4839
  643TMC3     O 9575   1.440   1.949   0.385  0.0903 -0.3138 -0.5224
  643TMC3     H 9576   1.323   1.867   0.187  0.9860 -0.0470  1.6904
  643TMC3    H1 9577   1.755   1.862   0.191 -0.2356 -0.3687 -1.2814
  643TMC3    H2 9578   1.547   1.804  17.578 -3.6535  1.3728  0.3555
  643TMC3    C7 9579   1.760   1.887  17.671 -0.6713 -0.1357 -0.5491
  643TMC3    C8 9580   1.333   1.884  17.661  0.1055  0.1064 -0.2822
  643TMC3    O1 9581   1.792   1.997  17.717 -0.2537  0.8396 -0.5272
  643TMC3    O2 9582   1.334   1.864  17.542  0.1478  0.0971 -0.5466
  644MPD2     C 9583   2.209   1.261   9.445 -0.2919  0.2422 -0.2365
  644MPD2    C1 9584   2.111   1.357   9.433  0.8096  0.1604 -0.1362
  644MPD2    C2 9585   2.122   1.470   9.510  0.6316 -0.0786 -0.1489
  644MPD2    C3 9586   2.229   1.490   9.593 -0.4134  0.2654  0.6526
  644MPD2    C4 9587   2.313   1.382   9.615  0.1583  0.1706  0.3919
  644MPD2    C5 9588   2.311   1.276   9.532  0.3187  0.1935 -0.5106
  644MPD2     H 9589   2.053   1.552   9.495  0.8818 -0.1328 -1.6133
  644MPD2    H1 9590   2.385   1.386   9.696 -0.3832  1.7051  0.7926
  644MPD2    H2 9591   2.218   1.175   9.380  2.6686 -1.1499  2.0000
  644MPD2    H3 9592   2.383   1.197   9.549  0.4965  0.0334 -1.9645
  644MPD2     N 9593   2.245   1.619   9.640  0.3560 -0.1516 -0.2539
  644MPD2    H5 9594   2.166   1.681   9.626  0.1807 -0.5144 -0.8739
  644MPD2    N1 9595   2.018   1.336   9.330  0.2504 -0.5288  0.0607
  644MPD2    H7 9596   2.036   1.252   9.276  1.5906  0.0598 -0.4011
  645TMC3    C1 9597   2.376   1.806   9.707  0.2109 -0.0513 -0.6858
  645TMC3    C2 9598   2.276   1.890   9.661 -0.0108 -0.1772  0.5938
  645TMC3    C3 9599   2.298   2.023   9.681 -0.0516  0.0327  0.0391
  645TMC3    C4 9600   2.468   1.845   9.796  0.1467  0.3985 -0.2590
  645TMC3    C5 9601   2.482   1.983   9.819 -0.0974  0.1193  0.7438
  645TMC3    C6 9602   2.404   2.071   9.756  0.1909 -0.3125  0.0708
  645TMC3     C 9603   2.366   1.664   9.689  0.1333 -0.8774 -0.5159
  645TMC3     O 9604   2.468   1.599   9.714 -0.1796  0.6388 -0.1893
  645TMC3     H 9605   2.194   1.861   9.596 -1.3643 -0.1058  2.2676
  645TMC3    H1 9606   2.546   1.783   9.840  0.1267  1.2093  0.9346
  645TMC3    H2 9607   2.412   2.177   9.773  1.5110 -0.2240 -1.1485
  645TMC3    C7 9608   2.540   2.032   9.940 -0.5398 -0.2797 -0.4173
  645TMC3    C8 9609   2.197   2.115   9.633 -0.4084 -0.2482  0.1159
  645TMC3    O1 9610   2.488   2.134   9.985 -0.0874 -0.0744 -0.5382
  645TMC3    O2 9611   2.237   2.214   9.577  0.0144 -0.1001 -0.0716
  646MPD2     C 9612   1.005   2.299  14.618  0.1511  1.0129  0.0237
  646MPD2    C1 9613   0.892   2.285  14.700  0.4667  0.0123 -0.1230
  646MPD2    C2 9614   0.786   2.374  14.691  0.4831 -0.6995  0.5324
  646MPD2    C3 9615   0.805   2.488  14.607  0.1226 -0.2705  0.1722
  646MPD2    C4 9616   0.925   2.506  14.544 -0.6602  0.2985  0.4644
  646MPD2    C5 9617   1.020   2.412  14.546 -0.3506 -0.6987 -0.7917
  646MPD2     H 9618   0.696   2.367  14.750  0.3197 -1.4168  0.1987
  646MPD2    H1 9619   0.926   2.590  14.476 -0.1218 -1.9457 -2.3502
  646MPD2    H2 9620   1.091   2.233  14.612 -1.2923 -0.7911 -0.5334
  646MPD2    H3 9621   1.095   2.423  14.468 -1.1698  1.1588 -1.3179
  646MPD2     N 9622   0.696   2.582  14.603 -0.4167 -0.2828 -0.0480
  646MPD2    H5 9623   0.615   2.565  14.662  0.9729  1.6281  2.4461
  646MPD2    N1 9624   0.880   2.171  14.782 -0.3123 -0.6054 -0.5649
  646MPD2    H7 9625   0.956   2.105  14.767  0.9091  0.3994  1.1888
  647TMC3    C1 9626   0.833   2.039  14.981  0.4410 -0.7633 -0.2953
  647TMC3    C2 9627   0.874   2.085  15.102  0.4822  0.5708  0.3058
  647TMC3    C3 9628   0.953   1.992  15.169 -0.0588 -0.1687 -0.0074
  647TMC3    C4 9629   0.863   1.927  14.927 -0.3168  0.6544  0.3183
  647TMC3    C5 9630   0.937   1.839  14.999 -0.6737 -0.1267  0.5480
  647TMC3    C6 9631   0.991   1.869  15.121  0.4806  0.6245  0.5465
  647TMC3     C 9632   0.798   2.153  14.892  0.0125 -0.6568 -0.2057
  647TMC3     O 9633   0.713   2.230  14.930 -0.6415 -0.3619 -0.2055
  647TMC3     H 9634   0.869   2.188  15.134 -0.0327  0.9403 -0.9290
  647TMC3    H1 9635   0.841   1.910  14.822 -3.6149 -0.6638  1.2157
  647TMC3    H2 9636   1.074   1.822  15.171  0.5759  0.8591  0.6053
  647TMC3    C7 9637   0.953   1.701  14.963 -0.3564 -0.4807 -0.5004
  647TMC3    C8 9638   1.002   2.035  15.303  0.3403  0.7531 -0.5320
  647TMC3    O1 9639   1.051   1.656  15.016 -0.3891 -0.0534 -0.5161
  647TMC3    O2 9640   0.993   2.154  15.336 -0.2708  0.5443  0.4219
  648TMC3    C1 9641   0.058   4.390  16.092  0.1730 -0.5747  0.7836
  648TMC3    C2 9642   0.118   4.291  16.013  0.5376 -0.2095 -0.8377
  648TMC3    C3 9643   0.102   4.295  15.883  0.0229  0.0973  0.2289
  648TMC3    C4 9644   4.714   4.493  16.034  0.7027 -0.3898 -0.6420
  648TMC3    C5 9645   4.707   4.496  15.893 -0.5609 -0.5825 -0.0192
  648TMC3    C6 9646   0.033   4.395  15.822 -0.5900 -0.5952  0.2451
  648TMC3     C 9647   0.088   4.398  16.232  0.7820  0.5410 -0.0890
  648TMC3     O 9648   0.058   4.510  16.281  0.2242  0.2431  0.5426
  648TMC3     H 9649   0.183   4.216  16.055  1.0910  1.2983  1.0156
  648TMC3    H1 9650   4.670   4.571  16.095 -1.2216 -0.9426 -1.3210
  648TMC3    H2 9651   0.043   4.402  15.714 -0.3986 -0.6403  0.2595
  648TMC3    C7 9652   4.639   4.596  15.823 -0.3638 -0.1321 -0.3194
  648TMC3    C8 9653   0.187   4.221  15.791  0.0139  0.6763  0.2216
  648TMC3    O1 9654   4.647   4.599  15.701  0.0365  0.1157  0.1363
  648TMC3    O2 9655   0.220   4.263  15.680  0.1498 -0.3983  0.3995
  649TMC3    C1 9656   4.231   0.956  13.234  0.8187 -0.6432 -0.0314
  649TMC3    C2 9657   4.366   0.977  13.253 -0.1639 -0.0355 -0.1747
  649TMC3    C3 9658   4.412   0.957  13.379 -0.3132 -0.8132 -0.0819
  649TMC3    C4 9659   4.147   0.902  13.327 -0.5642  0.2566  0.0415
  649TMC3    C5 9660   4.200   0.885  13.449 -0.2757  0.1671  0.5289
  649TMC3    C6 9661   4.326   0.926  13.483 -1.1699 -0.3744  0.1879
  649TMC3     C 9662   4.168   0.965  13.093  0.6927  0.0920  0.1930
  649TMC3     O 9663   4.049   0.933  13.084  0.3941  0.0549 -0.1768
  649TMC3     H 9664   4.421   1.006  13.165  1.4083 -0.0441  0.7905
  649TMC3    H1 9665   4.046   0.869  13.309 -0.2753 -0.5270 -0.1156
  649TMC3    H2 9666   4.366   0.917  13.583 -0.7586 -1.0275 -0.0376
  649TMC3    C7 9667   4.115   0.815  13.539 -0.4070  0.6178  0.0428
  649TMC3    C8 9668   4.554   0.961  13.403  0.3227  0.3941  0.7226
  649TMC3    O1 9669   3.997   0.815  13.525 -0.0605 -0.0458 -0.1629
  649TMC3    O2 9670   4.589   0.907  13.504  0.0132 -0.1217  0.6338
  650TMC3    C1 9671   1.885   2.535  13.024  0.0247  0.2562 -0.1262
  650TMC3    C2 9672   1.888   2.668  13.045 -0.9782 -0.6696 -0.3391
  650TMC3    C3 9673   1.928   2.757  12.942 -0.5457 -0.2728  0.2601
  650TMC3    C4 9674   1.912   2.481  12.898 -0.4384 -0.8412  0.2022
  650TMC3    C5 9675   1.927   2.567  12.794 -0.3812 -0.5855 -0.5541
  650TMC3    C6 9676   1.943   2.706  12.817  0.9029  0.3284  0.4536
  650TMC3     C 9677   1.893   2.459  13.136 -0.0159 -0.1909  0.5917
  650TMC3     O 9678   1.904   2.520  13.244 -0.2323 -0.3761  0.3487
  650TMC3     H 9679   1.862   2.706  13.143 -0.4503 -0.5848 -0.2363
  650TMC3    H1 9680   1.923   2.376  12.875 -4.3404 -1.4504  1.0607
  650TMC3    H2 9681   1.971   2.777  12.740 -1.9646  2.0334  1.0075
  650TMC3    C7 9682   1.891   2.520  12.665  0.0611 -0.1985 -0.2246
  650TMC3    C8 9683   1.866   2.887  12.932  0.4252  0.5287 -0.3848
  650TMC3    O1 9684   1.850   2.404  12.655  1.0003 -0.7544 -0.5756
  650TMC3    O2 9685   1.896   2.950  12.829 -0.4516 -0.6364  0.3846
  651MPD2     C 9686   0.255   4.683  10.587 -0.2792 -0.0872  0.5443
  651MPD2    C1 9687   0.228   0.079  10.630  0.0546 -0.2005 -0.0780
  651MPD2    C2 9688   0.345   0.154  10.667 -0.6755  0.0303  0.2096
  651MPD2    C3 9689   0.471   0.099  10.655 -0.9201  0.7568  0.4631
  651MPD2    C4 9690   0.482   4.707  10.603 -0.0773 -0.1409  0.4232
  651MPD2    C5 9691   0.375   4.629  10.570  0.2767  0.5349  0.1294
  651MPD2     H 9692   0.334   0.243  10.728  3.7350 -0.2370  1.4153
  651MPD2    H1 9693   0.578   4.666  10.577 -0.5472  1.0044 -3.2322
  651MPD2    H2 9694   0.177   4.611  10.564 -0.1548 -0.1211  0.2318
  651MPD2    H3 9695   0.394   4.537  10.516 -2.5572  1.0596 -1.7420
  651MPD2     N 9696   0.584   0.180  10.700  0.0909  0.5892  0.3539
  651MPD2    H5 9697   0.570   0.278  10.719  1.6082  0.6521  1.1476
  651MPD2    N1 9698   0.096   0.136  10.648  0.6063 -0.2236  0.0567
  651MPD2    H7 9699   0.101   0.228  10.692  0.9066 -0.8457  1.3192
  652TMC3    C1 9700   1.052   0.211  10.799 -0.7090 -0.0419 -0.5733
  652TMC3    C2 9701   0.937   0.140  10.792  1.1872 -0.6553  0.4438
  652TMC3    C3 9702   0.820   0.210  10.757 -0.0950 -0.8444 -0.2688
  652TMC3    C4 9703   1.063   0.342  10.764 -0.2779  0.4713  0.1215
  652TMC3    C5 9704   0.938   0.406  10.743  0.5407  0.2086 -0.6104
  652TMC3    C6 9705   0.815   0.346  10.737  0.1867  0.4292 -0.3851
  652TMC3     C 9706   1.173   0.139  10.830  0.7222 -0.0941 -0.2189
  652TMC3     O 9707   1.157   0.038  10.892  0.0679  0.3472 -0.1664
  652TMC3     H 9708   0.933   0.032  10.789 -0.1413 -0.6050  0.7266
  652TMC3    H1 9709   1.152   0.402  10.776  1.0295 -1.6433  0.8829
  652TMC3    H2 9710   0.717   0.393  10.734  0.4256  1.0517  1.3067
  652TMC3    C7 9711   0.940   0.547  10.733 -0.2834  1.4499 -0.1645
  652TMC3    C8 9712   0.704   0.118  10.729  0.4740  0.3557  0.4345
  652TMC3    O1 9713   0.903   0.598  10.837 -0.0034 -0.3020 -0.6637
  652TMC3    O2 9714   0.728   0.001  10.742 -0.0324 -0.4191 -0.2365
  653MPD2     C 9715   4.091   4.164   0.111 -0.3718  0.1272 -0.5758
  653MPD2    C1 9716   4.010   4.263   0.049  0.1985 -0.1117  0.2087
  653MPD2    C2 9717   3.910   4.219  17.713 -0.0063  0.2334 -0.0197
  653MPD2    C3 9718   3.890   4.084  17.685  0.6573 -0.2315  0.5488
  653MPD2    C4 9719   3.959   3.990   0.018 -0.3953 -0.4120  0.2860
  653MPD2    C5 9720   4.047   4.032   0.109  0.1614  0.1859  0.2145
  653MPD2     H 9721   3.834   4.288  17.679  1.4828  1.3851 -0.9636
  653MPD2    H1 9722   3.948   3.882   0.009  0.8919 -0.5762  0.7835
  653MPD2    H2 9723   4.170   4.194   0.178 -0.6701 -1.6098  0.5481
  653MPD2    H3 9724   4.103   3.955   0.160  2.7797  1.1360 -1.2664
  653MPD2     N 9725   3.790   4.052  17.590  0.3140 -0.4727 -0.5372
  653MPD2    H5 9726   3.763   4.131  17.533  1.7441 -0.6867 -1.5099
  653MPD2    N1 9727   4.033   4.400   0.073  0.6550  0.4267 -0.6631
  653MPD2    H7 9728   3.991   4.478   0.023 -1.5469 -1.3177 -1.5221
  654TMC3    C1 9729   3.654   3.921  17.447 -0.4334  0.3085 -0.5579
  654TMC3    C2 9730   3.608   4.030  17.384 -0.1570 -0.3898 -0.6657
  654TMC3    C3 9731   3.603   4.023  17.248 -0.1761  0.1121  0.6470
  654TMC3    C4 9732   3.663   3.801  17.382 -0.4485  0.5821  0.7168
  654TMC3    C5 9733   3.643   3.796  17.247  0.1171 -0.2010 -0.4040
  654TMC3    C6 9734   3.621   3.908  17.175 -0.3865  0.2732 -0.0018
  654TMC3     C 9735   3.724   3.929  17.578  0.4667 -0.0289 -0.5062
  654TMC3     O 9736   3.738   3.824  17.638  0.5527  0.2297 -0.6138
  654TMC3     H 9737   3.593   4.128  17.429 -1.9575 -0.7766 -0.4022
  654TMC3    H1 9738   3.671   3.709  17.439 -0.0501  0.7333  0.9028
  654TMC3    H2 9739   3.600   3.900  17.069  0.9852 -1.3557 -0.1605
  654TMC3    C7 9740   3.670   3.671  17.178  0.0889  0.5253 -0.4344
  654TMC3    C8 9741   3.545   4.132  17.177  0.7515  0.0958 -0.6335
  654TMC3    O1 9742   3.644   3.675  17.060  0.2429 -0.3246 -0.0632
  654TMC3    O2 9743   3.462   4.195  17.236  0.0049 -0.3738 -0.6090
  655MPD2     C 9744   0.563   0.048  15.706  0.5706  0.2680 -0.1051
  655MPD2    C1 9745   0.493   0.143  15.641 -0.2248  0.7074 -0.5832
  655MPD2    C2 9746   0.492   0.147  15.506  0.1453 -0.1880 -0.2584
  655MPD2    C3 9747   0.569   0.059  15.430 -0.1732  0.1127  0.1718
  655MPD2    C4 9748   0.643   4.704  15.502 -0.0261 -0.3552 -0.2517
  655MPD2    C5 9749   0.636   4.688  15.639 -0.1954 -0.0760  0.2440
  655MPD2     H 9750   0.429   0.219  15.456  1.0658  1.0409  0.3524
  655MPD2    H1 9751   0.713   4.634  15.458 -0.4526 -0.8962 -0.0735
  655MPD2    H2 9752   0.556   0.030  15.813 -1.6730 -2.1925 -0.6693
  655MPD2    H3 9753   0.681   4.608  15.696  2.2605 -0.6718 -2.5156
  655MPD2     N 9754   0.585   0.072  15.290 -0.3147  0.2005 -0.6907
  655MPD2    H5 9755   0.622   4.725  15.246 -1.6786  0.2619 -1.9469
  655MPD2    N1 9756   0.404   0.228  15.710 -0.0005 -0.4285  0.0230
  655MPD2    H7 9757   0.345   0.281  15.647  0.0397 -0.6583 -0.2109
  656TMC3    C1 9758   0.286   0.328  15.888  0.1246 -0.3889  0.1813
  656TMC3    C2 9759   0.219   0.272  15.990  0.3088  0.1389  0.0775
  656TMC3    C3 9760   0.084   0.288  15.987  0.0486 -0.1568  0.5026
  656TMC3    C4 9761   0.224   0.405  15.803  0.5565  0.4899 -0.4179
  656TMC3    C5 9762   0.095   0.428  15.811  0.0814  0.9101  0.2555
  656TMC3    C6 9763   0.013   0.368  15.901 -0.8624  0.2468 -1.1525
  656TMC3     C 9764   0.397   0.247  15.845  0.3250 -0.1860 -0.3100
  656TMC3     O 9765   0.453   0.187  15.937 -0.1675  0.5942 -0.4565
  656TMC3     H 9766   0.258   0.195  16.056 -1.4178 -1.3387 -0.6594
  656TMC3    H1 9767   0.284   0.441  15.720 -1.2753  4.0669 -0.1951
  656TMC3    H2 9768   4.642   0.356  15.907 -0.7596 -0.5009 -0.7672
  656TMC3    C7 9769   0.026   0.478  15.695  0.5843 -0.0399 -0.3608
  656TMC3    C8 9770   0.021   0.227  16.102 -0.0358  0.3713 -0.3641
  656TMC3    O1 9771   0.072   0.471  15.581  0.1643  0.4681 -0.4906
  656TMC3    O2 9772   0.066   0.124  16.153  0.2630  0.1044  0.3083
  657TMC3    C1 9773   4.239   3.765  14.665 -0.3831  0.3090  0.0701
  657TMC3    C2 9774   4.253   3.786  14.798  0.1398  0.3160  0.1337
  657TMC3    C3 9775   4.173   3.886  14.847 -0.1021  0.4544  0.0901
  657TMC3    C4 9776   4.155   3.837  14.586  0.3584 -0.8633  0.5064
  657TMC3    C5 9777   4.097   3.947  14.636 -0.2146 -0.1721 -0.0090
  657TMC3    C6 9778   4.091   3.970  14.773  0.3265 -0.1484 -0.0205
  657TMC3     C 9779   4.319   3.659  14.604 -0.5728  0.0673 -0.1857
  657TMC3     O 9780   4.324   3.666  14.478  0.3843  0.1792  0.0406
  657TMC3     H 9781   4.306   3.713  14.858 -0.4761  1.6666  2.3373
  657TMC3    H1 9782   4.152   3.810  14.481 -2.3948  0.5581  0.2264
  657TMC3    H2 9783   4.043   4.055  14.821 -0.5427 -0.8354  0.3275
  657TMC3    C7 9784   4.033   4.037  14.533 -0.0437  0.3535 -0.3605
  657TMC3    C8 9785   4.166   3.908  14.994  0.0252  0.3210 -0.4208
  657TMC3    O1 9786   4.023   4.009  14.416  0.3183  0.2485  0.1821
  657TMC3    O2 9787   4.109   4.009  15.034  0.1240  0.2393  0.0853
  658MPD2     C 9788   1.067   4.620  14.864 -0.0905 -0.5296 -0.7924
  658MPD2    C1 9789   0.963   4.659  14.786  0.0330 -0.2346  0.4279
  658MPD2    C2 9790   0.979   4.674  14.650  0.1659 -0.0567  0.0045
  658MPD2    C3 9791   1.102   4.662  14.588 -0.1116 -0.4267 -0.4885
  658MPD2    C4 9792   1.205   4.637  14.668 -0.3095  0.1637  0.3406
  658MPD2    C5 9793   1.187   4.607  14.795  0.1692 -0.1350 -0.2859
  658MPD2     H 9794   0.897   4.688  14.580  0.6748 -0.3971 -0.6556
  658MPD2    H1 9795   1.303   4.615  14.629 -0.9974 -0.1955 -1.2004
  658MPD2    H2 9796   1.060   4.607  14.971  2.4248 -1.5855 -0.7770
  658MPD2    H3 9797   1.277   4.574  14.845  0.2533 -2.4506 -1.9586
  658MPD2     N 9798   1.115   4.705  14.454 -0.6502  0.5293 -0.2041
  658MPD2    H5 9799   1.031   4.716  14.399 -0.2535 -1.9893 -1.3146
  658MPD2    N1 9800   0.833   4.682  14.850 -0.0335  0.0078 -0.6253
  658MPD2    H7 9801   0.836   4.673  14.951  0.4946 -0.2679 -0.6640
  659TMC3    C1 9802   0.607   0.011  14.883  0.1545  0.4153 -0.0303
  659TMC3    C2 9803   0.631   0.059  15.010  0.0682  0.4677  0.1135
  659TMC3    C3 9804   0.522   0.116  15.070  0.1637  0.6079  0.6855
  659TMC3    C4 9805   0.484   0.015  14.823 -0.5546 -0.6404 -0.0572
  659TMC3    C5 9806   0.375   0.057  14.898  0.4966  0.1260  0.1914
  659TMC3    C6 9807   0.396   0.122  15.013  0.3368 -0.6827  0.5384
  659TMC3     C 9808   0.715   4.718  14.791  0.8818 -0.9815  0.4090
  659TMC3     O 9809   0.690   4.704  14.670  0.5083  0.2544  0.4751
  659TMC3     H 9810   0.729   0.059  15.056  0.7479 -2.6868 -1.3158
  659TMC3    H1 9811   0.479   4.696  14.730 -0.5049  0.4113 -0.6793
  659TMC3    H2 9812   0.318   0.168  15.073  2.3263  2.4636  0.6504
  659TMC3    C7 9813   0.244   0.017  14.860  0.0578 -0.1645  0.1157
  659TMC3    C8 9814   0.529   0.165  15.207 -0.9607  0.2943 -0.1285
  659TMC3    O1 9815   0.159   0.017  14.948  0.0784  0.1904 -0.0772
  659TMC3    O2 9816   0.453   0.255  15.235  0.2367 -0.7819  0.0418
  660MPD2     C 9817   3.498   2.844  12.797  0.4029 -0.3233 -0.2680
  660MPD2    C1 9818   3.401   2.942  12.780  0.6158  0.4069  0.1399
  660MPD2    C2 9819   3.279   2.925  12.851  0.1730 -0.4451  0.1482
  660MPD2    C3 9820   3.253   2.812  12.918 -0.9532 -0.7284 -0.1880
  660MPD2    C4 9821   3.354   2.711  12.924 -0.0326 -0.0196  0.3832
  660MPD2    C5 9822   3.476   2.734  12.873 -0.2530  0.7071 -0.3242
  660MPD2     H 9823   3.212   3.010  12.857  0.0185 -0.7004  2.0753
  660MPD2    H1 9824   3.342   2.607  12.953 -1.2828  0.8479  3.0402
  660MPD2    H2 9825   3.594   2.849  12.747  0.2763 -1.7323 -0.6394
  660MPD2    H3 9826   3.547   2.653  12.884 -0.9588  0.0646 -0.4586
  660MPD2     N 9827   3.128   2.786  12.979  0.2147 -0.2502 -0.4376
  660MPD2    H5 9828   3.134   2.704  13.039  2.1514  1.7655  2.0814
  660MPD2    N1 9829   3.432   3.042  12.688 -0.2501  0.2085 -0.1989
  660MPD2    H7 9830   3.523   3.038  12.644 -0.9085 -1.0307 -1.4631
  661TMC3    C1 9831   3.375   3.231  12.556  0.4162  0.0927 -0.0568
  661TMC3    C2 9832   3.506   3.279  12.563  0.6372 -0.3458  0.3632
  661TMC3    C3 9833   3.533   3.411  12.537  0.4367 -0.4804 -0.1975
  661TMC3    C4 9834   3.280   3.318  12.507 -0.9224 -0.1765  0.2185
  661TMC3    C5 9835   3.318   3.443  12.475  0.6312  0.1738  0.2628
  661TMC3    C6 9836   3.437   3.493  12.488  0.1704  0.0191 -0.2561
  661TMC3     C 9837   3.330   3.118  12.634 -0.5336 -0.1928 -0.0715
  661TMC3     O 9838   3.209   3.106  12.655 -0.2722 -0.3754  0.2727
  661TMC3     H 9839   3.586   3.216  12.601  0.2965 -0.8765  0.1863
  661TMC3    H1 9840   3.177   3.285  12.503 -0.7436 -0.7729  0.5361
  661TMC3    H2 9841   3.468   3.578  12.429  0.5857 -1.0702 -1.5972
  661TMC3    C7 9842   3.242   3.509  12.379  1.0274 -0.2752  0.3602
  661TMC3    C8 9843   3.667   3.438  12.503 -0.1361  0.2980  0.1188
  661TMC3    O1 9844   3.240   3.630  12.393  0.0663 -0.0121 -0.3316
  661TMC3    O2 9845   3.733   3.351  12.446 -0.0122  0.1426 -0.2745
  662MPD2     C 9846   3.704   3.394   0.014 -0.1354  0.0450 -0.4164
  662MPD2    C1 9847   3.668   3.268   0.054 -0.3689 -0.4496  1.1926
  662MPD2    C2 9848   3.570   3.251   0.138 -0.2830  0.1397 -0.0305
  662MPD2    C3 9849   3.501   3.355   0.200  0.1930 -0.8749  0.1260
  662MPD2    C4 9850   3.542   3.482   0.165 -0.0909 -0.5057  0.0028
  662MPD2    C5 9851   3.630   3.499   0.063 -0.3784  0.8862  0.5791
  662MPD2     H 9852   3.545   3.151   0.170 -1.3366 -0.0460 -1.4023
  662MPD2    H1 9853   3.480   3.563   0.202 -0.4254 -1.0045  0.5289
  662MPD2    H2 9854   3.778   3.419  17.683 -0.2874 -1.4061 -1.0441
  662MPD2    H3 9855   3.645   3.598   0.019  2.6951 -0.4633 -1.4382
  662MPD2     N 9856   3.395   3.320   0.285 -0.5340 -0.0759  0.1204
  662MPD2    H5 9857   3.370   3.222   0.299 -0.1743 -0.1307  0.3964
  662MPD2    N1 9858   3.733   3.154   0.010 -0.1714 -0.2561  0.1517
  662MPD2    H7 9859   3.694   3.072   0.055  0.7801 -0.1692  1.1451
  663TMC3    C1 9860   3.847   2.997  17.641  0.3542 -0.0916 -0.4754
  663TMC3    C2 9861   3.859   2.927   0.007  0.3686 -0.3436 -0.4836
  663TMC3    C3 9862   3.867   2.785  17.738 -0.4328  0.2553 -0.0838
  663TMC3    C4 9863   3.846   2.949  17.513  0.3098 -0.5609  0.0411
  663TMC3    C5 9864   3.850   2.811  17.501 -1.0827  0.4044  0.2939
  663TMC3    C6 9865   3.840   2.731  17.615 -0.5357  0.2819 -0.6002
  663TMC3     C 9866   3.820   3.138  17.653 -0.3482  0.3169 -0.2809
  663TMC3     O 9867   3.870   3.216  17.577  0.5035 -0.1675  0.2371
  663TMC3     H 9868   3.887   2.976   0.099  2.3946 -0.1696 -1.1992
  663TMC3    H1 9869   3.831   3.010  17.425 -0.8725  1.5980  1.7520
  663TMC3    H2 9870   3.875   2.629  17.618  0.6176  0.6546 -1.4177
  663TMC3    C7 9871   3.780   2.760  17.390  0.0473 -0.4917 -0.3177
  663TMC3    C8 9872   3.801   2.716   0.110 -0.3776  0.0688 -0.0313
  663TMC3    O1 9873   3.709   2.839  17.329  0.4881 -0.1416 -0.1954
  663TMC3    O2 9874   3.717   2.629   0.095 -0.1584 -1.0317 -0.2351
  664MPD2     C 9875   1.736   0.996  17.288 -0.1436 -0.7608 -0.8614
  664MPD2    C1 9876   1.858   0.999  17.355  0.5999 -0.0562 -0.0843
  664MPD2    C2 9877   1.874   0.922  17.471  0.1379 -0.2202 -0.2034
  664MPD2    C3 9878   1.766   0.848  17.519 -0.7479 -0.3702 -0.2547
  664MPD2    C4 9879   1.653   0.836  17.445  0.0873  0.3909  0.3167
  664MPD2    C5 9880   1.633   0.916  17.331  0.0154 -0.3957  0.3544
  664MPD2     H 9881   1.962   0.928  17.533 -0.4474  0.5945  0.5564
  664MPD2    H1 9882   1.571   0.778  17.486 -0.4472  2.3227  1.9783
  664MPD2    H2 9883   1.726   1.058  17.200 -0.1151 -0.7192 -0.8352
  664MPD2    H3 9884   1.532   0.924  17.292 -0.6477 -3.9507  1.3852
  664MPD2     N 9885   1.775   0.787  17.647  0.2689  0.5301 -0.3173
  664MPD2    H5 9886   1.847   0.827  17.707  0.0700 -0.4222  0.5463
  664MPD2    N1 9887   1.959   1.093  17.317 -0.3720 -0.4100  0.1724
  664MPD2    H7 9888   1.952   1.142  17.229 -2.4643  0.5559  0.8686
  665TMC3    C1 9889   1.723   0.670   0.096 -0.7253  0.5168  0.6204
  665TMC3    C2 9890   1.701   0.551   0.164 -0.3992  0.0462  0.7570
  665TMC3    C3 9891   1.724   0.551   0.300  0.0813 -0.9952  0.5411
  665TMC3    C4 9892   1.765   0.778   0.167  0.2982 -0.1640  0.1630
  665TMC3    C5 9893   1.785   0.776   0.304 -0.1166  0.7876  0.1668
  665TMC3    C6 9894   1.782   0.662   0.369 -0.3839 -0.6221 -0.9063
  665TMC3     C 9895   1.693   0.693  17.703 -0.2165  0.2464 -0.3817
  665TMC3     O 9896   1.611   0.615  17.655 -0.3243  0.3401  0.7235
  665TMC3     H 9897   1.677   0.463   0.105 -0.6995  0.6170  0.0246
  665TMC3    H1 9898   1.771   0.877   0.123  0.1900 -0.9212 -1.5363
  665TMC3    H2 9899   1.795   0.652   0.476 -3.1450  2.1595 -0.3485
  665TMC3    C7 9900   1.793   0.909   0.365  1.1538  0.3143 -0.4473
  665TMC3    C8 9901   1.699   0.432   0.384  0.1900  0.1764 -0.2956
  665TMC3    O1 9902   1.761   1.002   0.294 -0.3537 -0.6840  0.0504
  665TMC3    O2 9903   1.747   0.427   0.498  0.3149  0.2104  0.3422
  666TMC3    C1 9904   0.397   1.163  10.036  0.0187 -0.6965  0.1202
  666TMC3    C2 9905   0.491   1.100   9.962 -0.2634 -0.1498 -0.2661
  666TMC3    C3 9906   0.555   1.177   9.868 -0.5556  0.0336 -0.3573
  666TMC3    C4 9907   0.367   1.294  10.030 -0.4105  0.0615  0.5626
  666TMC3    C5 9908   0.417   1.360   9.920  0.0819  0.2423 -0.8755
  666TMC3    C6 9909   0.512   1.301   9.839  0.2247 -0.9492  0.8028
  666TMC3     C 9910   0.330   1.084  10.131  0.2221 -0.0607  0.1890
  666TMC3     O 9911   0.296   1.153  10.224  0.1258  0.0975  0.6580
  666TMC3     H 9912   0.519   0.995   9.965  0.2139  0.0058  0.6684
  666TMC3    H1 9913   0.283   1.336  10.083 -1.5653  0.3107 -1.4688
  666TMC3    H2 9914   0.572   1.365   9.775 -0.7133  1.8274  2.6522
  666TMC3    C7 9915   0.414   1.512   9.937 -0.2639 -0.6268 -0.3335
  666TMC3    C8 9916   0.690   1.143   9.842 -0.1322 -0.1648 -0.2227
  666TMC3    O1 9917   0.392   1.550  10.047 -0.1474  0.4691  0.7846
  666TMC3    O2 9918   0.738   1.064   9.922  0.2717  0.0445 -0.0175
  667MPD2     C 9919   2.123   1.409  14.591 -0.3186  0.2018 -0.1621
  667MPD2    C1 9920   2.186   1.340  14.699 -0.2896  0.3681 -0.0561
  667MPD2    C2 9921   2.144   1.219  14.738  0.2189  1.1598 -0.0528
  667MPD2    C3 9922   2.038   1.157  14.665 -0.1508  0.2388 -0.8208
  667MPD2    C4 9923   1.973   1.225  14.570 -0.5652 -0.3711  0.0502
  667MPD2    C5 9924   2.015   1.350  14.533  0.4527  0.3373 -0.3721
  667MPD2     H 9925   2.176   1.167  14.827  1.0342 -0.5313 -1.3201
  667MPD2    H1 9926   1.884   1.186  14.522 -0.3826 -0.1442 -0.4633
  667MPD2    H2 9927   2.154   1.509  14.563 -0.7251 -0.0310 -1.4184
  667MPD2    H3 9928   1.956   1.403  14.459  0.2779 -1.7330 -1.7085
  667MPD2     N 9929   2.023   1.027  14.677  0.2507 -0.6759 -0.1433
  667MPD2    H5 9930   1.927   1.005  14.654  0.0759  0.3543 -0.4104
  667MPD2    N1 9931   2.277   1.407  14.782  0.4774 -0.0233  0.1936
  667MPD2    H7 9932   2.312   1.359  14.864 -2.5791 -0.2999  1.3262
  668TMC3    C1 9933   2.442   1.552  14.859  0.5119 -0.4720  0.6468
  668TMC3    C2 9934   2.526   1.653  14.833  0.4068 -0.5303  0.1405
  668TMC3    C3 9935   2.580   1.713  14.946  0.6031 -0.0112 -0.4886
  668TMC3    C4 9936   2.410   1.505  14.980  0.0195 -0.1123  0.8991
  668TMC3    C5 9937   2.478   1.561  15.085  0.2352 -0.3974 -0.7669
  668TMC3    C6 9938   2.559   1.669  15.074 -0.0351  0.5125 -0.5017
  668TMC3     C 9939   2.358   1.518  14.745  0.7881  0.1543 -0.1538
  668TMC3     O 9940   2.361   1.587  14.644 -0.1740 -0.0215  0.3519
  668TMC3     H 9941   2.548   1.682  14.731  2.7914 -0.2423  0.7353
  668TMC3    H1 9942   2.327   1.437  14.996 -1.8921  2.2535  1.0628
  668TMC3    H2 9943   2.595   1.717  15.164  1.0720  1.2109 -1.3213
  668TMC3    C7 9944   2.460   1.512  15.223  0.3931 -0.1364  0.0352
  668TMC3    C8 9945   2.648   1.843  14.935  0.7028 -0.1453 -0.0103
  668TMC3    O1 9946   2.516   1.568  15.313  0.5075  0.6022 -0.3067
  668TMC3    O2 9947   2.680   1.900  15.039 -0.5595  0.2374  0.2798
  669TMC3    C1 9948   0.311   1.567  14.937  0.5992 -0.4323 -0.0695
  669TMC3    C2 9949   0.193   1.583  14.864 -0.0055  0.4193 -0.0281
  669TMC3    C3 9950   0.191   1.674  14.761  0.2396  0.2975  0.3985
  669TMC3    C4 9951   0.420   1.643  14.902 -0.0785 -0.4784 -0.0426
  669TMC3    C5 9952   0.408   1.721  14.791 -0.0218  0.1725 -0.2197
  669TMC3    C6 9953   0.294   1.742  14.716  0.5743 -0.2177  0.5695
  669TMC3     C 9954   0.328   1.467  15.044 -0.2947  0.2967 -0.1254
  669TMC3     O 9955   0.226   1.410  15.076 -0.1949 -0.0647  0.1342
  669TMC3     H 9956   0.105   1.532  14.900  1.0553 -1.1308  0.3894
  669TMC3    H1 9957   0.518   1.629  14.946 -0.1721 -4.1949 -1.0208
  669TMC3    H2 9958   0.303   1.783  14.616  2.5593 -0.6876  0.5426
  669TMC3    C7 9959   0.528   1.761  14.721 -0.1170 -0.4401 -0.6709
  669TMC3    C8 9960   0.076   1.650  14.667  0.4334  0.0553 -0.2612
  669TMC3    O1 9961   0.626   1.697  14.743  0.7591  0.4403  0.0691
  669TMC3    O2 9962   0.021   1.540  14.671 -0.0358  0.1521 -0.5654
  670MPD2     C 9963   3.597   3.145  12.998 -0.3288  0.2139  0.2775
  670MPD2    C1 9964   3.660   3.266  13.039  0.1083 -0.5865 -0.1370
  670MPD2    C2 9965   3.637   3.331  13.157 -0.5634 -0.0988  0.0058
  670MPD2    C3 9966   3.550   3.276  13.248 -0.2190  0.3959 -0.1863
  670MPD2    C4 9967   3.501   3.150  13.217 -0.4410 -0.7511 -0.5624
  670MPD2    C5 9968   3.525   3.083  13.097  0.4779 -0.2746 -0.3642
  670MPD2     H 9969   3.708   3.408  13.185 -3.3994  1.5223  2.8044
  670MPD2    H1 9970   3.435   3.086  13.275 -0.6696 -0.7280 -0.7993
  670MPD2    H2 9971   3.623   3.079  12.916 -3.1112 -3.7114  2.5171
  670MPD2    H3 9972   3.491   2.980  13.096  0.0387 -0.1106 -1.6319
  670MPD2     N 9973   3.526   3.336  13.374 -0.5560 -0.5992 -0.3477
  670MPD2    H5 9974   3.571   3.426  13.385  2.1728 -2.0238  0.1275
  670MPD2    N1 9975   3.756   3.331  12.946 -0.0803  0.2880 -0.2813
  670MPD2    H7 9976   3.799   3.418  12.977  0.1617  0.4702 -1.1466
  671TMC3    C1 9977   3.413   3.376  13.589  0.5015  0.5904 -0.8637
  671TMC3    C2 9978   3.520   3.456  13.627 -0.2969 -0.7465  0.4162
  671TMC3    C3 9979   3.524   3.480  13.764  0.0677  0.2397  0.4167
  671TMC3    C4 9980   3.322   3.336  13.686 -0.1257  0.2587  0.3662
  671TMC3    C5 9981   3.328   3.369  13.818  0.1894  0.0269  0.3511
  671TMC3    C6 9982   3.434   3.438  13.860  0.0715  0.0021  0.0513
  671TMC3     C 9983   3.431   3.294  13.469 -0.9344 -0.4168 -0.2333
  671TMC3     O 9984   3.342   3.211  13.456  0.0982  0.1153  0.1988
  671TMC3     H 9985   3.610   3.447  13.568  0.2256  0.9507  0.9730
  671TMC3    H1 9986   3.246   3.262  13.664  1.1364 -1.0001  0.2458
  671TMC3    H2 9987   3.461   3.455  13.964 -0.5794 -2.2849  0.6040
  671TMC3    C7 9988   3.265   3.272  13.901  0.9612 -0.0953 -0.6000
  671TMC3    C8 9989   3.658   3.451  13.814 -0.5504  0.9335 -0.5116
  671TMC3    O1 9990   3.158   3.220  13.880  0.3822  0.0772 -0.1395
  671TMC3    O2 9991   3.657   3.368  13.905  0.2645  0.3914 -0.1846
  672MPD2     C 9992   4.131   4.071   0.863 -0.2733  0.1162 -0.0343
  672MPD2    C1 9993   4.201   3.969   0.937  0.3491  0.3859 -0.1600
  672MPD2    C2 9994   4.335   3.996   0.965 -0.6278  0.8219 -0.1694
  672MPD2    C3 9995   4.391   4.120   0.944 -0.1370 -0.4486  0.8624
  672MPD2    C4 9996   4.325   4.213   0.868 -0.6014 -0.2134  0.1448
  672MPD2    C5 9997   4.200   4.184   0.827 -0.2206  0.1301 -0.1970
  672MPD2     H 9998   4.381   3.923   1.031 -1.7833 -1.2568 -1.6771
  672MPD2    H1 9999   4.358   4.315   0.849  1.2499 -0.8817 -0.2659
  672MPD2    H210000   4.027   4.065   0.833 -0.5366  1.1828  0.6704
  672MPD2    H310001   4.144   4.263   0.777 -1.5971 -0.6901  0.0545
  672MPD2     N10002   4.512   4.167   0.983 -0.0527 -0.2790  0.3639
  672MPD2    H510003   4.538   4.255   0.940 -1.8871  0.4021  0.6657
  672MPD2    N110004   4.152   3.836   0.968 -0.3092  0.4878 -0.0915
  672MPD2    H710005   4.223   3.765   0.982  0.7374  2.1256  2.9021
  673TMC3    C110006   3.988   3.661   0.979 -0.0508 -0.0864  0.9366
  673TMC3    C210007   4.065   3.587   0.895 -0.3529  0.1809  0.0617
  673TMC3    C310008   4.010   3.507   0.795  0.0126 -0.3976  0.1707
  673TMC3    C410009   3.850   3.643   0.970 -0.4624 -0.0416  0.1613
  673TMC3    C510010   3.798   3.567   0.872 -0.4685 -0.3961  0.5395
  673TMC3    C610011   3.876   3.488   0.784 -0.1200 -0.6395  0.1218
  673TMC3     C10012   4.017   3.798   0.971  0.1848 -1.0334  1.0874
  673TMC3     O10013   3.919   3.874   0.964 -0.2545 -0.1212 -0.3887
  673TMC3     H10014   4.169   3.615   0.881 -0.5076  0.6845 -0.1090
  673TMC3    H110015   3.781   3.690   1.039 -0.8753  1.5470 -1.3042
  673TMC3    H210016   3.825   3.424   0.713 -1.6936  1.7535 -0.9081
  673TMC3    C710017   3.676   3.623   0.820  0.0698  0.1596 -0.6581
  673TMC3    C810018   4.093   3.406   0.725  0.5552  0.2619 -0.2342
  673TMC3    O110019   3.594   3.559   0.755 -0.2140 -0.3598 -0.2399
  673TMC3    O210020   4.034   3.331   0.648  0.3062  0.2223 -0.4211
  674MPD2     C10021   3.741   4.191   0.259  0.4629  0.1043  0.0056
  674MPD2    C110022   3.650   4.091   0.289 -0.3403  0.3574  0.3739
  674MPD2    C210023   3.521   4.126   0.331  0.3155  0.1430  0.3064
  674MPD2    C310024   3.478   4.261   0.336 -0.4019 -1.4936 -0.9291
  674MPD2    C410025   3.570   4.356   0.299 -0.8133  0.4458 -0.1392
  674MPD2    C510026   3.697   4.319   0.258  0.4670  0.0720  0.8089
  674MPD2     H10027   3.440   4.059   0.357  1.1294 -0.7891  0.4443
  674MPD2    H110028   3.544   4.460   0.289 -2.0446  0.0480 -1.0353
  674MPD2    H210029   3.846   4.169   0.240  0.7964  1.5406  0.2388
  674MPD2    H310030   3.754   4.403   0.219  4.2340 -2.9050 -0.0167
  674MPD2     N10031   3.352   4.292   0.400 -0.6860  0.7406 -0.1653
  674MPD2    H510032   3.283   4.222   0.427  1.9587 -1.2115  1.5054
  674MPD2    N110033   3.700   3.960   0.286 -0.0821  0.0934 -0.4756
  674MPD2    H710034   3.799   3.943   0.274 -0.0652  0.3875 -0.7557
  675TMC3    C110035   3.712   3.732   0.338  0.1562 -0.2435  0.3993
  675TMC3    C210036   3.663   3.629   0.415 -0.1852 -0.1751 -0.0539
  675TMC3    C310037   3.740   3.513   0.432 -1.2895 -0.6286  0.5130
  675TMC3    C410038   3.839   3.731   0.279  0.2094  1.0762  0.4451
  675TMC3    C510039   3.910   3.623   0.301  0.2393 -0.7047 -0.2939
  675TMC3    C610040   3.870   3.521   0.383  0.3862  0.3715 -0.1621
  675TMC3     C10041   3.624   3.846   0.318 -0.6828  1.2536  0.2613
  675TMC3     O10042   3.503   3.834   0.330  0.3305 -0.0732  0.6218
  675TMC3     H10043   3.567   3.633   0.467  0.5296  0.4510  1.2283
  675TMC3    H110044   3.886   3.811   0.222 -0.5310  0.4366 -1.0371
  675TMC3    H210045   3.924   3.427   0.387 -2.5008 -1.3221 -1.2415
  675TMC3    C710046   4.051   3.628   0.273  0.1464  0.3803 -0.1196
  675TMC3    C810047   3.690   3.373   0.454 -0.4436 -0.4878  0.3232
  675TMC3    O110048   4.086   3.712   0.192  0.8319  0.0984  0.1099
  675TMC3    O210049   3.748   3.285   0.396 -0.4480 -0.0258 -0.0192
  676MPD2     C10050   2.104   2.686  11.087 -0.2432  0.1361 -0.5333
  676MPD2    C110051   2.096   2.588  11.187 -0.1909 -0.6430  0.6542
  676MPD2    C210052   2.038   2.469  11.155 -0.2705  0.5169  0.0108
  676MPD2    C310053   1.994   2.437  11.024 -0.1295 -0.3242 -0.5081
  676MPD2    C410054   2.006   2.531  10.926  0.0863 -0.2784 -0.7653
  676MPD2    C510055   2.062   2.649  10.958 -0.2397 -0.0434 -0.0566
  676MPD2     H10056   2.017   2.399  11.236  0.6172  0.7190  0.4198
  676MPD2    H110057   1.980   2.527  10.820 -1.0862 -0.1924 -0.4801
  676MPD2    H210058   2.135   2.788  11.109  0.3437 -0.4716  1.4081
  676MPD2    H310059   2.068   2.721  10.878  1.4803  1.0399  1.0424
  676MPD2     N10060   1.925   2.313  10.990  0.3043 -0.0857 -0.3863
  676MPD2    H510061   1.905   2.289  10.893  0.9790  0.2000 -0.5997
  676MPD2    N110062   2.106   2.616  11.322  0.6981  0.4040 -0.4277
  676MPD2    H710063   2.078   2.544  11.388  3.5138 -2.8125 -2.7722
  677TMC3    C110064   2.150   2.711  11.514 -0.7196  0.0515  0.5294
  677TMC3    C210065   2.082   2.605  11.579  0.7559 -0.2464  0.2269
  677TMC3    C310066   2.065   2.607  11.720  0.3074  0.8432  0.8192
  677TMC3    C410067   2.195   2.818  11.593 -0.6735  0.3050  0.5546
  677TMC3    C510068   2.177   2.821  11.733  0.0228 -0.2071  0.1352
  677TMC3    C610069   2.111   2.714  11.794  0.1686 -0.2814 -0.5275
  677TMC3     C10070   2.155   2.724  11.372 -0.7198 -0.2256 -0.0411
  677TMC3     O10071   2.201   2.823  11.326 -0.3089  0.1717  0.3479
  677TMC3     H10072   2.045   2.520  11.522  1.2035  0.5512 -1.2551
  677TMC3    H110073   2.256   2.891  11.541  0.1143  0.2206  1.3537
  677TMC3    H210074   2.111   2.711  11.903 -1.7547 -0.6840 -0.5233
  677TMC3    C710075   2.240   2.920  11.815  0.0384 -0.1592  0.0676
  677TMC3    C810076   2.005   2.500  11.793  0.1806  0.9879 -0.1847
  677TMC3    O110077   2.247   2.902  11.936  0.9052  0.0458  0.0872
  677TMC3    O210078   2.023   2.491  11.915 -0.2097  0.1417 -0.2808
  678MPD2     C10079   2.832   1.233   1.303  0.5023 -0.5236  0.8142
  678MPD2    C110080   2.825   1.263   1.165 -0.3844  0.3329  0.5174
  678MPD2    C210081   2.711   1.324   1.122  0.9162  0.4761  0.0248
  678MPD2    C310082   2.607   1.367   1.202  0.0401  0.1585 -0.1419
  678MPD2    C410083   2.620   1.333   1.336 -0.1702 -0.4548 -1.1126
  678MPD2    C510084   2.727   1.266   1.385  0.1176 -0.1984 -0.2871
  678MPD2     H10085   2.696   1.329   1.015 -1.3371 -0.7905  0.2726
  678MPD2    H110086   2.547   1.366   1.409  2.7905  0.6441  1.3058
  678MPD2    H210087   2.922   1.181   1.336  0.7866 -1.1725 -0.9715
  678MPD2    H310088   2.737   1.253   1.492 -0.4802  1.1093 -0.0673
  678MPD2     N10089   2.494   1.428   1.136  0.5425  0.8183 -0.1662
  678MPD2    H510090   2.495   1.440   1.036 -0.0962 -0.3261 -0.3160
  678MPD2    N110091   2.929   1.240   1.070  0.0416 -0.2153 -0.4871
  678MPD2    H710092   2.924   1.281   0.978  1.4198 -0.5995 -0.7265
  679TMC3    C110093   3.336   1.117   0.879 -0.3354 -0.1319 -0.2793
  679TMC3    C210094   3.240   1.108   0.974 -0.4589 -0.3380 -0.7505
  679TMC3    C310095   3.150   1.205   0.992  0.2404 -0.8515 -0.0943
  679TMC3    C410096   3.348   1.237   0.804  0.1387 -0.6705 -0.0610
  679TMC3    C510097   3.269   1.340   0.843 -0.8240  0.4789 -0.1646
  679TMC3    C610098   3.158   1.320   0.924 -0.6949 -0.2332  0.3075
  679TMC3     C10099   3.463   1.047   0.893  0.1397 -0.3422 -0.3464
  679TMC3     O10100   3.553   1.093   0.823 -0.2967  0.0699 -0.1511
  679TMC3     H10101   3.229   1.016   1.030  0.3756  0.2022  0.2908
  679TMC3    H110102   3.426   1.250   0.730 -0.0195 -1.7490 -0.4193
  679TMC3    H210103   3.096   1.404   0.952 -1.1907 -0.3537 -0.3977
  679TMC3    C710104   3.311   1.472   0.812  0.1505  0.1739 -0.2269
  679TMC3    C810105   3.045   1.171   1.089 -0.3056 -0.1148 -0.0363
  679TMC3    O110106   3.229   1.562   0.837 -0.5436 -0.1123 -0.0439
  679TMC3    O210107   3.079   1.094   1.179  0.2231  0.5682 -0.1852
  680MPD2     C10108   3.209   0.866  13.907  0.4369 -0.5454 -0.2472
  680MPD2    C110109   3.341   0.840  13.875  0.1292 -0.2234 -0.4594
  680MPD2    C210110   3.428   0.951  13.871  0.7986 -0.1657  0.4306
  680MPD2    C310111   3.386   1.073  13.904 -0.0614  0.1308 -0.1972
  680MPD2    C410112   3.250   1.090  13.938 -0.3268  0.6328  0.0499
  680MPD2    C510113   3.166   0.989  13.939  0.8654 -0.1860  0.1401
  680MPD2     H10114   3.533   0.935  13.846  1.7964  3.0162  2.5870
  680MPD2    H110115   3.211   1.189  13.962 -2.0632 -0.2736  0.9811
  680MPD2    H210116   3.129   0.795  13.921  0.2620  0.0085  1.5769
  680MPD2    H310117   3.066   1.012  13.974  0.2198 -1.1555 -1.0721
  680MPD2     N10118   3.466   1.188  13.899 -0.4263  0.6061 -0.1269
  680MPD2    H510119   3.539   1.187  13.828 -0.5534 -1.0738 -0.2239
  680MPD2    N110120   3.396   0.716  13.856 -0.1318 -0.1598 -0.5862
  680MPD2    H710121   3.492   0.700  13.883 -0.1334 -0.4198 -0.7278
  681TMC3    C110122   3.395   0.480  13.822 -0.8171 -0.2864  0.3811
  681TMC3    C210123   3.324   0.369  13.846  0.4887 -0.4334 -0.2776
  681TMC3    C310124   3.399   0.258  13.863 -0.8757 -0.2001 -0.4140
  681TMC3    C410125   3.536   0.479  13.815  0.3562  0.1741 -0.2005
  681TMC3    C510126   3.607   0.362  13.828 -0.0234 -0.1415  0.6722
  681TMC3    C610127   3.537   0.251  13.847 -0.1685 -0.1531  0.5709
  681TMC3     C10128   3.323   0.605  13.815  0.2915 -0.0218  0.3967
  681TMC3     O10129   3.206   0.604  13.773  0.0670 -0.3412 -0.3203
  681TMC3     H10130   3.216   0.371  13.855  0.5007 -0.1915 -0.2028
  681TMC3    H110131   3.583   0.573  13.790 -2.1865  1.9755  1.8210
  681TMC3    H210132   3.592   0.158  13.856  0.7560  0.4484  1.0966
  681TMC3    C710133   3.752   0.362  13.843 -0.0095  0.4877  0.2824
  681TMC3    C810134   3.336   0.152  13.942 -0.3799  0.2375 -0.1780
  681TMC3    O110135   3.803   0.284  13.919  0.5507  0.0913 -0.1414
  681TMC3    O210136   3.383   0.045  13.911  0.6288  0.0790 -0.3378
  682MPD2     C10137   0.569   2.711  10.543 -0.4984  0.1434  0.5040
  682MPD2    C110138   0.548   2.578  10.577  0.2222  0.2737  0.5112
  682MPD2    C210139   0.552   2.542  10.706  1.0659  0.2483 -0.0786
  682MPD2    C310140   0.585   2.633  10.804 -1.2062  0.9470 -0.0724
  682MPD2    C410141   0.620   2.767  10.769 -0.0655 -0.9451  0.2454
  682MPD2    C510142   0.610   2.806  10.634 -0.9209 -0.1817  0.2819
  682MPD2     H10143   0.525   2.445  10.747  1.9542 -0.1873 -0.5131
  682MPD2    H110144   0.652   2.847  10.835  1.3499 -2.9084  1.9565
  682MPD2    H210145   0.553   2.743  10.441 -0.2886 -0.9971  0.1111
  682MPD2    H310146   0.632   2.907  10.603  0.8090 -0.6757 -0.1350
  682MPD2     N10147   0.585   2.583  10.937  0.3632 -0.0567 -0.0439
  682MPD2    H510148   0.566   2.483  10.943 -0.0293  0.0679  0.6854
  682MPD2    N110149   0.517   2.476  10.486 -0.2984  0.1276 -0.1348
  682MPD2    H710150   0.517   2.382  10.525  1.2848  0.6399  1.1247
  683TMC3    C110151   0.734   2.489  11.355 -0.0779  0.2111  0.1844
  683TMC3    C210152   0.639   2.390  11.369  0.3140 -0.7480 -0.3076
  683TMC3    C310153   0.535   2.390  11.284  0.0830  0.0148  0.6559
  683TMC3    C410154   0.731   2.571  11.243  0.7657  0.1649  0.0101
  683TMC3    C510155   0.625   2.558  11.159  0.1289  0.0916  0.2453
  683TMC3    C610156   0.526   2.468  11.176 -0.3173  0.6606  1.4028
  683TMC3     C10157   0.812   2.539  11.464  0.0776  0.1419 -0.2638
  683TMC3     O10158   0.876   2.639  11.437 -0.2080 -0.2610  0.1349
  683TMC3     H10159   0.633   2.323  11.454  1.7059 -0.0900  0.3145
  683TMC3    H110160   0.807   2.647  11.225  3.4555 -1.9188  2.4547
  683TMC3    H210161   0.437   2.465  11.114  0.1201 -1.0152  0.8282
  683TMC3    C710162   0.623   2.650  11.051  0.0879  0.7073 -0.2203
  683TMC3    C810163   0.427   2.291  11.286 -0.2594 -0.6940  0.3720
  683TMC3    O110164   0.660   2.765  11.075  0.1466  0.2483 -0.6416
  683TMC3    O210165   0.317   2.332  11.250  0.1594  0.0279 -0.3557
  684MPD2     C10166   3.656   1.245  16.528 -0.0128 -0.0287  0.3135
  684MPD2    C110167   3.650   1.343  16.429 -0.0405  0.4986  0.3257
  684MPD2    C210168   3.616   1.470  16.462 -0.3263 -0.2889  0.0368
  684MPD2    C310169   3.613   1.507  16.597  0.0174  0.1416  0.8319
  684MPD2    C410170   3.637   1.418  16.696  0.5546  0.0048  0.0983
  684MPD2    C510171   3.660   1.287  16.658  0.0955 -0.4433 -0.2203
  684MPD2     H10172   3.612   1.544  16.383 -0.9599  0.5247  0.8330
  684MPD2    H110173   3.640   1.436  16.803  0.5352 -0.6680  0.2123
  684MPD2    H210174   3.675   1.140  16.506 -0.4334 -0.1156  0.3716
  684MPD2    H310175   3.679   1.215  16.736 -1.7277 -0.9779 -0.2722
  684MPD2     N10176   3.608   1.648  16.640 -0.1511 -0.2996  0.2337
  684MPD2    H510177   3.616   1.657  16.741  0.3815  0.8054  0.0989
  684MPD2    N110178   3.668   1.324  16.290  0.0089 -0.0603 -0.0357
  684MPD2    H710179   3.680   1.408  16.233  0.3066  0.8597  1.3758
  685TMC3    C110180   3.737   1.221  16.087 -0.1707 -0.5377 -0.2468
  685TMC3    C210181   3.689   1.328  16.014  0.9960  0.1003  0.1928
  685TMC3    C310182   3.745   1.363  15.892 -0.6577  0.1368  0.1104
  685TMC3    C410183   3.835   1.144  16.030  0.2201 -0.7156  0.2135
  685TMC3    C510184   3.897   1.183  15.916  0.0721  0.3568 -0.2877
  685TMC3    C610185   3.853   1.295  15.845  0.4405  0.7680 -0.2703
  685TMC3     C10186   3.698   1.205  16.224 -0.2941 -0.1700  0.7823
  685TMC3     O10187   3.700   1.091  16.267 -0.2606  0.3424 -0.3973
  685TMC3     H10188   3.600   1.373  16.057  0.4735 -0.7821  0.0416
  685TMC3    H110189   3.873   1.058  16.083  1.7900 -0.9978 -1.3666
  685TMC3    H210190   3.895   1.315  15.747  0.1681 -0.5544 -0.6519
  685TMC3    C710191   4.037   1.158  15.949  0.5373  0.6327 -0.1034
  685TMC3    C810192   3.685   1.465  15.817  0.0509  0.1823 -0.6919
  685TMC3    O110193   4.070   1.060  16.011  0.4647 -0.1382 -0.5624
  685TMC3    O210194   3.697   1.467  15.697 -0.3855  0.2373  0.5434
  686MPD2     C10195   0.158   1.869  16.081 -0.2778  0.4210 -0.1823
  686MPD2    C110196   0.211   1.749  16.046  0.6432 -0.9941 -0.4985
  686MPD2    C210197   0.337   1.737  15.993  0.8215  0.0436  0.0906
  686MPD2    C310198   0.406   1.859  15.965  0.6741  0.2491 -0.2042
  686MPD2    C410199   0.344   1.979  15.980  0.6094  0.0445  0.5957
  686MPD2    C510200   0.220   1.987  16.037  0.0937 -0.0839 -0.0134
  686MPD2     H10201   0.377   1.639  15.973 -1.4081 -0.9801  0.6445
  686MPD2    H110202   0.400   2.068  15.956 -0.3487  1.0407  2.0528
  686MPD2    H210203   0.061   1.882  16.127 -0.5920  0.0060 -0.7309
  686MPD2    H310204   0.174   2.086  16.044 -0.5454 -0.2490 -1.8505
  686MPD2     N10205   0.533   1.872  15.907  0.2687  0.7838  0.2252
  686MPD2    H510206   0.580   1.961  15.909  1.3620  0.2194 -0.5544
  686MPD2    N110207   0.135   1.632  16.074 -0.0258 -0.3048  0.0137
  686MPD2    H710208   0.039   1.655  16.098 -0.4906 -2.5126  0.2940
  687TMC3    C110209   0.529   1.665  15.788  0.2204  0.3278 -0.4854
  687TMC3    C210210   0.423   1.688  15.718 -0.0822 -0.4198 -0.4512
  687TMC3    C310211   0.341   1.590  15.679  0.5144 -0.1094  0.2762
  687TMC3    C410212   0.573   1.533  15.802 -0.2009 -0.3753  0.5632
  687TMC3    C510213   0.500   1.433  15.751  0.7534  0.7239 -0.1717
  687TMC3    C610214   0.385   1.458  15.682 -0.6020  0.4021  0.2750
  687TMC3     C10215   0.605   1.764  15.859  1.0971  0.0490  0.3785
  687TMC3     O10216   0.727   1.758  15.848 -0.1542  0.5425  0.7797
  687TMC3     H10217   0.384   1.789  15.731  2.4919  0.4115  0.7737
  687TMC3    H110218   0.660   1.522  15.866  1.0034 -0.4492 -1.0834
  687TMC3    H210219   0.332   1.371  15.644  1.9875 -1.9654  2.0568
  687TMC3    C710220   0.542   1.296  15.788  0.9765  0.8107  0.1051
  687TMC3    C810221   0.195   1.595  15.688  0.6154  0.1990  0.3935
  687TMC3    O110222   0.455   1.211  15.780 -0.2094 -0.4446  0.0883
  687TMC3    O210223   0.123   1.499  15.711  0.3734  0.1017 -0.3758
  688MPD2     C10224   4.234   0.266  17.408 -0.0385 -0.5930  0.4649
  688MPD2    C110225   4.294   0.149  17.449 -0.3777  0.2808  1.0751
  688MPD2    C210226   4.394   0.085  17.376 -0.1744  0.4680  0.0329
  688MPD2    C310227   4.442   0.151  17.258 -0.0619  0.6805  0.5123
  688MPD2    C410228   4.376   0.265  17.218 -0.0925  0.1465 -0.1618
  688MPD2    C510229   4.272   0.324  17.287 -0.6111 -0.2140 -0.1703
  688MPD2     H10230   4.428   4.723  17.407  1.0499  0.6808 -0.6188
  688MPD2    H110231   4.406   0.320  17.130 -1.3676 -1.4302 -1.5904
  688MPD2    H210232   4.155   0.313  17.465 -0.9309  0.2150 -1.4554
  688MPD2    H310233   4.218   0.408  17.244 -1.2091  0.1254  1.2463
  688MPD2     N10234   4.549   0.100  17.186 -0.2273 -0.8137 -0.1929
  688MPD2    H510235   4.582   0.145  17.102 -1.8855 -0.4534 -0.6634
  688MPD2    N110236   4.255   0.082  17.570 -0.2009 -0.1222 -0.7396
  688MPD2    H710237   4.292   4.725  17.581  1.2958  0.6140  0.5132
  689TMC3    C110238   4.173   0.059   0.053 -0.1695  0.4075  0.2918
  689TMC3    C210239   4.202   0.124   0.167 -0.4690  0.2699  0.3679
  689TMC3    C310240   4.188   0.047   0.278  0.2081  0.1756  0.5851
  689TMC3    C410241   4.134   4.665   0.045  0.4226 -0.3441 -0.5707
  689TMC3    C510242   4.122   4.599   0.163  0.3217 -0.3553 -0.2782
  689TMC3    C610243   4.148   4.654   0.282 -0.1691 -0.4745  0.1196
  689TMC3     C10244   4.186   0.141  17.676 -0.5363  0.0092  0.3760
  689TMC3     O10245   4.163   0.257  17.685  0.0252  0.3810  0.3769
  689TMC3     H10246   4.230   0.229   0.163  2.2733 -0.3701  2.2154
  689TMC3    H110247   4.119   4.613  17.695 -2.2529  1.9946 -1.4587
  689TMC3    H210248   4.139   4.590   0.370  1.0567 -1.3266 -0.3743
  689TMC3    C710249   4.119   4.454   0.166 -0.2432  0.4321 -0.4268
  689TMC3    C810250   4.242   0.105   0.400  0.1103 -0.5548  0.3184
  689TMC3    O110251   4.179   4.400   0.259 -0.3365  0.1620 -0.1022
  689TMC3    O210252   4.201   0.045   0.497 -0.4090 -0.6066 -0.1556
  690MPD2     C10253   2.342   2.512  16.152 -0.0136  0.2544 -0.9469
  690MPD2    C110254   2.232   2.491  16.075 -0.0418  0.4111 -0.1255
  690MPD2    C210255   2.220   2.565  15.959 -0.4135 -0.4568  0.4908
  690MPD2    C310256   2.319   2.644  15.911 -0.3883  0.1574  0.3533
  690MPD2    C410257   2.433   2.655  15.984  0.7695 -0.1718 -0.1700
  690MPD2    C510258   2.442   2.593  16.106 -0.3704 -0.1320 -0.3861
  690MPD2     H10259   2.140   2.547  15.888 -0.1044  0.0594  0.0110
  690MPD2    H110260   2.520   2.705  15.944  0.8593  1.3222  1.8652
  690MPD2    H210261   2.351   2.458  16.245  0.4394  2.7256  0.4377
  690MPD2    H310262   2.536   2.596  16.160 -1.0768 -1.6684  0.9259
  690MPD2     N10263   2.322   2.685  15.771 -0.0626  0.2176  0.0163
  690MPD2    H510264   2.239   2.662  15.716 -0.5911  0.1991  0.8209
  690MPD2    N110265   2.139   2.397  16.122 -0.3232 -0.1737  0.0911
  690MPD2    H710266   2.140   2.366  16.219 -0.1803  0.2920  0.2357
  691TMC3    C110267   1.948   2.285  16.156 -0.0928 -0.0660  0.6161
  691TMC3    C210268   1.816   2.307  16.152 -0.0563  0.0380 -1.0860
  691TMC3    C310269   1.736   2.208  16.192 -0.2598 -0.3823  0.6541
  691TMC3    C410270   1.993   2.156  16.172  0.3227  0.1227 -0.0923
  691TMC3    C510271   1.912   2.054  16.198  0.2699  0.1779  0.4262
  691TMC3    C610272   1.777   2.083  16.204 -0.6157  0.0388  0.3442
  691TMC3     C10273   2.020   2.368  16.072 -0.4926  0.5095  0.4149
  691TMC3     O10274   1.969   2.403  15.964  0.0369  0.0052  0.6297
  691TMC3     H10275   1.780   2.408  16.136  2.4414  0.8075 -1.8831
  691TMC3    H110276   2.099   2.133  16.168  0.2928  0.7361 -4.0806
  691TMC3    H210277   1.715   2.007  16.251 -1.4484 -0.4286 -1.5090
  691TMC3    C710278   1.958   1.916  16.170 -0.0046 -0.2834 -0.3669
  691TMC3    C810279   1.595   2.228  16.239 -0.0664 -0.3364  0.3208
  691TMC3    O110280   2.075   1.885  16.175  0.4339 -0.1159 -0.3532
  691TMC3    O210281   1.534   2.143  16.302  0.0777  0.0858  0.1793
  692TMC3    C110282   3.274   3.008  16.023  0.3611  0.2233 -0.2610
  692TMC3    C210283   3.407   3.024  16.042  0.2473 -0.7083 -0.0588
  692TMC3    C310284   3.488   2.914  16.027  0.8226  0.2791  0.4937
  692TMC3    C410285   3.217   2.884  16.018  0.5429  0.1894  0.0091
  692TMC3    C510286   3.299   2.778  16.030 -0.1239 -0.4632  0.0974
  692TMC3    C610287   3.430   2.788  16.043  0.5623  0.2304 -0.7546
  692TMC3     C10288   3.182   3.120  16.065  0.0069 -0.0031 -0.2737
  692TMC3     O10289   3.083   3.092  16.130 -0.4143 -0.2643 -0.4976
  692TMC3     H10290   3.442   3.124  16.020 -1.9288 -0.1062 -0.8107
  692TMC3    H110291   3.111   2.870  15.999  0.4904  0.3916  0.1422
  692TMC3    H210292   3.488   2.700  16.017  1.3830  0.2267  1.1377
  692TMC3    C710293   3.241   2.644  16.041 -0.1009 -0.2931 -0.1525
  692TMC3    C810294   3.597   2.922  16.122  0.2128  0.5850  0.1456
  692TMC3    O110295   3.179   2.609  15.945 -0.3177  0.7387 -0.5098
  692TMC3    O210296   3.682   2.832  16.113  0.4451 -0.2607 -0.0471
  693MPD2     C10297   2.882   0.725  10.403  0.3147  0.1613  0.0978
  693MPD2    C110298   2.924   0.807  10.507 -0.3727 -0.1210 -0.1497
  693MPD2    C210299   2.997   0.749  10.608  0.4873  0.6884 -0.2756
  693MPD2    C310300   3.039   0.621  10.610  0.4342 -0.6440  0.1524
  693MPD2    C410301   2.989   0.538  10.520 -0.1130 -0.0078  0.0097
  693MPD2    C510302   2.901   0.588  10.423 -0.2297 -0.6093 -1.0363
  693MPD2     H10303   3.030   0.816  10.687  1.5983 -1.1292  0.7960
  693MPD2    H110304   3.009   0.432  10.528  0.8156  0.2612  1.2711
  693MPD2    H210305   2.811   0.754  10.327  0.2040 -0.7595 -0.1482
  693MPD2    H310306   2.849   0.522  10.355  0.2358 -0.6101 -1.3932
  693MPD2     N10307   3.112   0.570  10.723  0.1062  0.1233 -0.0142
  693MPD2    H510308   3.137   0.634  10.798  1.9557  0.3401 -0.8203
  693MPD2    N110309   2.876   0.944  10.506  0.2083  1.1838  0.4109
  693MPD2    H710310   2.826   0.978  10.425 -0.5927  0.2280  0.4989
  694TMC3    C110311   2.820   1.157  10.571  0.0512 -0.0648  0.6565
  694TMC3    C210312   2.702   1.129  10.503  0.0408  0.7577  0.4594
  694TMC3    C310313   2.582   1.172  10.555 -0.7323 -0.4007 -0.1328
  694TMC3    C410314   2.807   1.229  10.682  0.2797 -0.5641 -0.1226
  694TMC3    C510315   2.687   1.275  10.730 -0.8652  0.7591  0.0346
  694TMC3    C610316   2.568   1.248  10.666  0.2464  0.1270 -0.1625
  694TMC3     C10317   2.904   1.037  10.602 -0.0821 -0.5247 -1.0658
  694TMC3     O10318   2.934   1.019  10.720 -0.0965  0.0043  0.5396
  694TMC3     H10319   2.689   1.062  10.420  0.3711  2.1602 -0.7314
  694TMC3    H110320   2.892   1.236  10.749  0.1462 -0.7915  0.0694
  694TMC3    H210321   2.475   1.277  10.715  0.0028 -1.6843  0.4421
  694TMC3    C710322   2.679   1.268  10.871 -0.1099 -0.0026 -0.3079
  694TMC3    C810323   2.461   1.142  10.482  0.4547  0.3545 -0.5796
  694TMC3    O110324   2.752   1.338  10.944 -0.4712  0.5269 -0.4057
  694TMC3    O210325   2.464   1.042  10.409  0.1512 -0.4560  0.5667
  695MPD2     C10326   3.913   2.391  14.067  0.2069  1.0724  0.2364
  695MPD2    C110327   3.856   2.520  14.079 -0.1473 -0.3434  0.0001
  695MPD2    C210328   3.723   2.533  14.061  0.2751  0.3411 -0.2605
  695MPD2    C310329   3.633   2.431  14.026  0.4642  0.2431  0.2678
  695MPD2    C410330   3.687   2.303  14.016 -0.1073  0.4163  0.5275
  695MPD2    C510331   3.822   2.290  14.044  0.4356  0.2435 -0.6006
  695MPD2     H10332   3.694   2.638  14.061 -1.3948 -0.1253 -2.7454
  695MPD2    H110333   3.627   2.219  13.986  2.2920  0.0659 -3.3496
  695MPD2    H210334   4.016   2.369  14.091  0.5031 -0.3723 -2.4336
  695MPD2    H310335   3.852   2.186  14.034 -2.1388 -0.5288 -0.0997
  695MPD2     N10336   3.495   2.456  14.010 -0.1288  0.1771  0.6524
  695MPD2    H510337   3.466   2.554  14.006 -2.6685 -0.5392  1.2454
  695MPD2    N110338   3.926   2.643  14.093  0.3074  0.9980 -0.0238
  695MPD2    H710339   3.864   2.723  14.096 -0.5046  0.3014  1.8961
  696TMC3    C110340   3.278   2.447  13.926 -0.0294  0.7952 -0.6664
  696TMC3    C210341   3.241   2.540  14.018  0.1701  0.4753  0.5176
  696TMC3    C310342   3.134   2.617  13.997 -0.5676 -0.5154  0.5638
  696TMC3    C410343   3.197   2.428  13.811  0.1275 -0.1465 -0.0777
  696TMC3    C510344   3.097   2.516  13.790 -0.4971  0.2589  0.6487
  696TMC3    C610345   3.058   2.606  13.888 -0.6083 -0.1686  0.0126
  696TMC3     C10346   3.402   2.376  13.943  0.3617 -0.2479  0.3954
  696TMC3     O10347   3.404   2.255  13.916 -0.6840 -0.2094 -0.7503
  696TMC3     H10348   3.292   2.554  14.113  0.3045  2.4882  0.1343
  696TMC3    H110349   3.227   2.357  13.735  0.2814  1.3791 -1.4319
  696TMC3    H210350   2.965   2.660  13.890 -0.4698  0.0686  0.0771
  696TMC3    C710351   3.106   2.581  13.660  0.7657 -0.5416  0.2174
  696TMC3    C810352   3.149   2.761  14.036  0.5008 -0.3697  0.8195
  696TMC3    O110353   3.211   2.565  13.595 -0.0221 -0.2957 -0.2288
  696TMC3    O210354   3.090   2.835  13.960 -0.4573  0.0577 -0.1747
  697MPD2     C10355   3.232   0.069  15.782  0.1762 -0.2875 -0.3124
  697MPD2    C110356   3.148   0.012  15.685  0.0022  0.2458  1.0194
  697MPD2    C210357   3.112   0.085  15.568 -0.2712 -0.0947 -0.5634
  697MPD2    C310358   3.156   0.216  15.549 -0.3556  0.6629  0.2134
  697MPD2    C410359   3.233   0.273  15.642  0.0121  0.2806  0.1319
  697MPD2    C510360   3.271   0.195  15.749 -0.0646 -0.9754  0.1010
  697MPD2     H10361   3.057   0.038  15.488  0.1294  0.1109 -0.9593
  697MPD2    H110362   3.254   0.380  15.642  1.8599 -0.0812  0.0258
  697MPD2    H210363   3.268   0.032  15.877 -1.1016  0.2218  0.3592
  697MPD2    H310364   3.324   0.259  15.819  0.8739 -0.8400 -0.7306
  697MPD2     N10365   3.110   0.284  15.433  0.2003 -0.2150  0.1343
  697MPD2    H510366   3.037   0.241  15.376 -1.0156  0.4447  1.1888
  697MPD2    N110367   3.092   4.619  15.685 -0.8211 -0.3459 -0.3419
  697MPD2    H710368   3.069   4.577  15.595 -0.6302 -1.4978  0.1395
  698TMC3    C110369   3.083   0.479  15.296  0.6970 -0.1422 -0.2879
  698TMC3    C210370   3.087   0.613  15.282  0.2198 -0.0807 -0.3207
  698TMC3    C310371   3.014   0.669  15.180  0.2752  0.0873 -0.5139
  698TMC3    C410372   2.996   0.399  15.223 -0.5229 -0.8166  0.1654
  698TMC3    C510373   2.908   0.460  15.135 -0.5675 -0.0530  0.2273
  698TMC3    C610374   2.908   0.596  15.121  0.1623  0.0849 -0.8461
  698TMC3     C10375   3.165   0.407  15.396 -0.7120  0.8055 -0.4159
  698TMC3     O10376   3.255   0.473  15.443  0.0491 -0.5149  0.1427
  698TMC3     H10377   3.142   0.665  15.360  0.6559 -0.8604 -0.1073
  698TMC3    H110378   2.996   0.290  15.223  1.5623 -0.8082  1.0951
  698TMC3    H210379   2.843   0.648  15.051 -1.1432  1.7133  1.5416
  698TMC3    C710380   2.815   0.396  15.047 -0.1110  0.1012  0.4337
  698TMC3    C810381   3.038   0.800  15.126  0.0382  0.2427 -0.2576
  698TMC3    O110382   2.772   0.461  14.953  0.4171  0.1734  0.7978
  698TMC3    O210383   2.933   0.845  15.086 -0.2095 -0.5528 -0.1191
  699TMC3    C110384   2.911   2.818  13.064 -0.8243  0.3215  0.0676
  699TMC3    C210385   2.911   2.684  13.105  0.1146 -0.9035  1.0321
  699TMC3    C310386   2.825   2.659  13.209 -0.1821  0.7220  0.2900
  699TMC3    C410387   2.837   2.914  13.122 -1.3464  0.1476  0.5601
  699TMC3    C510388   2.759   2.880  13.226  0.2398 -0.1244 -0.0859
  699TMC3    C610389   2.749   2.752  13.267  0.0606  0.2313 -0.5568
  699TMC3     C10390   3.019   2.864  12.978  0.0189  0.6230  0.7021
  699TMC3     O10391   3.009   2.977  12.925 -0.2493  0.2554  0.0077
  699TMC3     H10392   2.970   2.607  13.057 -1.3116 -1.1078 -0.4033
  699TMC3    H110393   2.856   3.018  13.099 -3.0054  0.3827  0.2506
  699TMC3    H210394   2.689   2.724  13.353 -1.0206  0.1810 -1.3246
  699TMC3    C710395   2.700   2.985  13.302 -0.3813  0.1512 -0.2868
  699TMC3    C810396   2.816   2.531  13.278 -0.3322  0.3279 -0.3849
  699TMC3    O110397   2.660   2.942  13.414 -1.0379 -0.2687  0.3777
  699TMC3    O210398   2.724   2.511  13.354  0.2271  0.1359 -0.3419
  700TMC3    C110399   2.235   0.650  17.325 -0.5932  0.8441 -0.5392
  700TMC3    C210400   2.323   0.565  17.269  0.0581 -0.6722 -0.0731
  700TMC3    C310401   2.445   0.548  17.338 -0.0884 -0.7457 -0.3578
  700TMC3    C410402   2.262   0.720  17.442  0.1168  0.1898  0.1294
  700TMC3    C510403   2.380   0.693  17.508 -0.2790 -0.4488 -0.1878
  700TMC3    C610404   2.476   0.614  17.451 -0.1000 -0.1543  1.0346
  700TMC3     C10405   2.181   0.748  17.234 -0.2900 -0.6133 -0.3846
  700TMC3     O10406   2.064   0.727  17.204 -0.0231 -0.3653 -0.2077
  700TMC3     H10407   2.299   0.507  17.181  1.2583  0.0360 -0.8680
  700TMC3    H110408   2.191   0.795  17.475  0.4263 -0.2696  1.8431
  700TMC3    H210409   2.564   0.581  17.506  0.2622 -0.3004  0.3680
  700TMC3    C710410   2.424   0.775  17.620 -0.1703  0.6063  0.5190
  700TMC3    C810411   2.541   0.467  17.276  0.2867  0.4021 -0.1700
  700TMC3    O110412   2.514   0.731  17.692 -0.8400 -0.3778  0.3040
  700TMC3    O210413   2.504   0.382  17.196  0.0592 -0.1998 -0.1119
  701TMC3    C110414   2.351   3.942  16.087 -0.4381  0.3824  0.2688
  701TMC3    C210415   2.305   3.860  15.989 -0.6495 -0.4089  0.2711
  701TMC3    C310416   2.371   3.864  15.873  0.0577  0.3994  0.2486
  701TMC3    C410417   2.460   4.025  16.072 -0.0303  0.6050 -0.4295
  701TMC3    C510418   2.519   4.034  15.943  0.1922 -0.3034  0.5793
  701TMC3    C610419   2.480   3.943  15.847 -0.9512  0.3474  0.1077
  701TMC3     C10420   2.292   3.929  16.223 -0.0785 -0.6509  0.0649
  701TMC3     O10421   2.316   4.028  16.294 -1.0171  0.1041 -0.0496
  701TMC3     H10422   2.221   3.793  16.003  0.7801 -1.8465  2.0215
  701TMC3    H110423   2.498   4.078  16.159 -0.7016 -1.4762  1.1163
  701TMC3    H210424   2.521   3.959  15.748 -1.7053  2.0844  0.0780
  701TMC3    C710425   2.589   4.160  15.907  0.2798  0.2253 -0.3702
  701TMC3    C810426   2.322   3.770  15.778  1.0908 -0.5699 -0.3148
  701TMC3    O110427   2.584   4.210  15.793  0.6420 -0.2854 -0.0115
  701TMC3    O210428   2.308   3.663  15.835  0.0918  0.0052 -0.2849
  702MPD2     C10429   1.983   1.678  10.546  0.0118 -0.8366  0.4034
  702MPD2    C110430   1.846   1.710  10.574 -0.5989 -0.0843 -0.4225
  702MPD2    C210431   1.754   1.691  10.481  0.4931  1.2256 -0.4505
  702MPD2    C310432   1.789   1.658  10.352 -0.4389 -0.3424  0.2508
  702MPD2    C410433   1.920   1.609  10.327 -0.0205  0.0567 -0.0147
  702MPD2    C510434   2.016   1.626  10.425  0.4925 -0.3579  0.2708
  702MPD2     H10435   1.654   1.726  10.506  0.9376  1.2561  1.2548
  702MPD2    H110436   1.947   1.558  10.236 -1.6281 -0.0032 -0.4647
  702MPD2    H210437   2.065   1.701  10.613 -1.8528  1.5622  1.8695
  702MPD2    H310438   2.121   1.605  10.407  0.6421 -1.1723  2.0850
  702MPD2     N10439   1.699   1.647  10.242 -0.6071  0.1099 -0.1978
  702MPD2    H510440   1.738   1.592  10.166  0.6713 -1.9695  1.9913
  702MPD2    N110441   1.810   1.787  10.689  0.3267  0.0762  0.8979
  702MPD2    H710442   1.711   1.808  10.703  0.2314  1.2974 -1.6984
  703TMC3    C110443   1.566   1.836  10.270  0.0113 -0.0222  0.5719
  703TMC3    C210444   1.455   1.868  10.343  0.0743 -0.5366  0.5378
  703TMC3    C310445   1.462   1.985  10.418  0.4128 -0.7994  0.4575
  703TMC3    C410446   1.682   1.906  10.259 -0.3266 -0.8275  0.7011
  703TMC3    C510447   1.682   2.014  10.340  0.2199  0.2502 -0.2006
  703TMC3    C610448   1.578   2.058  10.413 -0.0902 -0.5583  0.9500
  703TMC3     C10449   1.569   1.695  10.237 -0.6755 -0.1699  0.2656
  703TMC3     O10450   1.476   1.669  10.162  0.3716 -0.7840 -0.3838
  703TMC3     H10451   1.362   1.812  10.347 -0.4408  0.2067 -0.8307
  703TMC3    H110452   1.763   1.871  10.196  0.0473  2.3986 -0.6430
  703TMC3    H210453   1.575   2.154  10.463 -1.6796 -1.0979  1.8864
  703TMC3    C710454   1.806   2.085  10.349 -0.1804 -0.2597 -0.3470
  703TMC3    C810455   1.344   2.041  10.478 -0.1814  0.4286  0.1338
  703TMC3    O110456   1.809   2.203  10.383 -0.1637  0.4282  0.0149
  703TMC3    O210457   1.244   1.988  10.432  0.3098 -0.5083 -0.0413
  704TMC3    C110458   0.026   0.399  12.900  0.0412  0.0773  0.0839
  704TMC3    C210459   0.076   0.463  12.791  0.0312 -0.0222  0.6430
  704TMC3    C310460   0.190   0.433  12.729 -0.2800 -0.0418  0.4624
  704TMC3    C410461   0.109   0.312  12.969  0.1908  0.5353 -0.2150
  704TMC3    C510462   0.224   0.277  12.900  0.0224  0.6373 -0.0105
  704TMC3    C610463   0.270   0.340  12.786 -0.5271 -0.8172 -0.1489
  704TMC3     C10464   4.623   0.363  12.898 -0.4625 -0.0322 -0.3821
  704TMC3     O10465   4.574   0.310  12.997 -0.1892  0.1652  0.2840
  704TMC3     H10466   0.016   0.533  12.734 -0.3114 -0.8390 -0.0045
  704TMC3    H110467   0.077   0.251  13.052 -0.6007  0.1496 -0.8044
  704TMC3    H210468   0.344   0.289  12.725 -0.5704 -1.5485  0.4230
  704TMC3    C710469   0.251   0.136  12.893 -1.0340 -0.7652  0.5799
  704TMC3    C810470   0.152   0.399  12.595 -0.1614 -0.4698 -0.3849
  704TMC3    O110471   0.148   0.072  12.905 -0.2968 -0.1344  0.2867
  704TMC3    O210472   0.038   0.359  12.578  0.4214 -0.4662 -0.2776
  705MPD2     C10473   4.066   2.949  16.884 -0.0648 -0.3679  0.2855
  705MPD2    C110474   3.962   3.014  16.821  0.5651 -0.5560 -0.4183
  705MPD2    C210475   3.843   3.027  16.885 -0.2130  0.1275 -0.4380
  705MPD2    C310476   3.814   2.972  17.011 -0.7647  0.8676  0.2331
  705MPD2    C410477   3.918   2.910  17.076  1.0506  0.2035 -0.5682
  705MPD2    C510478   4.038   2.893  17.006  0.3891 -0.1543 -0.4976
  705MPD2     H10479   3.764   3.074  16.828 -0.0702 -0.6218 -1.2632
  705MPD2    H110480   3.902   2.863  17.172  0.5213  1.8051  0.1256
  705MPD2    H210481   4.169   2.936  16.854 -0.2298 -2.0477  0.4673
  705MPD2    H310482   4.124   2.862  17.063 -0.0382 -1.0129 -0.3212
  705MPD2     N10483   3.697   2.984  17.083 -0.4312  0.6679  0.5083
  705MPD2    H510484   3.685   2.937  17.173 -1.3205  0.4740  0.2912
  705MPD2    N110485   3.972   3.063  16.684 -0.3308 -0.4444  0.0774
  705MPD2    H710486   3.903   3.125  16.643 -1.0206 -2.2108 -1.4232
  706TMC3    C110487   3.986   2.977  16.257  0.2447  1.2925  0.0969
  706TMC3    C210488   3.896   3.077  16.231  0.0143  0.0341 -0.1328
  706TMC3    C310489   3.893   3.178  16.322  0.5599 -0.5193  0.1777
  706TMC3    C410490   4.059   2.969  16.370 -0.2173 -0.2742 -0.4077
  706TMC3    C510491   4.046   3.069  16.463 -0.7224  0.0429  0.2284
  706TMC3    C610492   3.958   3.170  16.438 -0.0338  0.3233 -0.2144
  706TMC3     C10493   4.047   2.901  16.145  0.0593  0.2712  0.7827
  706TMC3     O10494   4.160   2.871  16.149  0.1917  0.1946  0.1213
  706TMC3     H10495   3.854   3.089  16.132 -0.9198 -1.4814  0.0818
  706TMC3    H110496   4.129   2.887  16.382  1.8344  1.2835 -1.8805
  706TMC3    H210497   3.946   3.251  16.510  2.5750  0.7896 -0.2963
  706TMC3    C710498   4.065   3.020  16.599 -0.0255  0.1799  0.9081
  706TMC3    C810499   3.827   3.296  16.274 -0.8845  0.1051 -0.5876
  706TMC3    O110500   4.144   2.931  16.627 -0.0791  0.1099  0.3858
  706TMC3    O210501   3.797   3.285  16.154 -0.2798 -0.0741  0.3276
  707TMC3    C110502   0.697   0.856   1.195 -0.4302  0.3095 -0.2934
  707TMC3    C210503   0.753   0.740   1.248 -0.2721 -0.5832 -0.1427
  707TMC3    C310504   0.685   0.628   1.241 -0.7889  0.1699  0.1817
  707TMC3    C410505   0.567   0.859   1.150 -1.1705  0.1900 -0.2260
  707TMC3    C510506   0.495   0.744   1.157 -0.2630 -0.2988  0.3213
  707TMC3    C610507   0.558   0.623   1.194  0.0798 -0.3026 -0.2986
  707TMC3     C10508   0.787   0.957   1.149  0.5993  0.4162 -0.6476
  707TMC3     O10509   0.908   0.931   1.140  0.6251 -0.5497  0.0930
  707TMC3     H10510   0.857   0.741   1.277 -0.2820  3.5902 -0.2326
  707TMC3    H110511   0.527   0.940   1.090  0.5344 -1.0992 -3.1068
  707TMC3    H210512   0.496   0.534   1.200 -0.1974 -0.0748  0.3079
  707TMC3    C710513   0.366   0.731   1.093 -0.0058  0.7531 -0.3091
  707TMC3    C810514   0.738   0.519   1.319 -0.4622  0.6099  0.2039
  707TMC3    O110515   0.333   0.619   1.063 -0.2743  0.1058  0.4663
  707TMC3    O210516   0.665   0.452   1.389 -0.0364  0.0133  0.0961
  708MPD2     C10517   1.667   0.848  14.242 -0.9079  0.0372 -0.4493
  708MPD2    C110518   1.661   0.985  14.266  0.1842  0.0428 -0.0406
  708MPD2    C210519   1.589   1.031  14.376  0.1373  0.0801  0.0306
  708MPD2    C310520   1.512   0.940  14.454 -0.9932  0.2707 -0.3106
  708MPD2    C410521   1.515   0.806  14.421 -0.7950 -0.4225 -0.1973
  708MPD2    C510522   1.587   0.765  14.314 -0.1989  0.7255 -0.0763
  708MPD2     H10523   1.592   1.137  14.398  3.2202 -0.2438  1.0883
  708MPD2    H110524   1.446   0.742  14.473  0.1124 -1.7550 -0.6501
  708MPD2    H210525   1.728   0.810  14.161 -0.5035  1.0909 -0.6354
  708MPD2    H310526   1.573   0.663  14.279 -1.2321  0.6005  0.6956
  708MPD2     N10527   1.432   0.986  14.556  0.3309  0.2477  0.0697
  708MPD2    H510528   1.363   0.918  14.587 -0.1610  0.7577  0.1046
  708MPD2    N110529   1.745   1.060  14.188  0.1269  0.2213 -0.2213
  708MPD2    H710530   1.783   1.013  14.107 -0.5922  1.2885 -1.1739
  709TMC3    C110531   1.871   1.244  14.112  0.3220  0.0139  0.5475
  709TMC3    C210532   1.899   1.155  14.012  0.2378 -0.6202 -0.5737
  709TMC3    C310533   1.873   1.191  13.884 -0.1609  0.5439 -0.1439
  709TMC3    C410534   1.804   1.359  14.081  0.7412  0.0126  0.0729
  709TMC3    C510535   1.763   1.385  13.950 -0.1462 -0.2954 -0.3600
  709TMC3    C610536   1.805   1.305  13.849 -0.5820  0.8355 -0.1069
  709TMC3     C10537   1.801   1.186  14.224  0.0483 -0.9659  0.0447
  709TMC3     O10538   1.747   1.262  14.298 -0.1644 -0.1477  0.0742
  709TMC3     H10539   1.960   1.068  14.033 -0.4202 -0.8776  0.2669
  709TMC3    H110540   1.802   1.442  14.151 -1.6758  0.3229 -0.3731
  709TMC3    H210541   1.762   1.320  13.750  0.8631  0.4478 -0.7905
  709TMC3    C710542   1.622   1.415  13.948  0.5407 -0.2378 -0.1682
  709TMC3    C810543   1.936   1.111  13.781 -0.2666 -0.4817 -0.1060
  709TMC3    O110544   1.568   1.440  13.838  0.5401  0.3567  0.2147
  709TMC3    O210545   1.934   0.990  13.808  0.1175  0.1777  0.0271
  710TMC3    C110546   3.284   2.378   0.758 -0.3590  0.4689 -0.9295
  710TMC3    C210547   3.365   2.437   0.664 -0.0981  0.7512 -0.7418
  710TMC3    C310548   3.431   2.352   0.582 -0.3002 -0.4448  0.3826
  710TMC3    C410549   3.277   2.239   0.774  0.5706 -0.3111  0.3906
  710TMC3    C510550   3.359   2.157   0.690  0.4336 -0.4168  0.8784
  710TMC3    C610551   3.436   2.216   0.598  0.4407 -0.7096  0.3212
  710TMC3     C10552   3.217   2.475   0.848  0.1694  0.6062 -0.6668
  710TMC3     O10553   3.250   2.596   0.843 -0.6286 -0.2844 -0.7197
  710TMC3     H10554   3.353   2.544   0.649 -2.4114  0.3644 -1.5549
  710TMC3    H110555   3.230   2.189   0.857  0.5447  0.2417  0.7106
  710TMC3    H210556   3.490   2.164   0.520  1.0591 -0.6440  0.7087
  710TMC3    C710557   3.374   2.014   0.729  0.1747 -0.3982 -0.2455
  710TMC3    C810558   3.524   2.421   0.495  0.0058 -0.6465 -0.0507
  710TMC3    O110559   3.280   1.959   0.787 -0.3601 -0.1719 -0.3124
  710TMC3    O210560   3.526   2.402   0.374 -0.1077  0.3181  0.1235
  711TMC3    C110561   3.166   3.556  14.736 -0.2853  0.0847  0.1481
  711TMC3    C210562   3.096   3.662  14.754  0.0337 -0.8673  0.6412
  711TMC3    C310563   3.161   3.769  14.808  0.2719  0.8103 -0.7563
  711TMC3    C410564   3.299   3.539  14.762 -0.6545  0.0889  0.9649
  711TMC3    C510565   3.371   3.648  14.812  0.3841 -0.0606 -0.8287
  711TMC3    C610566   3.298   3.768  14.829 -0.1809  0.0199  0.8135
  711TMC3     C10567   3.078   3.445  14.709 -0.3084 -0.0883  0.5294
  711TMC3     O10568   2.996   3.465  14.620  0.3642  0.3168 -0.0808
  711TMC3     H10569   2.988   3.659  14.761  0.0252 -2.2183 -0.2874
  711TMC3    H110570   3.346   3.441  14.758  0.0156  0.4437  0.1903
  711TMC3    H210571   3.349   3.853  14.873 -0.3315  0.7637 -0.4570
  711TMC3    C710572   3.487   3.624  14.895 -0.3521 -1.0069  0.1623
  711TMC3    C810573   3.095   3.812  14.930 -0.7086 -0.3398 -0.1849
  711TMC3    O110574   3.481   3.682  15.003  0.7238  0.0047 -0.2715
  711TMC3    O210575   2.980   3.848  14.914 -0.1469 -0.4504  0.0036
  712MPD2     C10576   4.607   4.638  14.171 -0.1503 -0.2001  0.0746
  712MPD2    C110577   4.483   4.693  14.149 -0.5314  0.2065  0.1043
  712MPD2    C210578   4.446   0.079  14.198  0.0330 -1.0588 -0.3853
  712MPD2    C310579   4.532   0.140  14.284  0.3707  0.0804 -0.3912
  712MPD2    C410580   4.658   0.081  14.311 -0.0412 -0.8873 -0.3136
  712MPD2    C510581   4.692   4.696  14.260  0.3561  0.5782 -0.0428
  712MPD2     H10582   4.352   0.118  14.162  0.1488 -0.7639 -0.3678
  712MPD2    H110583   0.001   0.131  14.365 -1.4492  0.0429  0.8768
  712MPD2    H210584   4.645   4.550  14.121 -2.7197 -1.3617  0.1713
  712MPD2    H310585   0.060   4.668  14.263  0.0003 -0.3656  2.8304
  712MPD2     N10586   4.507   0.273  14.327  0.1077  0.1498  0.1786
  712MPD2    H510587   4.575   0.321  14.385  0.0022 -1.7577  1.9077
  712MPD2    N110588   4.389   4.629  14.070  0.5121 -0.1995  0.1558
  712MPD2    H710589   4.292   4.659  14.066  1.0798  1.5321 -0.5455
  713TMC3    C110590   4.398   0.481  14.291  0.0114 -0.0730  0.2601
  713TMC3    C210591   4.508   0.539  14.234 -0.0094 -0.0531 -0.2290
  713TMC3    C310592   4.492   0.665  14.171 -0.1769  0.4165  0.0860
  713TMC3    C410593   4.274   0.541  14.286  0.9672  0.1058  0.1942
  713TMC3    C510594   4.266   0.668  14.220  0.0980  0.1486 -0.3834
  713TMC3    C610595   4.372   0.733  14.171  0.1644 -0.0302 -0.5556
  713TMC3     C10596   4.388   0.338  14.309 -0.2533 -0.0629 -0.0610
  713TMC3     O10597   4.282   0.290  14.267  0.3468 -0.1729 -0.0921
  713TMC3     H10598   4.607   0.495  14.231 -0.3200 -0.8589  1.5518
  713TMC3    H110599   4.183   0.498  14.324  0.3555  0.4004 -0.9367
  713TMC3    H210600   4.363   0.832  14.129 -1.0474  0.6290  1.2719
  713TMC3    C710601   4.141   0.736  14.218  0.2509 -0.0513  0.1788
  713TMC3    C810602   4.612   0.738  14.123 -0.2699 -0.5965 -0.4527
  713TMC3    O110603   4.063   0.704  14.308  0.1230 -0.2930  0.2278
  713TMC3    O210604   4.591   0.834  14.047 -0.4099  0.2478  0.1668
  714MPD2     C10605   1.739   3.215   1.400  0.1756  0.7360 -0.0532
  714MPD2    C110606   1.756   3.094   1.336 -0.6499  0.3134 -0.0164
  714MPD2    C210607   1.641   3.021   1.297  0.1405  0.2386  0.2435
  714MPD2    C310608   1.514   3.083   1.294 -0.5686 -0.4391  0.1999
  714MPD2    C410609   1.507   3.211   1.339  0.4954  0.0175  0.6987
  714MPD2    C510610   1.615   3.270   1.405 -0.5708 -0.4286  0.3874
  714MPD2     H10611   1.653   2.917   1.270  1.0498  0.1967  0.8031
  714MPD2    H110612   1.414   3.266   1.344 -0.2316 -1.1938  0.4610
  714MPD2    H210613   1.824   3.269   1.441  0.5624  0.6987 -0.8059
  714MPD2    H310614   1.595   3.368   1.446 -0.5229 -0.2263 -0.0721
  714MPD2     N10615   1.408   3.021   1.217 -0.8695  0.0212 -0.1839
  714MPD2    H510616   1.415   2.925   1.186 -0.2635 -0.2543  0.8111
  714MPD2    N110617   1.893   3.043   1.327 -0.4940  0.2352 -0.2908
  714MPD2    H710618   1.964   3.105   1.364 -2.5556  2.5318 -0.1642
  715TMC3    C110619   2.066   2.880   1.274  0.4151  0.2324 -0.1871
  715TMC3    C210620   2.105   2.775   1.191  0.2776 -0.2404 -0.2888
  715TMC3    C310621   2.238   2.749   1.179 -0.2465 -0.3812  0.5222
  715TMC3    C410622   2.154   2.949   1.349  0.2695  0.2408 -0.1317
  715TMC3    C510623   2.288   2.918   1.335 -0.3623  0.0078 -0.9376
  715TMC3    C610624   2.329   2.825   1.241  0.2264 -0.5542  0.8895
  715TMC3     C10625   1.923   2.922   1.265 -0.8408 -0.2986 -0.4772
  715TMC3     O10626   1.850   2.845   1.203  0.6176 -0.4749 -0.6732
  715TMC3     H10627   2.028   2.725   1.134  0.2909 -1.4139  0.7354
  715TMC3    H110628   2.124   3.023   1.422  0.8260 -1.7598  2.1346
  715TMC3    H210629   2.436   2.807   1.233  0.0697  0.1078 -2.7609
  715TMC3    C710630   2.391   2.980   1.421 -0.4068 -0.5874 -0.0881
  715TMC3    C810631   2.277   2.628   1.116 -0.5749  0.2260  0.7964
  715TMC3    O110632   2.503   2.925   1.415  0.0831  0.5929  0.0761
  715TMC3    O210633   2.182   2.560   1.088 -0.5759 -0.1518 -0.2064
  716MPD2     C10634   2.221   1.888  10.071 -0.0167  0.7793 -0.1669
  716MPD2    C110635   2.094   1.895  10.014 -0.1770  0.9944  0.2377
  716MPD2    C210636   2.013   1.784  10.001  0.2167  0.3826 -0.5648
  716MPD2    C310637   2.078   1.656  10.001  0.3968  0.4515  0.0309
  716MPD2    C410638   2.216   1.648  10.034 -0.3692  0.1349  0.0486
  716MPD2    C510639   2.280   1.767  10.085  0.2756 -0.2290 -0.0757
  716MPD2     H10640   1.907   1.789   9.982  0.1037  0.8853  0.2201
  716MPD2    H110641   2.274   1.558  10.046  0.4251  0.8244  1.4482
  716MPD2    H210642   2.290   1.967  10.098  0.1514  0.0815  1.4420
  716MPD2    H310643   2.383   1.758  10.117  0.2205 -2.2660 -0.4486
  716MPD2     N10644   2.005   1.543   9.960  0.1141  0.7700 -0.1594
  716MPD2    H510645   1.913   1.563   9.923  0.3782 -0.0408 -1.2405
  716MPD2    N110646   2.043   2.030  10.007  0.3199 -0.1091  0.1747
  716MPD2    H710647   2.109   2.105  10.018  1.6646 -1.4573  1.2987
  717TMC3    C110648   1.981   1.337   9.873 -0.2174 -0.2048 -0.7504
  717TMC3    C210649   1.905   1.389   9.773 -0.3174  0.2789 -1.4879
  717TMC3    C310650   1.845   1.301   9.686 -0.3229  0.4911  0.0882
  717TMC3    C410651   2.000   1.204   9.884  0.2168  0.0961  0.5297
  717TMC3    C510652   1.949   1.123   9.791  0.1712 -0.3365 -0.0041
  717TMC3    C610653   1.862   1.164   9.690 -0.0599  0.0491 -0.1387
  717TMC3     C10654   2.055   1.418   9.955  0.6541 -0.2018 -0.2475
  717TMC3     O10655   2.136   1.371  10.030 -0.7544  0.4616 -0.0463
  717TMC3     H10656   1.885   1.493   9.751 -1.1430  0.0500 -1.8349
  717TMC3    H110657   2.059   1.170   9.969 -0.8410 -2.4376  0.2220
  717TMC3    H210658   1.817   1.110   9.607 -0.0716 -0.9940  0.5557
  717TMC3    C710659   1.964   0.979   9.811 -0.1436  0.0122  0.4356
  717TMC3    C810660   1.725   1.358   9.620  0.1083  0.6621 -0.1735
  717TMC3    O110661   1.872   0.911   9.771 -1.0167 -0.0160  0.8484
  717TMC3    O210662   1.701   1.477   9.653  0.4267 -0.0984  0.0885
  718MPD2     C10663   1.026   1.113  12.608  0.4511 -0.1920 -0.0230
  718MPD2    C110664   1.068   1.027  12.513 -0.1927  0.0799  0.1912
  718MPD2    C210665   1.069   0.892  12.536  0.9384  0.5120  0.8816
  718MPD2    C310666   1.029   0.844  12.659  0.2506 -0.2481  0.0034
  718MPD2    C410667   0.989   0.930  12.762  0.3637 -0.2055  0.0828
  718MPD2    C510668   0.990   1.063  12.732  0.5563  0.1496  0.5011
  718MPD2     H10669   1.108   0.819  12.466  1.8139  2.1134 -0.3288
  718MPD2    H110670   0.979   0.907  12.867 -0.5539  0.8579  0.2258
  718MPD2    H210671   1.022   1.221  12.596  1.2297 -0.1036  0.5081
  718MPD2    H310672   0.980   1.136  12.811 -1.4150  0.3678  0.0654
  718MPD2     N10673   1.034   0.706  12.680  0.4322 -0.4740  0.1137
  718MPD2    H510674   1.069   0.650  12.602  1.0531 -0.0790  0.1088
  718MPD2    N110675   1.100   1.080  12.386  0.1772  0.2561 -0.1301
  718MPD2    H710676   1.061   1.170  12.359 -0.7780 -0.6533 -1.7702
  719TMC3    C110677   1.155   1.066  12.167 -0.1205 -0.0307  0.1247
  719TMC3    C210678   1.032   1.025  12.121  0.0826  0.3587 -0.3009
  719TMC3    C310679   1.021   0.938  12.011  0.0698 -0.4343  0.3161
  719TMC3    C410680   1.267   1.029  12.096 -0.0461  0.2798 -0.3427
  719TMC3    C510681   1.260   0.946  11.996 -0.1574  0.1186 -0.3237
  719TMC3    C610682   1.139   0.895  11.953  0.6878 -0.2266  0.5700
  719TMC3     C10683   1.183   1.022  12.301  0.3106  0.5281  0.4414
  719TMC3     O10684   1.271   0.942  12.329 -0.2473 -0.3917 -0.4978
  719TMC3     H10685   0.940   1.038  12.177  0.4218  0.9132  0.1257
  719TMC3    H110686   1.357   1.068  12.144 -0.0514  0.2531 -0.3109
  719TMC3    H210687   1.147   0.811  11.885  0.2826 -0.2046  0.4953
  719TMC3    C710688   1.365   0.850  11.976 -0.4766 -0.1700 -0.2973
  719TMC3    C810689   0.935   0.829  12.051  0.1510  0.3958  0.3453
  719TMC3    O110690   1.373   0.801  11.864 -0.1026 -0.9002 -0.0307
  719TMC3    O210691   1.000   0.741  12.100 -0.0042  0.1237  0.0059
  720MPD2     C10692   4.303   2.187  13.964  0.5648  0.3475  0.0715
  720MPD2    C110693   4.345   2.311  13.927 -0.1717  0.2476 -0.5242
  720MPD2    C210694   4.475   2.344  13.959  0.1768 -0.0333 -0.6762
  720MPD2    C310695   4.557   2.259  14.035 -0.1330 -0.5771 -0.0791
  720MPD2    C410696   4.513   2.134  14.067  0.1129  0.3315 -0.6775
  720MPD2    C510697   4.387   2.098  14.028  0.3185 -0.2205 -0.4576
  720MPD2     H10698   4.519   2.441  13.940 -0.0566  0.4012  0.9794
  720MPD2    H110699   4.579   2.061  14.112  0.5342  2.3567  1.9869
  720MPD2    H210700   4.199   2.165  13.942  0.5813  1.8918 -1.5729
  720MPD2    H310701   4.353   1.997  14.052 -1.0136  0.2720 -0.2719
  720MPD2     N10702   4.686   2.302  14.081 -0.2566 -0.2262  0.3154
  720MPD2    H510703   4.730   2.384  14.041 -1.0901  0.0600 -0.0220
  720MPD2    N110704   4.258   2.399  13.865 -0.0302 -0.3035  0.1313
  720MPD2    H710705   4.169   2.366  13.829 -1.5373  1.8257  1.9507
  721TMC3    C110706   0.147   2.314  14.203  0.0517 -0.3587 -0.5874
  721TMC3    C210707   0.189   2.318  14.335 -0.0979 -0.0439  0.3396
  721TMC3    C310708   0.314   2.360  14.361 -0.1129 -0.4673  0.4257
  721TMC3    C410709   0.230   2.346  14.104  0.1219  0.0092  0.5155
  721TMC3    C510710   0.355   2.377  14.138  0.3759 -0.1770  0.6619
  721TMC3    C610711   0.405   2.387  14.265  0.3375 -0.4088  0.2674
  721TMC3     C10712   0.021   2.248  14.184  0.2180  0.2931  0.1619
  721TMC3     O10713   4.728   2.166  14.267 -0.3977  0.2178 -0.6284
  721TMC3     H10714   0.131   2.265  14.410 -1.0754  1.0501  0.3563
  721TMC3    H110715   0.195   2.337  14.001  2.2477  1.1523 -0.3038
  721TMC3    H210716   0.507   2.414  14.293  0.2149  1.9582 -1.4947
  721TMC3    C710717   0.451   2.404  14.037 -0.3994  0.2435  0.0771
  721TMC3    C810718   0.366   2.389  14.490  0.3205  0.2300 -0.0214
  721TMC3    O110719   0.562   2.434  14.074  0.9997 -0.0773 -0.2157
  721TMC3    O210720   0.486   2.416  14.498 -0.3584 -0.1491 -0.5286
  722MPD2     C10721   3.495   0.349  13.454 -0.4537  0.2713  0.1310
  722MPD2    C110722   3.413   0.463  13.454  0.4664 -0.4391 -0.2058
  722MPD2    C210723   3.275   0.440  13.446  0.0309 -0.0385  0.1717
  722MPD2    C310724   3.221   0.312  13.450 -0.2208 -0.1141 -0.2923
  722MPD2    C410725   3.306   0.202  13.458  0.3421 -0.4387 -0.0546
  722MPD2    C510726   3.440   0.225  13.465  0.7591 -0.5247 -0.4201
  722MPD2     H10727   3.216   0.530  13.443  0.5942  0.3108 -0.3271
  722MPD2    H110728   3.271   0.100  13.467 -2.2547  0.6110  1.5961
  722MPD2    H210729   3.602   0.358  13.467 -0.0767 -2.7428 -0.6881
  722MPD2    H310730   3.492   0.130  13.465  0.0173 -0.9357 -0.5736
  722MPD2     N10731   3.081   0.300  13.465 -0.1823 -0.6681 -0.3105
  722MPD2    H510732   3.036   0.389  13.481  1.4921  0.4412 -1.7337
  722MPD2    N110733   3.461   0.593  13.457  0.1230 -0.4086  0.8536
  722MPD2    H710734   3.393   0.661  13.427  1.7613  0.4928 -0.8079
  723TMC3    C110735   2.870   0.202  13.452 -0.4314  0.2008 -0.0042
  723TMC3    C210736   2.790   0.099  13.403  0.1952  0.1291 -0.6326
  723TMC3    C310737   2.674   0.073  13.461 -0.1485 -1.0677 -1.0436
  723TMC3    C410738   2.820   0.273  13.558 -0.1452  0.9808 -0.0847
  723TMC3    C510739   2.694   0.252  13.605 -0.3852  0.1688  0.5208
  723TMC3    C610740   2.622   0.151  13.560 -0.6030 -0.4889 -0.1430
  723TMC3     C10741   3.012   0.184  13.443 -0.1484  0.4916  0.2938
  723TMC3     O10742   3.053   0.075  13.405 -0.1734 -0.2105  0.1512
  723TMC3     H10743   2.832   0.039  13.323 -2.7620 -0.5736 -1.6547
  723TMC3    H110744   2.882   0.348  13.606  0.6388  1.2004 -1.4414
  723TMC3    H210745   2.519   0.131  13.589 -0.4735 -2.1833 -0.8131
  723TMC3    C710746   2.629   0.368  13.658 -0.1413 -0.2480 -0.7150
  723TMC3    C810747   2.611   4.684  13.436 -0.0397 -0.5056 -0.9082
  723TMC3    O110748   2.689   0.475  13.656 -0.4056  0.1656  0.5499
  723TMC3    O210749   2.569   4.612  13.529 -0.5322  0.5794  0.2433
  724TMC3    C110750   4.135   3.724  10.446  0.2787 -0.3912 -0.9828
  724TMC3    C210751   4.014   3.689  10.389 -0.3120 -0.5169  0.0803
  724TMC3    C310752   3.926   3.787  10.351 -0.2639 -0.7723 -0.4844
  724TMC3    C410753   4.160   3.852  10.490 -0.3176  0.5969 -0.2686
  724TMC3    C510754   4.052   3.937  10.486 -0.3403  0.8357 -0.1818
  724TMC3    C610755   3.942   3.909  10.405  0.1902  0.5126 -0.1937
  724TMC3     C10756   4.224   3.623  10.482  0.0290 -0.5132 -0.7483
  724TMC3     O10757   4.171   3.514  10.504  0.3325 -0.1538  0.2899
  724TMC3     H10758   4.010   3.595  10.337 -0.6606  0.4916 -1.7100
  724TMC3    H110759   4.243   3.884  10.552  0.9890 -2.6197 -0.3741
  724TMC3    H210760   3.863   3.979  10.381  0.8488  1.3793  0.1673
  724TMC3    C710761   4.075   4.083  10.482 -0.5196 -0.1465  0.4416
  724TMC3    C810762   3.866   3.779  10.221  0.2196 -0.0558  0.3291
  724TMC3    O110763   4.192   4.112  10.466  0.4793 -0.6412  0.2272
  724TMC3    O210764   3.829   3.674  10.183 -0.0720 -0.2224  0.4776
  725TMC3    C110765   0.833   2.626  12.734 -0.9220 -0.2248 -0.2584
  725TMC3    C210766   0.696   2.633  12.730 -0.5336  0.0613  0.5329
  725TMC3    C310767   0.622   2.532  12.794  0.1213  0.1821 -0.0087
  725TMC3    C410768   0.897   2.522  12.787  0.4223 -0.4820  0.1897
  725TMC3    C510769   0.830   2.422  12.848 -0.7552  0.3906 -0.8652
  725TMC3    C610770   0.688   2.430  12.855  0.2907  0.2641 -0.6928
  725TMC3     C10771   0.899   2.758  12.738  0.7798 -0.2205  0.4089
  725TMC3     O10772   0.828   2.849  12.777 -0.6902  0.1307  0.4219
  725TMC3     H10773   0.653   2.722  12.685  2.5376  1.4987  0.4596
  725TMC3    H110774   1.004   2.518  12.805  0.0289 -0.5226  2.5366
  725TMC3    H210775   0.632   2.348  12.897  1.6389  0.2699  1.0995
  725TMC3    C710776   0.890   2.291  12.822 -0.0696  1.1475  0.0866
  725TMC3    C810777   0.479   2.540  12.801 -0.1793 -0.6859  0.1154
  725TMC3    O110778   0.976   2.284  12.740 -0.4773 -0.0640  0.1448
  725TMC3    O210779   0.429   2.489  12.900 -0.0228  0.7705 -0.1266
  726MPD2     C10780   2.667   3.175  10.097 -0.0925  0.5237  0.2066
  726MPD2    C110781   2.609   3.295  10.046  0.8744  0.4037 -0.2502
  726MPD2    C210782   2.494   3.334  10.105 -0.4703 -0.0819  0.1008
  726MPD2    C310783   2.441   3.267  10.218  0.3414  0.2062  0.2160
  726MPD2    C410784   2.511   3.163  10.272  0.1168  0.0302  0.4608
  726MPD2    C510785   2.617   3.109  10.213 -0.5480  0.3921 -0.4191
  726MPD2     H10786   2.458   3.429  10.068  0.1022  0.3023  0.5094
  726MPD2    H110787   2.478   3.111  10.361  0.9299  0.2370  0.8811
  726MPD2    H210788   2.753   3.125  10.053  0.5074  0.1810  1.7717
  726MPD2    H310789   2.669   3.021  10.250  0.5938  1.3274  0.2300
  726MPD2     N10790   2.336   3.321  10.292 -0.7649 -0.2029 -0.2066
  726MPD2    H510791   2.330   3.281  10.385 -2.4509 -1.3422 -0.7957
  726MPD2    N110792   2.659   3.365   9.939 -0.1502 -0.3420  0.0155
  726MPD2    H710793   2.605   3.445   9.906 -0.9024 -0.9005 -0.1141
  727TMC3    C110794   2.818   3.470   9.809 -0.0813 -0.8992  0.1459
  727TMC3    C210795   2.792   3.575   9.902 -0.4180 -0.3117  0.2557
  727TMC3    C310796   2.768   3.701   9.852 -0.0104  0.9182 -0.2190
  727TMC3    C410797   2.793   3.488   9.678 -0.2705  1.0229  0.0986
  727TMC3    C510798   2.764   3.612   9.631  0.1858 -0.2788  0.2166
  727TMC3    C610799   2.759   3.719   9.716  0.3376 -0.8710  0.8817
  727TMC3     C10800   2.777   3.344   9.868 -0.1751 -0.0228 -0.6236
  727TMC3     O10801   2.847   3.242   9.860  0.1647  0.0269 -0.3354
  727TMC3     H10802   2.832   3.567  10.002  2.5095 -0.7702 -0.9607
  727TMC3    H110803   2.756   3.402   9.624 -0.4374  0.0397  1.7629
  727TMC3    H210804   2.751   3.817   9.670  2.6449 -1.0379  0.1366
  727TMC3    C710805   2.734   3.630   9.490  0.6133  0.1410 -0.5869
  727TMC3    C810806   2.748   3.810   9.954 -0.2863 -0.0523 -0.2345
  727TMC3    O110807   2.759   3.535   9.422 -0.0664 -0.3297 -0.0461
  727TMC3    O210808   2.785   3.791  10.069 -0.1498 -0.0067 -0.1063
  728TMC3    C110809   2.407   2.762  15.560  0.6902  0.3230 -0.2239
  728TMC3    C210810   2.531   2.784  15.503  0.5665 -0.2036 -0.7385
  728TMC3    C310811   2.534   2.775  15.370  0.6642 -0.2912 -0.1981
  728TMC3    C410812   2.289   2.736  15.489 -0.4765 -0.0702  0.8070
  728TMC3    C510813   2.304   2.748  15.352  0.7073 -0.1150 -0.1562
  728TMC3    C610814   2.427   2.758  15.294  0.2139  0.4467 -0.9465
  728TMC3     C10815   2.417   2.766  15.706 -0.0823 -0.1382  0.3470
  728TMC3     O10816   2.519   2.808  15.755 -0.1261  0.5611 -0.3648
  728TMC3     H10817   2.620   2.799  15.564 -2.6389  0.3580  3.7807
  728TMC3    H110818   2.192   2.736  15.536  0.0019 -0.5084  1.7977
  728TMC3    H210819   2.449   2.770  15.188 -1.2869 -3.2628 -1.6811
  728TMC3    C710820   2.189   2.769  15.266 -0.7693 -0.0639  0.7480
  728TMC3    C810821   2.669   2.782  15.310 -0.4593  0.0947  0.1217
  728TMC3    O110822   2.083   2.773  15.325 -0.0117  0.4653  1.3719
  728TMC3    O210823   2.699   2.693  15.230  0.1098  0.3541 -0.1244
  729MPD2     C10824   4.217   3.360  16.566  0.1597  0.3867 -0.0794
  729MPD2    C110825   4.315   3.290  16.644 -0.0419 -0.6183 -0.3238
  729MPD2    C210826   4.290   3.296  16.780  0.4655 -0.6054 -0.2663
  729MPD2    C310827   4.191   3.374  16.831 -0.3512  0.7934 -0.3114
  729MPD2    C410828   4.102   3.439  16.754 -0.2108  0.3851 -0.1009
  729MPD2    C510829   4.111   3.430  16.617  0.1553 -0.0210  0.1050
  729MPD2     H10830   4.353   3.245  16.853 -1.3964  0.0621  1.7942
  729MPD2    H110831   4.019   3.495  16.796 -0.7729 -0.3421 -0.2270
  729MPD2    H210832   4.243   3.374  16.462 -1.5937 -1.3026 -0.7568
  729MPD2    H310833   4.043   3.477  16.547  1.0450  0.4839 -0.4158
  729MPD2     N10834   4.186   3.390  16.970 -0.2376 -0.7439 -0.1572
  729MPD2    H510835   4.243   3.317  17.013 -1.8344 -2.4415 -0.9443
  729MPD2    N110836   4.430   3.245  16.587  0.0363 -0.5648  0.6719
  729MPD2    H710837   4.441   3.256  16.487  1.3292  1.8264  1.0901
  730TMC3    C110838   4.185   3.487  17.185  0.6349  0.2650 -0.1828
  730TMC3    C210839   4.304   3.421  17.215 -0.6583  0.4094  0.0195
  730TMC3    C310840   4.355   3.441  17.341 -0.0381 -0.1335 -0.7192
  730TMC3    C410841   4.120   3.575  17.273  0.1281 -0.1529  0.0889
  730TMC3    C510842   4.172   3.581  17.399 -0.4961  0.2615 -0.2748
  730TMC3    C610843   4.281   3.509  17.439 -0.5964  0.1364 -0.0197
  730TMC3     C10844   4.136   3.496  17.045 -0.3731  0.6032 -1.1701
  730TMC3     O10845   4.071   3.596  17.022  0.6097 -0.2424  0.1957
  730TMC3     H10846   4.352   3.358  17.141 -0.0801 -1.7001  2.1822
  730TMC3    H110847   4.019   3.605  17.249 -0.6371 -2.2082  0.7731
  730TMC3    H210848   4.302   3.507  17.546 -1.5276 -0.5602  0.1521
  730TMC3    C710849   4.168   3.717  17.439  0.2854  0.4055 -0.3082
  730TMC3    C810850   4.491   3.492  17.334  0.0811  0.4301 -0.4274
  730TMC3    O110851   4.146   3.727  17.558 -0.2548  0.5810 -0.7046
  730TMC3    O210852   4.556   3.457  17.239 -0.3217  0.0411  0.1477
  731MPD2     C10853   4.292   2.101  12.241  0.1921 -0.6040 -0.4819
  731MPD2    C110854   4.427   2.110  12.265 -0.4007  0.3326 -0.2965
  731MPD2    C210855   4.470   2.129  12.398 -0.7949 -0.0329 -0.5589
  731MPD2    C310856   4.372   2.124  12.495  0.1345  0.1916 -0.5726
  731MPD2    C410857   4.241   2.112  12.469  0.1812 -0.4383 -0.0912
  731MPD2    C510858   4.205   2.097  12.345  0.1445 -0.5113 -0.3401
  731MPD2     H10859   4.576   2.132  12.421 -0.9636  0.1304  0.1980
  731MPD2    H110860   4.169   2.102  12.549 -0.2761 -0.6021 -0.5235
  731MPD2    H210861   4.257   2.108  12.138 -1.7931  0.7867  0.2756
  731MPD2    H310862   4.100   2.087  12.320 -0.1424  0.2480  0.5527
  731MPD2     N10863   4.418   2.132  12.625 -0.3555 -0.3989  0.0011
  731MPD2    H510864   4.519   2.128  12.635 -0.4899  1.7669  2.1976
  731MPD2    N110865   4.509   2.104  12.156  0.3972  0.5749  0.2560
  731MPD2    H710866   4.474   2.114  12.061  0.1201  0.5926  0.3582
  732TMC3    C110867   4.703   2.084  12.029 -0.4507 -0.1358 -0.3115
  732TMC3    C210868   4.621   2.075  11.918  0.1930  0.0330 -0.6202
  732TMC3    C310869   4.682   2.103  11.798  0.2743 -0.3531 -0.3215
  732TMC3    C410870   0.101   2.117  12.027 -0.2387 -0.0463  0.1672
  732TMC3    C510871   0.150   2.153  11.909  0.1845  0.0949  0.2350
  732TMC3    C610872   0.073   2.153  11.800  0.6853  0.4070 -0.0027
  732TMC3     C10873   4.646   2.080  12.162 -0.3961  0.7487 -0.3133
  732TMC3     O10874   4.724   2.079  12.255  0.0883  0.0930  0.1485
  732TMC3     H10875   4.528   2.022  11.936  1.2061 -1.8388 -0.8603
  732TMC3    H110876   0.163   2.091  12.112  0.4886 -0.2716 -0.4436
  732TMC3    H210877   0.112   2.187  11.704 -1.4317  1.5198 -0.4714
  732TMC3    C710878   0.285   2.200  11.914 -0.7870  0.1641 -0.0465
  732TMC3    C810879   4.611   2.085  11.668 -0.1232  0.1343  0.7235
  732TMC3    O110880   0.308   2.304  11.850  0.1669  0.5398  0.7202
  732TMC3    O210881   4.671   2.099  11.558 -0.2741  0.1043  0.0549
  733TMC3    C110882   0.758   0.348  12.807  0.7370 -0.0603 -0.2083
  733TMC3    C210883   0.872   0.422  12.843 -0.2984  0.2033  0.1366
  733TMC3    C310884   0.913   0.515  12.745 -0.5073 -0.0168  0.3840
  733TMC3    C410885   0.691   0.354  12.688 -0.3465  0.2606 -0.3036
  733TMC3    C510886   0.742   0.431  12.590 -0.0347  0.1405 -0.2355
  733TMC3    C610887   0.858   0.510  12.620 -0.1243 -0.6440  0.2340
  733TMC3     C10888   0.683   0.294  12.913  0.6368  0.4291  0.0832
  733TMC3     O10889   0.562   0.305  12.901  0.7441 -0.6205 -0.3863
  733TMC3     H10890   0.915   0.436  12.942  0.5389  1.2485 -0.3705
  733TMC3    H110891   0.604   0.289  12.683  0.8845 -1.6250  2.7457
  733TMC3    H210892   0.895   0.579  12.545  0.8909 -2.3837 -0.8726
  733TMC3    C710893   0.643   0.509  12.521 -0.3184  1.2339  0.5199
  733TMC3    C810894   0.976   0.641  12.787  0.2891  0.0683  0.4460
  733TMC3    O110895   0.536   0.518  12.571 -0.1870  0.0918 -0.2630
  733TMC3    O210896   0.943   0.673  12.901  0.3575 -0.1467  0.0245
  734MPD2     C10897   2.501   2.359  12.507  0.1233  0.2688  0.8281
  734MPD2    C110898   2.486   2.238  12.441 -0.7999  0.2320  0.4237
  734MPD2    C210899   2.540   2.232  12.311 -0.2798 -0.9706  0.4688
  734MPD2    C310900   2.613   2.339  12.257 -0.4999  0.2831  0.0686
  734MPD2    C410901   2.619   2.461  12.320  0.0344  0.3369  0.4581
  734MPD2    C510902   2.562   2.473  12.443  0.1114 -0.3678  0.2932
  734MPD2     H10903   2.521   2.150  12.243 -0.5818 -0.5441  0.0439
  734MPD2    H110904   2.658   2.551  12.274  0.8938  0.3456  1.1947
  734MPD2    H210905   2.451   2.380  12.601  0.0754 -0.0516  0.8745
  734MPD2    H310906   2.571   2.567  12.496  0.1569  0.0427 -0.4603
  734MPD2     N10907   2.642   2.318  12.118 -0.1594 -0.0729 -0.0181
  734MPD2    H510908   2.630   2.219  12.099  1.4072  0.0467 -1.6607
  734MPD2    N110909   2.401   2.145  12.503  0.2289  0.3351 -0.0869
  734MPD2    H710910   2.365   2.166  12.595 -0.8986 -3.4044  0.3443
  735TMC3    C110911   2.297   1.923  12.489  0.3757  0.5902  0.7631
  735TMC3    C210912   2.224   1.852  12.399 -0.7270 -0.8006  0.5962
  735TMC3    C310913   2.236   1.720  12.387 -1.0528  0.6918  0.2480
  735TMC3    C410914   2.366   1.862  12.588  0.4599 -0.4181 -0.1711
  735TMC3    C510915   2.368   1.718  12.582  0.1635  0.0917  0.1436
  735TMC3    C610916   2.304   1.650  12.479  0.5195  0.3334  0.3230
  735TMC3     C10917   2.336   2.044  12.430  0.8745  0.0706 -0.6524
  735TMC3     O10918   2.330   2.036  12.308  0.0849  0.9448 -0.1516
  735TMC3     H10919   2.137   1.902  12.356  0.3120  0.5862  0.1114
  735TMC3    H110920   2.428   1.921  12.654 -1.0704  0.8975  0.0861
  735TMC3    H210921   2.331   1.546  12.466 -0.6594 -0.1418  1.6564
  735TMC3    C710922   2.485   1.660  12.636 -1.0721  0.3463  0.8886
  735TMC3    C810923   2.248   1.671  12.251  0.2517 -0.2151 -0.4223
  735TMC3    O110924   2.468   1.540  12.661  0.7164  0.3932 -0.3309
  735TMC3    O210925   2.238   1.549  12.233 -0.2976 -0.1423 -0.4860
  736MPD2     C10926   2.772   1.567  12.666  0.1233 -0.8850  0.6045
  736MPD2    C110927   2.728   1.672  12.593  0.8643 -0.3529  0.4602
  736MPD2    C210928   2.817   1.736  12.509  0.2227  0.1269  0.5156
  736MPD2    C310929   2.951   1.700  12.497 -0.0650  0.1216 -0.0469
  736MPD2    C410930   2.996   1.596  12.580 -0.6049 -0.3437 -0.1049
  736MPD2    C510931   2.902   1.524  12.654 -0.3674  0.2151  0.9416
  736MPD2     H10932   2.772   1.817  12.453  0.8019 -0.4123 -0.7550
  736MPD2    H110933   3.102   1.574  12.581 -0.6725 -0.7095 -1.0210
  736MPD2    H210934   2.702   1.507  12.723 -1.0896  0.9809  1.0852
  736MPD2    H310935   2.930   1.442  12.719  0.1984 -0.9684 -0.8047
  736MPD2     N10936   3.046   1.760  12.416 -0.0862  0.8509  0.5824
  736MPD2    H510937   3.141   1.725  12.412 -0.7202 -1.1071  2.7580
  736MPD2    N110938   2.599   1.723  12.589 -0.0983 -0.5222  0.5419
  736MPD2    H710939   2.580   1.814  12.550  0.2092 -0.5703  0.2828
  737TMC3    C110940   3.109   1.884  12.216 -0.4484 -0.0040  0.2532
  737TMC3    C210941   3.076   1.994  12.145  0.0382 -0.1068  0.6746
  737TMC3    C310942   3.117   2.001  12.017  1.3936 -0.1301  0.2263
  737TMC3    C410943   3.170   1.774  12.157 -0.5765 -0.4309 -0.1180
  737TMC3    C510944   3.219   1.786  12.031 -0.3018 -0.1790 -0.1419
  737TMC3    C610945   3.197   1.907  11.960  0.6328  0.0792 -0.1194
  737TMC3     C10946   3.013   1.862  12.334 -0.4089  0.6550 -1.1872
  737TMC3     O10947   2.908   1.901  12.300 -0.3881  0.4499 -0.7498
  737TMC3     H10948   3.015   2.066  12.198 -1.4284 -1.1254  0.3963
  737TMC3    H110949   3.168   1.680  12.211 -1.1395  0.2827  1.0876
  737TMC3    H210950   3.232   1.919  11.858 -0.1566 -1.3402 -0.5602
  737TMC3    C710951   3.283   1.674  11.971  0.0426  0.1308 -0.0644
  737TMC3    C810952   3.101   2.126  11.949 -0.1833  0.2424  0.1075
  737TMC3    O110953   3.250   1.566  12.017 -0.1653  0.7969  0.4203
  737TMC3    O210954   3.100   2.221  12.024 -0.0441 -0.3965 -0.2072
  738MPD2     C10955   3.129   1.061  15.048  0.1613 -0.1648 -0.4291
  738MPD2    C110956   3.210   0.969  15.102  0.1517  0.4934 -0.5173
  738MPD2    C210957   3.346   0.992  15.105  0.5290  0.2298 -0.0154
  738MPD2    C310958   3.393   1.108  15.057  0.8648 -0.0146  0.3094
  738MPD2    C410959   3.306   1.199  14.997 -0.3617  0.5805 -0.3204
  738MPD2    C510960   3.176   1.180  15.001 -0.1146 -0.6687  0.2517
  738MPD2     H10961   3.404   0.914  15.153  3.1070  2.0528 -0.1647
  738MPD2    H110962   3.340   1.295  14.959  0.8094 -0.2336 -1.3314
  738MPD2    H210963   3.021   1.053  15.036  0.2626  1.2272 -2.2390
  738MPD2    H310964   3.090   1.234  14.964 -0.4107 -2.3619 -1.5123
  738MPD2     N10965   3.532   1.135  15.045 -0.4006  0.4428 -0.5275
  738MPD2    H510966   3.555   1.222  14.998  1.4329 -0.2605 -0.9475
  738MPD2    N110967   3.161   0.849  15.159 -0.2702  0.1549 -0.6525
  738MPD2    H710968   3.228   0.787  15.204 -2.7610 -1.0355  1.4286
  739TMC3    C110969   3.758   1.100  15.044 -0.5517  0.0826  0.5280
  739TMC3    C210970   3.779   1.164  14.921  0.0233  0.1007  0.0723
  739TMC3    C310971   3.887   1.246  14.899  0.1199  0.2759 -0.6406
  739TMC3    C410972   3.853   1.126  15.136 -0.0941 -0.1491  0.2421
  739TMC3    C510973   3.957   1.206  15.110 -0.1508 -0.5897 -1.3962
  739TMC3    C610974   3.972   1.277  14.989 -0.4491  0.2281 -0.1812
  739TMC3     C10975   3.630   1.062  15.091 -0.1343  0.8732  0.4835
  739TMC3     O10976   3.621   0.966  15.169  0.3724  0.3764  0.1391
  739TMC3     H10977   3.705   1.134  14.848 -0.1982  0.4159  0.1666
  739TMC3    H110978   3.824   1.089  15.233 -0.2384  1.3231  0.7634
  739TMC3    H210979   4.067   1.323  14.967  0.7481 -1.7656  0.8315
  739TMC3    C710980   4.053   1.232  15.219  0.4896 -0.5686  0.2539
  739TMC3    C810981   3.898   1.302  14.769 -0.6363  0.0441 -0.5291
  739TMC3    O110982   4.038   1.161  15.315 -0.2461 -0.3743  0.1475
  739TMC3    O210983   3.834   1.249  14.678  0.1824  0.4675 -0.1841
  740TMC3    C110984   4.198   2.517  14.645 -0.2122  0.2900 -0.4108
  740TMC3    C210985   4.192   2.404  14.726 -0.2184 -0.0546  0.2056
  740TMC3    C310986   4.308   2.345  14.765 -0.2207  0.3277  0.4374
  740TMC3    C410987   4.314   2.568  14.598 -0.2513  0.1218 -0.1287
  740TMC3    C510988   4.429   2.497  14.637 -0.3935 -0.1816  0.2417
  740TMC3    C610989   4.427   2.398  14.729  0.3627 -0.0914 -0.0878
  740TMC3     C10990   4.073   2.588  14.614 -0.5682  0.2871 -0.4551
  740TMC3     O10991   4.080   2.687  14.541  0.3466  0.1353 -0.0365
  740TMC3     H10992   4.102   2.376  14.778 -1.5280 -0.4793 -2.2822
  740TMC3    H110993   4.316   2.656  14.534  0.5679  0.5371  0.4659
  740TMC3    H210994   4.515   2.340  14.754  0.4861  0.0861 -0.1073
  740TMC3    C710995   4.550   2.538  14.568  0.1107 -0.1793 -0.6204
  740TMC3    C810996   4.289   2.237  14.869 -0.1644  0.4200  0.3551
  740TMC3    O110997   4.657   2.536  14.633 -0.2774 -0.4300 -1.3384
  740TMC3    O210998   4.176   2.186  14.866  0.3170  0.4119 -0.1495
  741TMC3    C110999   3.324   0.859  14.594 -0.4425 -0.0697 -0.5977
  741TMC3    C211000   3.202   0.863  14.662  0.4277  0.5247 -0.7840
  741TMC3    C311001   3.164   0.983  14.694  0.1054  0.0953  0.6859
  741TMC3    C411002   3.406   0.974  14.577 -0.0379 -0.6084  0.9691
  741TMC3    C511003   3.344   1.095  14.605  0.6554  0.3760  0.1564
  741TMC3    C611004   3.223   1.100  14.665 -0.1888 -0.5928  0.2683
  741TMC3     C11005   3.360   0.739  14.526  1.2372  0.7319  0.5509
  741TMC3     O11006   3.257   0.679  14.497 -0.7937  0.1935  0.5559
  741TMC3     H11007   3.131   0.783  14.647 -0.1770  0.8602  0.2546
  741TMC3    H111008   3.502   0.969  14.526 -0.9772  0.3032 -0.8852
  741TMC3    H211009   3.179   1.193  14.699  1.8532  0.4101  0.2024
  741TMC3    C711010   3.432   1.212  14.621 -0.5703 -0.0088 -0.0780
  741TMC3    C811011   3.024   1.004  14.683  0.7087 -0.2050  0.2495
  741TMC3    O111012   3.552   1.202  14.618  0.7522  0.6465 -0.2089
  741TMC3    O211013   2.981   1.114  14.650 -0.7617 -0.0299 -0.1418
  742TMC3    C111014   3.595   4.439  15.490 -0.4153  0.5836 -0.5838
  742TMC3    C211015   3.522   4.485  15.391 -0.1611 -0.3564 -0.3792
  742TMC3    C311016   3.589   4.501  15.266 -0.4351  0.1767 -0.0678
  742TMC3    C411017   3.734   4.436  15.488  0.5221  0.3304 -0.4357
  742TMC3    C511018   3.790   4.498  15.380  0.3991  0.4017  0.4769
  742TMC3    C611019   3.724   4.522  15.263  0.7388 -0.4957  1.0903
  742TMC3     C11020   3.524   4.453  15.619  0.0048  0.1167  0.7532
  742TMC3     O11021   3.426   4.529  15.627  0.4295 -0.1155  0.2900
  742TMC3     H11022   3.415   4.469  15.390 -0.2710  0.1697  1.4301
  742TMC3    H111023   3.797   4.401  15.569  0.2570  3.1220  0.9808
  742TMC3    H211024   3.775   4.540  15.169 -0.2693 -3.6405 -0.0722
  742TMC3    C711025   3.935   4.494  15.353 -0.0261 -0.0001 -0.2885
  742TMC3    C811026   3.524   4.470  15.139 -0.3443 -0.7578 -0.1263
  742TMC3    O111027   3.978   4.488  15.236  0.1112 -0.1637  0.0152
  742TMC3    O211028   3.599   4.447  15.050 -0.1464  0.4313 -0.4022
  743MPD2     C11029   1.881   0.135   1.574  0.6464  0.2162 -0.4111
  743MPD2    C111030   1.902   0.135   1.438  0.2287 -0.1979 -0.4722
  743MPD2    C211031   2.027   0.170   1.392  0.4694 -0.2407 -0.2956
  743MPD2    C311032   2.122   0.207   1.479  0.2184  0.1832 -0.8072
  743MPD2    C411033   2.106   0.204   1.615 -0.0686 -0.4447  0.4939
  743MPD2    C511034   1.985   0.161   1.661 -0.1550 -0.2063 -0.3344
  743MPD2     H11035   2.044   0.191   1.287  1.0690 -0.5185 -0.2554
  743MPD2    H111036   2.176   0.242   1.688  2.0625  0.1003 -1.8163
  743MPD2    H211037   1.787   0.106   1.620  0.2454  0.5486 -1.0246
  743MPD2    H311038   1.972   0.158   1.768 -1.6293 -2.6537 -0.5815
  743MPD2     N11039   2.243   0.255   1.421 -0.0468 -0.2303  0.7393
  743MPD2    H511040   2.258   0.243   1.322  0.5450 -2.6517  1.1192
  743MPD2    N111041   1.794   0.116   1.347  0.5848 -0.4137  0.7527
  743MPD2    H711042   1.706   0.096   1.395 -0.2184  0.1266 -0.4852
  744TMC3    C111043   1.670   0.105   1.150  0.4294  0.2524  0.3418
  744TMC3    C211044   1.561   0.171   1.211 -0.3306 -0.8394 -0.0168
  744TMC3    C311045   1.448   0.194   1.131 -0.7500 -0.3748  0.1942
  744TMC3    C411046   1.661   0.059   1.019 -0.5925 -0.4361 -1.0130
  744TMC3    C511047   1.552   0.089   0.948 -0.4438 -0.3406 -0.9345
  744TMC3    C611048   1.444   0.152   1.002 -0.2964  0.3242  0.0276
  744TMC3     C11049   1.801   0.107   1.215 -0.2113  0.0635  0.0679
  744TMC3     O11050   1.901   0.089   1.149  0.2084 -0.3784  0.1983
  744TMC3     H11051   1.580   0.228   1.301 -0.6585  1.0573 -1.1476
  744TMC3    H111052   1.743   0.020   0.959 -0.4982 -2.4563  0.4259
  744TMC3    H211053   1.355   0.169   0.942 -0.8528 -0.9676  0.4786
  744TMC3    C711054   1.581   0.115   0.807  0.6056 -0.0244 -0.3030
  744TMC3    C811055   1.317   0.256   1.171 -0.6130  0.6055 -0.1601
  744TMC3    O111056   1.686   0.170   0.780  0.4496 -0.2645  0.1477
  744TMC3    O211057   1.238   0.283   1.083  0.5472 -0.4444 -0.4878
  745TMC3    C111058   4.290   4.498  13.905  0.5375 -0.4609  0.0521
  745TMC3    C211059   4.171   4.484  13.977 -0.4439 -0.1735  0.2580
  745TMC3    C311060   4.055   4.482  13.905 -0.3289  0.2464 -1.0457
  745TMC3    C411061   4.296   4.504  13.767  0.0709 -0.7909 -0.3596
  745TMC3    C511062   4.175   4.504  13.704 -0.0538 -0.2027 -0.3333
  745TMC3    C611063   4.057   4.480  13.770 -0.1930 -0.5608  0.4782
  745TMC3     C11064   4.415   4.527  13.980 -0.0818 -0.2119 -0.4379
  745TMC3     O11065   4.522   4.487  13.928 -0.1310 -0.3882  0.6108
  745TMC3     H11066   4.178   4.432  14.072 -0.6694 -0.9688 -0.1643
  745TMC3    H111067   4.386   4.515  13.708  1.1418  1.7868  1.7827
  745TMC3    H211068   3.968   4.480  13.708  0.2241 -1.1442 -0.1203
  745TMC3    C711069   4.169   4.576  13.574 -0.1524 -0.0714 -0.4040
  745TMC3    C811070   3.929   4.475  13.978  0.0455  0.3361 -0.0332
  745TMC3    O111071   4.074   4.554  13.501  0.3166 -0.1132 -0.4316
  745TMC3    O211072   3.832   4.428  13.922 -0.3338 -0.2565 -0.3001
  746TMC3    C111073   1.822   2.107  11.037 -0.3796  0.0365 -0.6443
  746TMC3    C211074   1.892   2.048  10.932 -0.3286 -0.1445 -0.0249
  746TMC3    C311075   1.831   1.930  10.874  0.0451 -0.9050  0.0894
  746TMC3    C411076   1.700   2.062  11.084  0.0735  0.3096  0.1261
  746TMC3    C511077   1.664   1.941  11.033  0.0107 -0.8918  0.8206
  746TMC3    C611078   1.727   1.869  10.936 -0.1891 -0.0865  0.4615
  746TMC3     C11079   1.869   2.236  11.090  1.0370 -0.2521  0.5418
  746TMC3     O11080   1.830   2.272  11.199  0.5050  0.4885  0.5644
  746TMC3     H11081   1.991   2.082  10.908 -0.5331  1.0463  0.8073
  746TMC3    H111082   1.638   2.122  11.151  0.3780 -0.7537  1.3617
  746TMC3    H211083   1.683   1.776  10.901  0.6150 -0.3855  0.2423
  746TMC3    C711084   1.527   1.895  11.061  0.6550 -0.1951 -1.0531
  746TMC3    C811085   1.899   1.857  10.771 -0.5257  0.3193  0.0329
  746TMC3    O111086   1.474   1.827  10.968 -0.3265  0.3044 -0.2831
  746TMC3    O211087   2.020   1.872  10.762 -0.5543  0.1092  0.2754
  747TMC3    C111088   3.708   1.791  11.028  0.0100  0.7657 -0.7044
  747TMC3    C211089   3.667   1.693  11.115  0.2770  0.1891 -0.1963
  747TMC3    C311090   3.694   1.707  11.248 -0.3389 -0.3707  0.2483
  747TMC3    C411091   3.758   1.905  11.080 -0.6109 -0.0157  0.4277
  747TMC3    C511092   3.774   1.913  11.218  0.0656 -0.0215 -0.1204
  747TMC3    C611093   3.746   1.823  11.303  0.3291  0.1368  0.1033
  747TMC3     C11094   3.651   1.804  10.892 -0.3068 -0.3043  0.4128
  747TMC3     O11095   3.599   1.908  10.860  0.2582  0.2746 -0.3312
  747TMC3     H11096   3.641   1.596  11.073 -1.0895  0.2345  0.5879
  747TMC3    H111097   3.776   1.993  11.019  2.5594 -0.2444  1.0420
  747TMC3    H211098   3.765   1.850  11.407 -0.3104 -0.5348  0.3915
  747TMC3    C711099   3.805   2.043  11.273 -0.3128  0.4067  0.0876
  747TMC3    C811100   3.643   1.610  11.339 -0.5973 -0.2894  0.2090
  747TMC3    O111101   3.834   2.055  11.391  0.9049 -0.0679 -0.7685
  747TMC3    O211102   3.623   1.503  11.291 -0.0576  0.4937  0.1826
  748MPD2     C11103   0.988   1.795   1.613 -0.4215  0.0131  0.0988
  748MPD2    C111104   1.016   1.799   1.480 -0.0844 -0.3352 -0.2124
  748MPD2    C211105   1.130   1.864   1.435  0.0938  0.1478 -0.3221
  748MPD2    C311106   1.213   1.922   1.535 -0.4329 -0.0161  0.6104
  748MPD2    C411107   1.186   1.921   1.673  0.4830  0.2628  0.0539
  748MPD2    C511108   1.072   1.853   1.702  0.6806 -0.4136  0.4119
  748MPD2     H11109   1.144   1.876   1.328  2.6384 -0.9035 -0.0954
  748MPD2    H111110   1.242   1.973   1.750  0.1838 -1.9444  1.7522
  748MPD2    H211111   0.901   1.740   1.646 -0.5600  0.3671  0.3135
  748MPD2    H311112   1.049   1.849   1.807 -0.2218  1.8903  0.3080
  748MPD2     N11113   1.332   1.979   1.488 -0.5066 -0.4349 -0.5776
  748MPD2    H511114   1.340   1.999   1.388  0.3071 -2.1106 -0.8486
  748MPD2    N111115   0.921   1.739   1.391  0.0637 -0.0975 -0.4064
  748MPD2    H711116   0.852   1.673   1.427  0.6667  0.3146  1.5325
  749TMC3    C111117   1.563   2.013   1.463 -0.6873  0.1747 -0.5662
  749TMC3    C211118   1.688   1.956   1.495  0.1637  0.1349 -0.2089
  749TMC3    C311119   1.795   2.045   1.477  0.1999 -0.3815  0.9036
  749TMC3    C411120   1.553   2.121   1.376  0.1744 -0.6689 -0.0088
  749TMC3    C511121   1.674   2.194   1.354 -0.1058 -0.0645  0.1576
  749TMC3    C611122   1.792   2.163   1.413  0.0590 -0.3780 -0.7251
  749TMC3     C11123   1.452   1.983   1.556  0.2166 -0.1151 -0.8584
  749TMC3     O11124   1.483   1.935   1.665  0.3556 -0.3965 -0.3229
  749TMC3     H11125   1.677   1.877   1.569 -0.2637 -0.7616 -1.2197
  749TMC3    H111126   1.453   2.158   1.356  0.7193 -0.4141 -2.1996
  749TMC3    H211127   1.881   2.223   1.403 -0.7891  0.5289 -3.0264
  749TMC3    C711128   1.668   2.303   1.273 -0.5929 -0.4045  0.0189
  749TMC3    C811129   1.921   1.993   1.520 -0.2233 -0.2836  0.0851
  749TMC3    O111130   1.765   2.381   1.273  0.2587  0.1352  0.5265
  749TMC3    O211131   2.011   2.068   1.565  0.0321  0.8261  0.1580
  750MPD2     C11132   1.549   3.810  11.077 -0.7417  0.1920  0.0900
  750MPD2    C111133   1.526   3.742  11.194  0.6056 -0.1311 -0.5072
  750MPD2    C211134   1.566   3.604  11.199  0.0783  0.4502 -0.7432
  750MPD2    C311135   1.639   3.540  11.103  0.2495  1.2224  0.2939
  750MPD2    C411136   1.670   3.614  10.987 -0.0605 -0.1021 -0.2434
  750MPD2    C511137   1.615   3.739  10.969 -0.1718  0.4857  0.1979
  750MPD2     H11138   1.557   3.552  11.294  1.6832  1.9103  0.2129
  750MPD2    H111139   1.734   3.577  10.908 -0.8312  1.5148 -1.6346
  750MPD2    H211140   1.527   3.914  11.055  1.1457  0.7061  0.6521
  750MPD2    H311141   1.628   3.783  10.871 -0.4636  2.5843  1.1049
  750MPD2     N11142   1.708   3.414  11.122  0.0167  0.5339 -0.2260
  750MPD2    H511143   1.759   3.384  11.040 -1.6978  2.2260 -1.9458
  750MPD2    N111144   1.480   3.816  11.308 -0.3352  0.0233 -0.4313
  750MPD2    H711145   1.474   3.917  11.300  0.9491  0.0005 -1.6016
  751TMC3    C111146   1.790   3.220  11.224 -0.2550  0.1189 -0.4039
  751TMC3    C211147   1.815   3.161  11.343  0.7277 -0.9037  0.0438
  751TMC3    C311148   1.891   3.046  11.345 -0.5083  0.3495 -0.2138
  751TMC3    C411149   1.840   3.179  11.106  0.1449  0.1957  0.2721
  751TMC3    C511150   1.920   3.068  11.114 -0.1642  0.5800  1.0974
  751TMC3    C611151   1.938   3.001  11.227 -0.3216  0.8567  0.5574
  751TMC3     C11152   1.717   3.343  11.241 -0.2451  0.4020 -0.0671
  751TMC3     O11153   1.671   3.371  11.353  0.6318  0.7414 -0.2700
  751TMC3     H11154   1.801   3.207  11.440  0.4446 -1.0826  0.0873
  751TMC3    H111155   1.826   3.214  11.004 -1.7021  0.2877  0.5608
  751TMC3    H211156   1.998   2.910  11.231 -1.9080 -0.2414 -0.5662
  751TMC3    C711157   1.869   2.973  11.018  0.9797 -1.4178  0.7224
  751TMC3    C811158   1.839   2.929  11.418  0.7564  0.5004 -0.1230
  751TMC3    O111159   1.863   3.004  10.903  0.8277  0.1212  0.2713
  751TMC3    O211160   1.841   2.823  11.363  0.2067  0.3016 -0.1747
  752TMC3    C111161   0.142   3.242  17.614 -0.1095 -0.2782 -0.4308
  752TMC3    C211162   0.194   3.154  17.704 -0.0476 -0.7231 -0.0337
  752TMC3    C311163   0.116   3.109   0.061  0.3081  0.2034 -0.1692
  752TMC3    C411164   0.013   3.290  17.633 -0.3133 -0.1813 -0.0506
  752TMC3    C511165   4.674   3.247  17.739  0.3287  0.3520 -0.6911
  752TMC3    C611166   4.725   3.149   0.080 -0.0864  0.7177 -0.3689
  752TMC3     C11167   0.222   3.282  17.499 -0.1406  0.0488  0.2507
  752TMC3     O11168   0.344   3.277  17.504  0.6123  0.1591 -0.0407
  752TMC3     H11169   0.278   3.099  17.664  0.5064 -0.5633  0.9134
  752TMC3    H111170   4.707   3.373  17.577 -0.9487 -0.1331  0.5033
  752TMC3    H211171   4.673   3.096   0.159  0.6451  1.0289  0.3222
  752TMC3    C711172   4.535   3.292   0.004 -0.2651  0.3100 -0.0401
  752TMC3    C811173   0.139   2.981   0.126 -0.4850 -0.4001  0.0607
  752TMC3    O111174   4.486   3.354  17.653  0.4956 -0.5120 -0.3592
  752TMC3    O211175   0.049   2.899   0.127 -0.4770 -0.2490  0.5753
  753TMC3    C111176   2.190   4.070  13.603 -0.4081  0.7001 -0.9331
  753TMC3    C211177   2.301   4.103  13.680 -0.6955 -0.4482 -0.4162
  753TMC3    C311178   2.364   3.999  13.738 -0.2175 -0.1001  0.3374
  753TMC3    C411179   2.133   3.948  13.590  0.7755 -0.2348  0.5244
  753TMC3    C511180   2.198   3.845  13.649  0.1114 -0.3900 -0.9218
  753TMC3    C611181   2.318   3.866  13.723 -0.7450  0.3421 -0.4727
  753TMC3     C11182   2.174   4.160  13.493 -0.3479 -0.1327 -0.5073
  753TMC3     O11183   2.194   4.281  13.508 -0.4358 -0.0568 -0.4849
  753TMC3     H11184   2.348   4.197  13.656  2.4796 -1.6833  1.0055
  753TMC3    H111185   2.028   3.935  13.562  0.2711  3.1094  0.8906
  753TMC3    H211186   2.367   3.783  13.773 -2.1431  0.0616  0.4199
  753TMC3    C711187   2.111   3.735  13.682  0.5901  0.3879 -0.4779
  753TMC3    C811188   2.463   4.023  13.838  0.7728 -0.3311 -0.5586
  753TMC3    O111189   1.997   3.763  13.717  0.4837  0.1176  0.2501
  753TMC3    O211190   2.534   3.926  13.863  0.1979 -0.4843 -0.2419
  754MPD2     C11191   1.745   3.647  13.112 -0.0821 -0.2333 -0.0360
  754MPD2    C111192   1.678   3.678  13.223  1.4475 -0.1272  0.1497
  754MPD2    C211193   1.539   3.674  13.216  0.8715  0.3173  0.1465
  754MPD2    C311194   1.471   3.640  13.100  0.5961 -0.1999  0.1015
  754MPD2    C411195   1.545   3.634  12.988 -0.3998  0.1587 -0.5729
  754MPD2    C511196   1.681   3.632  12.989  0.4854  0.1435  0.0899
  754MPD2     H11197   1.479   3.698  13.303  0.0107  0.1699 -0.4085
  754MPD2    H111198   1.488   3.622  12.897  1.6382 -2.4496 -1.4965
  754MPD2    H211199   1.853   3.647  13.116 -0.2312 -1.6090  3.5519
  754MPD2    H311200   1.743   3.600  12.906  2.7656 -0.1601  1.8975
  754MPD2     N11201   1.338   3.606  13.090  0.0079  0.0899  0.1047
  754MPD2    H511202   1.306   3.565  13.003  1.4412 -1.7360  0.4357
  754MPD2    N111203   1.751   3.673  13.338  0.7557  0.6174  0.1364
  754MPD2    H711204   1.844   3.633  13.334  0.8509  0.8835 -0.3303
  755MPD2     C11205   0.297   3.386  13.396  0.6932  0.0361  0.1294
  755MPD2    C111206   0.359   3.508  13.389 -0.1951 -0.5595 -0.1919
  755MPD2    C211207   0.495   3.505  13.361  0.3474 -0.1008 -0.0547
  755MPD2    C311208   0.559   3.380  13.337  0.4570  0.3411  0.1089
  755MPD2    C411209   0.489   3.265  13.350 -0.0103  0.7797  0.1701
  755MPD2    C511210   0.357   3.271  13.378 -0.6593 -0.1384 -0.3784
  755MPD2     H11211   0.557   3.589  13.333  1.6334 -1.0660 -0.1181
  755MPD2    H111212   0.538   3.170  13.333 -2.4532 -0.2546 -1.1566
  755MPD2    H211213   0.191   3.385  13.418  0.7241  1.4882  0.3286
  755MPD2    H311214   0.297   3.183  13.398 -1.5700  0.6294  0.2492
  755MPD2     N11215   0.693   3.370  13.292  0.9768  0.0073  0.2257
  755MPD2    H511216   0.728   3.280  13.260  1.3031  0.2115  0.0017
  755MPD2    N111217   0.299   3.637  13.416 -0.0703 -0.2066 -0.3355
  755MPD2    H711218   0.352   3.721  13.438  0.0725 -0.5207  0.5234
  756MPD2     C11219   0.932   0.057  10.004  0.1212 -0.7400 -0.3356
  756MPD2    C111220   0.852   4.700  10.068 -0.3431  0.9745  0.1422
  756MPD2    C211221   0.764   4.631   9.999  0.7122  0.6691 -0.9985
  756MPD2    C311222   0.744   4.650   9.864 -0.1891 -0.2024 -0.9363
  756MPD2    C411223   0.825   0.011   9.795 -0.1431 -0.3099  0.3711
  756MPD2    C511224   0.916   0.074   9.870  0.2166 -0.4525  0.4151
  756MPD2     H11225   0.704   4.548  10.036  1.2754 -0.0758 -1.7449
  756MPD2    H111226   0.825   0.031   9.688 -3.3865  0.4295  0.4805
  756MPD2    H211227   1.008   0.109  10.061 -1.6075 -1.4920  2.6659
  756MPD2    H311228   0.985   0.137   9.815 -0.0395 -0.4790  0.0646
  756MPD2     N11229   0.640   4.570   9.802  0.3219 -0.3591  1.0160
  756MPD2    H511230   0.590   4.507   9.864 -0.9713  0.7127  1.0639
  756MPD2    N111231   0.868   4.659  10.205 -0.4124 -0.3820 -0.6980
  756MPD2    H711232   0.813   4.583  10.243  0.7918 -0.4951  0.8271
  757MPD2     C11233   0.148   3.954  10.166  0.5063 -0.5022 -0.0754
  757MPD2    C111234   0.263   3.920  10.098  0.1546  0.2419  0.1033
  757MPD2    C211235   0.307   3.990   9.986 -0.3283  0.8172  0.9642
  757MPD2    C311236   0.242   4.108   9.947 -0.0879 -0.1534  0.1421
  757MPD2    C411237   0.128   4.142  10.018 -0.4787  0.5336 -0.4266
  757MPD2    C511238   0.083   4.064  10.121 -0.3137  0.2182 -0.0590
  757MPD2     H11239   0.389   3.953   9.925 -2.1197 -0.2548 -0.7889
  757MPD2    H111240   0.066   4.226   9.989  1.0654  1.3317 -1.3930
  757MPD2    H211241   0.114   3.899  10.253 -0.3355 -2.2940 -1.5330
  757MPD2    H311242   4.727   4.093  10.169 -1.1244 -0.3216 -1.3103
  757MPD2     N11243   0.286   4.187   9.841 -0.1189  0.5977 -0.0505
  757MPD2    H511244   0.357   4.150   9.778 -0.4347  0.9265 -0.5915
  757MPD2    N111245   0.326   3.805  10.145 -0.4976 -0.3560 -0.8556
  757MPD2    H711246   0.281   3.755  10.221  0.1729 -0.3198 -0.4337
  758MPD2     C11247   1.395   3.303  16.038 -0.5827 -0.5549 -0.2831
  758MPD2    C111248   1.414   3.178  16.087 -0.0335  0.1437 -0.3810
  758MPD2    C211249   1.328   3.126  16.187  0.7918 -0.3559 -0.5252
  758MPD2    C311250   1.221   3.195  16.234  0.6802  0.3868  0.3369
  758MPD2    C411251   1.195   3.317  16.175 -0.4487  0.0919  0.9271
  758MPD2    C511252   1.282   3.370  16.080 -0.1538  0.6552  0.3581
  758MPD2     H11253   1.350   3.028  16.227  2.2613  0.0948 -0.2065
  758MPD2    H111254   1.114   3.382  16.205 -0.5285 -0.5863  2.1580
  758MPD2    H211255   1.471   3.356  15.983 -1.6998 -0.0530 -1.3314
  758MPD2    H311256   1.256   3.466  16.037 -0.2307  2.1170  3.7481
  758MPD2     N11257   1.148   3.152  16.346  0.2286 -0.2086  0.5481
  758MPD2    H511258   1.093   3.227  16.388 -2.0898 -2.2728  1.1715
  758MPD2    N111259   1.532   3.113  16.047 -0.4720  0.3011  0.3114
  758MPD2    H711260   1.572   3.161  15.967  2.7189 -1.6502  0.7415
  759MPD2     C11261   4.637   1.173  10.261  0.0918  0.0187  0.3457
  759MPD2    C111262   4.549   1.114  10.182 -0.9059  0.4309  0.3304
  759MPD2    C211263   4.562   1.124  10.045 -0.1354 -0.1450  0.0273
  759MPD2    C311264   4.644   1.210   9.984 -0.2148  0.5202  0.6056
  759MPD2    C411265   0.001   1.270  10.069 -0.3693 -0.4462 -0.1195
  759MPD2    C511266   4.732   1.250  10.201  0.0212 -0.7042 -0.6428
  759MPD2     H11267   4.490   1.083   9.974 -1.4474 -0.2221  1.4011
  759MPD2    H111268   0.080   1.328  10.023 -1.2938  1.2454  0.4538
  759MPD2    H211269   4.653   1.150  10.366  0.6666  0.1108  0.2766
  759MPD2    H311270   0.064   1.303  10.267 -0.1279  1.0850 -1.9157
  759MPD2     N11271   4.647   1.223   9.842  0.4118 -0.4217 -0.0366
  759MPD2    H511272   4.561   1.193   9.796 -0.3419  0.9634  0.4416
  759MPD2    N111273   4.451   1.031  10.241  0.2115 -0.1669 -0.0053
  759MPD2    H711274   4.394   0.972  10.181 -1.0930 -0.4002  1.4704
  760MPD2     C11275   4.290   3.561  12.281  0.1300  0.3727 -0.0690
  760MPD2    C111276   4.398   3.576  12.203 -0.0972 -0.6165 -0.0548
  760MPD2    C211277   4.472   3.465  12.169  0.3769 -0.0374 -0.2339
  760MPD2    C311278   4.428   3.338  12.204 -0.1817 -0.3903  0.1480
  760MPD2    C411279   4.314   3.330  12.280  0.3973  0.1654 -0.1775
  760MPD2    C511280   4.247   3.436  12.318 -0.0437  1.0569 -0.0918
  760MPD2     H11281   4.562   3.482  12.111  0.6009 -3.0725 -0.7874
  760MPD2    H111282   4.280   3.232  12.312 -0.4998  0.4898 -0.1339
  760MPD2    H211283   4.228   3.647  12.306  0.9496  1.0488 -0.3866
  760MPD2    H311284   4.165   3.425  12.389  1.3888 -1.1445  1.2292
  760MPD2     N11285   4.488   3.215  12.174  0.3881  0.2438  0.4951
  760MPD2    H511286   4.447   3.128  12.208 -1.8885  1.9694  2.1757
  760MPD2    N111287   4.445   3.702  12.160 -0.4968 -0.0703  0.1476
  760MPD2    H711288   4.544   3.704  12.135 -0.2337 -0.5378  1.1347
  761MPD2     C11289   1.467   2.777  11.746  0.0431 -0.4056 -0.6250
  761MPD2    C111290   1.508   2.719  11.627 -0.2467  0.3069 -0.2010
  761MPD2    C211291   1.616   2.773  11.558  0.2036  0.5530  0.2678
  761MPD2    C311292   1.671   2.893  11.602  0.3978  0.1860  0.4373
  761MPD2    C411293   1.632   2.942  11.724  0.1798  0.5426  0.1372
  761MPD2    C511294   1.531   2.887  11.795 -0.3459  0.5678 -0.8045
  761MPD2     H11295   1.651   2.729  11.465  1.0753  1.6879  0.0576
  761MPD2    H111296   1.690   3.024  11.766  0.0159  0.6754  0.1046
  761MPD2    H211297   1.390   2.731  11.807 -0.5393 -0.7207 -1.5997
  761MPD2    H311298   1.516   2.913  11.899  2.3624  0.7224 -0.4476
  761MPD2     N11299   1.777   2.962  11.532 -0.1063  0.1599  0.3591
  761MPD2    H511300   1.811   3.043  11.584 -0.5545 -0.6274  1.8741
  761MPD2    N111301   1.438   2.604  11.576  0.1366 -0.4418 -0.3931
  761MPD2    H711302   1.353   2.573  11.622  0.6971 -1.2879  0.0634
  762MPD2     C11303   1.060   2.154  10.877 -0.2422  0.1131  0.0967
  762MPD2    C111304   1.188   2.172  10.918  0.2060  0.4158 -0.1470
  762MPD2    C211305   1.287   2.148  10.825 -0.1748 -0.0131  0.0363
  762MPD2    C311306   1.257   2.112  10.692 -0.0173  0.4732  0.1365
  762MPD2    C411307   1.128   2.116  10.651  0.1103 -0.4903  0.2542
  762MPD2    C511308   1.032   2.132  10.745  0.0482  0.0435 -0.9710
  762MPD2     H11309   1.393   2.147  10.850 -0.2078 -1.3502  0.1178
  762MPD2    H111310   1.095   2.096  10.550  0.0075 -2.9650  0.7627
  762MPD2    H211311   0.975   2.186  10.936  0.0872  1.7789 -0.3325
  762MPD2    H311312   0.928   2.125  10.718  0.1124  1.0215 -1.4666
  762MPD2     N11313   1.366   2.098  10.605 -0.1571 -0.1385  0.0320
  762MPD2    H511314   1.461   2.098  10.639 -0.1275  0.1944 -0.0529
  762MPD2    N111315   1.210   2.214  11.055 -0.5253  0.4194 -0.0105
  762MPD2    H711316   1.128   2.213  11.115 -0.0162  1.1737  0.7070
  763MPD2     C11317   2.704   2.891  16.402 -0.3206  0.0404  0.7091
  763MPD2    C111318   2.809   2.951  16.338  0.6529 -0.4887  0.0005
  763MPD2    C211319   2.879   3.049  16.416 -0.0704 -0.2261 -1.2325
  763MPD2    C311320   2.857   3.072  16.551 -0.6570  0.0818  0.0849
  763MPD2    C411321   2.751   3.009  16.605  1.0001  0.7134 -0.0708
  763MPD2    C511322   2.667   2.926  16.528  0.4989 -0.4889 -0.3646
  763MPD2     H11323   2.958   3.094  16.357  2.1977  0.4620  2.3243
  763MPD2    H111324   2.732   3.021  16.711 -1.0189 -0.2714 -0.3154
  763MPD2    H211325   2.647   2.812  16.356  1.1907 -1.0391  0.6947
  763MPD2    H311326   2.595   2.863  16.578 -0.5870  0.9495 -0.1011
  763MPD2     N11327   2.926   3.151  16.639  0.0193 -0.3922  0.3580
  763MPD2    H511328   2.888   3.163  16.733 -0.6631  1.6791 -0.1859
  763MPD2    N111329   2.844   2.927  16.202  0.4510 -0.6755 -0.0354
  763MPD2    H711330   2.898   3.001  16.157 -0.5499 -1.1247 -1.9466
  764MPD2     C11331   0.755   4.461   0.312  0.0073 -0.6006 -0.5652
  764MPD2    C111332   0.664   4.364   0.278 -0.2584  0.6297  0.4992
  764MPD2    C211333   0.655   4.261   0.369 -0.3706 -0.3836 -0.1523
  764MPD2    C311334   0.731   4.251   0.489  0.2841  0.2812 -0.9340
  764MPD2    C411335   0.809   4.356   0.517 -0.4637  0.1116  0.2099
  764MPD2    C511336   0.826   4.462   0.425 -0.1330 -0.3222 -0.1110
  764MPD2     H11337   0.576   4.190   0.350 -0.3650  0.0704 -1.9139
  764MPD2    H111338   0.867   4.360   0.609  1.0556 -1.8128 -0.6713
  764MPD2    H211339   0.775   4.544   0.245  1.5903 -0.5333  0.0118
  764MPD2    H311340   0.899   4.539   0.446 -0.0837  0.5972 -3.6733
  764MPD2     N11341   0.711   4.148   0.581  0.0136  0.1450 -0.0528
  764MPD2    H511342   0.625   4.094   0.581  1.6428 -2.4535  0.3710
  764MPD2    N111343   0.587   4.359   0.161  0.1633  0.6790  0.4215
  764MPD2    H711344   0.525   4.278   0.161  0.1885  0.6608 -1.0838
  765MPD2     C11345   1.204   2.537  16.340 -0.7109 -0.1249 -0.2247
  765MPD2    C111346   1.264   2.581  16.222  0.3602  0.4822  0.3388
  765MPD2    C211347   1.373   2.511  16.171  0.7693  0.1351  0.6463
  765MPD2    C311348   1.425   2.405  16.242 -0.0273 -0.5810  0.4590
  765MPD2    C411349   1.368   2.365  16.362 -0.0081  0.5229  0.0465
  765MPD2    C511350   1.260   2.432  16.409 -0.0263 -0.3406  0.2053
  765MPD2     H11351   1.426   2.547  16.084  0.6540  1.5033  1.1294
  765MPD2    H111352   1.410   2.285  16.422 -0.5496 -0.5897 -1.0582
  765MPD2    H211353   1.120   2.596  16.375  0.1386  0.5944  0.6096
  765MPD2    H311354   1.224   2.398  16.506  1.9243  0.3752  1.1793
  765MPD2     N11355   1.545   2.351  16.197 -0.2539 -0.1285  0.2271
  765MPD2    H511356   1.589   2.397  16.119 -1.9231 -0.6072 -1.0033
  765MPD2    N111357   1.214   2.700  16.159  0.1427  0.0079  0.6766
  765MPD2    H711358   1.131   2.742  16.198 -0.6312 -0.8830  0.0135
  766MPD2     C11359   0.506   2.775  15.734 -0.4022 -0.4266  0.3768
  766MPD2    C111360   0.640   2.759  15.710 -0.6947  0.0639  0.1790
  766MPD2    C211361   0.684   2.700  15.593  0.8427  0.8574  0.3298
  766MPD2    C311362   0.594   2.648  15.508  0.5005 -0.0521  0.0279
  766MPD2    C411363   0.462   2.667  15.529  0.0601 -0.6919 -0.0659
  766MPD2    C511364   0.420   2.722  15.643  0.5166 -0.2161  0.3478
  766MPD2     H11365   0.790   2.685  15.576  0.5422 -0.6399 -0.2378
  766MPD2    H111366   0.382   2.634  15.463  0.7443 -1.0889 -0.6987
  766MPD2    H211367   0.472   2.823  15.825 -2.0309  0.4372 -0.6768
  766MPD2    H311368   0.314   2.724  15.664  0.0470  0.7823 -2.1651
  766MPD2     N11369   0.635   2.577  15.392 -0.7032 -0.1258 -0.1714
  766MPD2    H511370   0.559   2.537  15.337  0.4216 -1.1529 -0.9905
  766MPD2    N111371   0.728   2.800  15.813  0.4787  0.1309 -0.1883
  766MPD2    H711372   0.674   2.844  15.886  0.2975  3.6664 -2.4806
  767MPD2     C11373   0.253   2.838  15.266  0.2398  0.0684  0.9199
  767MPD2    C111374   0.379   2.877  15.221  0.4451 -0.0771 -0.3905
  767MPD2    C211375   0.412   2.863  15.089 -0.2883 -0.8397 -0.0366
  767MPD2    C311376   0.323   2.818  14.997 -0.3330  0.0649 -0.4201
  767MPD2    C411377   0.201   2.791  15.043 -0.4889 -0.2953 -0.7761
  767MPD2    C511378   0.166   2.798  15.172 -0.1296  0.1136 -0.4685
  767MPD2     H11379   0.501   2.908  15.047 -0.5243  0.8935  1.3579
  767MPD2    H111380   0.118   2.753  14.984 -0.1085 -1.2192 -0.7140
  767MPD2    H211381   0.221   2.822  15.368 -3.4393  0.4578 -0.1653
  767MPD2    H311382   0.060   2.791  15.196 -0.2660  0.0074 -1.1168
  767MPD2     N11383   0.366   2.806  14.869 -1.0311 -0.1900 -0.3071
  767MPD2    H511384   0.465   2.803  14.848 -1.3149 -0.5897 -1.5724
  767MPD2    N111385   0.470   2.926  15.319 -0.0599  0.2403 -0.3277
  767MPD2    H711386   0.418   2.960  15.399 -0.3253  1.7987 -1.1601
  768MPD2     C11387   1.166   1.335  10.695 -0.0242  0.2332  0.1169
  768MPD2    C111388   1.138   1.354  10.825  0.4556  0.1561  0.2376
  768MPD2    C211389   1.228   1.309  10.922  0.7453 -0.5497  0.4198
  768MPD2    C311390   1.349   1.267  10.886 -0.0473  0.3889 -0.2802
  768MPD2    C411391   1.383   1.255  10.751  0.4925 -1.2729  0.0508
  768MPD2    C511392   1.290   1.289  10.656  0.3422 -0.3760  0.2054
  768MPD2     H11393   1.210   1.332  11.027  2.4940 -1.3029  0.8829
  768MPD2    H111394   1.481   1.213  10.729  1.7123  1.0163  1.0716
  768MPD2    H211395   1.099   1.375  10.619  0.3638 -0.5229 -0.6271
  768MPD2    H311396   1.320   1.279  10.553 -0.3658 -2.7987  0.2302
  768MPD2     N11397   1.448   1.217  10.978 -0.3233  0.4128  1.0778
  768MPD2    H511398   1.538   1.193  10.939 -0.6794  1.3765 -0.3429
  768MPD2    N111399   1.027   1.429  10.871  0.2380 -0.6344  0.2277
  768MPD2    H711400   1.027   1.434  10.972 -1.8575  0.5235  0.1753
  769MPD2     C11401   2.268   3.563  15.330 -0.3882 -0.1458 -0.5860
  769MPD2    C111402   2.270   3.698  15.306  0.7677 -0.8556 -0.4646
  769MPD2    C211403   2.291   3.784  15.412  0.0177  0.2055 -0.5400
  769MPD2    C311404   2.285   3.724  15.540 -0.4344  0.1406 -0.1030
  769MPD2    C411405   2.269   3.586  15.566  0.0886 -0.1183 -0.4711
  769MPD2    C511406   2.259   3.511  15.453  0.8799  0.3194 -0.0340
  769MPD2     H11407   2.310   3.889  15.394  1.5265 -0.1156 -0.8939
  769MPD2    H111408   2.260   3.540  15.664  2.5471 -0.0152 -0.1981
  769MPD2    H211409   2.275   3.492  15.249  0.4191 -0.4660 -0.2315
  769MPD2    H311410   2.258   3.404  15.467 -2.2449  0.3840  0.3951
  769MPD2     N11411   2.311   3.817  15.648 -0.1913  0.1426  0.2201
  769MPD2    H511412   2.344   3.911  15.629  1.1231 -0.6322 -1.3242
  769MPD2    N111413   2.276   3.744  15.169 -0.6916  0.6869  0.3551
  769MPD2    H711414   2.285   3.672  15.099 -1.1411  1.8790 -0.9183
  770MPD2     C11415   1.725   3.781  15.226  0.3271  0.1465 -0.4648
  770MPD2    C111416   1.792   3.703  15.134  0.8211 -0.9516  0.1266
  770MPD2    C211417   1.868   3.770  15.042 -0.6674  0.9814  0.4694
  770MPD2    C311418   1.871   3.904  15.031 -0.5601  0.0974  0.7421
  770MPD2    C411419   1.801   3.987  15.117  0.3794 -0.5505  0.6099
  770MPD2    C511420   1.727   3.920  15.211  0.5368  0.7110  0.3787
  770MPD2     H11421   1.916   3.702  14.973 -0.8323  2.2263 -0.8604
  770MPD2    H111422   1.812   4.095  15.120  0.7910 -0.5121 -2.0007
  770MPD2    H211423   1.661   3.751  15.309 -0.4610  0.0166 -1.1220
  770MPD2    H311424   1.666   3.972  15.284 -0.0200 -0.2428  0.5993
  770MPD2     N11425   1.948   3.967  14.934 -0.0970 -0.0966  0.4257
  770MPD2    H511426   1.975   4.062  14.955  0.8327 -0.1190 -0.6866
  770MPD2    N111427   1.787   3.566  15.125 -0.1769 -0.2072 -0.1620
  770MPD2    H711428   1.836   3.526  15.045  1.2698 -3.5030  2.3600
  771MPD2     C11429   2.694   1.679  14.311  0.4834  0.3180 -0.3900
  771MPD2    C111430   2.676   1.719  14.184 -0.1887 -0.1319 -0.2626
  771MPD2    C211431   2.625   1.629  14.089  0.7336 -0.1917  0.9961
  771MPD2    C311432   2.596   1.500  14.118  0.8922 -0.1418 -0.7609
  771MPD2    C411433   2.634   1.456  14.241  0.5273 -0.4462 -0.6186
  771MPD2    C511434   2.665   1.547  14.341 -0.5458  0.1959  0.5356
  771MPD2     H11435   2.600   1.661  13.988  2.7026  0.9412  0.8700
  771MPD2    H111436   2.632   1.352  14.272  1.2542 -0.6259 -1.1633
  771MPD2    H211437   2.730   1.744  14.391  1.3562 -0.1517 -0.4010
  771MPD2    H311438   2.672   1.513  14.444 -0.6659  0.6165  0.6814
  771MPD2     N11439   2.549   1.418  14.018  0.7291  0.4071 -0.3077
  771MPD2    H511440   2.515   1.456  13.930  0.9150  0.7427 -0.2387
  771MPD2    N111441   2.705   1.845  14.129  0.2160  0.3833  0.1322
  771MPD2    H711442   2.696   1.853  14.028 -3.0368 -1.0523  0.3020
  772MPD2     C11443   2.300   2.434  13.930  0.1049  0.2453  0.1847
  772MPD2    C111444   2.347   2.306  13.928 -0.2619  0.7353 -0.4363
  772MPD2    C211445   2.272   2.199  13.894 -0.1293 -0.7211  0.1191
  772MPD2    C311446   2.142   2.217  13.847 -0.1145  0.9539 -0.0186
  772MPD2    C411447   2.089   2.341  13.853 -0.4904  0.2306  0.2057
  772MPD2    C511448   2.166   2.447  13.900  0.5975  0.4953  0.0009
  772MPD2     H11449   2.327   2.105  13.893  0.9435 -0.0965  1.1327
  772MPD2    H111450   1.985   2.360  13.829 -0.4259  0.7178  0.3030
  772MPD2    H211451   2.354   2.518  13.973  0.1314 -0.1178  0.8618
  772MPD2    H311452   2.119   2.544  13.911 -2.3755 -0.8141 -1.4225
  772MPD2     N11453   2.062   2.113  13.795  0.1741  0.1029 -0.5743
  772MPD2    H511454   1.969   2.128  13.759  0.0246  0.6542  0.0304
  772MPD2    N111455   2.480   2.278  13.976  0.0251 -0.3181 -0.3557
  772MPD2    H711456   2.504   2.180  13.985  1.4550  0.2058  1.5902
  773MPD2     C11457   1.671   2.563   0.565 -0.2774 -0.4949 -0.0191
  773MPD2    C111458   1.660   2.508   0.438  0.0876  0.2606 -0.2728
  773MPD2    C211459   1.744   2.409   0.403 -0.6576 -0.2274  0.6030
  773MPD2    C311460   1.845   2.369   0.488 -0.3618  0.3043  0.1409
  773MPD2    C411461   1.855   2.421   0.616  0.2073  0.0464 -0.8745
  773MPD2    C511462   1.766   2.517   0.651 -0.0164 -0.4087  0.4071
  773MPD2     H11463   1.736   2.382   0.298  1.6616  0.2632  0.2945
  773MPD2    H111464   1.924   2.389   0.693 -0.8658  0.1836  0.1354
  773MPD2    H211465   1.610   2.647   0.598 -0.8779 -1.3948  1.1410
  773MPD2    H311466   1.780   2.577   0.739 -3.4654 -2.2764  2.2415
  773MPD2     N11467   1.925   2.265   0.438 -0.9022 -0.5221 -0.3379
  773MPD2    H511468   1.898   2.232   0.346  1.1564  0.5598 -1.3165
  773MPD2    N111469   1.563   2.552   0.344 -0.1279  0.6110  0.2778
  773MPD2    H711470   1.539   2.482   0.274 -0.0862  0.9463 -0.0689
  774MPD2     C11471   1.689   2.736  13.418  0.0215 -0.0030 -0.7553
  774MPD2    C111472   1.565   2.773  13.458  0.2628 -0.2555 -0.0473
  774MPD2    C211473   1.558   2.908  13.500 -0.0566  0.1720 -0.0967
  774MPD2    C311474   1.670   2.993  13.498  0.4860  0.3257 -0.4794
  774MPD2    C411475   1.795   2.943  13.459 -0.6093 -0.3006  0.1309
  774MPD2    C511476   1.806   2.811  13.426  0.3631  0.5742 -0.1530
  774MPD2     H11477   1.463   2.934  13.546  0.8405  0.0598  1.8103
  774MPD2    H111478   1.890   2.993  13.474 -0.1256 -1.7347  1.7845
  774MPD2    H211479   1.694   2.631  13.389 -0.3721 -0.3473  0.4267
  774MPD2    H311480   1.900   2.764  13.400 -0.4983 -0.1361 -1.9284
  774MPD2     N11481   1.654   3.118  13.545 -0.1783  0.3496  0.0223
  774MPD2    H511482   1.570   3.144  13.594  1.7528  0.6770  3.1915
  774MPD2    N111483   1.458   2.680  13.471 -0.5295 -0.4554 -0.2183
  774MPD2    H711484   1.485   2.582  13.471 -1.0344 -0.6139  3.5095
  775MPD2     C11485   2.770   3.660  16.023  0.1965  0.3377  0.1978
  775MPD2    C111486   2.774   3.775  16.099  0.0209 -0.1768 -0.6252
  775MPD2    C211487   2.870   3.870  16.062  0.7272 -0.3504  1.0696
  775MPD2    C311488   2.960   3.857  15.953 -0.1928  0.6634  0.5161
  775MPD2    C411489   2.949   3.733  15.887 -0.5585 -0.0035  0.4649
  775MPD2    C511490   2.861   3.643  15.928 -0.5537  0.9159 -0.5821
  775MPD2     H11491   2.889   3.949  16.134  0.3432 -1.2319  2.1379
  775MPD2    H111492   3.017   3.704  15.807 -2.2543  1.4067 -1.4619
  775MPD2    H211493   2.685   3.595  16.039 -0.1465  0.0623 -2.8695
  775MPD2    H311494   2.864   3.551  15.870 -0.2952  1.5737 -1.6020
  775MPD2     N11495   3.038   3.952  15.897  0.0673 -0.3275  0.1915
  775MPD2    H511496   3.092   3.925  15.816 -0.9949 -1.9082 -0.0094
  775MPD2    N111497   2.693   3.784  16.211 -0.2936  0.1008  0.2599
  775MPD2    H711498   2.643   3.700  16.239  1.4834 -0.7408  0.8576
  776MPD2     C11499   1.331   4.561  11.655 -0.5270  0.1419  0.0530
  776MPD2    C111500   1.402   4.460  11.584 -0.2945 -0.2126  0.1118
  776MPD2    C211501   1.495   4.503  11.491 -0.2542  0.9063  0.1601
  776MPD2    C311502   1.505   4.642  11.469 -0.5672 -0.6180 -1.0452
  776MPD2    C411503   1.438   4.735  11.534  0.2531 -0.7394  0.2992
  776MPD2    C511504   1.346   4.689  11.634  0.5531 -0.1949  0.3898
  776MPD2     H11505   1.536   4.429  11.423 -1.4601 -0.4109  0.8657
  776MPD2    H111506   1.442   0.105  11.511 -2.1268 -0.1769  2.4688
  776MPD2    H211507   1.269   4.526  11.737  3.6122 -1.6307  2.4185
  776MPD2    H311508   1.298   0.028  11.696  2.0712  0.9520  0.1585
  776MPD2     N11509   1.585   4.697  11.366 -0.6277  0.5874 -0.0806
  776MPD2    H511510   1.593   0.061  11.354 -0.7195  0.4738 -1.0310
  776MPD2    N111511   1.392   4.323  11.615  0.2370  0.1914  1.1094
  776MPD2    H711512   1.320   4.294  11.681 -0.7294 -0.6525 -0.2993
  777MPD2     C11513   1.806   1.248   0.753 -0.7008  0.1419 -0.1954
  777MPD2    C111514   1.875   1.134   0.795 -0.0556  0.2431  0.2096
  777MPD2    C211515   1.876   1.022   0.710 -0.1016  0.1585  0.6779
  777MPD2    C311516   1.821   1.026   0.580  0.2856 -0.7132 -0.1691
  777MPD2    C411517   1.740   1.134   0.550  0.3946  0.5790 -0.1338
  777MPD2    C511518   1.736   1.239   0.634 -0.5138 -0.4616 -0.5779
  777MPD2     H11519   1.944   0.941   0.732 -0.2775 -0.1135  0.2258
  777MPD2    H111520   1.688   1.139   0.455  1.1189  1.2970 -0.4952
  777MPD2    H211521   1.805   1.338   0.813 -0.6986 -0.4615  0.7140
  777MPD2    H311522   1.686   1.327   0.594  0.4261  0.5465  0.4826
  777MPD2     N11523   1.818   0.906   0.501  0.2264 -0.5003  0.4658
  777MPD2    H511524   1.860   0.822   0.539  1.5208 -0.3024 -0.5400
  777MPD2    N111525   1.935   1.141   0.927  0.3748 -0.1989 -0.4408
  777MPD2    H711526   1.897   1.215   0.985 -0.0649  0.4395 -1.5407
  778MPD2     C11527   2.746   2.126  14.880  0.3727 -0.0860 -0.2119
  778MPD2    C111528   2.737   2.028  14.787  0.3008  0.4611 -0.5984
  778MPD2    C211529   2.798   2.043  14.665  0.5033  0.1633  0.1106
  778MPD2    C311530   2.866   2.157  14.633  0.0164  0.2018  0.3271
  778MPD2    C411531   2.876   2.256  14.734  0.0163  0.2454  0.1482
  778MPD2    C511532   2.822   2.231  14.858 -0.3378  0.6673  0.2126
  778MPD2     H11533   2.797   1.962  14.593  4.0009 -0.7768  1.1346
  778MPD2    H111534   2.924   2.353  14.725 -0.9958  0.8564  1.1735
  778MPD2    H211535   2.706   2.107  14.979 -0.9119 -0.4505 -0.8034
  778MPD2    H311536   2.826   2.311  14.931  0.1922 -2.3374  3.4771
  778MPD2     N11537   2.910   2.172  14.505 -0.1818  0.5200  0.1919
  778MPD2    H511538   2.885   2.105  14.432  0.5709  0.2177  0.2067
  778MPD2    N111539   2.678   1.898  14.809 -0.6486 -0.3764  0.2800
  778MPD2    H711540   2.663   1.841  14.726  0.4971 -0.9265  0.4541
  779MPD2     C11541   2.019   0.483  14.246 -0.5146  0.1525 -0.4704
  779MPD2    C111542   2.143   0.491  14.310  0.4364  0.1491  0.1677
  779MPD2    C211543   2.182   0.616  14.337 -0.4087  0.3839  0.4772
  779MPD2    C311544   2.110   0.734  14.309  0.6327 -0.2814 -0.6338
  779MPD2    C411545   1.998   0.716  14.239 -1.1104 -0.0011 -0.1819
  779MPD2    C511546   1.952   0.595  14.207 -0.0050 -0.2361  0.7023
  779MPD2     H11547   2.281   0.623  14.381 -0.2778 -2.4953  0.5941
  779MPD2    H111548   1.946   0.798  14.191  2.5977  2.3141 -0.2012
  779MPD2    H211549   1.980   0.388  14.215 -1.1216  0.0390  0.6374
  779MPD2    H311550   1.870   0.588  14.137  1.7753  1.4547 -1.5509
  779MPD2     N11551   2.175   0.853  14.335 -0.1197  0.4159 -0.4456
  779MPD2    H511552   2.272   0.860  14.366 -0.1685 -1.2096  0.0425
  779MPD2    N111553   2.229   0.381  14.343  0.0697 -0.7877 -0.2295
  779MPD2    H711554   2.301   0.404  14.410  0.3748 -1.2565 -0.3956
  780MPD2     C11555   3.173   0.199   0.668  0.3936  0.9315  0.3983
  780MPD2    C111556   3.057   0.171   0.608 -0.7288 -0.3399  0.3866
  780MPD2    C211557   3.007   0.259   0.508  0.0643  0.0931  0.2419
  780MPD2    C311558   3.076   0.378   0.471  0.1603 -0.6814 -0.1698
  780MPD2    C411559   3.194   0.407   0.539 -0.3113  0.2679  0.3752
  780MPD2    C511560   3.246   0.316   0.631  0.4261 -0.1091  0.0484
  780MPD2     H11561   2.914   0.235   0.459  0.2220 -1.5213  0.7500
  780MPD2    H111562   3.255   0.495   0.524  0.8780 -0.7400 -0.7201
  780MPD2    H211563   3.202   0.133   0.749  0.1235 -0.2287 -0.4527
  780MPD2    H311564   3.349   0.328   0.664  1.0267 -1.1569 -1.4340
  780MPD2     N11565   3.022   0.465   0.375 -0.3527  0.4392  1.0394
  780MPD2    H511566   2.939   0.431   0.327  0.5511 -1.4341  0.7898
  780MPD2    N111567   2.985   0.060   0.656  0.2050 -0.4482 -0.6486
  780MPD2    H711568   3.013   0.019   0.744 -0.6082  0.2426 -0.0708
  781MPD2     C11569   4.650   2.429  12.130 -0.8674 -0.5373  0.2479
  781MPD2    C111570   4.523   2.482  12.132 -0.0020 -0.9568  0.5324
  781MPD2    C211571   4.460   2.511  12.014 -0.0480  0.1400  0.6878
  781MPD2    C311572   4.529   2.493  11.896 -0.2615 -0.4304  0.5922
  781MPD2    C411573   4.658   2.454  11.898  0.2768 -0.4266 -0.2441
  781MPD2    C511574   4.722   2.431  12.017 -0.3362  0.0195 -0.1801
  781MPD2     H11575   4.357   2.545  12.018  0.4070  1.6926 -0.5365
  781MPD2    H111576   4.715   2.437  11.807  1.4468 -0.7007  0.5356
  781MPD2    H211577   4.697   2.400  12.224  1.2196 -0.7924 -0.8661
  781MPD2    H311578   0.087   2.393  12.017 -1.1677 -2.2033 -2.6847
  781MPD2     N11579   4.479   2.505  11.769 -0.4691  0.3402  0.2828
  781MPD2    H511580   4.531   2.473  11.688  2.2707  0.5283  1.9780
  781MPD2    N111581   4.449   2.492  12.250 -0.0522  0.0944 -0.1526
  781MPD2    H711582   4.350   2.508  12.234 -0.4056 -0.6228  1.3026
  782MPD2     C11583   1.456   3.109  10.259 -0.0779 -0.6442  0.5691
  782MPD2    C111584   1.579   3.050  10.296  0.1643  0.3309 -0.6946
  782MPD2    C211585   1.678   3.138  10.331 -0.1066  0.2140 -0.0680
  782MPD2    C311586   1.660   3.272  10.344  0.2503 -0.1858 -0.3593
  782MPD2    C411587   1.542   3.327  10.296 -0.0353 -0.6037 -0.3415
  782MPD2    C511588   1.439   3.245  10.258  0.0332  0.3212  0.0115
  782MPD2     H11589   1.775   3.105  10.366 -0.4190  0.4423  1.0321
  782MPD2    H111590   1.518   3.433  10.292 -2.6663 -1.2203 -0.4102
  782MPD2    H211591   1.377   3.051  10.215  0.4935 -0.9080 -0.0968
  782MPD2    H311592   1.352   3.300  10.224 -0.6207 -1.4848 -1.2644
  782MPD2     N11593   1.776   3.342  10.379  0.1878 -0.0570 -0.6508
  782MPD2    H511594   1.863   3.290  10.376 -0.2477 -0.6908 -2.5410
  782MPD2    N111595   1.593   2.913  10.308  0.1972 -0.0715 -0.3828
  782MPD2    H711596   1.511   2.856  10.294 -2.7499  4.0634  0.0304
  783MPD2     C11597   1.702   2.660  11.101  0.5017 -0.5932 -0.5107
  783MPD2    C111598   1.731   2.765  11.017 -0.6172 -0.2586 -0.4300
  783MPD2    C211599   1.693   2.757  10.888  0.5292 -0.0668 -0.8152
  783MPD2    C311600   1.629   2.646  10.835 -0.4204  0.5585 -0.3062
  783MPD2    C411601   1.592   2.551  10.920 -0.6224  0.3860 -0.0614
  783MPD2    C511602   1.639   2.551  11.053 -0.5380 -0.1857  0.5889
  783MPD2     H11603   1.711   2.845  10.828 -0.3307 -0.3617 -1.4928
  783MPD2    H111604   1.533   2.462  10.900  0.4043 -0.3598  0.1867
  783MPD2    H211605   1.725   2.662  11.207  0.5438 -0.1428 -0.5279
  783MPD2    H311606   1.624   2.465  11.118 -2.8211 -0.2340 -0.0092
  783MPD2     N11607   1.615   2.633  10.698 -0.2310  0.4874  0.0720
  783MPD2    H511608   1.646   2.715  10.647 -0.0740  0.1746 -0.3446
  783MPD2    N111609   1.804   2.867  11.079 -0.0428 -0.1602 -0.2780
  783MPD2    H711610   1.825   2.856  11.177 -0.7810  0.6866 -0.0229
  784MPD2     C11611   4.485   3.090   0.725  0.8551  0.2282 -0.1033
  784MPD2    C111612   4.513   3.184   0.817 -0.4103 -0.5837 -0.2796
  784MPD2    C211613   4.426   3.285   0.837  0.0634 -0.3972  0.0130
  784MPD2    C311614   4.303   3.283   0.771  0.0854  0.4399  0.2006
  784MPD2    C411615   4.282   3.191   0.677  0.0874  0.4690  1.1090
  784MPD2    C511616   4.378   3.101   0.639  0.4750 -0.2292 -0.1063
  784MPD2     H11617   4.453   3.375   0.891  1.0780  0.8546 -2.5909
  784MPD2    H111618   4.192   3.175   0.618 -0.1162  3.3478  0.6046
  784MPD2    H211619   4.550   3.003   0.722 -0.2899 -0.6050 -1.0370
  784MPD2    H311620   4.361   3.025   0.564  2.6957  0.4398 -1.3032
  784MPD2     N11621   4.214   3.387   0.790 -0.1798  0.0374 -0.3440
  784MPD2    H511622   4.237   3.450   0.866 -1.9666  0.5221 -0.1894
  784MPD2    N111623   4.635   3.182   0.893  0.2776  0.1020 -0.1119
  784MPD2    H711624   4.648   3.266   0.949 -1.2816  1.0721 -1.2015
  785MPD2     C11625   4.652   1.528  10.801 -0.4823 -0.3358  0.2268
  785MPD2    C111626   4.572   1.620  10.866  0.4499 -0.3458  0.2135
  785MPD2    C211627   4.439   1.620  10.837  0.0776  0.1713  0.2304
  785MPD2    C311628   4.385   1.534  10.741  0.7225  0.0721  0.1547
  785MPD2    C411629   4.463   1.462  10.663  0.1454 -0.1487  0.3608
  785MPD2    C511630   4.595   1.462  10.695  1.0661  0.1267 -0.1828
  785MPD2     H11631   4.365   1.683  10.885 -1.5980  0.7848 -3.1173
  785MPD2    H111632   4.429   1.402  10.579 -0.2215  3.2463 -1.9055
  785MPD2    H211633   0.022   1.513  10.814 -0.3097 -0.3037 -1.1486
  785MPD2    H311634   4.652   1.387  10.642 -0.2537 -0.8163 -0.2622
  785MPD2     N11635   4.245   1.542  10.713  0.3394 -0.8759  0.3415
  785MPD2    H511636   4.195   1.603  10.777  1.3931  0.8049 -0.4399
  785MPD2    N111637   4.613   1.714  10.955 -0.8088 -0.6508  0.6547
  785MPD2    H711638   4.548   1.783  10.993  0.1295  1.1392 -0.9924
  786MPD2     C11639   3.209   4.510  14.748 -0.6995 -0.3616  0.0234
  786MPD2    C111640   3.321   4.429  14.770  0.2917  0.2368 -0.2908
  786MPD2    C211641   3.373   4.427  14.897  0.4234 -0.2459  0.0911
  786MPD2    C311642   3.324   4.504  15.001  0.0799  0.6434  0.3301
  786MPD2    C411643   3.216   4.588  14.982  0.1136 -1.0246 -0.3528
  786MPD2    C511644   3.156   4.590  14.855 -0.8198  0.0390 -0.2600
  786MPD2     H11645   3.449   4.353  14.924 -1.2739 -1.5867  1.2069
  786MPD2    H111646   3.183   4.663  15.053  0.2820 -0.0762 -1.2664
  786MPD2    H211647   3.169   4.524  14.648  0.8662  0.3355 -0.5016
  786MPD2    H311648   3.074   4.654  14.824 -0.1954 -0.7257 -3.4471
  786MPD2     N11649   3.395   4.511  15.122 -0.3424 -0.5153  0.1004
  786MPD2    H511650   3.360   4.577  15.191 -0.7887 -2.4521  1.7515
  786MPD2    N111651   3.364   4.336  14.677 -0.1501 -0.2429  0.1793
  786MPD2    H711652   3.439   4.274  14.707  0.0388 -0.8702 -1.5929
  787MPD2     C11653   3.743   3.852  14.780  0.1516 -0.3622  0.1046
  787MPD2    C111654   3.725   3.827  14.646 -0.2905 -0.0894 -0.4651
  787MPD2    C211655   3.796   3.726  14.582  0.5576 -0.1538 -1.3843
  787MPD2    C311656   3.880   3.637  14.654 -0.4770 -0.0576  0.4346
  787MPD2    C411657   3.900   3.672  14.792 -0.0907  0.0446 -0.1249
  787MPD2    C511658   3.832   3.778  14.856  0.2959  0.0548  0.4758
  787MPD2     H11659   3.763   3.695  14.484  0.6726  1.3718 -1.9117
  787MPD2    H111660   3.948   3.598  14.856  1.2907  0.9055 -0.1600
  787MPD2    H211661   3.676   3.920  14.831 -1.4487 -2.3045  0.6246
  787MPD2    H311662   3.842   3.803  14.961 -1.0505  0.9871  0.3731
  787MPD2     N11663   3.939   3.537  14.580  0.3170 -0.3872 -0.0792
  787MPD2    H511664   3.909   3.525  14.484 -0.5188 -2.0914  0.3932
  787MPD2    N111665   3.634   3.917  14.582  0.0550  0.1671 -0.1238
  787MPD2    H711666   3.597   3.990  14.641  0.9828 -0.0804  0.7542
  788MPD2     C11667   0.779   2.852   1.220 -0.1305  0.0979  0.0754
  788MPD2    C111668   0.749   2.803   1.094  0.7846  0.6915  0.0714
  788MPD2    C211669   0.760   2.885   0.983 -0.2515  1.0260  0.1032
  788MPD2    C311670   0.786   3.024   0.996  1.0618  0.4803 -0.6830
  788MPD2    C411671   0.812   3.071   1.122  0.1488 -0.1911 -0.1482
  788MPD2    C511672   0.816   2.988   1.232 -0.7616 -0.1081  1.3367
  788MPD2     H11673   0.740   2.858   0.880  1.6867  0.4532 -0.1260
  788MPD2    H111674   0.845   3.173   1.142 -0.5984 -0.0998  0.5933
  788MPD2    H211675   0.793   2.788   1.306 -0.3853  0.9189  0.7344
  788MPD2    H311676   0.851   3.030   1.325  2.5663 -3.1970  1.4466
  788MPD2     N11677   0.772   3.114   0.885  0.3745 -0.0254  0.2271
  788MPD2    H511678   0.746   3.207   0.914 -0.6891 -0.0118 -0.7834
  788MPD2    N111679   0.699   2.672   1.064 -0.5823 -0.4273  0.4330
  788MPD2    H711680   0.677   2.656   0.966  1.3972 -0.2894 -0.0482
  789MPD2     C11681   0.957   2.504  16.615  0.2842 -0.4324 -0.6456
  789MPD2    C111682   0.868   2.580  16.544  0.0489 -0.2483 -0.3912
  789MPD2    C211683   0.829   2.703  16.600 -0.4138 -0.0905 -0.5065
  789MPD2    C311684   0.865   2.740  16.727 -0.9805  0.0340 -0.1255
  789MPD2    C411685   0.953   2.663  16.793 -0.2931  0.5339 -0.7969
  789MPD2    C511686   1.003   2.550  16.741  0.0990 -0.1749 -0.0240
  789MPD2     H11687   0.743   2.746  16.549  0.3689  0.0171 -1.7234
  789MPD2    H111688   0.977   2.682  16.897  0.0694 -1.2084 -0.5528
  789MPD2    H211689   0.997   2.410  16.578  2.6111  1.0626 -1.9193
  789MPD2    H311690   1.075   2.489  16.794  0.3256  1.2260  1.2710
  789MPD2     N11691   0.806   2.849  16.800 -0.3128  0.0464  0.4660
  789MPD2    H511692   0.806   2.844  16.902 -1.1233 -1.6371  0.3854
  789MPD2    N111693   0.827   2.528  16.418  0.0030 -0.0207 -0.8161
  789MPD2    H711694   0.870   2.440  16.392 -1.0565 -0.6806 -0.3045
  790MPD2     C11695   1.849   4.257  13.666  0.2402  0.5176  0.2418
  790MPD2    C111696   1.828   4.124  13.672 -0.1753  0.5843  0.1708
  790MPD2    C211697   1.802   4.046  13.556  0.2180 -0.2940 -0.9431
  790MPD2    C311698   1.803   4.105  13.427 -0.2592  0.4617  0.3236
  790MPD2    C411699   1.823   4.240  13.423  0.8125  0.3385  0.2656
  790MPD2    C511700   1.840   4.312  13.538  0.7385  0.1165 -0.4631
  790MPD2     H11701   1.779   3.941  13.571  0.0548  0.3314  3.1414
  790MPD2    H111702   1.831   4.298  13.332  3.0746 -1.0781 -0.4338
  790MPD2    H211703   1.856   4.323  13.752 -0.9903 -0.6562  1.2323
  790MPD2    H311704   1.855   4.419  13.528  0.8410  0.2983  1.4963
  790MPD2     N11705   1.773   4.036  13.308 -0.2378 -0.0575 -0.4196
  790MPD2    H511706   1.747   3.939  13.324  1.3777  0.3201  4.4205
  790MPD2    N111707   1.840   4.056  13.797 -0.2948 -0.0675 -0.1772
  790MPD2    H711708   1.854   3.955  13.789  0.5738 -0.2386  3.3480
  791MPD2     C11709   1.118   4.086  13.240 -0.6035  0.2465 -0.2371
  791MPD2    C111710   1.161   3.997  13.148  0.2684 -0.3326 -0.8346
  791MPD2    C211711   1.066   3.920  13.081 -0.4757 -0.3425 -0.2554
  791MPD2    C311712   0.940   3.910  13.124 -0.2112 -0.1237  0.3663
  791MPD2    C411713   0.897   4.005  13.217  0.0100 -0.0829  0.0041
  791MPD2    C511714   0.983   4.095  13.270  0.2543  0.0023  0.1635
  791MPD2     H11715   1.099   3.850  13.005  0.0728 -0.3179 -0.0353
  791MPD2    H111716   0.793   4.025  13.239 -0.5506 -2.0275 -0.8222
  791MPD2    H211717   1.188   4.155  13.285 -2.0660  0.3001  1.9114
  791MPD2    H311718   0.946   4.169  13.340 -1.4124 -0.3804 -0.3126
  791MPD2     N11719   0.852   3.816  13.055 -0.0869  0.2816  0.4263
  791MPD2    H511720   0.886   3.748  12.988  1.3634  0.2764  1.1703
  791MPD2    N111721   1.302   3.994  13.117 -0.7015  0.3345 -0.4047
  791MPD2    H711722   1.362   4.043  13.182 -0.3820 -0.1766 -0.3133
  792MPD2     C11723   1.219   4.433  11.305 -0.2047  0.1096  0.8209
  792MPD2    C111724   1.270   4.309  11.274 -0.3784 -0.8323 -0.2820
  792MPD2    C211725   1.199   4.200  11.311 -0.2598 -0.5087  0.2712
  792MPD2    C311726   1.076   4.206  11.368  0.0059  0.2468  0.2742
  792MPD2    C411727   1.033   4.325  11.414 -0.4388  0.0443 -0.1327
  792MPD2    C511728   1.096   4.435  11.371  0.0698 -0.4469 -0.1334
  792MPD2     H11729   1.247   4.104  11.296  1.2679  0.5284 -1.4589
  792MPD2    H111730   0.943   4.330  11.473 -0.2009  2.3394  0.0078
  792MPD2    H211731   1.261   4.532  11.289 -0.8673  0.0015 -1.6171
  792MPD2    H311732   1.059   4.531  11.403  1.7108  0.1787 -0.1053
  792MPD2     N11733   0.995   4.098  11.392 -0.0509 -0.0274 -0.0607
  792MPD2    H511734   0.905   4.118  11.433 -0.2052  1.2297 -1.0191
  792MPD2    N111735   1.394   4.304  11.212  0.2940  0.5837 -0.3207
  792MPD2    H711736   1.431   4.396  11.191  0.0393  0.7666  0.0337
  793MPD2     C11737   0.521   4.240  10.717 -0.8930  0.0760 -0.3244
  793MPD2    C111738   0.649   4.255  10.763 -0.7423 -0.4220  0.1212
  793MPD2    C211739   0.689   4.201  10.877 -0.1275 -1.0666  0.3085
  793MPD2    C311740   0.609   4.109  10.942  0.5702 -0.1505  0.2815
  793MPD2    C411741   0.486   4.096  10.899 -0.6538  0.1545 -0.0168
  793MPD2    C511742   0.437   4.158  10.793 -0.1248 -0.8788 -0.3616
  793MPD2     H11743   0.791   4.215  10.910 -0.5855 -2.2453  2.2589
  793MPD2    H111744   0.419   4.024  10.946  1.5842 -1.6292  0.4426
  793MPD2    H211745   0.481   4.290  10.630  2.6493  2.8716 -0.3226
  793MPD2    H311746   0.339   4.127  10.758 -1.3396  2.1306  0.2985
  793MPD2     N11747   0.657   4.047  11.060 -0.2159  0.3265 -0.0756
  793MPD2    H511748   0.754   4.061  11.087  0.0041  0.2896 -0.8473
  793MPD2    N111749   0.743   4.340  10.705 -0.1681 -0.6813 -0.1710
  793MPD2    H711750   0.822   4.355  10.767  0.9071  2.0075 -2.1719
  794MPD2     C11751   1.244   3.335   0.079 -0.2322  0.3314 -0.5686
  794MPD2    C111752   1.251   3.240  17.718  0.5585  0.5713  0.9303
  794MPD2    C211753   1.217   3.283  17.595  0.3170 -0.3437 -0.3893
  794MPD2    C311754   1.153   3.407  17.575  0.7011 -0.4199 -0.2315
  794MPD2    C411755   1.142   3.490  17.681 -0.0262 -0.1910 -0.4803
  794MPD2    C511756   1.194   3.464   0.059  1.1629 -0.2197  0.3013
  794MPD2     H11757   1.238   3.216  17.512  2.1908  1.2170 -1.1694
  794MPD2    H111758   1.101   3.590  17.678  0.3267  0.0120  1.0684
  794MPD2    H211759   1.286   3.329   0.179  0.1229 -1.8032 -0.8554
  794MPD2    H311760   1.203   3.543   0.132  1.3097  0.4204 -0.4091
  794MPD2     N11761   1.107   3.455  17.450  0.3990  0.1102  0.4891
  794MPD2    H511762   1.086   3.554  17.445  1.9168  0.4195  0.2162
  794MPD2    N111763   1.308   3.109  17.737 -0.0033 -0.0755  0.0052
  794MPD2    H711764   1.313   3.051  17.654 -0.0335  0.2276 -0.2083
  795MPD2     C11765   3.788   1.026  13.985  0.7324  0.2610  0.1041
  795MPD2    C111766   3.882   0.981  13.898  0.2586  0.5967 -0.0902
  795MPD2    C211767   3.994   0.919  13.939  0.0371 -0.4067  0.1658
  795MPD2    C311768   4.014   0.887  14.070  0.2123  0.1786  0.5844
  795MPD2    C411769   3.922   0.930  14.159  0.3534 -0.6889  0.0219
  795MPD2    C511770   3.809   0.995  14.118 -0.1725  0.3872  0.5359
  795MPD2     H11771   4.067   0.878  13.870 -0.3447 -0.9368  0.0749
  795MPD2    H111772   3.926   0.904  14.265  1.7536 -1.2299 -0.1642
  795MPD2    H211773   3.699   1.071  13.942  0.8308  0.7334  0.3972
  795MPD2    H311774   3.743   1.014  14.202 -0.6434 -2.7504  0.8865
  795MPD2     N11775   4.123   0.802  14.095 -0.0414 -0.5175 -0.1845
  795MPD2    H511776   4.189   0.785  14.020  1.8686 -0.6016  1.5143
  795MPD2    N111777   3.862   0.976  13.763 -0.1165 -0.1121  0.0748
  795MPD2    H711778   3.923   0.918  13.706  1.0898  1.1547  0.0875
  796MPD2     C11779   3.180   2.187  16.244  0.1948  0.0396 -0.1451
  796MPD2    C111780   3.268   2.252  16.320 -0.1044  0.5933  0.0640
  796MPD2    C211781   3.305   2.382  16.282  0.5686  0.7715  0.1532
  796MPD2    C311782   3.235   2.443  16.180  0.1743 -0.1792  0.6009
  796MPD2    C411783   3.136   2.376  16.108  0.0037 -0.7297 -0.2550
  796MPD2    C511784   3.109   2.249  16.146  0.9696 -0.2970 -0.1787
  796MPD2     H11785   3.381   2.443  16.329 -0.6480  2.6647 -0.3301
  796MPD2    H111786   3.080   2.412  16.022  1.1164  0.0524 -0.6390
  796MPD2    H211787   3.153   2.084  16.265 -2.4247  0.5513 -0.9933
  796MPD2    H311788   3.042   2.192  16.082  0.5733 -0.9675  0.8236
  796MPD2     N11789   3.277   2.578  16.152 -0.6222 -0.4886 -0.0777
  796MPD2    H511790   3.349   2.619  16.210 -0.1389  0.4271 -1.3193
  796MPD2    N111791   3.336   2.179  16.425 -0.2612  0.0988 -0.0114
  796MPD2    H711792   3.309   2.082  16.436  0.9643  0.1838  3.4600
  797MPD2     C11793   4.534   1.647   0.030  0.3066 -0.0007 -0.1565
  797MPD2    C111794   4.604   1.757   0.026  0.0420 -0.4673  0.2967
  797MPD2    C211795   4.601   1.829  17.653 -0.8862  0.1017  0.0951
  797MPD2    C311796   4.508   1.811  17.555 -0.3971  0.1513 -0.6182
  797MPD2    C411797   4.424   1.706  17.569 -0.2466  0.6384  0.3470
  797MPD2    C511798   4.442   1.624  17.673  0.6769  0.1303  0.3461
  797MPD2     H11799   4.666   1.913  17.627  0.6297 -1.1715 -0.2721
  797MPD2    H111800   4.348   1.677  17.498  1.1989 -1.2735 -0.4244
  797MPD2    H211801   4.542   1.579   0.113 -0.8707 -1.2733 -1.0722
  797MPD2    H311802   4.380   1.535  17.683 -0.0830  0.2917 -2.9007
  797MPD2     N11803   4.512   1.909  17.452  0.2549  0.2839 -0.6134
  797MPD2    H511804   4.585   1.979  17.449  0.5792 -0.0018  0.6079
  797MPD2    N111805   4.691   1.803   0.128 -0.0834 -0.1249  0.3004
  797MPD2    H711806   0.007   1.889   0.113 -0.6511  0.2460  0.4154
  798MPD2     C11807   0.100   2.496  17.593 -0.3082 -0.5020  0.2589
  798MPD2    C111808   0.029   2.377  17.568 -0.0469 -0.1835 -0.1942
  798MPD2    C211809   0.019   2.289  17.675 -0.1461  0.1140  0.3001
  798MPD2    C311810   0.091   2.307   0.045  0.3730  0.5614 -0.1347
  798MPD2    C411811   0.170   2.421   0.068  0.1499  0.1277 -0.1902
  798MPD2    C511812   0.172   2.513  17.710 -0.3028  0.2090  0.0690
  798MPD2     H11813   4.682   2.210  17.685  1.2272 -1.1578  0.4026
  798MPD2    H111814   0.215   2.445   0.163  1.4380  1.8648 -1.2571
  798MPD2    H211815   0.103   2.570  17.513  1.0705  1.0783  1.7649
  798MPD2    H311816   0.239   2.597  17.723 -0.8234  0.5978  0.2386
  798MPD2     N11817   0.086   2.208   0.144 -0.5865  0.1986  0.0187
  798MPD2    H511818   0.066   2.117   0.103 -0.1772 -0.5122  1.4100
  798MPD2    N111819   4.703   2.360  17.447 -0.1796  0.5787 -0.5534
  798MPD2    H711820   4.691   2.444  17.391  0.8161  1.9505  1.2719
  799MPD2     C11821   3.389   3.604  14.260  0.1847  0.1271 -0.0144
  799MPD2    C111822   3.282   3.516  14.268  0.3907 -0.9101 -0.2266
  799MPD2    C211823   3.176   3.523  14.175 -0.2143 -0.2377  0.3769
  799MPD2    C311824   3.182   3.619  14.079 -0.1500 -0.9731 -0.2261
  799MPD2    C411825   3.301   3.693  14.063  0.1240 -0.5029 -0.7074
  799MPD2    C511826   3.398   3.695  14.156  0.1461  0.0315 -0.3798
  799MPD2     H11827   3.093   3.454  14.183  0.2621 -0.8805 -0.1646
  799MPD2    H111828   3.308   3.772  13.989 -0.9458  0.9024  0.6930
  799MPD2    H211829   3.462   3.617  14.340  1.2977  1.6990 -1.2891
  799MPD2    H311830   3.487   3.754  14.137 -0.6025  0.4222 -2.5765
  799MPD2     N11831   3.086   3.630  13.974 -0.2001 -0.5340  0.1483
  799MPD2    H511832   3.116   3.682  13.892  0.5405 -0.2493  0.6022
  799MPD2    N111833   3.277   3.418  14.369 -0.3077 -0.0472  0.6124
  799MPD2    H711834   3.190   3.367  14.384 -0.9436  0.8271 -0.0862
  800MPD2     C11835   3.639   0.045  14.277  0.1378 -0.3427 -0.4294
  800MPD2    C111836   3.771   0.051  14.321  0.2746 -0.1303  0.7936
  800MPD2    C211837   3.868   4.715  14.251  0.1947  0.1899 -0.0246
  800MPD2    C311838   3.834   4.626  14.154  0.3621  0.5748 -0.3283
  800MPD2    C411839   3.703   4.617  14.122 -0.3658 -0.5133  0.6752
  800MPD2    C511840   3.603   4.690  14.181 -0.5763 -0.3484 -0.2215
  800MPD2     H11841   3.974   4.735  14.261 -0.1285  1.0045  1.6424
  800MPD2    H111842   3.686   4.550  14.038 -0.3309  0.0873  0.1808
  800MPD2    H211843   3.565   0.107  14.326  2.2063 -0.0117  2.2780
  800MPD2    H311844   3.503   4.692  14.141 -0.9294  4.3431  0.9121
  800MPD2     N11845   3.937   4.558  14.084  0.0344  0.1567 -1.0769
  800MPD2    H511846   4.033   4.585  14.103 -0.1539  0.7305 -0.9241
  800MPD2    N111847   3.808   0.145  14.412 -0.2186  0.0415  0.6948
  800MPD2    H711848   3.734   0.207  14.442 -1.0014 -1.0994  1.1366
  801MPD2     C11849   3.560   0.678  14.840  0.1370 -0.2591 -0.6200
  801MPD2    C111850   3.565   0.561  14.768  0.5210  0.1585 -0.1683
  801MPD2    C211851   3.450   0.492  14.758  0.6942 -0.1917 -0.0423
  801MPD2    C311852   3.324   0.528  14.818 -0.0998  0.5658  0.4367
  801MPD2    C411853   3.326   0.650  14.891  0.0835  0.5470 -0.1861
  801MPD2    C511854   3.450   0.708  14.910 -0.4058  0.3541  1.3038
  801MPD2     H11855   3.458   0.395  14.710  1.9828  0.2495 -0.7406
  801MPD2    H111856   3.245   0.698  14.944  1.2110  0.4250  1.6498
  801MPD2    H211857   3.646   0.745  14.837 -0.8212  1.1143  2.0958
  801MPD2    H311858   3.448   0.799  14.969 -1.7464 -0.2687  2.2065
  801MPD2     N11859   3.210   0.454  14.787  0.7943  0.4478  0.5605
  801MPD2    H511860   3.228   0.358  14.759 -0.3319 -0.4335  2.8300
  801MPD2    N111861   3.679   0.515  14.698  0.5044 -0.1757 -0.2624
  801MPD2    H711862   3.652   0.432  14.646  1.5527 -0.5635 -0.1950
  802MPD2     C11863   3.709   1.531   0.417  0.1878  0.2699 -0.5002
  802MPD2    C111864   3.613   1.484   0.335 -0.0803 -0.0304  0.1448
  802MPD2    C211865   3.636   1.375   0.256  0.0133  0.2518 -0.6160
  802MPD2    C311866   3.763   1.325   0.250 -0.3031 -0.5418 -0.0153
  802MPD2    C411867   3.859   1.367   0.340  0.4687  0.7205  0.1036
  802MPD2    C511868   3.833   1.476   0.418  0.1102  0.4643 -0.0070
  802MPD2     H11869   3.561   1.342   0.185  1.0004 -2.5260 -0.3516
  802MPD2    H111870   3.960   1.329   0.331  0.7901  0.8762  3.1365
  802MPD2    H211871   3.693   1.606   0.493 -0.7828 -2.0047  1.5793
  802MPD2    H311872   3.911   1.499   0.490 -1.2884 -1.5885  2.1817
  802MPD2     N11873   3.785   1.215   0.165  0.2642 -0.4189 -0.1369
  802MPD2    H511874   3.705   1.171   0.122 -0.0191 -0.8695  0.8561
  802MPD2    N111875   3.480   1.533   0.352 -0.4582  0.1410 -0.6568
  802MPD2    H711876   3.407   1.477   0.309 -0.8660 -0.9563  1.4421
  803MPD2     C11877   4.263   4.568  12.128 -0.1703 -0.1143  0.3252
  803MPD2    C111878   4.393   4.608  12.126 -0.4637  0.2881  0.2834
  803MPD2    C211879   4.487   4.532  12.191 -0.3492  0.0172  1.0524
  803MPD2    C311880   4.450   4.429  12.269 -0.0421 -0.2115  0.0565
  803MPD2    C411881   4.316   4.397  12.285 -0.0999  0.4987  0.4013
  803MPD2    C511882   4.230   4.456  12.200 -0.0644 -0.0009  0.2509
  803MPD2     H11883   4.593   4.545  12.174 -0.2658 -1.1533  0.6768
  803MPD2    H111884   4.285   4.310  12.342  1.0611  0.2998  0.7384
  803MPD2    H211885   4.187   4.633  12.087 -0.7860  0.7136  2.7781
  803MPD2    H311886   4.124   4.433  12.198 -0.1759  0.3936  2.2489
  803MPD2     N11887   4.535   4.350  12.353  0.3091  0.0531  0.2614
  803MPD2    H511888   4.494   4.287  12.422 -1.1095 -1.9913 -2.4201
  803MPD2    N111889   4.444   4.713  12.042 -0.5477  0.4175 -0.3985
  803MPD2    H711890   4.545   4.728  12.042 -0.4721 -0.0245  0.8187
  804MPD2     C11891   3.875   0.506  17.173  0.1397  0.3321 -0.5275
  804MPD2    C111892   3.902   0.456  17.298 -0.2454  0.3064  0.1043
  804MPD2    C211893   3.979   0.533  17.386 -0.2925 -0.2168  0.0156
  804MPD2    C311894   4.018   0.664  17.343 -0.7419 -0.4617  0.1098
  804MPD2    C411895   3.978   0.713  17.221  0.2174  0.7118  0.9062
  804MPD2    C511896   3.915   0.628  17.140 -0.0209 -0.2609 -0.1649
  804MPD2     H11897   4.018   0.500  17.482 -1.2750 -1.4961 -0.0330
  804MPD2    H111898   3.999   0.813  17.185  1.0299 -0.0129 -0.6226
  804MPD2    H211899   3.809   0.446  17.111  1.1020 -1.2066 -0.0877
  804MPD2    H311900   3.892   0.654  17.037 -1.7762 -1.1451 -0.0041
  804MPD2     N11901   4.101   0.728  17.435 -0.5685  0.3233 -0.7250
  804MPD2    H511902   4.122   0.677  17.519 -0.0115  0.7013 -0.6332
  804MPD2    N111903   3.865   0.326  17.334 -0.6241 -0.5364  0.2488
  804MPD2    H711904   3.876   0.301  17.432  1.0290  0.7160  0.3963
  805MPD2     C11905   3.033   3.893  15.206 -1.4409 -0.5082 -0.3729
  805MPD2    C111906   3.138   3.816  15.175  0.2738 -0.4918 -0.3628
  805MPD2    C211907   3.234   3.801  15.271  0.3657  0.7844 -0.5183
  805MPD2    C311908   3.216   3.828  15.402  0.3666 -0.6856 -0.1181
  805MPD2    C411909   3.098   3.882  15.439 -0.2183  0.2046  0.4495
  805MPD2    C511910   3.008   3.905  15.339 -0.1641  0.8273 -0.3884
  805MPD2     H11911   3.322   3.746  15.242 -0.0401 -0.4078  0.4970
  805MPD2    H111912   3.069   3.912  15.539  1.2057 -0.5951  1.1151
  805MPD2    H211913   2.955   3.932  15.142 -1.0682 -1.4145 -1.3816
  805MPD2    H311914   2.919   3.959  15.371  0.2203  0.5717  1.1002
  805MPD2     N11915   3.322   3.809  15.496 -0.2034 -0.2332  0.2473
  805MPD2    H511916   3.414   3.808  15.451  0.5609  0.5093  1.7904
  805MPD2    N111917   3.175   3.786  15.046  0.7122 -0.1556  0.5426
  805MPD2    H711918   3.266   3.744  15.033  0.5977  0.4515 -2.3219
  806MPD2     C11919   3.447   3.002   0.684 -0.2367 -0.1800 -0.2316
  806MPD2    C111920   3.443   3.111   0.773  0.0048  0.1800 -0.0577
  806MPD2    C211921   3.499   3.234   0.734 -0.2542 -0.7889 -0.3207
  806MPD2    C311922   3.544   3.249   0.601 -0.9420  0.3755  0.0801
  806MPD2    C411923   3.535   3.137   0.510  0.0589 -0.1918 -0.2203
  806MPD2    C511924   3.492   3.017   0.550 -0.8679 -0.4520 -0.1324
  806MPD2     H11925   3.501   3.317   0.804 -1.5395 -1.5475  0.6024
  806MPD2    H111926   3.561   3.145   0.404 -1.1720  1.0798 -0.4210
  806MPD2    H211927   3.408   2.905   0.715 -0.1903  0.1882  0.9687
  806MPD2    H311928   3.493   2.937   0.477 -0.0487 -2.2753  1.8552
  806MPD2     N11929   3.597   3.373   0.554  0.7827  0.3464 -0.5383
  806MPD2    H511930   3.589   3.455   0.614  0.5389  0.8607 -1.2802
  806MPD2    N111931   3.386   3.081   0.901  0.9375 -0.7727 -0.4777
  806MPD2    H711932   3.358   2.984   0.905  2.2280 -1.0241  2.1152
  807MPD2     C11933   3.578   2.547   0.969  0.4572 -0.6424  0.2264
  807MPD2    C111934   3.484   2.529   1.072  0.0363  0.6373  0.2946
  807MPD2    C211935   3.456   2.400   1.113  0.5756 -0.3678  0.3407
  807MPD2    C311936   3.525   2.297   1.056 -0.0617  0.4912  0.6346
  807MPD2    C411937   3.630   2.318   0.968  0.4972 -0.3766  0.1812
  807MPD2    C511938   3.659   2.443   0.917 -0.1308  0.0101  0.0223
  807MPD2     H11939   3.381   2.385   1.191  0.6728  0.4175  0.5928
  807MPD2    H111940   3.687   2.233   0.932 -0.4049 -0.0543 -2.0123
  807MPD2    H211941   3.602   2.647   0.935 -2.5379  0.2359  0.7386
  807MPD2    H311942   3.743   2.452   0.848 -1.2690  0.8693 -1.2557
  807MPD2     N11943   3.482   2.165   1.094 -0.0794 -0.3580  0.1721
  807MPD2    H511944   3.390   2.160   1.138 -0.5362 -1.1220 -0.8778
  807MPD2    N111945   3.412   2.633   1.128 -0.1355  0.6985 -0.5023
  807MPD2    H711946   3.364   2.620   1.217  0.1768  0.4972 -0.3618
  808MPD2     C11947   4.161   0.028   9.188 -0.0561  0.5781  0.0447
  808MPD2    C111948   4.076   0.069   9.292  0.0257  0.5269 -0.2181
  808MPD2    C211949   4.053   0.205   9.306 -0.4147  0.2461 -0.4436
  808MPD2    C311950   4.101   0.295   9.217  0.2111 -0.3048  0.4074
  808MPD2    C411951   4.173   0.254   9.105  0.1081 -0.2792 -0.0404
  808MPD2    C511952   4.209   0.124   9.100 -0.4752 -1.0743  0.3471
  808MPD2     H11953   3.977   0.230   9.379 -0.6071  0.0809 -0.5871
  808MPD2    H111954   4.197   0.319   9.022 -0.1260 -0.2716 -0.0995
  808MPD2    H211955   4.187   4.659   9.175 -0.2623  0.0318  4.0223
  808MPD2    H311956   4.271   0.086   9.020 -0.1369 -0.2292  0.2097
  808MPD2     N11957   4.068   0.433   9.226 -0.0715  0.1626 -0.0401
  808MPD2    H511958   4.103   0.498   9.156  1.6390 -2.4118 -1.5471
  808MPD2    N111959   4.026   4.712   9.391  0.3505 -0.2393  0.0665
  808MPD2    H711960   3.962   0.017   9.459  0.6851  0.7980 -0.2540
  809MPD2     C11961   4.702   0.860   8.981 -0.6090 -0.6693  0.2978
  809MPD2    C111962   4.698   0.896   9.111 -0.7760 -0.2230  0.0889
  809MPD2    C211963   4.578   0.893   9.184  0.0976  0.1019  0.0846
  809MPD2    C311964   4.460   0.862   9.119  0.3274 -0.2295 -0.3619
  809MPD2    C411965   4.467   0.842   8.980  0.2587 -0.3685 -0.0586
  809MPD2    C511966   4.589   0.835   8.914  0.2441  0.4986 -0.6888
  809MPD2     H11967   4.578   0.904   9.292 -0.4196 -1.4441  0.2351
  809MPD2    H111968   4.376   0.825   8.923 -0.4279  1.2604  0.5412
  809MPD2    H211969   0.058   0.833   8.931 -0.0051  0.8473  0.5926
  809MPD2    H311970   4.587   0.808   8.809 -1.7925 -1.1119 -0.2301
  809MPD2     N11971   4.344   0.830   9.190  0.2148  0.3350  0.5608
  809MPD2    H511972   4.265   0.813   9.128  1.4358 -0.5280 -0.7563
  809MPD2    N111973   0.083   0.901   9.186  0.4162  0.1501 -0.9554
  809MPD2    H711974   0.071   0.877   9.283 -0.2013  1.3635 -0.7427
  810MPD2     C11975   3.384   3.964  10.974  0.1825 -0.8011 -0.2482
  810MPD2    C111976   3.368   3.918  10.840  0.1059  0.3329 -0.3541
  810MPD2    C211977   3.306   4.006  10.753  0.2395 -0.2839 -1.0582
  810MPD2    C311978   3.250   4.124  10.801  0.2604  0.5062  0.5659
  810MPD2    C411979   3.264   4.164  10.927 -0.3855 -0.2931 -0.7563
  810MPD2    C511980   3.333   4.085  11.008  0.5992  0.0213  0.4154
  810MPD2     H11981   3.297   3.982  10.648  2.2463 -0.5136 -1.1619
  810MPD2    H111982   3.217   4.258  10.950 -2.8219 -1.6828 -0.0224
  810MPD2    H211983   3.441   3.907  11.047 -0.2541 -0.0974  0.6381
  810MPD2    H311984   3.361   4.110  11.110 -0.1502 -0.1070  0.6518
  810MPD2     N11985   3.188   4.217  10.712 -0.0282  0.1443 -0.4056
  810MPD2    H511986   3.152   4.307  10.740 -1.0595 -0.6422  0.8196
  810MPD2    N111987   3.411   3.785  10.794  0.7350  0.1157 -0.5702
  810MPD2    H711988   3.406   3.752  10.698 -0.2623 -2.0257  0.2115
  811MPD2     C11989   3.165   3.669  10.204 -0.4385  0.3879 -0.8673
  811MPD2    C111990   3.243   3.726  10.303 -0.5813 -0.0491 -0.2945
  811MPD2    C211991   3.262   3.864  10.310 -0.0268  0.2388  0.7948
  811MPD2    C311992   3.220   3.944  10.208 -0.2307  0.4233 -0.3814
  811MPD2    C411993   3.140   3.886  10.110  0.0880 -0.1002 -0.1646
  811MPD2    C511994   3.112   3.749  10.106  0.0002 -0.1477 -0.8625
  811MPD2     H11995   3.318   3.908  10.392 -0.4330  0.0482  1.1759
  811MPD2    H111996   3.086   3.945  10.036  2.3582  1.1821 -0.8324
  811MPD2    H211997   3.154   3.563  10.189  0.7595 -0.2941  2.9294
  811MPD2    H311998   3.038   3.710  10.037  0.3289 -1.4839 -0.4598
  811MPD2     N11999   3.234   4.080  10.220 -0.0025 -0.3461 -0.5284
  811MPD2    H512000   3.263   4.106  10.314  0.6682  1.7163 -1.2905
  811MPD2    N112001   3.305   3.630  10.382 -0.0736 -0.5157  0.1538
  811MPD2    H712002   3.275   3.534  10.366 -1.0693 -0.0395 -0.8234
  812MPD2     C12003   2.634   3.978  11.899  0.2953 -0.1011 -0.8330
  812MPD2    C112004   2.564   4.074  11.967  0.1525 -0.5739  0.5474
  812MPD2    C212005   2.521   4.048  12.097 -0.2446  1.2205 -0.5242
  812MPD2    C312006   2.558   3.926  12.162  0.3988 -0.1195 -0.4339
  812MPD2    C412007   2.620   3.829  12.091 -0.3129 -0.7312 -0.2435
  812MPD2    C512008   2.655   3.858  11.960 -0.5439 -0.0460  0.4879
  812MPD2     H12009   2.474   4.124  12.158 -0.7010 -0.1332  0.8159
  812MPD2    H112010   2.636   3.728  12.126  2.7598 -0.1621 -0.0418
  812MPD2    H212011   2.666   3.979  11.795  0.7009 -1.6746 -0.7230
  812MPD2    H312012   2.693   3.775  11.901 -0.1960  1.8321 -1.8764
  812MPD2     N12013   2.507   3.910  12.297 -0.2229 -0.2138  0.2044
  812MPD2    H512014   2.449   3.986  12.329 -0.4517  0.5767 -2.1512
  812MPD2    N112015   2.543   4.195  11.900 -0.2241 -0.2763  0.3608
  812MPD2    H712016   2.581   4.200  11.806  0.7540 -0.8266  0.7194
  813MPD2     C12017   1.820   1.062  13.248  0.3380 -0.9286  0.2393
  813MPD2    C112018   1.786   1.195  13.257 -0.6133  0.6242  0.3498
  813MPD2    C212019   1.701   1.233  13.354  0.6786  0.0301  0.1379
  813MPD2    C312020   1.651   1.139  13.444 -0.9487 -0.0908 -0.1713
  813MPD2    C412021   1.680   1.009  13.429 -0.3642 -0.5620  0.0513
  813MPD2    C512022   1.751   0.976  13.317  0.1435 -0.3297  0.0937
  813MPD2     H12023   1.681   1.339  13.367 -0.1149  0.0224 -1.0161
  813MPD2    H112024   1.640   0.925  13.484  0.3173 -1.0383 -0.1674
  813MPD2    H212025   1.900   1.031  13.182  0.2000 -0.8845  0.0525
  813MPD2    H312026   1.778   0.872  13.301 -0.5630 -0.5865  0.5880
  813MPD2     N12027   1.540   1.175  13.530 -0.1251 -0.2877 -0.1265
  813MPD2    H512028   1.510   1.272  13.527  0.8054  0.0524  1.6489
  813MPD2    N112029   1.846   1.278  13.155 -0.2185  0.7069 -0.2907
  813MPD2    H712030   1.899   1.229  13.083  0.1294  1.2191 -0.3754
  814MPD2     C12031   2.236   2.652  12.615 -0.4640 -0.0033  0.4027
  814MPD2    C112032   2.234   2.671  12.483 -0.3650 -0.1040  0.3759
  814MPD2    C212033   2.258   2.801  12.438  0.4799 -0.2567 -0.6575
  814MPD2    C312034   2.286   2.897  12.531  0.2652 -0.7491 -0.3855
  814MPD2    C412035   2.293   2.875  12.670  0.3965 -0.1679 -0.6508
  814MPD2    C512036   2.265   2.746  12.713  0.6051  0.5210  0.0135
  814MPD2     H12037   2.257   2.820  12.331  1.5070  0.9771 -0.4438
  814MPD2    H112038   2.315   2.956  12.739 -0.3574 -0.3554 -0.1912
  814MPD2    H212039   2.213   2.551  12.646  0.7716 -0.6224 -0.6910
  814MPD2    H312040   2.271   2.714  12.816 -0.8982 -1.7272 -0.5891
  814MPD2     N12041   2.337   3.027  12.499 -0.6054 -0.4283 -0.2263
  814MPD2    H512042   2.385   3.075  12.575 -1.9644 -0.7422  0.8260
  814MPD2    N112043   2.215   2.575  12.381 -0.3906  0.4481 -0.2641
  814MPD2    H712044   2.234   2.618  12.291 -0.0570 -0.9421 -0.8567
  815MPD2     C12045   2.729   0.539  11.700  0.2879  0.4704 -0.1617
  815MPD2    C112046   2.673   0.513  11.575  0.3051  0.0837  0.4551
  815MPD2    C212047   2.538   0.519  11.558  0.1527  0.8257 -0.9148
  815MPD2    C312048   2.458   0.555  11.662  0.6463 -0.5299 -0.0187
  815MPD2    C412049   2.508   0.586  11.791 -0.5181  0.6643  0.3405
  815MPD2    C512050   2.644   0.583  11.804  0.0432 -0.0737 -0.3670
  815MPD2     H12051   2.499   0.486  11.463  0.5580  0.1514 -0.8472
  815MPD2    H112052   2.450   0.630  11.871  0.8536  1.3554  0.9511
  815MPD2    H212053   2.835   0.535  11.724  0.5385 -0.5947 -1.4308
  815MPD2    H312054   2.684   0.614  11.899 -0.5089 -1.1024  0.2028
  815MPD2     N12055   2.314   0.557  11.640 -0.0350 -0.1827 -0.2845
  815MPD2    H512056   2.281   0.534  11.547  0.4599  1.9521 -0.9803
  815MPD2    N112057   2.759   0.468  11.472  0.4373 -0.6587  0.1419
  815MPD2    H712058   2.855   0.469  11.504  0.1235 -1.9957  1.1350
  816MPD2     C12059   2.910   0.520  17.267 -0.1590  0.0209 -0.1218
  816MPD2    C112060   2.791   0.460  17.233 -0.2532  0.7474 -0.4407
  816MPD2    C212061   2.796   0.341  17.157 -0.2835 -0.1265  0.7418
  816MPD2    C312062   2.922   0.296  17.122  0.4360 -1.0318  0.8373
  816MPD2    C412063   3.033   0.367  17.157  0.0335  0.1233 -0.3938
  816MPD2    C512064   3.030   0.476  17.235 -0.3671 -0.0283 -0.1756
  816MPD2     H12065   2.702   0.297  17.125  0.1713  0.8850 -1.9435
  816MPD2    H112066   3.129   0.343  17.113  0.7964  1.7161  0.4049
  816MPD2    H212067   2.925   0.611  17.324  0.1497 -0.6556  0.8606
  816MPD2    H312068   3.112   0.541  17.263 -0.7886 -0.0231  1.0438
  816MPD2     N12069   2.923   0.185  17.036  0.4821  0.0144  0.0266
  816MPD2    H512070   2.836   0.137  17.015  1.1989 -0.7761 -1.1066
  816MPD2    N112071   2.668   0.515  17.286  0.2069  0.0522  0.4272
  816MPD2    H712072   2.684   0.601  17.337 -1.3338 -0.1154  1.1841
  817MPD2     C12073   2.211   0.824   8.761  0.6131 -0.4912  1.1751
  817MPD2    C112074   2.135   0.824   8.875  0.6248  0.2640  0.2946
  817MPD2    C212075   2.063   0.934   8.903  0.0019 -0.3117 -0.1970
  817MPD2    C312076   2.067   1.050   8.832  0.1045 -0.5697 -0.0327
  817MPD2    C412077   2.142   1.058   8.722  0.4076 -0.2600  0.3196
  817MPD2    C512078   2.205   0.942   8.688  0.7324  0.2483 -0.6448
  817MPD2     H12079   2.008   0.932   8.997 -0.3777 -0.3153 -0.4199
  817MPD2    H112080   2.158   1.150   8.667 -4.3524 -0.2620 -1.0154
  817MPD2    H212081   2.281   0.751   8.723  2.1170  1.3617  0.4155
  817MPD2    H312082   2.271   0.951   8.603  1.4271 -0.7679 -0.2113
  817MPD2     N12083   1.997   1.156   8.886 -0.0630  0.4744 -0.4388
  817MPD2    H512084   1.938   1.147   8.969 -1.0487 -1.7570 -1.3769
  817MPD2    N112085   2.122   0.715   8.960  0.0957  0.3835 -0.5957
  817MPD2    H712086   2.049   0.720   9.030 -0.2861 -2.1869 -0.8079
  818MPD2     C12087   0.480   1.995   9.785  0.0264 -0.2365 -0.0303
  818MPD2    C112088   0.428   1.946   9.902 -0.3595  0.3979 -0.3691
  818MPD2    C212089   0.416   1.810   9.915  0.3914 -0.2622  0.0895
  818MPD2    C312090   0.461   1.725   9.817 -0.6884  0.7540  0.6834
  818MPD2    C412091   0.511   1.779   9.701 -0.3531 -0.5584 -0.3469
  818MPD2    C512092   0.528   1.915   9.689 -0.2359 -0.2249  1.2688
  818MPD2     H12093   0.380   1.783  10.013 -2.4970  0.6807 -0.7026
  818MPD2    H112094   0.537   1.711   9.620  1.5456 -0.0907 -0.1213
  818MPD2    H212095   0.502   2.100   9.771  0.5654 -0.4386 -0.7098
  818MPD2    H312096   0.578   1.949   9.600  0.7705  0.5215  2.1162
  818MPD2     N12097   0.462   1.585   9.829  0.6768 -0.0921  0.0653
  818MPD2    H512098   0.492   1.532   9.748 -0.9130 -0.8553 -0.0207
  818MPD2    N112099   0.381   2.021  10.013 -0.3158  0.2302  0.0749
  818MPD2    H712100   0.347   1.976  10.097 -0.1616  0.7178  0.3998
  819MPD2     C12101   4.030   3.487  16.046 -0.2032 -0.5883  0.0515
  819MPD2    C112102   4.030   3.379  15.964 -0.3139  0.2133 -0.0447
  819MPD2    C212103   4.103   3.262  15.993  0.2915  0.0297 -0.4058
  819MPD2    C312104   4.195   3.267  16.095  0.7788 -0.0108 -0.1974
  819MPD2    C412105   4.196   3.380  16.174  0.3592  0.0018 -0.9767
  819MPD2    C512106   4.111   3.486  16.153 -0.6033 -0.4582  0.3267
  819MPD2     H12107   4.111   3.179  15.925 -0.2220 -0.7494  0.4791
  819MPD2    H112108   4.269   3.402  16.251  0.4683  1.3111 -1.4497
  819MPD2    H212109   3.974   3.578  16.024  1.9434 -0.1579 -3.6514
  819MPD2    H312110   4.118   3.579  16.208 -2.3843 -0.3490  0.3592
  819MPD2     N12111   4.280   3.159  16.115 -0.6804 -0.5592 -0.5393
  819MPD2    H512112   4.272   3.080  16.051  1.5047 -0.9786 -0.2967
  819MPD2    N112113   3.932   3.384  15.857  0.7634  0.0288 -0.3929
  819MPD2    H712114   3.874   3.467  15.859 -0.8277 -1.1472  2.2351
  820MPD2     C12115   3.714   3.343  14.859  0.2222 -0.1161 -0.4857
  820MPD2    C112116   3.661   3.451  14.928 -0.5915  0.0424  0.1243
  820MPD2    C212117   3.669   3.461  15.068  0.2733  0.0622  0.1540
  820MPD2    C312118   3.745   3.376  15.139 -0.5499 -0.2681  0.2959
  820MPD2    C412119   3.802   3.277  15.070  0.0474  0.6256 -0.4451
  820MPD2    C512120   3.789   3.258  14.934  0.4664  0.4621 -0.3105
  820MPD2     H12121   3.636   3.547  15.124 -1.5468 -0.2188 -0.5018
  820MPD2    H112122   3.871   3.206  15.113 -1.5160 -0.0839  0.8676
  820MPD2    H212123   3.711   3.320  14.753 -0.0287  1.5179 -0.8429
  820MPD2    H312124   3.835   3.170  14.889  0.7089  1.4123 -1.9244
  820MPD2     N12125   3.756   3.374  15.281  0.6567  0.6044 -0.1056
  820MPD2    H512126   3.797   3.289  15.317 -0.9136 -0.2878 -0.4350
  820MPD2    N112127   3.570   3.529  14.849 -0.0458  0.1494  0.2724
  820MPD2    H712128   3.570   3.511  14.749  1.8397 -1.5871  0.5785
  821MPD2     C12129   4.187   0.022  13.337 -0.0494  0.2138 -0.2313
  821MPD2    C112130   4.283   0.013  13.439 -0.4655  0.4827 -0.3499
  821MPD2    C212131   4.407   0.079  13.420 -0.0461  0.7643  0.5858
  821MPD2    C312132   4.417   0.174  13.317  0.0549 -0.5410 -0.3471
  821MPD2    C412133   4.309   0.203  13.233  0.5292  0.5768 -0.2597
  821MPD2    C512134   4.205   0.120  13.246  0.1943  0.0096 -0.2118
  821MPD2     H12135   4.490   0.060  13.487  0.0101 -1.9424 -0.2499
  821MPD2    H112136   4.306   0.286  13.164  2.7685  0.2797 -0.7172
  821MPD2    H212137   4.088   4.715  13.341 -0.0991  0.1380 -2.2437
  821MPD2    H312138   4.122   0.123  13.178 -0.4027  1.5713  0.5939
  821MPD2     N12139   4.527   0.258  13.296 -0.4719  0.0384  0.5488
  821MPD2    H512140   4.520   0.327  13.222 -0.5562  1.2562  1.6996
  821MPD2    N112141   4.273   4.669  13.553  0.4211 -0.0679  0.9847
  821MPD2    H712142   4.347   4.677  13.622  0.6179 -0.7652  0.8522
  822MPD2     C12143   4.503   0.118  15.763 -0.2231  0.7640  0.2669
  822MPD2    C112144   4.482   0.051  15.879 -0.7625  0.1307 -0.1521
  822MPD2    C212145   4.392   0.097  15.973 -0.5723  0.1820 -0.1709
  822MPD2    C312146   4.338   0.218  15.954 -0.2948  0.6552 -0.4232
  822MPD2    C412147   4.357   0.290  15.841  1.0537  0.8836  0.0633
  822MPD2    C512148   4.443   0.238  15.752  0.4624  0.6406 -0.2458
  822MPD2     H12149   4.378   0.049  16.069  0.1762  1.3563  0.5339
  822MPD2    H112150   4.299   0.379  15.821 -1.0341 -0.8362 -1.6793
  822MPD2    H212151   4.575   0.092  15.687 -3.1525 -1.7392 -1.6622
  822MPD2    H312152   4.460   0.294  15.660 -0.7599  0.5560 -0.5227
  822MPD2     N12153   4.262   0.265  16.060  0.0425  0.1452  0.0106
  822MPD2    H512154   4.242   0.202  16.137 -0.2332  1.7627  1.2812
  822MPD2    N112155   4.553   4.673  15.911 -0.2435 -0.3434  0.2980
  822MPD2    H712156   4.546   4.634  16.004  0.2756 -0.8515  0.1290
  823MPD2     C12157   4.009   0.261  16.872 -0.0540  0.1695  0.4492
  823MPD2    C112158   4.065   0.220  16.752  0.0659 -0.4173  0.2245
  823MPD2    C212159   4.165   0.120  16.764  0.1091  0.5384  0.1240
  823MPD2    C312160   4.193   0.060  16.890  0.8121 -0.3374 -0.7027
  823MPD2    C412161   4.137   0.116  17.004 -0.0550 -0.0045 -0.6080
  823MPD2    C512162   4.043   0.210  16.993  0.4812 -0.3724  0.0615
  823MPD2     H12163   4.210   0.096  16.668  0.0232 -1.8696  0.6925
  823MPD2    H112164   4.153   0.071  17.102 -1.0171  0.3506 -0.2876
  823MPD2    H212165   3.942   0.346  16.875  0.3205  0.4902 -0.1253
  823MPD2    H312166   4.009   0.255  17.085 -0.5254 -0.7098 -0.1434
  823MPD2     N12167   4.290   4.692  16.903 -0.1651  0.2607  0.3482
  823MPD2    H512168   4.297   4.643  16.992  1.7461  0.0966  0.1049
  823MPD2    N112169   4.026   0.278  16.631 -0.0695  0.0075  0.4803
  823MPD2    H712170   3.968   0.359  16.649 -0.2913  0.1572 -0.8662
  824MPD2     C12171   0.224   3.849  15.805 -0.4477 -0.3842  0.0850
  824MPD2    C112172   0.264   3.980  15.781  0.1453  0.4612  0.7009
  824MPD2    C212173   0.386   4.007  15.724 -1.1118 -0.0339  0.3789
  824MPD2    C312174   0.470   3.903  15.692 -0.2138 -0.3566  0.2230
  824MPD2    C412175   0.424   3.772  15.695  0.3693  0.0409 -0.6166
  824MPD2    C512176   0.297   3.747  15.746  1.3038  0.4670  0.3940
  824MPD2     H12177   0.423   4.109  15.728 -0.1977 -0.3969  1.3555
  824MPD2    H112178   0.481   3.688  15.658  0.9482 -0.4025  1.2864
  824MPD2    H212179   0.129   3.824  15.851 -1.0944  1.0838 -0.4567
  824MPD2    H312180   0.268   3.643  15.758  2.1810  0.3331  1.3257
  824MPD2     N12181   0.601   3.931  15.649 -0.2886 -0.2693 -0.1282
  824MPD2    H512182   0.617   4.027  15.621  0.0082 -0.4441 -0.5567
  824MPD2    N112183   0.183   4.085  15.828  0.1909 -0.8594  0.4519
  824MPD2    H712184   0.114   4.065  15.900 -1.1647 -2.8701 -1.4008
  825MPD2     C12185   1.311   4.384  15.474 -0.1999 -0.4662  0.3262
  825MPD2    C112186   1.196   4.371  15.549  0.5490  1.0194 -0.5662
  825MPD2    C212187   1.137   4.483  15.612  0.1680 -0.1349  0.6313
  825MPD2    C312188   1.174   4.609  15.567 -0.2333 -0.2892 -0.3627
  825MPD2    C412189   1.268   4.619  15.469  0.6119  0.2300  0.1161
  825MPD2    C512190   1.346   4.511  15.443 -0.1186 -0.1283 -0.2511
  825MPD2     H12191   1.047   4.474  15.671 -1.4894  1.0869 -1.7038
  825MPD2    H112192   1.292   4.712  15.419 -2.1226  1.9208  1.9410
  825MPD2    H212193   1.361   4.295  15.436 -0.9710 -0.1309 -1.5120
  825MPD2    H312194   1.426   4.537  15.375  0.9769 -0.5147  0.8848
  825MPD2     N12195   1.100   4.726  15.599  0.5282 -0.1382 -0.0987
  825MPD2    H512196   1.112   0.073  15.543 -0.5245  0.4564  0.5474
  825MPD2    N112197   1.140   4.245  15.560 -0.3400 -0.6709 -0.1158
  825MPD2    H712198   1.188   4.165  15.521  0.6845 -1.2780  2.3772
  826MPD2     C12199   0.678   4.344  14.068  0.8078 -0.3504  0.2483
  826MPD2    C112200   0.674   4.359  13.935  0.3179  0.3381  0.1162
  826MPD2    C212201   0.663   4.490  13.884  0.3538 -0.1760  0.1404
  826MPD2    C312202   0.657   4.606  13.961 -0.5338 -0.1324  0.0187
  826MPD2    C412203   0.664   4.587  14.094 -0.1077  0.7447  0.1787
  826MPD2    C512204   0.675   4.459  14.144  0.0208  0.8397 -0.7348
  826MPD2     H12205   0.638   4.498  13.778  1.6858  0.8599 -0.0913
  826MPD2    H112206   0.657   4.675  14.157 -1.4701 -0.4856  1.7477
  826MPD2    H212207   0.683   4.247  14.117  1.0377  0.7103  2.3425
  826MPD2    H312208   0.673   4.450  14.252 -0.8533 -0.7869 -0.8947
  826MPD2     N12209   0.649   4.735  13.914  0.3207  0.2340 -0.4119
  826MPD2    H512210   0.668   0.076  13.977 -1.0521  0.0129  0.2574
  826MPD2    N112211   0.688   4.241  13.857  0.1861 -0.7596  0.5294
  826MPD2    H712212   0.718   4.161  13.912  0.0193 -0.7683  0.6082
  827MPD2     C12213   1.554   0.912   9.699  0.0478  0.1345 -0.3837
  827MPD2    C112214   1.527   0.854   9.814 -0.0202 -0.0606  0.5695
  827MPD2    C212215   1.394   0.807   9.829 -0.2927 -0.1086  0.4859
  827MPD2    C312216   1.299   0.812   9.726  0.1199 -0.3686  0.0790
  827MPD2    C412217   1.339   0.880   9.611 -0.3084  0.3174  0.4897
  827MPD2    C512218   1.462   0.935   9.599  0.2666 -0.0454 -0.0173
  827MPD2     H12219   1.376   0.753   9.921 -2.2082  1.1191  0.8203
  827MPD2    H112220   1.272   0.887   9.526  1.2886 -1.0471 -0.8779
  827MPD2    H212221   1.653   0.956   9.684 -0.0919  0.9634  1.1577
  827MPD2    H312222   1.478   0.983   9.503  0.5640 -0.5074 -0.1992
  827MPD2     N12223   1.167   0.762   9.747 -0.3182 -0.1557 -0.1177
  827MPD2    H512224   1.136   0.747   9.843 -0.6157  2.0984  0.1431
  827MPD2    N112225   1.638   0.831   9.904 -0.0823 -1.2706  0.5575
  827MPD2    H712226   1.727   0.868   9.871 -0.6658  0.2635  0.7043
  828MPD2     C12227   0.055   0.722  12.505  0.0870  0.5930  0.7433
  828MPD2    C112228   4.669   0.725  12.435 -1.2048  0.6566  0.3562
  828MPD2    C212229   4.677   0.726  12.299 -0.8721  0.5910 -0.0132
  828MPD2    C312230   0.057   0.741  12.231  0.1081  0.5419 -0.1293
  828MPD2    C412231   0.176   0.739  12.298  0.3536 -0.4860 -0.5164
  828MPD2    C512232   0.169   0.731  12.432 -0.4432 -0.0647  0.3916
  828MPD2     H12233   4.590   0.725  12.234 -1.3098 -0.0918  0.5794
  828MPD2    H112234   0.273   0.737  12.250  0.4587 -2.1529 -0.2250
  828MPD2    H212235   0.057   0.723  12.613 -1.0809  2.9855  0.7411
  828MPD2    H312236   0.258   0.735  12.494 -0.8718  0.4729  0.9761
  828MPD2     N12237   0.071   0.747  12.088  0.0898 -0.1419 -0.2044
  828MPD2    H512238   0.153   0.790  12.046  0.1947  0.3226  0.4659
  828MPD2    N112239   4.542   0.738  12.497  0.3688  0.4313  0.0268
  828MPD2    H712240   4.464   0.764  12.438 -0.3439 -0.1602  0.7145
  829MPD2     C12241   3.830   0.709  12.073  0.2306  1.1181 -0.6846
  829MPD2    C112242   3.808   0.615  12.165 -0.2700  0.0611  0.0725
  829MPD2    C212243   3.875   0.619  12.284  0.0294  0.9190 -0.3234
  829MPD2    C312244   3.980   0.703  12.298 -0.5132 -0.5883 -0.0871
  829MPD2    C412245   4.011   0.792  12.199 -0.0182  0.0539  0.5200
  829MPD2    C512246   3.941   0.788  12.079  0.5209 -0.3575 -0.2958
  829MPD2     H12247   3.857   0.545  12.361  1.1354 -1.1463 -2.0259
  829MPD2    H112248   4.100   0.855  12.195  0.3378 -0.3995  1.3553
  829MPD2    H212249   3.789   0.708  11.973  2.8880  1.8893 -1.7844
  829MPD2    H312250   3.957   0.862  12.001  0.7158 -0.6102 -0.4961
  829MPD2     N12251   4.064   0.698  12.407 -0.1506  0.2641  0.4297
  829MPD2    H512252   4.142   0.763  12.409 -0.1374  0.3071 -1.7954
  829MPD2    N112253   3.709   0.519  12.134  0.3632 -0.3851 -0.3911
  829MPD2    H712254   3.650   0.534  12.053  0.8106  2.2331 -0.2347
  830MPD2     C12255   4.420   2.687  15.693 -0.0842  0.5041  0.3620
  830MPD2    C112256   4.497   2.800  15.729  0.1226 -0.0939  0.5485
  830MPD2    C212257   4.553   2.883  15.636 -0.0214  0.2966 -0.3714
  830MPD2    C312258   4.549   2.841  15.502 -0.0664 -0.1322  0.9200
  830MPD2    C412259   4.491   2.720  15.469 -0.4918  0.6246  0.1707
  830MPD2    C512260   4.417   2.652  15.561 -0.5675  0.1306 -0.4604
  830MPD2     H12261   4.607   2.974  15.657 -0.3082  0.1451  0.9844
  830MPD2    H112262   4.503   2.680  15.369 -1.4249  1.5602 -0.3193
  830MPD2    H212263   4.362   2.631  15.765  0.8367  1.3787  1.7857
  830MPD2    H312264   4.353   2.567  15.542  2.2689 -1.5847 -2.2566
  830MPD2     N12265   4.599   2.911  15.398  0.1464 -0.5077 -0.0479
  830MPD2    H512266   4.573   2.875  15.306 -1.1003  1.3446 -0.4134
  830MPD2    N112267   4.518   2.822  15.867  0.4242 -0.0255 -0.0738
  830MPD2    H712268   4.455   2.773  15.929 -0.6689 -0.5056 -1.5724
  831MPD2     C12269   4.516   0.357  16.335  0.6126 -0.2381 -1.0509
  831MPD2    C112270   4.567   0.262  16.254 -0.5928  0.6373  0.3397
  831MPD2    C212271   4.529   0.129  16.268 -0.3949  0.8257  0.3313
  831MPD2    C312272   4.439   0.096  16.366 -0.4456  0.7498  0.0756
  831MPD2    C412273   4.400   0.192  16.455 -0.3089 -0.1923  0.3635
  831MPD2    C512274   4.442   0.321  16.447  0.1352 -0.4475 -0.4066
  831MPD2     H12275   4.571   0.061  16.195 -0.5831 -0.0695  1.0517
  831MPD2    H112276   4.345   0.169  16.546  0.2266  0.9097  0.9667
  831MPD2    H212277   4.558   0.456  16.326  0.9178 -0.3159 -0.5102
  831MPD2    H312278   4.414   0.398  16.519  0.1323 -1.8778  1.1112
  831MPD2     N12279   4.374   4.711  16.375  0.3284  0.2857 -0.7520
  831MPD2    H512280   4.299   4.701  16.443  1.2764 -0.2868  0.2196
  831MPD2    N112281   4.651   0.306  16.149 -0.0911 -0.2436  0.0872
  831MPD2    H712282   4.650   0.406  16.130  2.3202 -0.1392  0.5049
  832MPD2     C12283   3.387   1.379  17.435 -0.4337  0.7209  0.2934
  832MPD2    C112284   3.370   1.488  17.358  0.2991 -0.4120 -0.0567
  832MPD2    C212285   3.255   1.501  17.275  0.0391  0.1682 -1.3035
  832MPD2    C312286   3.154   1.402  17.277 -0.0240  0.3254 -0.1720
  832MPD2    C412287   3.174   1.294  17.356 -0.4446  0.6434  0.6493
  832MPD2    C512288   3.289   1.278  17.434  0.4961 -0.1920  0.1565
  832MPD2     H12289   3.258   1.575  17.196 -3.1546 -0.0803 -1.6529
  832MPD2    H112290   3.099   1.215  17.359  0.2556 -0.0513 -0.3977
  832MPD2    H212291   3.460   1.387  17.515  0.4924  1.5094 -0.6269
  832MPD2    H312292   3.298   1.190  17.496  0.8101 -1.8033 -2.1822
  832MPD2     N12293   3.031   1.402  17.205 -0.4790 -0.6898 -0.6601
  832MPD2    H512294   2.962   1.329  17.223 -0.6778  0.1958  2.0498
  832MPD2    N112295   3.457   1.594  17.386 -0.0501  0.1210  0.3581
  832MPD2    H712296   3.530   1.570  17.452  1.0434  1.4020 -0.3716
  833MPD2     C12297   1.051   3.402  12.562  0.4083 -0.5022  0.0531
  833MPD2    C112298   0.988   3.435  12.440 -0.0317  0.2161  0.5990
  833MPD2    C212299   1.051   3.392  12.323  0.0765 -0.6548  0.0107
  833MPD2    C312300   1.154   3.304  12.335 -0.4161  0.4399 -0.2017
  833MPD2    C412301   1.212   3.267  12.448  0.0624 -0.0234 -0.4341
  833MPD2    C512302   1.162   3.323  12.567  0.0122 -0.3287  0.0909
  833MPD2     H12303   1.000   3.411  12.229  0.7797 -1.3730 -0.5193
  833MPD2    H112304   1.304   3.211  12.455 -0.8854 -1.3443  1.6424
  833MPD2    H212305   0.999   3.432  12.653 -0.9768 -0.9418 -0.5940
  833MPD2    H312306   1.209   3.295  12.661  1.3296 -3.4981 -1.5322
  833MPD2     N12307   1.197   3.249  12.208 -0.1090 -0.7173 -0.4313
  833MPD2    H512308   1.142   3.269  12.125 -0.4020 -3.4764 -0.8919
  833MPD2    N112309   0.877   3.521  12.438  0.5677  0.2290  0.9406
  833MPD2    H712310   0.829   3.537  12.526  2.8601 -2.7009  2.7126
  834MPD2     C12311   0.827   2.436  11.818 -0.2127 -0.7922  0.1980
  834MPD2    C112312   0.843   2.526  11.711 -0.6628  0.1271  0.7139
  834MPD2    C212313   0.916   2.641  11.727  0.0792 -0.0412 -0.0805
  834MPD2    C312314   0.986   2.662  11.843  0.7311 -0.3918  0.6056
  834MPD2    C412315   0.984   2.569  11.941  0.1159  0.6386 -0.7121
  834MPD2    C512316   0.899   2.463  11.931 -0.2047  0.4463 -0.4549
  834MPD2     H12317   0.926   2.707  11.642  1.8501  0.5086  0.5673
  834MPD2    H112318   1.044   2.563  12.031 -3.2400  0.9061  1.5785
  834MPD2    H212319   0.755   2.355  11.823 -1.6071  0.3578 -1.2065
  834MPD2    H312320   0.905   2.390  12.011  4.9708  0.2131 -1.0481
  834MPD2     N12321   1.055   2.783  11.850  0.4934  0.4551 -0.4068
  834MPD2    H512322   1.037   2.851  11.777 -3.6157 -0.8436 -0.5774
  834MPD2    N112323   0.780   2.488  11.590 -0.0099  0.6138 -0.4911
  834MPD2    H712324   0.709   2.416  11.598  0.0147  0.5783 -0.5904
  835MPD2     C12325   0.421   1.035  10.997  0.7102  0.0493  0.1874
  835MPD2    C112326   0.352   1.096  11.104 -0.3407 -0.1989  0.0275
  835MPD2    C212327   0.408   1.095  11.229 -0.1555  0.5361  0.3341
  835MPD2    C312328   0.524   1.032  11.257 -0.3697  0.5087 -0.4590
  835MPD2    C412329   0.597   0.979  11.150  0.6707 -0.1325 -0.7044
  835MPD2    C512330   0.545   0.981  11.025 -0.3677  0.4252 -0.0311
  835MPD2     H12331   0.347   1.152  11.298  0.1488 -0.6998  1.6369
  835MPD2    H112332   0.689   0.929  11.175  1.5455  0.7536 -2.1701
  835MPD2    H212333   0.384   1.032  10.895 -0.5017 -2.5640  0.6880
  835MPD2    H312334   0.604   0.944  10.942 -0.3770  0.2175  0.0541
  835MPD2     N12335   0.571   1.004  11.393 -0.2840 -0.0529 -0.6564
  835MPD2    H512336   0.651   0.942  11.401  1.7570  2.8094  1.2360
  835MPD2    N112337   0.220   1.151  11.087 -0.3290 -0.2650 -0.1224
  835MPD2    H712338   0.176   1.195  11.167 -1.5520 -0.7515 -0.5352
  836MPD2     C12339   0.000   1.159  11.760 -0.4124 -0.1310 -0.5259
  836MPD2    C112340   0.088   1.100  11.853  0.2068  0.1814  0.6298
  836MPD2    C212341   0.051   1.096  11.984  0.4247  0.2702  0.6168
  836MPD2    C312342   4.676   1.172  12.035  0.4490 -0.1686  0.2780
  836MPD2    C412343   4.599   1.233  11.945  0.3027 -0.4053 -0.7154
  836MPD2    C512344   4.621   1.221  11.810  0.9538 -0.3144 -0.5394
  836MPD2     H12345   0.109   1.035  12.052  2.7725  0.5714 -1.1228
  836MPD2    H112346   4.510   1.281  11.985  1.2869  0.9266 -0.1547
  836MPD2    H212347   0.014   1.167  11.653 -0.6111  1.4717 -0.4351
  836MPD2    H312348   4.554   1.274  11.743  1.0087 -2.2495 -2.1214
  836MPD2     N12349   4.646   1.182  12.177 -0.3915 -0.9645  0.1502
  836MPD2    H512350   4.553   1.214  12.204 -0.8643 -2.0274 -0.2194
  836MPD2    N112351   0.209   1.038  11.801  0.4448 -0.1423  0.4579
  836MPD2    H712352   0.231   1.066  11.706 -0.9109  0.8738  0.4364
  837MPD2     C12353   3.494   4.728  10.567  0.7574 -0.3898 -0.0888
  837MPD2    C112354   3.513   0.013  10.434  0.0079  0.7372  0.1641
  837MPD2    C212355   3.543   0.148  10.390 -0.3414 -0.0092 -0.1670
  837MPD2    C312356   3.538   0.255  10.481  0.7642 -0.6187 -0.4036
  837MPD2    C412357   3.532   0.224  10.613 -0.4084 -0.1921  0.0032
  837MPD2    C512358   3.512   0.095  10.655  0.0218 -0.2653  0.2586
  837MPD2     H12359   3.564   0.170  10.286 -2.0841 -1.4034 -0.8123
  837MPD2    H112360   3.528   0.298  10.691 -1.4109 -0.3668  0.1155
  837MPD2    H212361   3.459   4.634  10.608 -0.1638 -0.6563 -1.4394
  837MPD2    H312362   3.489   0.081  10.760  1.4070 -2.3231  0.2768
  837MPD2     N12363   3.514   0.385  10.427 -0.2383  0.1880 -0.4425
  837MPD2    H512364   3.512   0.388  10.325  1.3503 -3.7296 -0.5858
  837MPD2    N112365   3.480   4.654  10.340  0.0231  0.2182  0.2503
  837MPD2    H712366   3.477   4.691  10.246  2.0407 -3.1139 -1.1090
  838MPD2     C12367   2.014   3.594  11.537 -0.4208 -0.2325  0.2434
  838MPD2    C112368   2.125   3.589  11.621 -0.5492 -0.4695  0.0399
  838MPD2    C212369   2.131   3.485  11.714 -0.4204  0.2148  0.7030
  838MPD2    C312370   2.044   3.383  11.720  0.5721  0.4575 -0.1971
  838MPD2    C412371   1.934   3.395  11.632 -0.4688 -0.1577  0.5997
  838MPD2    C512372   1.919   3.498  11.544 -0.1941 -0.1617 -0.0031
  838MPD2     H12373   2.219   3.483  11.777  1.2393  2.0588 -1.5981
  838MPD2    H112374   1.847   3.332  11.646 -1.2304  0.7446 -0.0504
  838MPD2    H212375   1.991   3.680  11.475  1.8724  0.5065  0.4143
  838MPD2    H312376   1.823   3.503  11.494 -0.6648 -2.4568  0.6754
  838MPD2     N12377   2.064   3.275  11.812  0.0348  0.2605 -0.4997
  838MPD2    H512378   2.132   3.292  11.885  0.9324 -1.7409 -0.8848
  838MPD2    N112379   2.235   3.685  11.623  0.2087 -0.6421 -0.4660
  838MPD2    H712380   2.307   3.666  11.690  0.6421  3.5746  0.2674
  839MPD2     C12381   2.446   3.128  11.899 -0.1867  0.2637 -0.0313
  839MPD2    C112382   2.388   3.121  11.778 -0.8381 -0.2664  0.7217
  839MPD2    C212383   2.406   3.226  11.688 -0.0114  0.5314  0.0926
  839MPD2    C312384   2.489   3.338  11.723  0.4094 -0.1080 -0.2401
  839MPD2    C412385   2.538   3.338  11.849  0.4766  0.5311  0.1192
  839MPD2    C512386   2.518   3.235  11.931  0.7913 -0.4444 -0.0304
  839MPD2     H12387   2.355   3.223  11.593  1.9894 -1.2207 -0.9222
  839MPD2    H112388   2.591   3.426  11.884 -1.9597  2.1954 -0.3513
  839MPD2    H212389   2.457   3.041  11.963  1.1531 -0.7173 -1.5974
  839MPD2    H312390   2.561   3.242  12.031 -1.0157 -2.5890  0.9010
  839MPD2     N12391   2.524   3.453  11.636  0.2292 -0.5534  0.4068
  839MPD2    H512392   2.574   3.533  11.673 -2.1759  1.3822 -0.5073
  839MPD2    N112393   2.298   3.017  11.741 -0.1185 -0.0714 -0.1210
  839MPD2    H712394   2.269   3.029  11.644  0.1523  0.0665 -0.1855
  840MPD2     C12395   1.972   1.207  10.348  0.2207  0.3856  0.3075
  840MPD2    C112396   2.055   1.105  10.316  0.7084  0.7274 -0.1082
  840MPD2    C212397   2.186   1.109  10.366 -0.0044  0.8722  0.7875
  840MPD2    C312398   2.230   1.226  10.433 -0.2101 -0.6003  0.2837
  840MPD2    C412399   2.140   1.328  10.454 -0.3537  0.0915  0.1836
  840MPD2    C512400   2.014   1.321  10.418 -0.3900  0.0771  0.3031
  840MPD2     H12401   2.254   1.025  10.353  0.6959  1.5207  0.2499
  840MPD2    H112402   2.166   1.415  10.513 -0.7688  0.1014  0.3521
  840MPD2    H212403   1.874   1.215  10.301  0.6706  3.2210 -0.1532
  840MPD2    H312404   1.937   1.393  10.445  0.5576  1.1543  0.1560
  840MPD2     N12405   2.358   1.236  10.495  0.6498 -0.1827  0.6080
  840MPD2    H512406   2.376   1.317  10.555  0.7293 -0.6935  1.2748
  840MPD2    N112407   1.997   0.992  10.250 -0.8324  0.2769  0.4510
  840MPD2    H712408   1.899   1.005  10.227 -0.9031 -1.4297 -0.2536
  841MPD2     C12409   1.369   0.387  14.409 -0.8938  1.1560  0.2084
  841MPD2    C112410   1.465   0.393  14.306 -0.5950 -1.4073 -0.0987
  841MPD2    C212411   1.598   0.414  14.337  0.2499 -0.0445 -0.2437
  841MPD2    C312412   1.623   0.472  14.461 -0.7345  0.1352 -0.1371
  841MPD2    C412413   1.522   0.482  14.556  0.4521 -0.0702  0.5689
  841MPD2    C512414   1.393   0.449  14.525  0.7130  0.0327  0.2352
  841MPD2     H12415   1.676   0.407  14.262  0.4836  1.3574 -0.1192
  841MPD2    H112416   1.549   0.509  14.657  0.8113  1.9705 -0.0775
  841MPD2    H212417   1.272   0.340  14.398  0.9040 -2.9574  1.5375
  841MPD2    H312418   1.319   0.447  14.605 -0.6999  1.3388 -1.0510
  841MPD2     N12419   1.751   0.527  14.490 -0.1734  0.1257  0.0246
  841MPD2    H512420   1.820   0.498  14.421  0.0585  0.0925  0.2708
  841MPD2    N112421   1.429   0.372  14.170 -0.4384 -0.4206  0.3567
  841MPD2    H712422   1.506   0.374  14.103 -0.7957 -1.4666 -0.0760
  842MPD2     C12423   2.545   1.787  17.072  0.6654  0.0692 -0.3565
  842MPD2    C112424   2.460   1.684  17.046  0.3126 -0.0486  0.5898
  842MPD2    C212425   2.461   1.569  17.125 -0.2048 -0.4390 -0.2062
  842MPD2    C312426   2.540   1.566  17.241  0.3280 -0.1761  0.4108
  842MPD2    C412427   2.631   1.671  17.254 -1.4343  0.3640  0.7856
  842MPD2    C512428   2.630   1.783  17.176  0.6010  0.1277 -0.6441
  842MPD2     H12429   2.396   1.483  17.107 -0.9045  0.2633 -1.0254
  842MPD2    H112430   2.698   1.672  17.339 -0.4798  0.4161  0.0327
  842MPD2    H212431   2.539   1.882  17.020  1.4477  1.3250  1.8593
  842MPD2    H312432   2.697   1.867  17.192 -0.4995  0.1740  3.6328
  842MPD2     N12433   2.561   1.468  17.339 -0.2743  0.4547 -0.4274
  842MPD2    H512434   2.648   1.483  17.389 -0.9173  2.1158  0.1925
  842MPD2    N112435   2.376   1.695  16.933 -0.0890 -0.5441  0.1577
  842MPD2    H712436   2.363   1.791  16.904  1.6611  0.2314  1.9447
  843MPD2     C12437   4.347   2.189  17.666 -0.2469 -0.2372  0.8224
  843MPD2    C112438   4.354   2.137   0.051 -0.1288 -0.0336  0.5037
  843MPD2    C212439   4.400   2.218   0.159  0.2254 -0.6758 -0.4864
  843MPD2    C312440   4.460   2.334   0.133  0.6171  0.6081  0.4401
  843MPD2    C412441   4.474   2.381   0.001  0.7089  0.5652 -0.0932
  843MPD2    C512442   4.410   2.311  17.643  1.3909 -0.4021  0.2079
  843MPD2     H12443   4.384   2.187   0.261 -0.4366  0.8021 -0.1355
  843MPD2    H112444   4.520   2.477  17.724  2.5020  0.3060  2.7606
  843MPD2    H212445   4.302   2.137  17.582 -2.3113  3.1650 -0.1427
  843MPD2    H312446   4.407   2.354  17.543 -0.0674  0.9418  0.8452
  843MPD2     N12447   4.514   2.420   0.237  0.0509 -0.0330 -0.5069
  843MPD2    H512448   4.539   2.517   0.218 -0.5039  0.2424  0.1441
  843MPD2    N112449   4.309   2.001   0.071  0.1124  0.2147  0.3415
  843MPD2    H712450   4.265   1.962  17.732  0.8487  0.2424 -0.0606
  844MPD2     C12451   2.846   0.976  16.695 -0.3681  0.2635  0.7347
  844MPD2    C112452   2.934   1.032  16.605  0.8069 -0.4324  0.0750
  844MPD2    C212453   3.000   1.145  16.629  0.2382 -0.1891 -0.1036
  844MPD2    C312454   3.000   1.194  16.756  0.3397 -0.2326 -0.9678
  844MPD2    C412455   2.922   1.137  16.856 -0.1567  0.2619 -0.7074
  844MPD2    C512456   2.846   1.027  16.818  0.2837  0.7175  0.7291
  844MPD2     H12457   3.065   1.201  16.562  2.6760 -1.4211  1.2122
  844MPD2    H112458   2.940   1.171  16.958 -0.4539 -0.1367 -0.5220
  844MPD2    H212459   2.782   0.891  16.677 -0.9131  0.6967  0.6471
  844MPD2    H312460   2.786   0.979  16.895 -0.9231 -0.1487 -0.7708
  844MPD2     N12461   3.099   1.292  16.780  0.2890  0.1497 -0.0760
  844MPD2    H512462   3.126   1.340  16.694  0.4443  1.0154  0.4565
  844MPD2    N112463   2.953   0.982  16.473  0.3636 -0.7308 -0.1919
  844MPD2    H712464   2.990   1.049  16.407 -0.6922  1.6885  1.6910
  845MPD2     C12465   3.220   2.231  16.960 -0.5691 -0.7513 -0.3615
  845MPD2    C112466   3.239   2.169  17.080 -0.3390  0.0584 -0.4364
  845MPD2    C212467   3.263   2.037  17.073 -0.2316  0.3608  0.3258
  845MPD2    C312468   3.281   1.967  16.957 -0.3393  0.3298 -0.1819
  845MPD2    C412469   3.275   2.042  16.842  0.2448 -0.7017  0.4697
  845MPD2    C512470   3.248   2.176  16.839 -0.2777  0.6637 -0.4811
  845MPD2     H12471   3.272   1.981  17.165 -0.4081 -0.3152 -0.0715
  845MPD2    H112472   3.287   1.987  16.749 -0.1489 -0.4643  0.2779
  845MPD2    H212473   3.196   2.337  16.958  0.9941 -0.3853 -0.1399
  845MPD2    H312474   3.222   2.234  16.751 -1.7366  1.6118  0.5762
  845MPD2     N12475   3.308   1.831  16.965  0.3148 -0.2121 -0.4601
  845MPD2    H512476   3.320   1.778  17.050  0.5209  2.0143  0.8965
  845MPD2    N112477   3.224   2.242  17.203 -0.6485  0.1757  0.0402
  845MPD2    H712478   3.183   2.333  17.186 -2.2601 -0.4823  0.4522
  846MPD2     C12479   0.079   2.658  14.149 -0.6526 -0.1977 -0.4122
  846MPD2    C112480   4.682   2.651  14.116  0.3978 -0.0584 -0.8218
  846MPD2    C212481   4.584   2.621  14.214  0.7231 -0.2168  0.3648
  846MPD2    C312482   4.621   2.606  14.345 -0.0214  0.2669  0.7514
  846MPD2    C412483   0.022   2.618  14.379 -0.5917  0.1655  0.3790
  846MPD2    C512484   0.117   2.650  14.283 -0.0391 -0.3735  0.3281
  846MPD2     H12485   4.479   2.611  14.188  1.2756  0.1170 -1.9633
  846MPD2    H112486   0.060   2.608  14.480 -1.7106 -2.4419  0.5420
  846MPD2    H212487   0.155   2.666  14.072  0.0623  0.8054  0.3800
  846MPD2    H312488   0.219   2.660  14.315 -0.3586  0.0316  1.1987
  846MPD2     N12489   4.521   2.563  14.437  0.1964  0.5685 -0.1869
  846MPD2    H512490   4.426   2.545  14.407  0.3799 -2.0858  0.7729
  846MPD2    N112491   4.643   2.659  13.985 -0.0937  0.1134 -0.6008
  846MPD2    H712492   4.545   2.674  13.963 -0.3521  1.1891  1.2694
  847MPD2     C12493   0.660   3.523  14.234 -0.3510 -0.1647  0.6606
  847MPD2    C112494   0.557   3.544  14.325  0.1972  0.1036  0.7538
  847MPD2    C212495   0.590   3.579  14.456 -0.1533  0.4435  0.2031
  847MPD2    C312496   0.714   3.564  14.501  0.4108 -0.0440  0.0932
  847MPD2    C412497   0.813   3.541  14.417 -0.0100  0.4499 -0.3202
  847MPD2    C512498   0.789   3.520  14.287  0.0025 -0.2838  0.2940
  847MPD2     H12499   0.506   3.594  14.523 -1.1809 -0.9369 -0.7828
  847MPD2    H112500   0.919   3.535  14.442 -0.4436 -3.9412  0.4597
  847MPD2    H212501   0.637   3.502  14.131  1.3712 -1.4917  0.5508
  847MPD2    H312502   0.869   3.490  14.221  0.6474 -1.5170  1.6210
  847MPD2     N12503   0.724   3.587  14.638  0.5192 -0.4278 -0.1779
  847MPD2    H512504   0.643   3.623  14.687  2.4280  1.1250  1.9064
  847MPD2    N112505   0.430   3.583  14.292  0.0236 -0.0692  1.1911
  847MPD2    H712506   0.379   3.626  14.369  1.1948 -0.5947  2.2561
  848MPD2     C12507   2.691   1.738  16.487 -0.2237  0.1667 -0.1497
  848MPD2    C112508   2.752   1.781  16.602  0.1362 -0.2132  0.3065
  848MPD2    C212509   2.811   1.904  16.604 -0.4167  0.6571  1.1170
  848MPD2    C312510   2.781   1.993  16.508 -0.8708 -0.0198 -0.1560
  848MPD2    C412511   2.715   1.956  16.392 -0.0103 -0.0141 -0.3301
  848MPD2    C512512   2.666   1.830  16.388 -0.5122  0.5176  0.3772
  848MPD2     H12513   2.864   1.926  16.695  2.8823 -0.8350 -0.4671
  848MPD2    H112514   2.703   2.031  16.315 -0.3670 -0.8227 -1.0595
  848MPD2    H212515   2.642   1.646  16.460  0.8993 -1.4537  3.4113
  848MPD2    H312516   2.604   1.797  16.305  0.9956  0.4271 -0.7038
  848MPD2     N12517   2.829   2.123  16.496 -0.0199 -0.2449  0.1398
  848MPD2    H512518   2.800   2.184  16.421  0.8700  0.9186  0.7480
  848MPD2    N112519   2.769   1.701  16.715  0.0108  0.0488 -0.3902
  848MPD2    H712520   2.809   1.739  16.800  1.4314 -0.9827 -0.5923
  849MPD2     C12521   1.331   1.460  14.019  0.1078 -0.3485 -0.8191
  849MPD2    C112522   1.424   1.404  14.105  0.2012  0.0153  0.3838
  849MPD2    C212523   1.386   1.340  14.223  0.1187  0.2441 -0.0582
  849MPD2    C312524   1.247   1.332  14.252  0.2740  0.0742 -0.1929
  849MPD2    C412525   1.151   1.372  14.160 -0.4829 -0.2348  0.0361
  849MPD2    C512526   1.196   1.437  14.045  0.2599  0.1138 -0.6035
  849MPD2     H12527   1.458   1.323  14.302  0.5783 -0.7392 -0.7021
  849MPD2    H112528   1.044   1.368  14.179 -0.4571 -0.3508  0.1631
  849MPD2    H212529   1.351   1.504  13.922 -1.6115  0.7161 -0.6967
  849MPD2    H312530   1.121   1.461  13.971 -1.2518 -1.8311  0.3203
  849MPD2     N12531   1.218   1.280  14.379  0.3399  0.2685  0.1319
  849MPD2    H512532   1.286   1.247  14.447 -1.1421 -0.3272  1.3142
  849MPD2    N112533   1.562   1.388  14.075 -0.4751 -0.1610  0.4978
  849MPD2    H712534   1.627   1.363  14.149 -0.4055  3.2235  1.5786
  850MPD2     C12535   4.719   4.396  14.602  0.0811  0.1150  0.1941
  850MPD2    C112536   4.732   4.426  14.738 -0.3029  0.3275  0.6858
  850MPD2    C212537   0.065   4.543  14.780 -0.3832  0.1325  0.1241
  850MPD2    C312538   0.137   4.621  14.686 -0.4069 -0.1899  0.4934
  850MPD2    C412539   0.137   4.579  14.556 -0.2635 -0.6364  0.0279
  850MPD2    C512540   0.055   4.478  14.515  0.1954  0.1862 -0.1831
  850MPD2     H12541   0.073   4.561  14.887 -1.3076  1.8764 -0.1137
  850MPD2    H112542   0.200   4.629  14.483 -1.2458  0.9292  0.2637
  850MPD2    H212543   4.658   4.317  14.559  0.6365 -0.2523  0.0853
  850MPD2    H312544   0.062   4.450  14.411 -2.5270 -1.6565  0.1254
  850MPD2     N12545   0.228   4.718  14.728 -0.4930 -0.5134 -0.2790
  850MPD2    H512546   0.298   4.730  14.656  0.8401 -0.0521  1.0964
  850MPD2    N112547   4.665   4.349  14.842 -0.0326  0.6312  0.6347
  850MPD2    H712548   4.690   4.382  14.934  1.4911 -2.6131  1.3975
  851MPD2     C12549   0.313   3.827  15.283 -0.7006 -0.4401  0.2034
  851MPD2    C112550   0.220   3.808  15.190  0.2156 -0.7318 -0.3573
  851MPD2    C212551   0.206   3.679  15.142 -0.5838 -0.0366 -0.4324
  851MPD2    C312552   0.272   3.573  15.195 -0.3145  0.1006  0.9232
  851MPD2    C412553   0.363   3.598  15.297  0.5790  0.3022  0.1467
  851MPD2    C512554   0.386   3.727  15.340 -0.1786 -0.2028  0.2108
  851MPD2     H12555   0.130   3.654  15.069 -0.2882  2.0165 -1.4459
  851MPD2    H112556   0.416   3.525  15.358  0.3708  0.1116  0.0977
  851MPD2    H212557   0.328   3.927  15.321 -2.0691  0.2688 -1.1660
  851MPD2    H312558   0.461   3.741  15.417 -1.2913  3.1909  0.6723
  851MPD2     N12559   0.207   3.445  15.166  0.1513 -0.2948  0.0915
  851MPD2    H512560   0.135   3.448  15.095  1.2251  1.5861 -0.9275
  851MPD2    N112561   0.148   3.921  15.144  0.3069 -0.0005 -0.1242
  851MPD2    H712562   0.157   4.012  15.189  1.3438 -0.9713  1.6506
  852MPD2     C12563   4.027   1.945  10.096 -0.0880 -0.1163  0.0799
  852MPD2    C112564   4.075   1.981  10.218 -0.7333 -0.6512  0.0067
  852MPD2    C212565   4.188   2.064  10.225  0.4876 -0.9658 -0.0191
  852MPD2    C312566   4.244   2.117  10.107  0.1990  0.0859  0.0818
  852MPD2    C412567   4.194   2.080   9.988 -0.0986  0.4330  0.5926
  852MPD2    C512568   4.085   2.003   9.986 -0.1771 -0.2828  0.5737
  852MPD2     H12569   4.220   2.090  10.325  0.9106 -1.5146 -0.0145
  852MPD2    H112570   4.229   2.114   9.892  0.4485  0.9142  0.9590
  852MPD2    H212571   3.944   1.876  10.088 -0.8318  0.6961  0.9751
  852MPD2    H312572   4.051   1.976   9.887 -0.0751  1.2636  0.1220
  852MPD2     N12573   4.351   2.202  10.138 -0.2959 -0.2349  0.6506
  852MPD2    H512574   4.373   2.214  10.236  1.8929 -2.1025  0.3796
  852MPD2    N112575   4.035   1.918  10.334 -0.2541  0.0315  0.0619
  852MPD2    H712576   4.079   1.950  10.419  0.8402  0.0163 -0.4805
  853MPD2     C12577   1.568   1.551  12.871  0.3274  0.4978  0.1373
  853MPD2    C112578   1.561   1.688  12.852 -0.0538 -0.3557 -0.4679
  853MPD2    C212579   1.563   1.730  12.719  0.4032 -0.5216 -0.3710
  853MPD2    C312580   1.583   1.642  12.609  0.0523 -0.3353  0.0777
  853MPD2    C412581   1.600   1.503  12.637 -0.2628 -0.0918 -0.5356
  853MPD2    C512582   1.594   1.465  12.772 -0.2417  0.5447  0.0278
  853MPD2     H12583   1.561   1.836  12.697  0.8860 -0.2638  0.8784
  853MPD2    H112584   1.616   1.426  12.562 -1.1103  0.7124 -1.5446
  853MPD2    H212585   1.555   1.508  12.970 -2.1231  2.0886  0.5139
  853MPD2    H312586   1.615   1.362  12.797 -0.0557  0.3147 -1.0593
  853MPD2     N12587   1.589   1.684  12.477 -0.9454  0.0388 -0.2811
  853MPD2    H512588   1.626   1.614  12.414 -0.1781 -1.5573  1.9598
  853MPD2    N112589   1.558   1.777  12.968  0.1700  0.4045 -0.2275
  853MPD2    H712590   1.550   1.734  13.060  0.4061 -0.5548 -0.6525
  854MPD2     C12591   2.923   1.783  12.969 -0.1221  0.4086  0.9580
  854MPD2    C112592   3.009   1.831  12.876 -0.2874  0.0623 -1.2578
  854MPD2    C212593   3.141   1.797  12.881  0.5406  0.5951  0.0195
  854MPD2    C312594   3.188   1.701  12.969 -0.1945 -0.2151 -0.0646
  854MPD2    C412595   3.103   1.649  13.062 -0.3933 -0.3771 -0.2511
  854MPD2    C512596   2.970   1.690  13.058 -0.1645  0.7043  0.1110
  854MPD2     H12597   3.206   1.858  12.818 -1.1715  2.0507 -0.3157
  854MPD2    H112598   3.142   1.574  13.130 -1.6064 -0.5967  0.2023
  854MPD2    H212599   2.819   1.808  12.955  0.3643  1.6021 -0.5069
  854MPD2    H312600   2.893   1.644  13.117  0.0233  0.3279  0.0585
  854MPD2     N12601   3.319   1.668  12.986  0.1624 -0.3481 -0.3577
  854MPD2    H512602   3.336   1.604  13.063  2.0126  0.2975 -0.2224
  854MPD2    N112603   2.959   1.933  12.785 -0.0578 -0.1358  0.0920
  854MPD2    H712604   2.862   1.962  12.794  0.6654  1.5711  2.3050
  855MPD2     C12605   4.006   1.267  13.569 -0.0477  0.3249  0.3796
  855MPD2    C112606   3.900   1.357  13.573  0.7382 -0.3277  0.0047
  855MPD2    C212607   3.835   1.391  13.457  0.6107  0.3878  0.2256
  855MPD2    C312608   3.864   1.328  13.339 -0.6064 -0.0106 -0.2136
  855MPD2    C412609   3.960   1.231  13.333  1.1793 -0.7490  0.1340
  855MPD2    C512610   4.032   1.204  13.448 -0.0044  0.0901  0.2164
  855MPD2     H12611   3.760   1.469  13.466 -1.4211 -1.6191  0.4785
  855MPD2    H112612   3.996   1.183  13.243 -0.4685 -1.9252  0.1072
  855MPD2    H212613   4.062   1.236  13.656 -1.3913  0.8606  1.4390
  855MPD2    H312614   4.113   1.133  13.439 -1.4747 -1.5288 -0.2465
  855MPD2     N12615   3.800   1.352  13.216 -0.0582 -0.4387 -0.9353
  855MPD2    H512616   3.836   1.301  13.136 -1.3848  1.3977 -2.7003
  855MPD2    N112617   3.852   1.406  13.695  0.0366  0.1215 -0.2658
  855MPD2    H712618   3.771   1.466  13.694  0.6996  1.0182 -0.7006
  856MPD2     C12619   0.833   2.915  13.653  0.6620  0.1383 -1.4429
  856MPD2    C112620   0.908   3.025  13.687  0.1270  0.3420  0.4771
  856MPD2    C212621   0.858   3.154  13.675 -0.1228  0.0951  0.5727
  856MPD2    C312622   0.724   3.164  13.643 -0.2163 -0.6269 -0.0828
  856MPD2    C412623   0.652   3.057  13.602  0.5283  0.1662 -0.7167
  856MPD2    C512624   0.708   2.934  13.594 -0.6755  0.3189  0.1619
  856MPD2     H12625   0.916   3.242  13.702 -2.8387  1.3200  2.3305
  856MPD2    H112626   0.552   3.065  13.562  0.6285 -0.0506 -1.0135
  856MPD2    H212627   0.859   2.810  13.659 -0.2431 -0.0121 -0.3188
  856MPD2    H312628   0.657   2.846  13.557 -1.6469  1.1150 -0.3897
  856MPD2     N12629   0.652   3.285  13.649  0.1633  0.6262  0.2311
  856MPD2    H512630   0.553   3.264  13.641  0.2982 -0.2735  0.8930
  856MPD2    N112631   1.041   3.013  13.728 -0.2780  0.0336 -0.7270
  856MPD2    H712632   1.088   3.100  13.752 -0.7833 -0.9359  3.8493
  857MPD2     C12633   2.501   4.295  13.126  0.1251  0.0401  0.8431
  857MPD2    C112634   2.548   4.399  13.053  0.0104  0.3182 -0.2210
  857MPD2    C212635   2.586   4.519  13.112 -0.3750  0.2784 -0.2333
  857MPD2    C312636   2.580   4.536  13.244 -0.3016 -0.0458  0.7558
  857MPD2    C412637   2.543   4.430  13.314  0.5394  0.4809  0.0870
  857MPD2    C512638   2.505   4.309  13.261 -0.4472  0.3193 -0.3112
  857MPD2     H12639   2.619   4.607  13.059  0.6218  0.4584  0.6769
  857MPD2    H112640   2.528   4.434  13.421 -2.4624  0.4276 -0.3160
  857MPD2    H212641   2.454   4.209  13.080 -3.2673  2.9532 -1.1660
  857MPD2    H312642   2.457   4.234  13.323 -0.6179  0.3280 -0.4318
  857MPD2     N12643   2.621   4.659  13.304  0.7321 -0.1938  0.4171
  857MPD2    H512644   2.665   4.727  13.243 -0.1846  0.0327 -0.0009
  857MPD2    N112645   2.549   4.376  12.915  0.1549 -0.4156 -0.6080
  857MPD2    H712646   2.516   4.285  12.884  0.5279 -0.6020 -0.4512
  858MPD2     C12647   3.241   3.830  16.979  0.1153  0.0996 -0.2550
  858MPD2    C112648   3.271   3.708  17.032  0.1276  0.2512  0.8670
  858MPD2    C212649   3.307   3.699  17.170 -0.1517 -0.0740 -0.3288
  858MPD2    C312650   3.293   3.806  17.257  0.3287 -0.3157 -0.0530
  858MPD2    C412651   3.268   3.927  17.197 -1.0861  0.5772  0.1471
  858MPD2    C512652   3.239   3.943  17.067 -0.1009  0.3883 -0.5234
  858MPD2     H12653   3.350   3.604  17.199 -0.6611 -0.2251 -0.0698
  858MPD2    H112654   3.254   4.016  17.259 -0.9364  0.3087  0.5705
  858MPD2    H212655   3.201   3.844  16.879  1.0175 -1.1691 -0.7871
  858MPD2    H312656   3.210   4.038  17.025 -2.0994 -0.2189 -0.5018
  858MPD2     N12657   3.310   3.806  17.399 -0.0754 -0.7714 -0.1245
  858MPD2    H512658   3.280   3.885  17.455 -0.1073 -1.0064  0.1908
  858MPD2    N112659   3.270   3.586  16.958 -0.0484  0.1606 -0.0822
  858MPD2    H712660   3.283   3.499  17.007 -1.2986 -0.1319 -0.2689
  859MPD2     C12661   1.155   0.566  15.637  0.4855  0.8043  1.0715
  859MPD2    C112662   1.243   0.600  15.534 -0.9335  0.3154 -0.1772
  859MPD2    C212663   1.348   0.520  15.496 -0.5543 -0.5085  0.4198
  859MPD2    C312664   1.380   0.404  15.570  0.5018  0.0193  0.2339
  859MPD2    C412665   1.296   0.375  15.680 -0.5163 -0.9244 -0.5377
  859MPD2    C512666   1.186   0.456  15.713  0.2195  0.1964 -0.5921
  859MPD2     H12667   1.423   0.554  15.426  0.2203 -1.3145  0.8624
  859MPD2    H112668   1.304   0.290  15.746  2.3562  0.1261  0.4918
  859MPD2    H212669   1.061   0.617  15.658  1.2329  2.5261  0.2807
  859MPD2    H312670   1.127   0.432  15.801 -2.7201  3.0917 -1.8056
  859MPD2     N12671   1.493   0.326  15.549  0.5953 -0.4906  0.5236
  859MPD2    H512672   1.507   0.259  15.624 -0.5035 -1.7528 -0.4297
  859MPD2    N112673   1.207   0.720  15.468 -0.3880  0.4030  0.6983
  859MPD2    H712674   1.136   0.781  15.507  0.2252  1.2937  0.3960
  860MPD2     C12675   4.395   2.023  11.492  0.2541  0.0989  0.0274
  860MPD2    C112676   4.374   2.058  11.628  0.2433  0.0485 -0.0888
  860MPD2    C212677   4.251   2.041  11.692  0.9356 -0.2754  0.2837
  860MPD2    C312678   4.147   1.980  11.626  0.1517 -0.2009  0.3795
  860MPD2    C412679   4.159   1.953  11.489  0.5867  0.4764 -0.5125
  860MPD2    C512680   4.284   1.971  11.428 -0.8974 -0.6911  0.4015
  860MPD2     H12681   4.243   2.050  11.800  0.8148 -1.7055  0.4004
  860MPD2    H112682   4.078   1.908  11.433 -0.5653  0.4250  1.2006
  860MPD2    H212683   4.485   2.043  11.436 -0.8190  0.0562 -1.7339
  860MPD2    H312684   4.293   1.949  11.322 -2.1367 -0.2436  0.2098
  860MPD2     N12685   4.035   1.951  11.702 -0.0549  0.3508  0.5882
  860MPD2    H512686   4.031   1.992  11.795  0.5509 -0.9146  1.1646
  860MPD2    N112687   4.477   2.099  11.702  0.0369 -0.4710 -0.3846
  860MPD2    H712688   4.462   2.112  11.802 -0.6395  0.4681 -0.6103
  861MPD2     C12689   2.860   4.034  10.818 -0.6911 -1.1633 -0.4673
  861MPD2    C112690   2.755   4.076  10.899  0.2662 -0.4117 -0.5082
  861MPD2    C212691   2.649   4.145  10.837  0.6950 -0.2025 -0.0610
  861MPD2    C312692   2.650   4.165  10.700 -0.5588 -0.2402  0.3822
  861MPD2    C412693   2.758   4.122  10.626  0.8013  0.4373 -0.3253
  861MPD2    C512694   2.859   4.049  10.683 -0.2481 -0.0890 -0.2621
  861MPD2     H12695   2.559   4.181  10.887 -0.2881 -1.2700 -1.0509
  861MPD2    H112696   2.771   4.149  10.522  0.3054  0.3580 -0.4064
  861MPD2    H212697   2.955   4.006  10.862  0.0106  0.1665 -1.1666
  861MPD2    H312698   2.945   4.031  10.619 -0.6023  1.1057 -1.0895
  861MPD2     N12699   2.557   4.253  10.634 -0.0531 -0.3704 -0.4893
  861MPD2    H512700   2.586   4.285  10.542  1.9779 -0.5371  0.0865
  861MPD2    N112701   2.747   4.066  11.032  0.1070  0.4354 -0.0538
  861MPD2    H712702   2.663   4.091  11.083 -0.9093 -1.7625 -0.6597
  862MPD2     C12703   2.024   4.713  10.179  0.2189 -0.0282  0.0830
  862MPD2    C112704   2.112   4.609  10.207  0.0430  0.0240  0.4783
  862MPD2    C212705   2.060   4.480  10.194 -0.0594 -1.0739 -0.4637
  862MPD2    C312706   1.926   4.456  10.192 -0.0410 -0.3357 -0.9193
  862MPD2    C412707   1.835   4.558  10.170  0.5572  0.1785 -0.8725
  862MPD2    C512708   1.888   4.690  10.164 -0.0791  0.1996  0.1025
  862MPD2     H12709   2.122   4.391  10.200 -0.2049 -1.2425 -1.4106
  862MPD2    H112710   1.727   4.550  10.163  0.8095 -1.6265 -2.5567
  862MPD2    H212711   2.064   0.077  10.172 -0.0059 -0.0967 -1.9877
  862MPD2    H312712   1.825   0.040  10.141  2.2413  1.7340 -0.4763
  862MPD2     N12713   1.887   4.315  10.215 -0.0735  0.0973 -0.2214
  862MPD2    H512714   1.956   4.247  10.243 -3.4996 -1.9146  3.4550
  862MPD2    N112715   2.249   4.632  10.238  0.0958  0.1422 -0.0100
  862MPD2    H712716   2.266   4.727  10.267 -0.1036  0.4734 -0.9867
  863MPD2     C12717   1.473   2.562  16.672 -0.3967  0.1369  0.2538
  863MPD2    C112718   1.454   2.659  16.767  0.7392 -0.2495  0.5448
  863MPD2    C212719   1.540   2.676  16.876 -0.0199  0.8531 -0.3980
  863MPD2    C312720   1.640   2.584  16.896 -0.3173  0.2610 -0.1563
  863MPD2    C412721   1.661   2.486  16.797 -0.3987 -0.3915 -1.2287
  863MPD2    C512722   1.585   2.482  16.682 -0.1711  0.5084 -0.3160
  863MPD2     H12723   1.516   2.747  16.954 -1.3733 -0.9025  0.7897
  863MPD2    H112724   1.749   2.424  16.805  0.0990  0.3901 -0.6598
  863MPD2    H212725   1.410   2.560  16.584 -1.3176 -0.9737  0.9326
  863MPD2    H312726   1.610   2.418  16.599  1.4720 -1.4040  1.6446
  863MPD2     N12727   1.719   2.575  17.015  0.0479 -0.7557  0.2715
  863MPD2    H512728   1.774   2.490  17.024 -0.3886 -0.8574  1.8987
  863MPD2    N112729   1.335   2.731  16.757  0.1032  0.3897  0.2580
  863MPD2    H712730   1.278   2.716  16.674  1.6315  2.1879 -1.1261
  864MPD2     C12731   2.202   4.138  17.678 -0.0540  0.2893  0.0035
  864MPD2    C112732   2.267   4.063  17.586  0.7568 -0.1365  0.2196
  864MPD2    C212733   2.366   4.120  17.514 -0.9912  0.5673 -0.5585
  864MPD2    C312734   2.405   4.253  17.536  0.0833 -0.3052 -0.8749
  864MPD2    C412735   2.339   4.336  17.625  0.0411  0.2598 -0.4953
  864MPD2    C512736   2.233   4.273  17.696 -0.0712  0.0765  1.0430
  864MPD2     H12737   2.421   4.062  17.441 -1.4801 -0.9537  0.2650
  864MPD2    H112738   2.353   4.441  17.644  1.9402 -0.0998  0.1418
  864MPD2    H212739   2.125   4.094  17.740  0.7774 -0.7670  0.2898
  864MPD2    H312740   2.167   4.332   0.014  1.1734  2.6583 -0.1038
  864MPD2     N12741   2.512   4.313  17.458 -0.2686 -0.0618  0.4951
  864MPD2    H512742   2.527   4.411  17.479  2.4244 -0.9261  2.6972
  864MPD2    N112743   2.246   3.923  17.581  0.4235 -0.2355 -0.0514
  864MPD2    H712744   2.155   3.895  17.615  1.1858 -0.0358  2.1617
  865MPD2     C12745   2.603   4.491  16.598  0.1318  0.9725 -0.1031
  865MPD2    C112746   2.586   4.378  16.683 -0.0280 -0.4746 -0.6467
  865MPD2    C212747   2.589   4.400  16.820 -0.7765  0.2640 -0.1124
  865MPD2    C312748   2.599   4.522  16.878  0.6785 -0.1769  0.5336
  865MPD2    C412749   2.615   4.630  16.798 -0.3086 -0.1977  0.7728
  865MPD2    C512750   2.624   4.614  16.664 -0.7341  0.1351  0.2302
  865MPD2     H12751   2.582   4.312  16.883  0.0411 -1.2754 -2.1810
  865MPD2    H112752   2.627   4.731  16.836  1.6875  0.0266 -0.4438
  865MPD2    H212753   2.599   4.482  16.491 -1.9171  1.3356 -0.0567
  865MPD2    H312754   2.645   4.699  16.600 -0.8232  0.8096  1.1057
  865MPD2     N12755   2.598   4.531  17.016 -0.3448  0.0283  0.0641
  865MPD2    H512756   2.569   4.446  17.064 -1.8787  1.1169  1.0921
  865MPD2    N112757   2.559   4.256  16.619  0.3220  0.2689 -0.2043
  865MPD2    H712758   2.558   4.252  16.517  0.7234  2.2428 -0.2890
  866MPD2     C12759   3.466   4.380  11.246  0.2345  0.1950  0.0349
  866MPD2    C112760   3.476   4.443  11.126  1.0518 -0.5906  0.2276
  866MPD2    C212761   3.365   4.488  11.058  0.8552 -0.3100 -0.1840
  866MPD2    C312762   3.240   4.477  11.122 -0.5906  0.2472 -0.1983
  866MPD2    C412763   3.233   4.429  11.249 -0.0666 -0.1761 -0.3132
  866MPD2    C512764   3.343   4.375  11.312  0.2584  0.5019  0.1169
  866MPD2     H12765   3.370   4.546  10.967  0.3826  0.0612  0.0227
  866MPD2    H112766   3.147   4.429  11.314  0.3580  1.5485  0.2455
  866MPD2    H212767   3.554   4.363  11.307 -0.1434  0.6341  0.6976
  866MPD2    H312768   3.335   4.335  11.413 -0.3311  0.9087  0.2364
  866MPD2     N12769   3.116   4.519  11.066  0.0614  0.1228  0.6609
  866MPD2    H512770   3.035   4.523  11.128  0.2768 -0.3316  0.9677
  866MPD2    N112771   3.608   4.456  11.071  0.5818 -0.6973 -0.2105
  866MPD2    H712772   3.675   4.396  11.118 -1.0953 -0.9752  1.8384
  867MPD2     C12773   0.575   3.889  16.955 -0.1772 -0.4499 -0.0170
  867MPD2    C112774   0.632   3.863  17.080 -0.2056 -0.2625  0.0402
  867MPD2    C212775   0.616   3.947  17.188  0.1083 -0.6946 -0.1886
  867MPD2    C312776   0.528   4.055  17.178 -0.1951  0.0131 -0.0909
  867MPD2    C412777   0.469   4.081  17.057 -0.6436  0.1876  0.6325
  867MPD2    C512778   0.488   3.995  16.948 -0.2749  0.0189  0.3654
  867MPD2     H12779   0.666   3.928  17.282 -0.7376 -0.5762  0.2880
  867MPD2    H112780   0.411   4.171  17.050 -0.7700  0.1016  0.5783
  867MPD2    H212781   0.597   3.820  16.875  0.3315 -0.4539  0.1241
  867MPD2    H312782   0.438   4.015  16.854 -0.4765  0.4225  0.5563
  867MPD2     N12783   0.513   4.165  17.279  0.1176  0.2614  0.6863
  867MPD2    H512784   0.459   4.245  17.246 -1.1399 -0.2992  1.3716
  867MPD2    N112785   0.704   3.745  17.090  0.2967 -0.2347  0.4913
  867MPD2    H712786   0.710   3.689  17.006  1.2224  0.0060  0.3945
  868MPD2     C12787   2.532   3.298  13.207 -0.5102 -0.3804  0.0234
  868MPD2    C112788   2.602   3.213  13.291  0.7889  0.2383  0.5311
  868MPD2    C212789   2.610   3.235  13.426  0.4130 -0.1360  0.3044
  868MPD2    C312790   2.536   3.339  13.481 -0.1799  0.0865 -0.1004
  868MPD2    C412791   2.457   3.421  13.404 -0.0392  0.5141 -0.0334
  868MPD2    C512792   2.470   3.406  13.265 -0.2607 -0.6135  0.3519
  868MPD2     H12793   2.680   3.179  13.486  1.6674  2.0532  0.8951
  868MPD2    H112794   2.404   3.497  13.460  1.8032  1.2450  0.7272
  868MPD2    H212795   2.528   3.287  13.099 -1.9719  1.6477 -0.1428
  868MPD2    H312796   2.413   3.464  13.193 -0.3591 -1.6932 -0.4444
  868MPD2     N12797   2.541   3.345  13.626  0.5303 -0.3157  0.2483
  868MPD2    H512798   2.572   3.263  13.676  2.1049  0.1287  0.0023
  868MPD2    N112799   2.681   3.104  13.240  0.4990  0.5357 -0.0458
  868MPD2    H712800   2.691   3.099  13.139  1.0984  0.1918  0.0305
  869MPD2     C12801   3.717   0.355   0.224  0.1272  0.0659 -0.0853
  869MPD2    C112802   3.683   0.470   0.302 -0.5098  0.0459  0.3838
  869MPD2    C212803   3.769   0.505   0.404 -0.6275 -0.2437 -0.8825
  869MPD2    C312804   3.899   0.454   0.420 -0.4504  0.4798  0.5411
  869MPD2    C412805   3.936   0.351   0.330  0.1530 -0.3391 -0.6105
  869MPD2    C512806   3.848   0.301   0.239  0.5256  0.0713  0.2932
  869MPD2     H12807   3.744   0.588   0.468  1.4024 -0.1748 -0.1712
  869MPD2    H112808   4.033   0.302   0.335  0.0435 -0.4742  0.0757
  869MPD2    H212809   3.667   0.329   0.132  0.3756  1.2572 -0.5557
  869MPD2    H312810   3.881   0.228   0.166 -2.2473 -0.8582 -0.0394
  869MPD2     N12811   3.986   0.528   0.500  0.3973 -0.6696  0.2262
  869MPD2    H512812   3.939   0.581   0.573  1.9548  1.5292 -0.3767
  869MPD2    N112813   3.579   0.555   0.256  0.0731 -0.3075  0.6251
  869MPD2    H712814   3.554   0.520   0.164  1.4466  2.9414 -0.9982
  870MPD2     C12815   0.275   4.107   1.452  0.0124  0.9705 -0.1837
  870MPD2    C112816   0.150   4.047   1.459 -0.0747  0.6810  0.4651
  870MPD2    C212817   0.045   4.125   1.478 -0.5379  0.1325  0.9641
  870MPD2    C312818   0.058   4.258   1.513 -0.0861 -0.2059 -0.8667
  870MPD2    C412819   0.183   4.321   1.517 -0.1216  0.1616 -0.5735
  870MPD2    C512820   0.288   4.242   1.479 -0.6310 -0.6085 -0.0925
  870MPD2     H12821   4.677   4.096   1.480 -1.1911  2.2050 -1.8641
  870MPD2    H112822   0.201   4.427   1.529  0.7270 -0.2250  1.5856
  870MPD2    H212823   0.366   4.053   1.428 -1.3121 -1.4171  0.1523
  870MPD2    H312824   0.384   4.292   1.476 -1.9848  2.0375  0.7935
  870MPD2     N12825   4.681   4.342   1.505  0.2683  0.1134  0.0445
  870MPD2    H512826   4.593   4.298   1.481 -0.1680  0.9992  0.0190
  870MPD2    N112827   0.140   3.915   1.421  0.2933  0.6960  0.3840
  870MPD2    H712828   0.226   3.871   1.389  0.2071  0.3000  0.6978
  871MPD2     C12829   4.543   4.113  16.403  0.0900 -0.2698 -0.0610
  871MPD2    C112830   4.567   4.084  16.534 -1.0186 -0.5130 -0.2534
  871MPD2    C212831   4.602   3.953  16.566  0.1506 -0.2909 -0.7298
  871MPD2    C312832   4.593   3.854  16.471 -0.4254  0.3243  0.0961
  871MPD2    C412833   4.557   3.882  16.346 -0.1769  0.5296 -0.3668
  871MPD2    C512834   4.526   4.013  16.317  0.2875  0.1437  0.6117
  871MPD2     H12835   4.650   3.930  16.661 -0.4565  0.3350 -0.2686
  871MPD2    H112836   4.534   3.822  16.259  0.4535 -1.3076  0.7219
  871MPD2    H212837   4.516   4.211  16.363 -0.7491 -1.2381 -1.8646
  871MPD2    H312838   4.504   4.036  16.214  1.9323  1.1564  0.4719
  871MPD2     N12839   4.645   3.723  16.514  0.2133 -0.0628 -0.3110
  871MPD2    H512840   4.669   3.711  16.612 -0.4624  0.5157 -0.0807
  871MPD2    N112841   4.562   4.195  16.621 -0.7098  0.5910  0.1751
  871MPD2    H712842   4.552   4.286  16.578 -0.1516  0.5412 -0.0582
  872MPD2     C12843   0.593   2.581  13.582 -0.5742  0.1078  0.1037
  872MPD2    C112844   0.671   2.522  13.682 -0.2488  0.4708  0.5062
  872MPD2    C212845   0.609   2.486  13.800  0.3482 -0.1565  0.0956
  872MPD2    C312846   0.474   2.502  13.811  0.8401  0.4172  0.4563
  872MPD2    C412847   0.396   2.555  13.709 -0.6697 -0.5637 -0.1041
  872MPD2    C512848   0.457   2.595  13.594  0.3027 -0.2906 -0.3397
  872MPD2     H12849   0.672   2.437  13.873 -0.2320 -1.6306 -0.3908
  872MPD2    H112850   0.288   2.553  13.715 -0.6694  0.0761  0.1146
  872MPD2    H212851   0.630   2.629  13.492  0.9065  0.4162  0.8710
  872MPD2    H312852   0.405   2.647  13.514 -0.0426 -0.4276 -0.2047
  872MPD2     N12853   0.393   2.446  13.918 -0.3528  0.2091 -0.6915
  872MPD2    H512854   0.293   2.447  13.899 -1.0521 -1.4285  2.8546
  872MPD2    N112855   0.809   2.507  13.656  0.8472  0.9355 -0.0429
  872MPD2    H712856   0.863   2.484  13.739  0.7765  1.4829  0.1557
  873MPD2     C12857   1.978   1.489   0.473  0.8484  0.5017  0.5991
  873MPD2    C112858   2.064   1.416   0.558  0.9552 -0.2770 -0.9072
  873MPD2    C212859   2.107   1.288   0.529  0.4036  0.2986 -0.1753
  873MPD2    C312860   2.072   1.234   0.405  0.3194  0.2793 -0.3506
  873MPD2    C412861   1.985   1.302   0.323  0.4094  0.2708 -0.2522
  873MPD2    C512862   1.941   1.433   0.350  0.3795 -0.6736  0.5975
  873MPD2     H12863   2.155   1.220   0.597 -2.1621 -2.2672 -0.9116
  873MPD2    H112864   1.962   1.267   0.223 -1.8947  4.0677 -1.0657
  873MPD2    H212865   1.946   1.589   0.497  1.3216  1.2974 -2.1145
  873MPD2    H312866   1.878   1.491   0.285 -0.8742 -0.3115  2.1281
  873MPD2     N12867   2.123   1.112   0.351  0.3648 -0.2300 -0.2817
  873MPD2    H512868   2.097   1.073   0.261  0.9415 -0.5416 -0.3153
  873MPD2    N112869   2.090   1.467   0.691  0.3137 -0.6610 -0.1127
  873MPD2    H712870   2.053   1.560   0.706 -1.0044 -0.9102 -1.7534
  874MPD2     C12871   2.384   2.014  16.174  0.5409  0.1776  0.2162
  874MPD2    C112872   2.381   2.048  16.307  0.1598 -0.3356 -0.2593
  874MPD2    C212873   2.442   2.164  16.352 -0.5502  0.6097  0.6391
  874MPD2    C312874   2.523   2.240  16.266  0.6302  0.3351  0.4388
  874MPD2    C412875   2.538   2.200  16.137 -0.9716  0.1699 -0.1472
  874MPD2    C512876   2.466   2.094  16.091  0.2815 -0.2434 -0.0916
  874MPD2     H12877   2.450   2.187  16.458 -1.1893 -1.7863  1.2193
  874MPD2    H112878   2.581   2.263  16.061 -2.5111  2.6693  1.0418
  874MPD2    H212879   2.345   1.918  16.143 -0.4754  1.0328 -1.1335
  874MPD2    H312880   2.470   2.075  15.984 -0.9151  0.6456 -0.2942
  874MPD2     N12881   2.598   2.340  16.337 -0.1342  1.0210  0.0024
  874MPD2    H512882   2.575   2.363  16.433 -0.1196 -1.8487  0.6911
  874MPD2    N112883   2.315   1.960  16.388  0.1128  0.0511 -0.3071
  874MPD2    H712884   2.268   1.883  16.342  1.0472 -0.5579 -0.2460
  875MPD2     C12885   2.546   4.723  14.881 -0.0212  0.2213 -0.6556
  875MPD2    C112886   2.587   0.102  14.816  0.4362 -0.3328 -0.1407
  875MPD2    C212887   2.674   0.194  14.880  0.7000 -0.2165 -0.5052
  875MPD2    C312888   2.708   0.179  15.010 -0.8746 -0.0713 -0.2471
  875MPD2    C412889   2.661   0.066  15.079 -0.0571 -0.1249 -0.2368
  875MPD2    C512890   2.585   4.711  15.009 -0.0036 -0.3796  0.0108
  875MPD2     H12891   2.709   0.282  14.826  2.1061 -1.6687 -1.9371
  875MPD2    H112892   2.675   0.053  15.185 -1.6939  3.9733  0.5176
  875MPD2    H212893   2.486   4.653  14.824  0.9546  0.0317 -1.4454
  875MPD2    H312894   2.543   4.627  15.063 -2.2363  0.7641  0.0334
  875MPD2     N12895   2.792   0.264  15.082 -0.3259  0.3281 -0.0879
  875MPD2    H512896   2.817   0.231  15.175  0.2799  3.2286  0.7816
  875MPD2    N112897   2.546   0.128  14.686  0.2758 -0.4683 -0.2108
  875MPD2    H712898   2.569   0.214  14.637 -1.1589 -0.3998 -0.7639
  876MPD2     C12899   2.369   1.615  16.181  0.0430 -0.4826  0.2455
  876MPD2    C112900   2.317   1.502  16.119 -0.3585  0.1483  0.3791
  876MPD2    C212901   2.324   1.373  16.178 -0.1552 -0.1405 -0.8406
  876MPD2    C312902   2.362   1.360  16.311  0.2395 -0.6122 -0.3580
  876MPD2    C412903   2.409   1.471  16.373  0.9328  0.2777  0.4086
  876MPD2    C512904   2.412   1.597  16.307 -0.3045  0.6149 -0.5049
  876MPD2     H12905   2.284   1.289  16.123 -1.4908  1.5388 -2.4625
  876MPD2    H112906   2.460   1.464  16.469  2.5048 -1.4982 -0.5588
  876MPD2    H212907   2.372   1.708  16.125  2.7140  0.2070  1.5833
  876MPD2    H312908   2.460   1.683  16.353  0.5353  0.3134 -0.8290
  876MPD2     N12909   2.363   1.237  16.366 -0.3811  0.4852 -0.0491
  876MPD2    H512910   2.337   1.157  16.309 -0.7836  0.0296  0.7753
  876MPD2    N112911   2.273   1.518  15.982 -0.2536 -0.4666 -0.9535
  876MPD2    H712912   2.281   1.608  15.937  3.5695  0.1259  0.8726
  877MPD2     C12913   2.374   1.875  15.308  0.4537  0.1162 -0.5000
  877MPD2    C112914   2.259   1.800  15.290 -0.1653 -0.3296 -0.6322
  877MPD2    C212915   2.200   1.793  15.163  0.2272  0.1387  0.7617
  877MPD2    C312916   2.249   1.876  15.059  0.2444 -0.6839 -0.5701
  877MPD2    C412917   2.362   1.951  15.082  0.2450  0.0356 -0.0792
  877MPD2    C512918   2.423   1.945  15.201  0.7093 -0.8587  0.3077
  877MPD2     H12919   2.107   1.742  15.143 -0.3377  1.2998  0.4027
  877MPD2    H112920   2.410   2.012  15.006 -0.5659 -0.4412 -0.9838
  877MPD2    H212921   2.429   1.882  15.401 -0.3550 -1.1774  0.0855
  877MPD2    H312922   2.519   1.990  15.222  0.2338 -0.4987  1.7163
  877MPD2     N12923   2.212   1.857  14.923  0.0804  0.2901 -0.4038
  877MPD2    H512924   2.274   1.902  14.856 -1.7864  1.5347 -1.3026
  877MPD2    N112925   2.194   1.734  15.395  0.2552  0.1864  0.3231
  877MPD2    H712926   2.103   1.697  15.371 -0.1344  0.7418  0.9440
  878MPD2     C12927   2.185   1.053  13.339  0.0303  0.5009  0.5031
  878MPD2    C112928   2.159   1.189  13.348 -0.4266  0.5370  0.5786
  878MPD2    C212929   2.093   1.227  13.465 -0.1197  0.2499 -0.1482
  878MPD2    C312930   2.055   1.133  13.566 -0.6752 -0.2018 -0.2658
  878MPD2    C412931   2.082   1.005  13.548  0.0509  0.3010 -0.0042
  878MPD2    C512932   2.161   0.968  13.439  0.2929 -0.4300  0.8143
  878MPD2     H12933   2.054   1.327  13.480  0.4115  0.2750  1.0214
  878MPD2    H112934   2.081   0.933  13.629  1.9180 -0.1166 -0.3535
  878MPD2    H212935   2.227   1.023  13.244  1.7096 -1.7222  1.9523
  878MPD2    H312936   2.201   0.870  13.413  1.9943  0.7192 -0.8759
  878MPD2     N12937   1.984   1.186  13.676 -0.1746 -0.4899  0.0177
  878MPD2    H512938   1.969   1.287  13.672  4.9750  0.2938 -0.1581
  878MPD2    N112939   2.187   1.275  13.240 -0.5387  0.4075  0.0455
  878MPD2    H712940   2.231   1.252  13.151 -1.3903  0.1103 -0.2961
  879MPD2     C12941   2.254   2.831  17.248  0.0945 -0.3002  0.4807
  879MPD2    C112942   2.269   2.698  17.284  0.6345 -0.5070 -0.1692
  879MPD2    C212943   2.212   2.595  17.213  0.4147 -0.4024 -0.0091
  879MPD2    C312944   2.142   2.632  17.094 -0.1764  0.2972  0.6641
  879MPD2    C412945   2.123   2.768  17.065 -0.4331 -0.4649 -0.4168
  879MPD2    C512946   2.177   2.868  17.139  0.2805  0.2384 -0.0852
  879MPD2     H12947   2.234   2.492  17.237  0.2615 -0.6679 -1.0048
  879MPD2    H112948   2.061   2.799  16.982  0.3581 -0.5819 -1.0525
  879MPD2    H212949   2.290   2.917  17.304 -4.4235  1.7543  0.2430
  879MPD2    H312950   2.157   2.973  17.120  0.2624  0.4436  1.1226
  879MPD2     N12951   2.093   2.542  16.999 -0.6506 -0.7826  0.2201
  879MPD2    H512952   2.061   2.574  16.908 -0.1330 -0.9737 -0.0302
  879MPD2    N112953   2.345   2.673  17.403 -0.1225  0.7228  0.0569
  879MPD2    H712954   2.391   2.746  17.456 -0.0736 -0.4112  1.5772
  880MPD2     C12955   3.452   4.054   0.663  0.8488 -0.3967 -0.1068
  880MPD2    C112956   3.576   4.090   0.716  0.3529  0.4920  0.2226
  880MPD2    C212957   3.647   3.992   0.785 -0.3471  0.2163  0.4860
  880MPD2    C312958   3.609   3.862   0.768 -0.8478  0.7950  0.0725
  880MPD2    C412959   3.487   3.827   0.711 -0.3440 -0.5374 -0.0635
  880MPD2    C512960   3.405   3.925   0.670 -0.2109  0.0754  0.3880
  880MPD2     H12961   3.745   4.012   0.826 -0.5832  1.3593  0.4980
  880MPD2    H112962   3.460   3.722   0.709  0.2842 -0.7204  1.2093
  880MPD2    H212963   3.386   4.121   0.609  0.5489  0.8301  1.7815
  880MPD2    H312964   3.304   3.911   0.633  0.4948 -1.0702 -1.1154
  880MPD2     N12965   3.696   3.759   0.829  0.3666 -0.2696  0.6118
  880MPD2    H512966   3.778   3.801   0.871  1.0480  1.6621 -2.6568
  880MPD2    N112967   3.613   4.223   0.699 -0.3818 -1.3660  0.2954
  880MPD2    H712968   3.546   4.285   0.655  0.7081 -0.3671  0.0482
  881MPD2     C12969   3.478   0.082   0.084  0.8138  0.3531 -0.2683
  881MPD2    C112970   3.593   0.014   0.073  0.3724  0.3056  0.0240
  881MPD2    C212971   3.659   4.721   0.185  0.8043  0.1587 -0.6170
  881MPD2    C312972   3.586   4.724   0.297  0.4491  0.1642 -0.4727
  881MPD2    C412973   3.451   0.024   0.304  0.5663 -0.6604 -0.0386
  881MPD2    C512974   3.395   0.077   0.193  0.9632 -0.4642  0.7388
  881MPD2     H12975   3.761   4.685   0.181  0.4260 -1.1166  1.6685
  881MPD2    H112976   3.385   0.004   0.388  0.5611  1.9673  0.5774
  881MPD2    H212977   3.431   0.122  17.738 -3.0072 -1.5287  0.8777
  881MPD2    H312978   3.294   0.116   0.187  0.9568 -0.3078  1.7462
  881MPD2     N12979   3.633   4.661   0.415  0.8243 -0.0283 -0.0166
  881MPD2    H512980   3.570   4.626   0.487 -1.1074  2.0603 -0.6959
  881MPD2    N112981   3.655   0.013  17.689  0.0761  0.8115  0.3372
  881MPD2    H712982   3.605   0.043  17.606 -1.1296  0.5698  0.9836
  882MPD2     C12983   1.945   2.130  14.164  0.2429  0.3988 -0.3411
  882MPD2    C112984   1.928   2.095  14.293 -0.1636  0.2492 -0.0057
  882MPD2    C212985   1.803   2.107  14.354 -0.0297 -0.0584  0.1026
  882MPD2    C312986   1.683   2.104  14.279 -0.1032  0.0737  0.3008
  882MPD2    C412987   1.700   2.133  14.147  0.3425 -0.4418 -0.3354
  882MPD2    C512988   1.828   2.147  14.093 -0.1155  0.4703 -0.1719
  882MPD2     H12989   1.800   2.100  14.462 -1.5827 -0.5938  0.0174
  882MPD2    H112990   1.608   2.151  14.092  0.8776 -0.7722 -1.3245
  882MPD2    H212991   2.042   2.153  14.121 -0.1210  0.7598 -0.9764
  882MPD2    H312992   1.830   2.182  13.990  0.1083 -0.0745 -0.3489
  882MPD2     N12993   1.554   2.088  14.342 -0.1845  0.2243  0.2001
  882MPD2    H512994   1.469   2.120  14.298 -0.5699 -0.0581  0.7405
  882MPD2    N112995   2.046   2.051  14.356 -0.3337  0.2217 -0.0396
  882MPD2    H712996   2.106   2.006  14.288  0.9008  2.1982 -0.2550
  883MPD2     C12997   3.636   2.451  16.159 -0.4320  0.5437 -0.2034
  883MPD2    C112998   3.736   2.434  16.065  0.0844  0.4954  0.0518
  883MPD2    C212999   3.864   2.470  16.110 -0.0253 -0.4631  0.3134
  883MPD2    C313000   3.890   2.523  16.230  0.1185 -0.2363 -0.9904
  883MPD2    C413001   3.785   2.553  16.318 -0.6328 -0.6400  0.7253
  883MPD2    C513002   3.659   2.522  16.276  0.0799  0.3754  0.8063
  883MPD2     H13003   3.938   2.454  16.032 -1.8266  0.9052 -1.6846
  883MPD2    H113004   3.794   2.601  16.415 -0.6060 -1.7334  1.2611
  883MPD2    H213005   3.532   2.431  16.133 -0.4777  0.2909  0.1787
  883MPD2    H313006   3.577   2.542  16.345 -0.0358  1.4283  0.3686
  883MPD2     N13007   4.027   2.540  16.261 -0.6400 -0.0642 -0.3432
  883MPD2    H513008   4.097   2.505  16.197 -0.5384 -2.1917  0.9492
  883MPD2    N113009   3.718   2.381  15.934  0.2490 -0.0354 -0.5630
  883MPD2    H713010   3.807   2.370  15.886  0.3304  0.0978 -0.4426
  884MPD2     C13011   1.455   2.834  15.458 -0.1598 -0.2200  0.2040
  884MPD2    C113012   1.420   2.960  15.404 -0.8922 -0.0557 -0.0593
  884MPD2    C213013   1.288   2.996  15.437 -0.4164  0.3185  0.0402
  884MPD2    C313014   1.200   2.916  15.498 -0.1529 -0.6954 -0.0529
  884MPD2    C413015   1.248   2.798  15.550  0.5381 -0.4761 -0.0053
  884MPD2    C513016   1.375   2.760  15.529 -0.6451  0.1287  0.2219
  884MPD2     H13017   1.246   3.088  15.400  0.1706  0.5346 -0.0989
  884MPD2    H113018   1.181   2.734  15.606 -1.5167  2.6482  1.0857
  884MPD2    H213019   1.554   2.794  15.446  1.2059  2.9192  0.9947
  884MPD2    H313020   1.419   2.670  15.572  0.0314 -0.1022 -0.9525
  884MPD2     N13021   1.065   2.953  15.532  0.3158 -0.4873  0.1551
  884MPD2    H513022   1.004   2.885  15.577 -2.4978 -0.7032 -4.0052
  884MPD2    N113023   1.502   3.045  15.331  0.4301  0.1238 -0.4442
  884MPD2    H713024   1.458   3.127  15.290 -0.4933 -1.6756 -3.0722
  885MPD2     C13025   4.140   2.533   0.275  0.3433  0.1020  0.3363
  885MPD2    C113026   4.189   2.646   0.333  0.1627  0.5524  0.0257
  885MPD2    C213027   4.221   2.757   0.253 -0.3539  0.6178 -0.0556
  885MPD2    C313028   4.201   2.750   0.119  0.1064  0.1275  0.0842
  885MPD2    C413029   4.160   2.636   0.061 -0.5887 -0.3660 -0.7960
  885MPD2    C513030   4.121   2.527   0.139  0.4048 -0.3709 -0.8115
  885MPD2     H13031   4.263   2.849   0.293  2.1514 -1.1968  1.5368
  885MPD2    H113032   4.156   2.610  17.699 -1.1796 -1.1375 -0.5838
  885MPD2    H213033   4.111   2.445   0.331 -0.0462  0.5927  0.9202
  885MPD2    H313034   4.100   2.436   0.084 -0.9516  0.3590 -1.5266
  885MPD2     N13035   4.255   2.856   0.037  0.4949 -0.2887 -0.0511
  885MPD2    H513036   4.320   2.917   0.087 -0.4034  1.3423 -0.8685
  885MPD2    N113037   4.189   2.638   0.478 -0.0301  0.5496  0.0294
  885MPD2    H713038   4.170   2.552   0.527 -0.1729  0.4617 -0.1809
  886MPD2     C13039   1.238   1.885  15.733  0.0525 -0.3018 -0.1084
  886MPD2    C113040   1.187   1.772  15.673  0.5212 -0.3151 -0.2990
  886MPD2    C213041   1.103   1.790  15.559 -0.0343 -0.0965  0.4462
  886MPD2    C313042   1.084   1.920  15.505  0.1478 -0.0116 -0.2256
  886MPD2    C413043   1.131   2.029  15.576 -0.0008 -0.8225  0.2705
  886MPD2    C513044   1.205   2.010  15.687  0.2425  0.1842 -0.4817
  886MPD2     H13045   1.058   1.707  15.506  0.0133 -1.3118  2.3059
  886MPD2    H113046   1.115   2.133  15.548 -0.1325 -0.2245  2.5174
  886MPD2    H213047   1.296   1.879  15.824 -1.7717  0.2875  1.1073
  886MPD2    H313048   1.224   2.096  15.750  1.1333  0.0040 -0.5117
  886MPD2     N13049   1.027   1.927  15.380 -0.1952  0.0032  0.5143
  886MPD2    H513050   1.004   1.839  15.336 -2.4278  1.7816 -1.8277
  886MPD2    N113051   1.239   1.649  15.721 -0.2438  0.2256 -0.6551
  886MPD2    H713052   1.288   1.653  15.809  1.7192 -1.9158 -1.6674
  887MPD2     C13053   1.859   1.451  16.015 -0.0494 -0.1142 -0.2832
  887MPD2    C113054   1.754   1.527  15.984 -0.7455 -0.3871  0.0054
  887MPD2    C213055   1.753   1.656  16.025  0.6321  0.8381  0.0640
  887MPD2    C313056   1.867   1.711  16.091 -0.4822 -0.6576  0.8972
  887MPD2    C413057   1.969   1.624  16.118  0.7075 -0.3287  0.3035
  887MPD2    C513058   1.963   1.493  16.086  0.8549 -0.8761 -0.6813
  887MPD2     H13059   1.667   1.721  16.016  1.3037  2.0438  2.2402
  887MPD2    H113060   2.058   1.663  16.166  0.4241  0.3810  0.2390
  887MPD2    H213061   1.860   1.347  15.984 -0.6797  0.0815 -0.9629
  887MPD2    H313062   2.052   1.435  16.105  0.6757 -0.5312  1.1791
  887MPD2     N13063   1.851   1.845  16.124 -0.0216 -0.1531 -0.1495
  887MPD2    H513064   1.764   1.888  16.096 -0.7476 -1.7225 -0.3060
  887MPD2    N113065   1.643   1.474  15.914 -0.9022  0.3224 -0.7154
  887MPD2    H713066   1.565   1.537  15.904 -0.6509  0.7696  0.1298
  888MPD2     C13067   2.932   1.643  14.656 -0.1908  0.1305 -0.2285
  888MPD2    C113068   2.934   1.643  14.797  0.1676 -0.0802  0.3743
  888MPD2    C213069   2.992   1.754  14.859  0.0070 -0.6717  0.2090
  888MPD2    C313070   3.052   1.852  14.786  0.5490 -0.0559 -0.0109
  888MPD2    C413071   3.055   1.851  14.650  0.7517  0.3108 -0.0428
  888MPD2    C513072   2.988   1.749  14.585 -0.3087 -0.1016  0.1672
  888MPD2     H13073   3.011   1.758  14.965 -0.1603  2.8315  0.0985
  888MPD2    H113074   3.075   1.942  14.594 -1.4230  0.0360 -1.2520
  888MPD2    H213075   2.866   1.581  14.596 -1.4455  0.4502  0.8191
  888MPD2    H313076   2.979   1.751  14.477  0.1331  0.0540  0.1337
  888MPD2     N13077   3.107   1.962  14.853 -0.2461 -0.1509  0.2097
  888MPD2    H513078   3.082   1.975  14.951 -1.3827  0.8103 -0.2065
  888MPD2    N113079   2.878   1.537  14.879 -0.3771  0.0583  0.0401
  888MPD2    H713080   2.881   1.550  14.980 -0.4720 -0.3625  0.0973
  889MPD2     C13081   2.346   0.390  13.896 -0.1564  0.3621 -0.7484
  889MPD2    C113082   2.451   0.435  13.813  0.5885 -0.9714 -0.2082
  889MPD2    C213083   2.446   0.572  13.780  0.6309  0.2083 -0.3034
  889MPD2    C313084   2.376   0.667  13.853  0.5235  0.5711 -0.5908
  889MPD2    C413085   2.294   0.611  13.955  0.0964 -0.1997  0.2889
  889MPD2    C513086   2.281   0.474  13.980  0.2433 -0.1378  0.1244
  889MPD2     H13087   2.514   0.608  13.704  0.1953  2.0479  0.1747
  889MPD2    H113088   2.251   0.671  14.034 -1.0811  2.1292 -2.1042
  889MPD2    H213089   2.341   0.287  13.931  1.0538  0.9670  1.1594
  889MPD2    H313090   2.216   0.440  14.059 -0.1246  1.4794  0.5264
  889MPD2     N13091   2.400   0.804  13.822 -0.1500  0.2693  0.6118
  889MPD2    H513092   2.485   0.824  13.771 -0.3517  2.0113  0.9522
  889MPD2    N113093   2.528   0.339  13.740  0.5855  0.1428  0.8052
  889MPD2    H713094   2.516   0.242  13.769 -2.2251 -0.8711 -3.7676
  890MPD2     C13095   1.979   2.763  14.799  0.3435 -0.4537  0.4645
  890MPD2    C113096   2.113   2.755  14.790  0.5843  0.1190 -0.6369
  890MPD2    C213097   2.189   2.767  14.905 -0.1803  0.0807  0.3593
  890MPD2    C313098   2.123   2.759  15.025  0.4845 -0.1106 -0.1725
  890MPD2    C413099   1.987   2.756  15.036  0.2409 -0.6116  0.3282
  890MPD2    C513100   1.914   2.773  14.918 -0.0467  0.0864 -0.6688
  890MPD2     H13101   2.297   2.781  14.899 -0.6979  3.3907 -1.5026
  890MPD2    H113102   1.933   2.761  15.130 -1.6780  1.1450 -0.8887
  890MPD2    H213103   1.919   2.748  14.710  0.1484  0.2756  0.4722
  890MPD2    H313104   1.805   2.777  14.922 -0.0500 -0.5982 -0.1279
  890MPD2     N13105   2.211   2.766  15.132 -0.7826  0.0454  0.3837
  890MPD2    H513106   2.308   2.771  15.106 -0.8755  0.8849  0.1853
  890MPD2    N113107   2.173   2.749  14.663  0.0400 -0.0457 -0.0351
  890MPD2    H713108   2.121   2.752  14.576  0.9115  1.3983 -0.5199
  891MPD2     C13109   0.304   1.091  16.588  0.5411  0.0044  0.9925
  891MPD2    C113110   0.226   1.040  16.687  0.6359 -0.3432  0.1119
  891MPD2    C213111   0.275   0.988  16.798 -0.1270  0.0788 -0.6937
  891MPD2    C313112   0.413   0.970  16.816  0.0468 -0.1730  0.8872
  891MPD2    C413113   0.495   1.024  16.721  0.4011 -0.4627  0.3709
  891MPD2    C513114   0.437   1.085  16.609 -0.0647 -0.5412 -0.4791
  891MPD2     H13115   0.213   0.941  16.874  0.1056  1.9973  0.6847
  891MPD2    H113116   0.603   1.025  16.725  0.3845  0.3726  0.5911
  891MPD2    H213117   0.258   1.144  16.505 -1.0120 -1.0918  1.1408
  891MPD2    H313118   0.515   1.131  16.548 -0.8063  2.2117  0.6375
  891MPD2     N13119   0.463   0.887  16.921  0.3765  0.6422  0.5800
  891MPD2    H513120   0.385   0.857  16.979 -3.0770  2.8161 -2.9923
  891MPD2    N113121   0.089   1.064  16.674 -0.4034 -0.2607  0.5265
  891MPD2    H713122   0.063   1.091  16.580  1.7012 -0.7873 -0.2113
  892MPD2     C13123   1.315   2.210  15.245  0.0673 -0.5179  0.0050
  892MPD2    C113124   1.239   2.247  15.131 -0.2539 -0.2765 -0.7628
  892MPD2    C213125   1.247   2.163  15.019  0.2105 -0.5439  0.1753
  892MPD2    C313126   1.322   2.046  15.011  0.1508  0.0460 -0.5219
  892MPD2    C413127   1.385   2.012  15.125  0.5432  0.4834  0.3579
  892MPD2    C513128   1.383   2.089  15.241  0.0861 -0.7597  0.2736
  892MPD2     H13129   1.181   2.177  14.934  0.1960 -0.6647  0.1673
  892MPD2    H113130   1.437   1.917  15.129  1.4111  0.8979 -0.9627
  892MPD2    H213131   1.321   2.270  15.335 -2.2399 -0.1702 -0.0744
  892MPD2    H313132   1.442   2.063  15.328 -0.3988 -2.2225  0.1529
  892MPD2     N13133   1.323   1.958  14.902  0.1695 -0.4673 -0.1773
  892MPD2    H513134   1.389   1.881  14.895 -0.0546 -0.6958  0.2193
  892MPD2    N113135   1.140   2.346  15.143 -0.0499  0.3931 -0.4326
  892MPD2    H713136   1.108   2.377  15.234 -0.9506 -2.7133  0.2954
  893MPD2     C13137   2.916   4.708   1.220 -0.7873  1.0519  0.6501
  893MPD2    C113138   2.902   0.081   1.134  0.1904  0.5242 -0.5745
  893MPD2    C213139   2.779   0.089   1.064 -0.0846  0.7400 -0.1635
  893MPD2    C313140   2.679   4.728   1.077  0.0483  0.3526 -0.2562
  893MPD2    C413141   2.700   4.616   1.153  0.0868 -0.2124 -0.3689
  893MPD2    C513142   2.821   4.604   1.225  0.3356  0.1284  0.0304
  893MPD2     H13143   2.749   0.170   0.999 -0.5672 -0.1438 -1.0428
  893MPD2    H113144   2.619   4.544   1.165  0.5019 -0.7407 -0.7076
  893MPD2    H213145   3.001   4.690   1.285  0.6200 -1.7583 -1.9390
  893MPD2    H313146   2.846   4.514   1.280 -0.9869 -0.5500 -0.4943
  893MPD2     N13147   2.555   0.001   0.997  0.4049 -0.0320  0.2266
  893MPD2    H513148   2.480   4.675   1.025  0.5989  0.1933  1.2780
  893MPD2    N113149   3.005   0.181   1.132  0.7633  0.0288 -0.0960
  893MPD2    H713150   3.097   0.153   1.164  1.0711  1.3367  0.1556
  894MPD2     C13151   0.932   2.257   1.205  0.3833  0.2848 -0.3028
  894MPD2    C113152   0.905   2.362   1.286  0.1300 -0.4587  0.3799
  894MPD2    C213153   0.945   2.490   1.246  0.0089  0.7392 -0.2922
  894MPD2    C313154   1.007   2.517   1.130  0.5087  0.6555  0.7627
  894MPD2    C413155   1.039   2.406   1.050 -0.4566  0.6354 -0.2387
  894MPD2    C513156   0.993   2.282   1.086 -0.5566  1.0311  0.1753
  894MPD2     H13157   0.916   2.576   1.306  0.0291  0.0716  0.6722
  894MPD2    H113158   1.097   2.424   0.960 -0.9569  0.5257 -0.5850
  894MPD2    H213159   0.907   2.157   1.240 -0.7034  0.6211 -0.0855
  894MPD2    H313160   1.027   2.200   1.024 -1.4985 -2.0605  3.7212
  894MPD2     N13161   1.046   2.652   1.107 -0.7109 -0.3835 -0.0736
  894MPD2    H513162   1.045   2.722   1.181  0.1889 -1.3541  0.8697
  894MPD2    N113163   0.830   2.349   1.407 -0.4000 -0.0176  0.3420
  894MPD2    H713164   0.822   2.439   1.453 -3.8268 -0.7579  1.2020
  895MPD2     C13165   0.760   1.817  13.797 -0.0021 -0.4626 -0.3583
  895MPD2    C113166   0.628   1.817  13.748  0.5201  0.6198  0.4445
  895MPD2    C213167   0.559   1.698  13.750 -0.1931 -0.2199  0.1537
  895MPD2    C313168   0.617   1.581  13.785 -0.2739  0.2314  0.2074
  895MPD2    C413169   0.749   1.584  13.830 -0.3915 -0.4717 -0.3270
  895MPD2    C513170   0.810   1.701  13.848  0.3292  0.7257 -0.2655
  895MPD2     H13171   0.461   1.699  13.704 -0.8867 -2.5213  1.5811
  895MPD2    H113172   0.803   1.492  13.852 -2.0588 -1.1396  0.9724
  895MPD2    H213173   0.822   1.906  13.792 -0.8752  0.2160  0.7268
  895MPD2    H313174   0.915   1.693  13.877 -0.0141  0.4310  0.8927
  895MPD2     N13175   0.547   1.463  13.761  0.1202  0.2854 -0.5012
  895MPD2    H513176   0.605   1.380  13.773  0.0409  0.2866 -0.1079
  895MPD2    N113177   0.555   1.927  13.690 -0.0932  0.5194  0.3698
  895MPD2    H713178   0.460   1.910  13.657 -0.2242  0.5000  0.7647
  896MPD2     C13179   3.497   3.139   1.569 -0.0496 -0.1976  0.2973
  896MPD2    C113180   3.479   3.244   1.481  0.3709  0.2066  0.2445
  896MPD2    C213181   3.351   3.246   1.418 -0.5528  0.1530 -0.2857
  896MPD2    C313182   3.259   3.139   1.432  0.7038 -0.0660 -0.2511
  896MPD2    C413183   3.284   3.034   1.524  0.6218  0.4264 -0.0034
  896MPD2    C513184   3.414   3.034   1.582 -0.7048 -0.3333 -0.6528
  896MPD2     H13185   3.327   3.318   1.341 -0.5983  0.9722  0.4958
  896MPD2    H113186   3.216   2.950   1.538 -0.1750  1.5483  2.7859
  896MPD2    H213187   3.592   3.147   1.621 -1.0423 -1.5161  2.2929
  896MPD2    H313188   3.434   2.958   1.657  1.2675  2.1115  1.3141
  896MPD2     N13189   3.135   3.148   1.370 -0.5128  0.3440 -1.0605
  896MPD2    H513190   3.126   3.231   1.312  2.2151  0.4039 -1.3531
  896MPD2    N113191   3.576   3.351   1.483 -0.3703  0.7882  0.2912
  896MPD2    H713192   3.661   3.341   1.537  0.2768  2.1766 -0.4723
  897MPD2     C13193   3.807   0.967  10.795  0.6446 -0.2462  0.1150
  897MPD2    C113194   3.739   0.902  10.690  0.1647 -0.3060  0.4727
  897MPD2    C213195   3.676   0.786  10.722  0.4991  0.1883  0.0119
  897MPD2    C313196   3.657   0.746  10.849  0.2039  0.1023  0.2028
  897MPD2    C413197   3.719   0.809  10.950 -0.3471  0.5421  0.4658
  897MPD2    C513198   3.799   0.913  10.922  0.0084  0.1751  0.3151
  897MPD2     H13199   3.624   0.724  10.649 -0.7148 -0.1203  1.1365
  897MPD2    H113200   3.696   0.784  11.053 -1.7674 -0.7147 -0.1593
  897MPD2    H213201   3.861   1.061  10.786  1.9959 -1.1969 -1.6778
  897MPD2    H313202   3.844   0.969  11.004  2.2559  0.8488 -1.3747
  897MPD2     N13203   3.565   0.643  10.865 -0.3453 -0.0926  0.4647
  897MPD2    H513204   3.521   0.599  10.785 -0.6770  1.9646 -0.4786
  897MPD2    N113205   3.743   0.968  10.563  0.5581 -0.3590  0.0155
  897MPD2    H713206   3.775   1.065  10.557  0.9153 -0.4366  0.7071
  898MPD2     C13207   0.375   1.267   0.270 -0.1747 -0.6595  0.6734
  898MPD2    C113208   0.508   1.291   0.241  0.6058 -1.1365 -0.2370
  898MPD2    C213209   0.552   1.423   0.204 -0.7525  0.9222  0.3812
  898MPD2    C313210   0.457   1.518   0.198 -0.4568 -0.2121  0.4411
  898MPD2    C413211   0.325   1.495   0.232 -0.0168 -0.6304 -0.6155
  898MPD2    C513212   0.284   1.367   0.262 -0.1072  0.0815 -0.0256
  898MPD2     H13213   0.654   1.433   0.171 -1.5437  2.2032 -1.6586
  898MPD2    H113214   0.248   1.571   0.237 -0.4680 -1.1142 -0.2136
  898MPD2    H213215   0.335   1.174   0.309  1.3448 -0.9549  1.5181
  898MPD2    H313216   0.180   1.348   0.287  0.3496  0.9220  2.4647
  898MPD2     N13217   0.503   1.643   0.147 -0.0400  0.2954  0.8959
  898MPD2    H513218   0.603   1.648   0.129  0.0454 -1.0330  1.0499
  898MPD2    N113219   0.607   1.187   0.247 -0.3762  0.1109  0.4316
  898MPD2    H713220   0.702   1.207   0.218  0.0648 -0.1654  1.7150
  899MPD2     C13221   1.871   2.014  17.189 -0.2758  0.2574 -0.0185
  899MPD2    C113222   1.883   2.087  17.308  0.1726  0.0044  0.4095
  899MPD2    C213223   1.863   2.028  17.423 -0.0904  0.6704 -0.3078
  899MPD2    C313224   1.834   1.891  17.430  0.0208 -0.6512 -0.2627
  899MPD2    C413225   1.844   1.815  17.313  1.0546 -0.4649 -0.1422
  899MPD2    C513226   1.860   1.883  17.198  0.6908  0.2319 -0.0042
  899MPD2     H13227   1.862   2.084  17.516 -0.6477  1.0826 -0.5673
  899MPD2    H113228   1.827   1.708  17.310 -1.3008 -0.1091  1.2548
  899MPD2    H213229   1.872   2.054  17.088  0.3696 -0.0723 -0.1440
  899MPD2    H313230   1.857   1.824  17.108  0.5702 -0.3379  0.3763
  899MPD2     N13231   1.775   1.831  17.545  0.0601  0.2409  0.0477
  899MPD2    H513232   1.744   1.735  17.533 -0.7130  0.5591 -0.5747
  899MPD2    N113233   1.904   2.230  17.300  0.2104  0.0994  0.5038
  899MPD2    H713234   1.931   2.270  17.211  0.4630 -0.1950  0.4480
  900MPD2     C13235   1.491   4.130  12.543 -0.2570 -0.1105  0.5033
  900MPD2    C113236   1.400   4.029  12.510 -0.5760 -0.5272 -0.6052
  900MPD2    C213237   1.266   4.055  12.463 -0.0844  0.1099  0.3683
  900MPD2    C313238   1.222   4.187  12.480 -0.0047 -0.3932 -0.5144
  900MPD2    C413239   1.313   4.287  12.524 -0.0847  0.3457 -1.0560
  900MPD2    C513240   1.443   4.259  12.556 -0.1109 -0.3156  0.1333
  900MPD2     H13241   1.205   3.980  12.415 -0.5285 -0.4983  1.8716
  900MPD2    H113242   1.289   4.393  12.528  1.5925  0.6978 -0.5562
  900MPD2    H213243   1.596   4.110  12.561 -0.2492  1.7719  2.5204
  900MPD2    H313244   1.508   4.337  12.594  0.8864 -1.8892  1.6410
  900MPD2     N13245   1.090   4.221  12.447  0.0394  0.7330 -0.0824
  900MPD2    H513246   1.034   4.144  12.413 -0.0533  1.4561 -1.5324
  900MPD2    N113247   1.448   3.900  12.532 -0.1317 -0.3726 -0.5533
  900MPD2    H713248   1.545   3.887  12.558 -0.2184  0.8906  0.3680
  901MPD2     C13249   1.611   3.060  13.137  0.8484  0.5368  0.9450
  901MPD2    C113250   1.696   3.038  13.026  0.0305 -0.4100  0.2731
  901MPD2    C213251   1.694   3.129  12.917 -0.3076 -0.2722  0.2330
  901MPD2    C313252   1.601   3.231  12.916 -0.5454 -0.5865  0.0582
  901MPD2    C413253   1.520   3.251  13.023 -0.1295  0.1770  0.8306
  901MPD2    C513254   1.532   3.172  13.135 -0.5179 -0.4003  0.2890
  901MPD2     H13255   1.755   3.113  12.829 -0.5996 -1.4446  0.2327
  901MPD2    H113256   1.458   3.340  13.023 -0.6584 -0.1867 -1.7211
  901MPD2    H213257   1.625   3.002  13.228  2.2956 -0.0071  0.3653
  901MPD2    H313258   1.476   3.197  13.224  0.4709 -2.7775  1.5920
  901MPD2     N13259   1.591   3.315  12.805 -0.2301 -0.1675  0.9247
  901MPD2    H513260   1.655   3.290  12.730 -0.2332 -0.9666  1.1931
  901MPD2    N113261   1.767   2.912  13.025  0.4844  0.0523  0.1427
  901MPD2    H713262   1.755   2.861  13.112  2.4191 -0.6988 -0.0238
  902MPD2     C13263   0.844   1.971  13.022  0.3792  0.0387 -0.5019
  902MPD2    C113264   0.862   2.054  12.908 -0.4905 -0.3717  0.6889
  902MPD2    C213265   0.894   1.989  12.786  0.0111  0.5762 -0.3768
  902MPD2    C313266   0.921   1.850  12.780 -0.1008  0.3609  0.1951
  902MPD2    C413267   0.913   1.777  12.897  0.2976 -0.6169 -0.2793
  902MPD2    C513268   0.883   1.840  13.017  0.4003 -0.4854 -0.4268
  902MPD2     H13269   0.909   2.052  12.700 -0.0304  0.0299 -0.7877
  902MPD2    H113270   0.934   1.671  12.901  2.3787 -0.0917  2.3754
  902MPD2    H213271   0.820   2.013  13.119  0.2108 -0.0081 -0.5239
  902MPD2    H313272   0.866   1.775  13.101 -2.1483  0.4796 -0.1972
  902MPD2     N13273   0.942   1.805  12.649  0.1347 -0.5841 -0.3115
  902MPD2    H513274   0.932   1.871  12.573 -0.3131 -1.1568 -0.7503
  902MPD2    N113275   0.839   2.197  12.915 -0.2977  0.3233 -0.0091
  902MPD2    H713276   0.785   2.228  12.995  0.6335  0.9026  0.3907
  903MPD2     C13277   0.719   2.183  12.177  0.1021 -0.3017 -0.2971
  903MPD2    C113278   0.679   2.055  12.152  0.2052  0.2254  0.6356
  903MPD2    C213279   0.554   2.025  12.091  0.2186 -0.3796 -0.1450
  903MPD2    C313280   0.493   2.138  12.037  0.7120 -0.5712  0.1308
  903MPD2    C413281   0.543   2.267  12.045 -0.5843 -0.2358 -0.3600
  903MPD2    C513282   0.657   2.289  12.120 -0.1045 -0.0474 -0.6158
  903MPD2     H13283   0.500   1.931  12.084  2.2730 -1.5990  0.5143
  903MPD2    H113284   0.493   2.351  11.997  0.4970 -1.0256 -2.8918
  903MPD2    H213285   0.811   2.201  12.231  0.0754  1.5649 -0.8763
  903MPD2    H313286   0.706   2.384  12.133  1.8317 -0.9716 -1.1277
  903MPD2     N13287   0.364   2.116  11.982 -0.0440  0.1162 -0.2931
  903MPD2    H513288   0.323   2.025  11.999  0.1739 -0.2425 -1.6970
  903MPD2    N113289   0.760   1.952  12.208 -0.0966  0.4317 -0.2202
  903MPD2    H713290   0.838   1.975  12.268 -1.1261  0.9647  0.9243
  904MPD2     C13291   4.520   0.863  14.470  0.6768 -0.3168 -0.3876
  904MPD2    C113292   4.551   0.996  14.457  0.2273  0.4254  0.3834
  904MPD2    C213293   4.679   1.038  14.478  0.0331  0.4988  0.1073
  904MPD2    C313294   0.048   0.952  14.496 -0.2868 -0.0384 -0.3043
  904MPD2    C413295   0.014   0.820  14.517 -0.2907  0.0172 -0.1701
  904MPD2    C513296   4.622   0.777  14.501  0.5631  0.0595 -1.1612
  904MPD2     H13297   4.695   1.143  14.454 -0.3029  0.2667 -1.1555
  904MPD2    H113298   0.091   0.745  14.531  0.6570  0.5708 -2.2949
  904MPD2    H213299   4.422   0.820  14.455  0.5314 -0.9247  2.4202
  904MPD2    H313300   4.592   0.674  14.519  0.3206  0.1418 -1.0933
  904MPD2     N13301   0.176   1.000  14.506 -0.2086 -1.0539  0.1228
  904MPD2    H513302   0.185   1.100  14.490 -2.0341 -1.0898 -1.1147
  904MPD2    N113303   4.455   1.095  14.407  0.0567 -0.3029  0.5470
  904MPD2    H713304   4.491   1.189  14.392 -1.6284  0.3599  0.6503
  905MPD2     C13305   4.331   1.376  13.595 -0.3378 -0.1654  0.5817
  905MPD2    C113306   4.387   1.318  13.712  0.3633 -0.4895 -1.0439
  905MPD2    C213307   4.513   1.261  13.699  0.0260 -0.2207 -0.1810
  905MPD2    C313308   4.591   1.286  13.587  0.2024  0.2309  0.3404
  905MPD2    C413309   4.534   1.338  13.472 -0.4326 -0.6110 -0.0870
  905MPD2    C513310   4.403   1.378  13.478  0.4581  0.6721 -0.4132
  905MPD2     H13311   4.553   1.225  13.793  0.7898 -2.0783 -1.2272
  905MPD2    H113312   4.602   1.353  13.388 -1.9012 -1.7038 -1.4886
  905MPD2    H213313   4.231   1.415  13.587 -0.1594  0.0693 -0.4706
  905MPD2    H313314   4.360   1.423  13.390 -0.0341  0.1885 -0.4247
  905MPD2     N13315   4.731   1.252  13.580  0.5829 -0.1669 -0.4502
  905MPD2    H513316   0.046   1.272  13.495 -0.2253 -0.8803 -1.1081
  905MPD2    N113317   4.301   1.311  13.822  0.2080  0.2402  0.5315
  905MPD2    H713318   4.209   1.352  13.810 -0.6839 -1.6346  1.0666
  906MPD2     C13319   2.596   1.174  11.145  0.1851  0.1233 -0.5102
  906MPD2    C113320   2.607   1.096  11.031 -0.5930  0.3783 -0.4337
  906MPD2    C213321   2.578   0.964  11.032  0.0446  0.4424  0.4974
  906MPD2    C313322   2.526   0.899  11.144 -0.4307 -0.3936 -0.3661
  906MPD2    C413323   2.523   0.975  11.257 -0.0406  0.0729  0.2518
  906MPD2    C513324   2.554   1.108  11.258  0.5703  1.0120  0.1771
  906MPD2     H13325   2.570   0.921  10.933  0.6917 -0.5097  0.8537
  906MPD2    H113326   2.488   0.928  11.348  2.5307 -2.3220 -0.0217
  906MPD2    H213327   2.626   1.278  11.153 -0.4696  0.3499 -0.9536
  906MPD2    H313328   2.544   1.164  11.351 -1.0749 -0.6155  0.9877
  906MPD2     N13329   2.495   0.759  11.138  0.1901 -0.7234 -0.9389
  906MPD2    H513330   2.461   0.709  11.219  1.4943 -0.9988 -0.5659
  906MPD2    N113331   2.622   1.148  10.905  0.1161  0.5133  0.8301
  906MPD2    H713332   2.603   1.095  10.820  0.8343  1.4210  0.1081
  907MPD2     C13333   0.802   0.554  16.164 -0.4183 -0.1896  0.3756
  907MPD2    C113334   0.836   0.418  16.146 -0.3171  0.4681  0.0483
  907MPD2    C213335   0.851   0.336  16.255 -1.2854  0.0329  0.1043
  907MPD2    C313336   0.857   0.399  16.379 -0.2905  0.5361  0.5013
  907MPD2    C413337   0.839   0.536  16.388  0.0258 -0.1142 -0.5701
  907MPD2    C513338   0.801   0.610  16.285  0.4614  0.4269  0.6430
  907MPD2     H13339   0.876   0.231  16.242 -2.4058  0.1133 -2.8397
  907MPD2    H113340   0.850   0.581  16.486 -2.1483 -1.7694  0.4576
  907MPD2    H213341   0.782   0.624  16.084  1.2876  0.8116  0.8385
  907MPD2    H313342   0.801   0.719  16.286  1.1648  0.4155  1.6072
  907MPD2     N13343   0.890   0.318  16.495 -0.0764 -0.6053  0.2493
  907MPD2    H513344   0.903   0.219  16.474 -2.1255 -0.8074 -0.1074
  907MPD2    N113345   0.836   0.347  16.018  0.6705 -0.5325 -0.5063
  907MPD2    H713346   0.863   0.249  16.030 -0.0237 -0.6035  0.5695
  908MPD2     C13347   3.206   0.678   9.731  0.2267 -0.2723 -0.2875
  908MPD2    C113348   3.297   0.617   9.806  0.7594  0.0186  0.0544
  908MPD2    C213349   3.369   0.680   9.912 -0.0794  0.0292  0.1302
  908MPD2    C313350   3.345   0.814   9.930 -0.2791  0.1865 -0.4517
  908MPD2    C413351   3.234   0.871   9.860 -0.4742 -0.4459 -0.0510
  908MPD2    C513352   3.173   0.805   9.755  0.0281  0.0449 -0.0908
  908MPD2     H13353   3.451   0.627   9.960  0.6146 -0.0550 -1.1448
  908MPD2    H113354   3.203   0.974   9.873 -1.1399 -0.4897 -1.3195
  908MPD2    H213355   3.146   0.635   9.652 -0.9133  0.1221  0.3610
  908MPD2    H313356   3.088   0.853   9.708  0.6831  0.7791 -0.5041
  908MPD2     N13357   3.432   0.879  10.020 -0.0283 -0.5114  0.2580
  908MPD2    H513358   3.510   0.834  10.067  0.9978  1.0634  0.0436
  908MPD2    N113359   3.324   0.480   9.768  0.2648 -0.2898 -0.5594
  908MPD2    H713360   3.263   0.446   9.695 -0.4988 -0.9099  0.3657
  909MPD2     C13361   4.045   4.135  12.076  0.2351 -0.0368  0.0381
  909MPD2    C113362   3.971   4.091  11.966 -0.9289  0.1521  0.2672
  909MPD2    C213363   3.841   4.044  11.977 -0.0098 -0.0410  0.4313
  909MPD2    C313364   3.775   4.045  12.095  0.4240  0.4474 -1.3440
  909MPD2    C413365   3.851   4.077  12.208 -0.3206 -1.2030 -0.2917
  909MPD2    C513366   3.978   4.128  12.198  0.3244  0.0735 -0.3083
  909MPD2     H13367   3.792   4.009  11.887  2.9444  0.6834 -1.4828
  909MPD2    H113368   3.796   4.089  12.301 -0.9773  1.2543 -1.0097
  909MPD2    H213369   4.147   4.169  12.072  0.3142 -0.4487 -1.6240
  909MPD2    H313370   4.032   4.145  12.290 -0.8329 -0.0132  0.3864
  909MPD2     N13371   3.649   3.984  12.101  0.0616 -0.2832  0.3033
  909MPD2    H513372   3.614   3.947  12.012  0.9903  0.2066 -0.2612
  909MPD2    N113373   4.041   4.097  11.840  0.3262  0.4085 -0.1153
  909MPD2    H713374   4.135   4.136  11.842  0.4862  0.0185 -0.0855
  910MPD2     C13375   0.501   0.995  16.289 -0.4431  1.0967 -0.3432
  910MPD2    C113376   0.438   0.874  16.262  0.1470  0.1990 -0.8401
  910MPD2    C213377   0.346   0.869  16.149 -0.6090  0.5163 -0.3048
  910MPD2    C313378   0.336   0.979  16.062 -0.0978 -0.7457 -0.4159
  910MPD2    C413379   0.397   1.097  16.108  0.0983  0.6336  0.9514
  910MPD2    C513380   0.460   1.109  16.225 -0.5498 -0.3350 -0.6704
  910MPD2     H13381   0.297   0.777  16.121  1.8732 -1.2105  1.0718
  910MPD2    H113382   0.394   1.179  16.038  1.4494 -0.7931 -0.7706
  910MPD2    H213383   0.571   1.005  16.372  1.7953 -0.9045 -2.0047
  910MPD2    H313384   0.504   1.204  16.256 -0.1257  0.0970 -2.5652
  910MPD2     N13385   0.281   0.978  15.929 -0.1658 -0.2728  0.2043
  910MPD2    H513386   0.293   1.063  15.875 -0.0005  0.1968  0.9929
  910MPD2    N113387   0.446   0.760  16.338 -0.1026  0.3747 -0.7064
  910MPD2    H713388   0.397   0.682  16.296 -0.4888  0.2737 -0.0738
  911MPD2     C13389   3.348   1.082  16.238  0.4377  0.5924 -0.9367
  911MPD2    C113390   3.320   1.114  16.366 -0.0142 -0.2584 -0.1362
  911MPD2    C213391   3.271   1.242  16.388 -0.6603  0.1819 -0.5976
  911MPD2    C313392   3.222   1.321  16.285  0.2309 -0.2433  0.5550
  911MPD2    C413393   3.251   1.277  16.151  0.6412 -0.2414  0.4138
  911MPD2    C513394   3.321   1.159  16.130  0.1284  0.7508  0.1136
  911MPD2     H13395   3.252   1.280  16.488 -0.9511  2.5645 -1.5548
  911MPD2    H113396   3.218   1.338  16.068 -1.6882  1.3777  2.5422
  911MPD2    H213397   3.396   0.988  16.210  0.9779  0.3526  0.7998
  911MPD2    H313398   3.342   1.122  16.031  1.9774  1.7412  0.1464
  911MPD2     N13399   3.148   1.440  16.299  0.4754 -0.2261  0.2986
  911MPD2    H513400   3.133   1.500  16.218 -0.3914  3.0686  2.8581
  911MPD2    N113401   3.361   1.026  16.472 -0.5644  0.6612  0.6629
  911MPD2    H713402   3.404   0.940  16.438 -0.3167  1.6688 -1.5761
  912MPD2     C13403   3.014   1.471  15.823  0.0699 -0.3297  0.2021
  912MPD2    C113404   2.953   1.464  15.945  0.1850  0.0973 -0.5068
  912MPD2    C213405   2.945   1.336  16.002 -0.0931 -0.2370  0.4131
  912MPD2    C313406   2.995   1.222  15.940  0.8097  0.5739 -0.1736
  912MPD2    C413407   3.068   1.237  15.822 -0.2541  0.3008  0.3299
  912MPD2    C513408   3.068   1.359  15.761  0.3772  0.2965 -0.4454
  912MPD2     H13409   2.912   1.324  16.104 -0.8455 -0.1304  0.1773
  912MPD2    H113410   3.118   1.156  15.770  1.8651  1.6533  0.2618
  912MPD2    H213411   3.013   1.562  15.763  0.6777 -1.6129 -1.7782
  912MPD2    H313412   3.116   1.376  15.666  0.9272  1.4533  0.0331
  912MPD2     N13413   2.991   1.105  16.011 -0.3726  0.4374  0.1441
  912MPD2    H513414   2.935   1.105  16.096  1.1461  2.2252  1.1488
  912MPD2    N113415   2.916   1.593  16.005 -0.2060  0.2469 -0.0488
  912MPD2    H713416   2.936   1.679  15.956 -2.5419 -0.6480 -2.5504
  913MPD2     C13417   3.797   2.747  10.504 -0.3715 -0.2622 -0.1956
  913MPD2    C113418   3.732   2.729  10.383 -0.2211 -0.7638  0.0916
  913MPD2    C213419   3.748   2.827  10.288  0.0712  0.4728 -0.6819
  913MPD2    C313420   3.817   2.945  10.309  0.5396 -0.6321  0.0107
  913MPD2    C413421   3.879   2.968  10.435 -0.5202  0.7877  0.1344
  913MPD2    C513422   3.869   2.863  10.529  0.2107  0.4615  0.2116
  913MPD2     H13423   3.706   2.813  10.190 -0.1116  0.8569 -0.6580
  913MPD2    H113424   3.929   3.059  10.467  2.5439 -0.6037 -0.6981
  913MPD2    H213425   3.812   2.668  10.577  2.0925 -1.4924 -2.0411
  913MPD2    H313426   3.928   2.863  10.621 -1.1527 -0.8172  1.0925
  913MPD2     N13427   3.833   3.045  10.209  0.7764 -1.0517  0.1265
  913MPD2    H513428   3.880   3.132  10.233  0.0289  0.2035 -2.9630
  913MPD2    N113429   3.656   2.613  10.372  0.5298 -0.0378  1.0071
  913MPD2    H713430   3.643   2.565  10.460  0.2063 -1.8880 -0.0352
  914MPD2     C13431   1.804   2.598  12.167 -0.1134 -0.0743 -0.4211
  914MPD2    C113432   1.803   2.722  12.222 -0.2642  0.6060 -0.6111
  914MPD2    C213433   1.832   2.733  12.360  0.3295  0.3338  0.0733
  914MPD2    C313434   1.848   2.618  12.435 -0.0482  0.3426  0.7202
  914MPD2    C413435   1.846   2.493  12.368  0.4460 -0.4696  0.9399
  914MPD2    C513436   1.830   2.482  12.236 -0.9380 -0.1405 -0.1616
  914MPD2     H13437   1.818   2.830  12.407 -0.1394  0.8006 -1.0373
  914MPD2    H113438   1.854   2.400  12.422 -0.2407 -0.6492  0.7364
  914MPD2    H213439   1.769   2.579  12.066  0.8211 -0.4550 -0.6767
  914MPD2    H313440   1.815   2.381  12.198 -1.7183  0.4188 -1.3101
  914MPD2     N13441   1.885   2.625  12.572 -0.8723  0.2678  0.4948
  914MPD2    H513442   1.897   2.720  12.604 -1.1075 -0.3776  2.4881
  914MPD2    N113443   1.770   2.825  12.136 -0.6296 -0.5284 -0.0958
  914MPD2    H713444   1.775   2.797  12.038  0.2298 -0.4296 -0.0761
  915MPD2     C13445   4.015   2.770  15.662  0.6060  0.4806 -0.2442
  915MPD2    C113446   3.893   2.750  15.722  0.4729  0.0040  0.0622
  915MPD2    C213447   3.874   2.772  15.855 -0.5472 -0.4623 -0.2432
  915MPD2    C313448   3.978   2.828  15.927  0.2996 -0.4103 -0.5312
  915MPD2    C413449   4.101   2.842  15.874 -0.2223 -0.0192  0.3431
  915MPD2    C513450   4.121   2.809  15.742 -0.0182 -0.2252  0.9272
  915MPD2     H13451   3.775   2.749  15.894  0.0034 -0.0969  1.3926
  915MPD2    H113452   4.193   2.861  15.928 -0.1042  0.8212 -0.1454
  915MPD2    H213453   4.032   2.748  15.558 -1.6854 -1.5579 -0.1761
  915MPD2    H313454   4.220   2.820  15.699  0.0387  1.7925  1.5846
  915MPD2     N13455   3.954   2.851  16.066 -0.0054 -0.8356 -0.3446
  915MPD2    H513456   3.855   2.845  16.088 -1.1740  2.1546 -4.6322
  915MPD2    N113457   3.790   2.692  15.641  0.7481 -0.9291 -0.6424
  915MPD2    H713458   3.821   2.661  15.549  1.4106  1.0425 -1.0852
  916MPD2     C13459   2.680   0.953  15.951 -0.5422 -0.6534  0.2817
  916MPD2    C113460   2.653   0.851  16.038  0.2945  0.3729 -0.3859
  916MPD2    C213461   2.668   0.719  16.005 -0.0667 -0.2967  0.1028
  916MPD2    C313462   2.706   0.688  15.872  0.7253  0.1411 -0.6811
  916MPD2    C413463   2.735   0.792  15.786 -0.7861  0.2184 -0.3275
  916MPD2    C513464   2.722   0.927  15.823 -0.2026 -0.0522 -0.7332
  916MPD2     H13465   2.658   0.645  16.083  0.6426  0.2127  0.6766
  916MPD2    H113466   2.779   0.778  15.688 -0.9710  0.0030 -0.3825
  916MPD2    H213467   2.675   1.057  15.982 -0.2624 -0.0302 -1.8174
  916MPD2    H313468   2.753   1.016  15.769  1.0745  0.6581  1.1392
  916MPD2     N13469   2.727   0.553  15.839  0.0890  0.0687 -0.0718
  916MPD2    H513470   2.724   0.492  15.920 -0.6384  0.4179  0.1623
  916MPD2    N113471   2.608   0.886  16.168  0.0444 -0.4358  0.3345
  916MPD2    H713472   2.606   0.987  16.169 -0.4578 -0.4668  2.6694
  917MPD2     C13473   2.420   3.129  11.201  0.2363  0.8375  0.1327
  917MPD2    C113474   2.550   3.176  11.217  0.6932  0.0321  0.2177
  917MPD2    C213475   2.597   3.270  11.133  0.7514  0.4632 -0.3815
  917MPD2    C313476   2.512   3.325  11.031 -0.5942  0.2434  0.3066
  917MPD2    C413477   2.381   3.281  11.023 -0.2360  0.0852 -0.4124
  917MPD2    C513478   2.340   3.179  11.109 -0.3749  0.4750 -0.1815
  917MPD2     H13479   2.694   3.318  11.143  1.6649 -0.9029 -2.5622
  917MPD2    H113480   2.307   3.325  10.957 -1.2099  1.4930  1.6127
  917MPD2    H213481   2.380   3.049  11.262  0.1691 -0.3794 -1.4913
  917MPD2    H313482   2.237   3.145  11.104 -0.3357  0.2693  0.4197
  917MPD2     N13483   2.559   3.425  10.938 -1.3386 -0.0658 -0.1263
  917MPD2    H513484   2.488   3.469  10.881 -2.0634  0.0401  0.8464
  917MPD2    N113485   2.624   3.112  11.326 -0.0935  0.5289 -0.3191
  917MPD2    H713486   2.574   3.037  11.373  1.8934 -1.0445 -0.7284
  918MPD2     C13487   3.015   3.555  12.214  0.2856  0.6668 -0.0330
  918MPD2    C113488   3.069   3.435  12.221  0.2721 -1.1437 -0.8070
  918MPD2    C213489   3.033   3.333  12.135 -0.2615 -0.2899  0.0279
  918MPD2    C313490   2.938   3.357  12.038  0.2242 -0.5879 -0.5011
  918MPD2    C413491   2.880   3.489  12.030 -0.0359 -0.0550  0.0954
  918MPD2    C513492   2.912   3.582  12.125 -0.1307 -0.7122  1.0199
  918MPD2     H13493   3.073   3.233  12.147 -1.3387 -0.3868  2.8003
  918MPD2    H113494   2.813   3.514  11.949 -1.8578 -0.1415  1.5759
  918MPD2    H213495   3.031   3.635  12.285  0.2386 -0.2178  0.9785
  918MPD2    H313496   2.863   3.678  12.130 -0.4590 -0.6574 -2.7270
  918MPD2     N13497   2.916   3.265  11.933 -0.2134  0.6853  0.4470
  918MPD2    H513498   2.944   3.170  11.954  0.4774  1.0961  1.3706
  918MPD2    N113499   3.185   3.414  12.304  0.8213 -0.4211 -0.8372
  918MPD2    H713500   3.219   3.319  12.300 -0.6328 -1.0022  0.5809
  919MPD2     C13501   3.199   2.345  11.773  0.3887 -0.2592 -0.5188
  919MPD2    C113502   3.141   2.223  11.726  0.8206 -0.4218 -0.3593
  919MPD2    C213503   3.111   2.210  11.593  0.3924  0.0786 -0.2253
  919MPD2    C313504   3.134   2.317  11.508 -0.5794  0.0873 -1.4433
  919MPD2    C413505   3.187   2.436  11.556 -0.4935 -0.0404 -0.1105
  919MPD2    C513506   3.225   2.445  11.687 -0.4528  0.2288 -0.0083
  919MPD2     H13507   3.076   2.115  11.553  0.6225 -0.3021  0.4592
  919MPD2    H113508   3.193   2.530  11.502 -3.5913 -0.7352 -1.6014
  919MPD2    H213509   3.235   2.355  11.875 -0.5328 -0.4340 -0.1765
  919MPD2    H313510   3.248   2.539  11.736 -0.3214 -1.0852  2.4544
  919MPD2     N13511   3.085   2.325  11.377  0.2937 -0.1555 -0.1926
  919MPD2    H513512   3.103   2.410  11.324  0.0040 -1.0323 -1.7196
  919MPD2    N113513   3.113   2.116  11.813 -1.1495 -0.5107  0.6479
  919MPD2    H713514   3.087   2.030  11.766  1.5843 -0.6556 -0.6208
  920MPD2     C13515   2.730   2.826  10.612 -0.0359 -0.1927  0.2184
  920MPD2    C113516   2.670   2.702  10.602  0.2878  0.0838 -0.2866
  920MPD2    C213517   2.731   2.595  10.658 -0.5264  0.3595 -0.2821
  920MPD2    C313518   2.843   2.615  10.735  0.4162 -1.2139  0.6268
  920MPD2    C413519   2.899   2.741  10.752  0.2777  0.0263 -0.7474
  920MPD2    C513520   2.834   2.845  10.692  0.4196 -0.4370 -0.9950
  920MPD2     H13521   2.690   2.497  10.637 -0.2819  0.4006 -0.9567
  920MPD2    H113522   2.996   2.750  10.800  1.0988  0.8166 -2.5632
  920MPD2    H213523   2.693   2.919  10.570 -2.7620 -1.6141 -0.5980
  920MPD2    H313524   2.877   2.944  10.703  0.5698 -0.6152  0.0438
  920MPD2     N13525   2.895   2.508  10.809  0.0924  0.1610  0.3283
  920MPD2    H513526   2.873   2.416  10.774 -1.4511 -1.1469  4.6604
  920MPD2    N113527   2.564   2.689  10.510  0.8022  0.7390 -0.0028
  920MPD2    H713528   2.556   2.591  10.484  0.1745  1.0476 -0.9993
  921MPD2     C13529   4.129   1.068  17.037 -0.6646  0.2492 -0.4382
  921MPD2    C113530   4.126   1.007  16.915 -0.8268 -0.8364  0.1755
  921MPD2    C213531   4.003   0.981  16.851  0.8120 -1.0248  0.1114
  921MPD2    C313532   3.885   1.002  16.926  1.1039 -0.2879  0.2234
  921MPD2    C413533   3.890   1.062  17.050 -0.3284 -0.0818  0.3540
  921MPD2    C513534   4.009   1.099  17.103 -0.2329  0.4014  0.4588
  921MPD2     H13535   3.993   0.938  16.751  2.0256  1.3171 -1.0099
  921MPD2    H113536   3.805   1.068  17.117 -1.3154 -2.0047 -0.7209
  921MPD2    H213537   4.219   1.085  17.094 -0.2806 -1.5244 -0.5106
  921MPD2    H313538   4.031   1.133  17.203 -0.3570 -0.6644  0.8506
  921MPD2     N13539   3.755   0.961  16.882  0.2274 -0.0148 -0.2442
  921MPD2    H513540   3.676   0.980  16.943 -0.9616 -0.2231 -1.6942
  921MPD2    N113541   4.248   0.994  16.843  1.0083  0.7028 -0.5708
  921MPD2    H713542   4.332   1.024  16.892  0.1092  0.3413  1.1987
  922MPD2     C13543   0.109   3.856  17.448  0.4474  0.0138  0.2576
  922MPD2    C113544   0.007   3.860  17.537  0.2526  0.6377  0.1853
  922MPD2    C213545   4.637   3.771  17.538  0.5602  0.4525 -0.2230
  922MPD2    C313546   4.631   3.677  17.435  0.4761 -0.1982 -0.2058
  922MPD2    C413547   4.735   3.675  17.343 -0.1786 -0.3668  0.0814
  922MPD2    C513548   0.104   3.766  17.347 -0.3867 -0.1766  0.6241
  922MPD2     H13549   4.564   3.769  17.619 -0.7685 -1.7098 -1.4565
  922MPD2    H113550   4.735   3.594  17.271  2.7821 -0.3783  0.1095
  922MPD2    H213551   0.193   3.924  17.434  1.7019 -1.4871  0.3993
  922MPD2    H313552   0.185   3.764  17.276  0.0520 -0.0346  1.1197
  922MPD2     N13553   4.515   3.587  17.428  0.0074  0.9448  0.7219
  922MPD2    H513554   4.445   3.589  17.502 -1.3051  3.3206 -0.5796
  922MPD2    N113555   4.734   3.962  17.639 -0.6597  0.3378 -0.1035
  922MPD2    H713556   4.653   3.961  17.702 -2.0867  0.8236 -1.9277
  923MPD2     C13557   1.329   1.364   9.294 -0.5506 -0.2092  0.1826
  923MPD2    C113558   1.342   1.430   9.412 -0.5869 -0.2021  0.2973
  923MPD2    C213559   1.461   1.406   9.479  0.2358  0.7575  0.9968
  923MPD2    C313560   1.556   1.321   9.437  0.5470 -0.1316 -0.3539
  923MPD2    C413561   1.531   1.236   9.327 -0.8397 -0.3515 -0.3091
  923MPD2    C513562   1.422   1.262   9.256  0.3213  0.4800 -0.5133
  923MPD2     H13563   1.481   1.461   9.571 -2.7712  0.7720  1.6363
  923MPD2    H113564   1.602   1.157   9.306 -1.2024 -0.7897  0.1166
  923MPD2    H213565   1.237   1.363   9.238 -0.2558  0.3867 -0.3050
  923MPD2    H313566   1.407   1.203   9.166  0.8219 -1.5494  0.7523
  923MPD2     N13567   1.677   1.293   9.507  0.3324  1.0453  0.0575
  923MPD2    H513568   1.726   1.211   9.473 -1.1190  1.0721 -2.1330
  923MPD2    N113569   1.234   1.505   9.464  0.4910 -0.3414  0.0727
  923MPD2    H713570   1.146   1.500   9.414 -0.3446  2.8698  1.1943
  924MPD2     C13571   1.169   4.407  16.277 -0.1730  0.6835  0.1906
  924MPD2    C113572   1.122   4.396  16.404 -0.3620 -0.2508  0.4683
  924MPD2    C213573   1.145   4.501  16.494  0.1429 -0.1942  0.2509
  924MPD2    C313574   1.203   4.619  16.450  0.2992 -0.3934  0.3590
  924MPD2    C413575   1.233   4.634  16.315  1.0065  0.4614  0.0112
  924MPD2    C513576   1.229   4.526  16.232  1.0243 -0.8744 -0.1627
  924MPD2     H13577   1.096   4.500  16.590  1.2496  3.7276  0.8485
  924MPD2    H113578   1.272   4.721  16.262 -1.3304  0.7673 -1.2305
  924MPD2    H213579   1.159   4.329  16.202 -2.5776 -0.3770  1.6186
  924MPD2    H313580   1.250   4.533  16.126 -0.9798  1.1049 -0.4378
  924MPD2     N13581   1.221   4.732  16.532 -0.3609 -0.1295 -0.2979
  924MPD2    H513582   1.248   0.086  16.494  0.9096  0.6533  2.4746
  924MPD2    N113583   1.043   4.286  16.446  0.6704 -0.3045 -0.4342
  924MPD2    H713584   1.026   4.208  16.383  3.7395 -0.2448 -1.3138
  925MPD2     C13585   0.421   2.411  14.780  0.2090 -0.3347  0.3588
  925MPD2    C113586   0.296   2.379  14.732 -0.2479  0.2632 -0.0851
  925MPD2    C213587   0.191   2.378  14.823 -0.2899  0.0918  0.2336
  925MPD2    C313588   0.217   2.420  14.953  0.3298 -0.1015 -0.1346
  925MPD2    C413589   0.346   2.451  14.999 -0.1316  0.0310 -0.4851
  925MPD2    C513590   0.449   2.434  14.912  0.2345 -0.2835 -0.2192
  925MPD2     H13591   0.087   2.358  14.800 -0.0042 -0.3287 -0.6955
  925MPD2    H113592   0.370   2.477  15.101 -1.0724  2.3365 -0.8581
  925MPD2    H213593   0.509   2.414  14.716 -0.0423  0.2416  0.0374
  925MPD2    H313594   0.554   2.449  14.933 -0.3040  1.1746  1.3376
  925MPD2     N13595   0.118   2.416  15.051  0.4803  0.2177  0.4330
  925MPD2    H513596   0.145   2.428  15.148 -1.2467  0.1599  0.9234
  925MPD2    N113597   0.274   2.365  14.593  0.1246 -0.7027  0.8196
  925MPD2    H713598   0.181   2.331  14.569  0.2016  0.4424 -1.0518
  926MPD2     C13599   4.027   0.464  13.901  0.2448  0.4409  0.7815
  926MPD2    C113600   3.946   0.504  13.792  0.0902  0.5607  0.0611
  926MPD2    C213601   3.993   0.609  13.712  0.2273 -0.4126 -0.1101
  926MPD2    C313602   4.124   0.664  13.727  0.1736  0.2438 -0.4900
  926MPD2    C413603   4.202   0.593  13.815 -0.0844 -0.9000  0.0363
  926MPD2    C513604   4.155   0.506  13.912 -0.0619  0.2408 -0.1560
  926MPD2     H13605   3.915   0.644  13.645  0.2156 -1.7869 -0.8082
  926MPD2    H113606   4.309   0.611  13.822 -0.3621  1.3950 -1.3421
  926MPD2    H213607   3.985   0.394  13.972 -1.5161  2.5190  1.8078
  926MPD2    H313608   4.217   0.451  13.981  0.8025  2.5035  0.8619
  926MPD2     N13609   4.181   0.763  13.643  0.3807  0.0473  0.8860
  926MPD2    H513610   4.281   0.783  13.646  0.0036  2.3329 -1.8623
  926MPD2    N113611   3.817   0.460  13.768  0.5955  0.0842  0.4029
  926MPD2    H713612   3.761   0.495  13.691 -0.7274  0.0388  1.3459
  927MPD2     C13613   3.732   2.696   0.626  0.2361 -0.3475  0.2796
  927MPD2    C113614   3.680   2.619   0.526  0.5676  0.0006  0.3276
  927MPD2    C213615   3.713   2.632   0.389  0.1554  0.3169 -0.1014
  927MPD2    C313616   3.797   2.736   0.361 -0.6598  0.5909  0.6209
  927MPD2    C413617   3.861   2.807   0.462 -0.0178  0.3669 -0.0790
  927MPD2    C513618   3.818   2.795   0.596  0.6605  0.4865 -0.0859
  927MPD2     H13619   3.679   2.564   0.312  2.5809 -0.6154 -0.3706
  927MPD2    H113620   3.925   2.893   0.442  0.3094 -0.0730 -0.9009
  927MPD2    H213621   3.705   2.663   0.725  1.7030  1.8326  1.4072
  927MPD2    H313622   3.852   2.870   0.667  0.0992  0.9674 -0.3213
  927MPD2     N13623   3.831   2.778   0.230  0.1764 -0.4595  0.3345
  927MPD2    H513624   3.904   2.847   0.219  1.6309 -2.0365  0.1013
  927MPD2    N113625   3.590   2.517   0.570  0.0007 -0.0031  0.2022
  927MPD2    H713626   3.564   2.519   0.668  0.6751 -3.3029  0.4366
  928MPD2     C13627   1.371   0.048   0.500 -0.3800 -0.4131  0.2539
  928MPD2    C113628   1.459   0.118   0.584  0.0941  0.1491 -0.1071
  928MPD2    C213629   1.537   0.214   0.527 -0.6715 -0.4106 -0.5754
  928MPD2    C313630   1.539   0.243   0.389  0.7388 -0.7033 -0.5178
  928MPD2    C413631   1.457   0.165   0.307  0.7150  0.6247  0.7397
  928MPD2    C513632   1.373   0.072   0.366 -0.0250 -0.4674 -0.6855
  928MPD2     H13633   1.612   0.258   0.592 -2.3226  2.6087 -0.7280
  928MPD2    H113634   1.466   0.183   0.200  1.2121 -0.2750  0.6272
  928MPD2    H213635   1.310   4.709   0.548  1.4419 -1.2744  1.2277
  928MPD2    H313636   1.304   0.011   0.307  2.4422 -2.5548 -1.3946
  928MPD2     N13637   1.610   0.347   0.323  0.3023 -0.5952 -0.3214
  928MPD2    H513638   1.573   0.372   0.232 -0.9141  1.9157  0.8744
  928MPD2    N113639   1.476   0.079   0.722 -0.2367  0.2123  0.7796
  928MPD2    H713640   1.410   0.012   0.763 -2.2324 -0.5885 -3.7562
  929MPD2     C13641   1.143   1.161   9.601  0.1841  0.8903 -0.3311
  929MPD2    C113642   1.114   1.139   9.738  0.5945 -0.0075  0.2777
  929MPD2    C213643   0.986   1.152   9.773  0.0999 -0.6858  0.1227
  929MPD2    C313644   0.884   1.177   9.677 -0.4005 -0.7115 -0.2488
  929MPD2    C413645   0.917   1.197   9.546 -0.1727 -0.3124 -0.2869
  929MPD2    C513646   1.049   1.195   9.508 -0.1686  0.1274  1.1504
  929MPD2     H13647   0.950   1.164   9.874  1.1587 -2.1341  0.6596
  929MPD2    H113648   0.837   1.211   9.474  0.1874  0.5708 -0.5131
  929MPD2    H213649   1.247   1.155   9.569  1.1135  0.7355  2.6612
  929MPD2    H313650   1.077   1.205   9.404 -2.7311  0.1854  0.4615
  929MPD2     N13651   0.745   1.186   9.719 -0.2692  0.6416  0.5261
  929MPD2    H513652   0.676   1.197   9.645 -0.1350  2.2121  0.6247
  929MPD2    N113653   1.219   1.110   9.834  0.3236  0.3915  0.0370
  929MPD2    H713654   1.313   1.122   9.797 -0.1663 -0.4962 -1.4844
  930MPD2     C13655   3.441   3.151  14.199  0.3696  0.1356  0.1046
  930MPD2    C113656   3.347   3.141  14.097  1.1139 -0.0757 -0.2918
  930MPD2    C213657   3.273   3.027  14.094 -0.0472 -0.3235 -0.4202
  930MPD2    C313658   3.301   2.912  14.165 -0.4122  0.1372  0.3172
  930MPD2    C413659   3.398   2.927  14.262  0.4909 -0.2642  0.1938
  930MPD2    C513660   3.465   3.046  14.282 -0.5629 -0.2576 -0.3686
  930MPD2     H13661   3.193   3.029  14.021  0.0407 -1.1249 -0.5414
  930MPD2    H113662   3.409   2.842  14.329  2.1081  1.3050  1.9543
  930MPD2    H213663   3.498   3.243  14.204  0.7509 -0.0002 -1.7511
  930MPD2    H313664   3.542   3.058  14.358  1.3234 -3.1757 -1.7831
  930MPD2     N13665   3.237   2.786  14.143  0.7346 -0.2330 -0.1711
  930MPD2    H513666   3.274   2.711  14.199  2.3976  2.7750  2.7853
  930MPD2    N113667   3.345   3.254  14.009  1.0087 -0.2457 -0.1636
  930MPD2    H713668   3.410   3.326  14.038  0.2817 -0.4151  1.8860
  931MPD2     C13669   3.682   1.807   0.725 -0.5840  0.0403  0.6360
  931MPD2    C113670   3.546   1.829   0.726  0.0560 -0.1865  0.0192
  931MPD2    C213671   3.463   1.721   0.757 -0.1269  0.6329  0.3108
  931MPD2    C313672   3.520   1.593   0.766 -0.6705 -0.0384 -0.0058
  931MPD2    C413673   3.657   1.576   0.756 -0.6013 -0.4687  0.9768
  931MPD2    C513674   3.741   1.686   0.742  0.3941 -0.5317  0.1290
  931MPD2     H13675   3.357   1.742   0.762 -0.5909 -1.4841 -0.5687
  931MPD2    H113676   3.702   1.477   0.764 -0.2334 -0.5090 -1.5595
  931MPD2    H213677   3.743   1.896   0.717 -1.6526  0.8556  1.6260
  931MPD2    H313678   3.848   1.677   0.732  0.4102  0.4715 -0.5356
  931MPD2     N13679   3.444   1.477   0.791  0.5689  0.0967  0.0062
  931MPD2    H513680   3.503   1.395   0.789  0.1917 -0.1487 -0.7807
  931MPD2    N113681   3.497   1.957   0.697 -0.2235 -0.3713 -1.0115
  931MPD2    H713682   3.563   2.032   0.675 -1.3932  0.4229 -1.7725
  932MPD2     C13683   0.269   2.043  11.307  0.1082 -0.4012 -0.3994
  932MPD2    C113684   0.403   2.047  11.310  0.3435 -0.1139  0.1672
  932MPD2    C213685   0.469   1.923  11.311  0.0324  0.0901  0.2178
  932MPD2    C313686   0.404   1.802  11.299 -0.2065 -0.0643 -0.0320
  932MPD2    C413687   0.263   1.803  11.302  0.4192 -0.2616 -0.1924
  932MPD2    C513688   0.197   1.928  11.304  0.6732 -0.6215 -0.6222
  932MPD2     H13689   0.577   1.917  11.303  0.2043  0.6146  2.2289
  932MPD2    H113690   0.205   1.714  11.323 -1.6605  0.6715 -1.9334
  932MPD2    H213691   0.205   2.130  11.317 -1.1222 -1.6403  2.7322
  932MPD2    H313692   0.091   1.932  11.329  1.0623  1.3869  0.7649
  932MPD2     N13693   0.479   1.684  11.325  0.4526 -0.2696 -0.4448
  932MPD2    H513694   0.573   1.695  11.363  0.4682  0.5382 -0.7120
  932MPD2    N113695   0.479   2.162  11.310  0.1210 -0.3426 -0.0561
  932MPD2    H713696   0.576   2.146  11.337  0.7884  1.4875 -1.3240
  933MPD2     C13697   1.130   0.229   1.472 -0.1884  0.8640 -0.4082
  933MPD2    C113698   1.172   0.295   1.357 -0.0664  0.2643 -0.0657
  933MPD2    C213699   1.076   0.375   1.290  0.6318  0.4499  0.0233
  933MPD2    C313700   0.949   0.395   1.339 -0.0158 -0.2864  0.4222
  933MPD2    C413701   0.920   0.332   1.456  0.0363 -0.0040 -0.0518
  933MPD2    C513702   1.006   0.241   1.518 -0.0439 -1.2652 -0.3970
  933MPD2     H13703   1.098   0.426   1.197  0.7433 -0.5385 -0.5014
  933MPD2    H113704   0.824   0.337   1.506  0.4230  1.4954  0.5391
  933MPD2    H213705   1.190   0.156   1.525 -2.6287 -2.8395 -2.7762
  933MPD2    H313706   0.979   0.193   1.612  1.5369  0.7422  1.0877
  933MPD2     N13707   0.871   0.496   1.281  0.2859  0.5288  0.0709
  933MPD2    H513708   0.913   0.548   1.205  0.8114  1.1897  0.8168
  933MPD2    N113709   1.293   0.261   1.304  0.6050  0.3134 -0.0562
  933MPD2    H713710   1.355   0.212   1.367 -1.3749  0.2397  1.8555
  934MPD2     C13711   2.608   3.381   1.640 -0.0866  0.7452 -0.2125
  934MPD2    C113712   2.667   3.265   1.612 -0.0967 -0.6866  0.1859
  934MPD2    C213713   2.583   3.174   1.547 -0.2871 -0.5066  0.5842
  934MPD2    C313714   2.450   3.195   1.525 -0.2448  0.7048  0.3728
  934MPD2    C413715   2.393   3.315   1.555 -0.5119  0.5316 -0.2761
  934MPD2    C513716   2.475   3.402   1.617 -0.3289 -0.4715 -0.1218
  934MPD2     H13717   2.636   3.085   1.515  3.8810  1.4908  1.9244
  934MPD2    H113718   2.288   3.337   1.541 -0.8846  0.2318  2.0956
  934MPD2    H213719   2.663   3.458   1.693 -1.2229  0.4945  1.3222
  934MPD2    H313720   2.433   3.494   1.654  0.2997 -0.2760  0.1067
  934MPD2     N13721   2.360   3.104   1.462 -1.0727 -0.1691  0.2410
  934MPD2    H513722   2.272   3.146   1.434  1.3811  1.8634 -4.3329
  934MPD2    N113723   2.794   3.230   1.662 -0.3074 -0.3031 -0.6749
  934MPD2    H713724   2.810   3.133   1.635 -0.0234  0.1959 -2.3256
  935MPD2     C13725   2.628   2.293   0.957 -0.1916  0.3530 -0.1759
  935MPD2    C113726   2.487   2.277   0.971 -0.3632  0.3710 -1.1159
  935MPD2    C213727   2.406   2.388   1.002  0.3622 -0.0967  0.3945
  935MPD2    C313728   2.466   2.511   1.021 -0.3642  0.4298  0.4677
  935MPD2    C413729   2.602   2.523   1.009  0.0154 -0.1415  0.2673
  935MPD2    C513730   2.677   2.418   0.983  0.5100  0.5790 -0.0875
  935MPD2     H13731   2.300   2.374   1.016  0.3341 -0.2514  0.0365
  935MPD2    H113732   2.650   2.616   1.039  0.4762  0.7530 -3.2366
  935MPD2    H213733   2.698   2.218   0.921 -0.2133  0.4065 -0.3295
  935MPD2    H313734   2.785   2.427   0.988  0.6468 -1.3943  0.8107
  935MPD2     N13735   2.400   2.627   1.061 -0.0927  0.3971 -0.5023
  935MPD2    H513736   2.460   2.709   1.059 -0.5471  0.8182  2.7743
  935MPD2    N113737   2.418   2.155   0.947  0.5087 -0.1328 -0.0301
  935MPD2    H713738   2.318   2.149   0.960  0.1679  1.7795 -1.7872
  936MPD2     C13739   0.553   0.743  12.361 -0.7849  0.2965 -0.1008
  936MPD2    C113740   0.654   0.655  12.325 -0.0660 -0.1936 -1.3826
  936MPD2    C213741   0.734   0.689  12.217 -0.0669 -0.0018 -0.7980
  936MPD2    C313742   0.713   0.804  12.147 -0.1144  0.0855 -1.3015
  936MPD2    C413743   0.599   0.882  12.169  0.0037 -0.1120 -0.1188
  936MPD2    C513744   0.520   0.853  12.280 -0.4910  0.6521  0.1020
  936MPD2     H13745   0.821   0.630  12.193  1.3044  1.3186  0.8987
  936MPD2    H113746   0.569   0.966  12.108 -0.7219 -0.5525 -0.3705
  936MPD2    H213747   0.480   0.712  12.435  0.4383  0.4146  1.1614
  936MPD2    H313748   0.432   0.913  12.300 -0.7879  0.1688  0.2487
  936MPD2     N13749   0.807   0.872  12.066 -0.2806  0.3401 -0.1416
  936MPD2    H513750   0.775   0.954  12.015 -1.0105  0.6309  0.7914
  936MPD2    N113751   0.695   0.546  12.403 -0.2461 -0.1985  1.0098
  936MPD2    H713752   0.782   0.506  12.369 -0.4058  0.1281  0.2118
  937MPD2     C13753   3.416   1.482  11.782 -0.3742  0.2177  0.1963
  937MPD2    C113754   3.434   1.618  11.779 -0.3368 -0.6526 -0.9285
  937MPD2    C213755   3.490   1.684  11.667 -0.2417 -0.1310 -0.2354
  937MPD2    C313756   3.539   1.601  11.568 -0.3661  0.3356  0.0244
  937MPD2    C413757   3.528   1.458  11.572  0.2540 -0.1645  1.0433
  937MPD2    C513758   3.459   1.400  11.681  0.4569 -0.2023 -0.2788
  937MPD2     H13759   3.487   1.791  11.653  2.7182 -0.0706 -0.3065
  937MPD2    H113760   3.562   1.391  11.494 -1.6257 -0.8497  0.8218
  937MPD2    H213761   3.361   1.423  11.855  2.0468 -0.9634  1.0698
  937MPD2    H313762   3.447   1.293  11.686 -0.7067 -0.1564 -2.1223
  937MPD2     N13763   3.601   1.665  11.459  0.2886  0.1280 -0.3379
  937MPD2    H513764   3.608   1.766  11.467 -0.8752  0.3082 -1.6375
  937MPD2    N113765   3.369   1.706  11.867 -0.0229  0.4819 -0.4427
  937MPD2    H713766   3.376   1.807  11.856  0.0525  0.2613 -2.4964
  938MPD2     C13767   1.468   2.573   0.884  0.0390 -0.6688  0.4020
  938MPD2    C113768   1.582   2.595   0.953 -0.2823  0.0307  0.0439
  938MPD2    C213769   1.632   2.500   1.044 -0.3541 -0.3023 -0.5146
  938MPD2    C313770   1.543   2.388   1.072 -0.0054  0.0376  0.8639
  938MPD2    C413771   1.436   2.373   0.991 -0.3093 -0.6102  0.2770
  938MPD2    C513772   1.395   2.460   0.892 -0.5472  0.2059 -0.2046
  938MPD2     H13773   1.722   2.516   1.102 -1.2573  0.2037  0.7362
  938MPD2    H113774   1.380   2.281   1.000  0.3279 -0.8988  1.2425
  938MPD2    H213775   1.438   2.644   0.808 -2.3981 -1.3058  0.7457
  938MPD2    H313776   1.305   2.450   0.833  0.6369 -1.3972 -1.7280
  938MPD2     N13777   1.568   2.296   1.180  0.6378  0.1630  0.0315
  938MPD2    H513778   1.505   2.216   1.184  0.2939  0.3611 -1.3585
  938MPD2    N113779   1.658   2.716   0.940 -0.8821  0.0448 -0.0158
  938MPD2    H713780   1.753   2.715   0.977 -0.5220  1.5750 -0.8961
  939MPD2     C13781   3.051   3.258   0.950  0.8189  0.0800 -0.1150
  939MPD2    C113782   2.956   3.352   0.999  0.6801 -0.0134 -0.5197
  939MPD2    C213783   2.829   3.337   0.947  0.1832  0.1082 -0.7511
  939MPD2    C313784   2.794   3.223   0.876  0.5455 -0.4439  0.3965
  939MPD2    C413785   2.888   3.124   0.850 -0.6144  0.2559 -0.4376
  939MPD2    C513786   3.013   3.140   0.898  0.1249  0.2625  0.2865
  939MPD2     H13787   2.757   3.415   0.971  1.2095  0.8655 -0.1488
  939MPD2    H113788   2.874   3.047   0.776  1.1292  1.0735 -1.6404
  939MPD2    H213789   3.154   3.269   0.980  0.7324 -1.5260  0.7338
  939MPD2    H313790   3.083   3.067   0.861  0.3607 -0.0191  1.2804
  939MPD2     N13791   2.671   3.214   0.811  0.4541 -0.4238  0.3697
  939MPD2    H513792   2.668   3.146   0.736  1.6466 -1.8003  1.5841
  939MPD2    N113793   2.987   3.467   1.067  0.6689 -0.4127 -0.3731
  939MPD2    H713794   2.918   3.541   1.073  0.5120 -0.6275  0.6208
  940MPD2     C13795   2.059   4.658  12.542 -0.0006 -0.2804  0.3088
  940MPD2    C113796   1.928   4.665  12.585  0.1708  0.6402 -0.1088
  940MPD2    C213797   1.828   4.599  12.516  0.0696  0.1959  0.0552
  940MPD2    C313798   1.861   4.519  12.404  0.1518 -0.1565  0.1416
  940MPD2    C413799   1.994   4.513  12.364  0.6166 -0.6621  0.8202
  940MPD2    C513800   2.089   4.582  12.433  0.3579  0.8918 -0.0966
  940MPD2     H13801   1.729   4.604  12.559  0.4174  0.4118  0.8256
  940MPD2    H113802   2.018   4.446  12.283  2.0274  0.2198  0.5210
  940MPD2    H213803   2.136   4.696  12.608  0.6475  1.5793 -1.5381
  940MPD2    H313804   2.193   4.572  12.404  0.8484  4.1751  0.5310
  940MPD2     N13805   1.761   4.450  12.331 -0.8078 -0.5776  0.5410
  940MPD2    H513806   1.801   4.388  12.262 -0.0266  0.7900 -0.2352
  940MPD2    N113807   1.882   0.004  12.698 -0.6402 -0.1792  0.4484
  940MPD2    H713808   1.791   4.722  12.739  0.1005  2.2408  3.1712
  941MPD2     C13809   0.418   0.159   9.893 -0.5841  0.0322 -0.6981
  941MPD2    C113810   0.489   0.125  10.000 -0.2528 -0.1768 -0.2246
  941MPD2    C213811   0.452   0.019  10.076  0.0266  0.0199 -0.0545
  941MPD2    C313812   0.348   4.673  10.041 -0.1306  0.2385  0.2380
  941MPD2    C413813   0.269   4.712   9.934  0.3095 -0.0300  0.5941
  941MPD2    C513814   0.304   0.086   9.862  0.0234  0.4752 -0.0867
  941MPD2     H13815   0.500   4.729  10.170 -1.9675 -1.2047  0.6034
  941MPD2    H113816   0.182   4.658   9.900 -0.6497  1.6480  0.3763
  941MPD2    H213817   0.444   0.248   9.838  0.8276 -1.4151 -2.3773
  941MPD2    H313818   0.243   0.107   9.775 -0.8191  0.1515  0.4238
  941MPD2     N13819   0.296   4.556  10.114  0.0847 -0.1030  0.0287
  941MPD2    H513820   0.212   4.508  10.080 -0.1384 -0.0740  0.5487
  941MPD2    N113821   0.600   0.202  10.035 -0.7750 -0.4228 -0.2866
  941MPD2    H713822   0.637   0.180  10.126 -2.5644 -0.3824  0.4653
  942MPD2     C13823   4.616   0.518   8.906 -0.0278 -0.0479 -0.4087
  942MPD2    C113824   4.690   0.495   9.022 -0.3118 -0.5469 -0.2695
  942MPD2    C213825   0.097   0.492   9.023 -0.0587 -0.0259  0.3991
  942MPD2    C313826   0.157   0.527   8.907 -0.5383  0.1480 -0.7383
  942MPD2    C413827   0.086   0.565   8.791  0.1522  0.2863  0.0666
  942MPD2    C513828   4.687   0.548   8.789 -0.5089 -0.4943 -0.0342
  942MPD2     H13829   0.155   0.469   9.111 -0.9909  0.2599  1.0971
  942MPD2    H113830   0.129   0.586   8.694 -2.8212  3.8538 -0.4551
  942MPD2    H213831   4.508   0.517   8.913 -0.1843 -1.0658 -2.8312
  942MPD2    H313832   4.639   0.596   8.704  0.9090 -0.3018 -0.7280
  942MPD2     N13833   0.297   0.550   8.903 -0.0139 -0.0475 -0.7255
  942MPD2    H513834   0.323   0.588   8.812 -0.8828  1.7994 -0.1939
  942MPD2    N113835   4.635   0.460   9.145 -0.3170 -0.1368  0.7830
  942MPD2    H713836   4.700   0.445   9.222  0.2638 -0.0980  0.2920
  943MPD2     C13837   4.699   4.350   9.592 -0.3516  0.1476  0.3745
  943MPD2    C113838   4.650   4.297   9.708  0.5074 -0.1114  0.2471
  943MPD2    C213839   4.579   4.377   9.798 -0.4840 -0.4040 -0.5850
  943MPD2    C313840   4.546   4.515   9.767  0.3741  0.4318 -0.2299
  943MPD2    C413841   4.596   4.568   9.656 -0.5289  0.5716  0.4989
  943MPD2    C513842   4.663   4.481   9.572  0.2564  0.2093  0.2513
  943MPD2     H13843   4.554   4.336   9.895  0.0628  1.4072  0.3172
  943MPD2    H113844   4.587   4.672   9.627  0.3743  0.2833 -0.8039
  943MPD2    H213845   0.016   4.299   9.514  1.6487  3.0396 -0.1665
  943MPD2    H313846   4.698   4.537   9.486  0.3508 -1.3835 -0.7597
  943MPD2     N13847   4.470   4.603   9.845 -0.4120 -0.0662  0.8925
  943MPD2    H513848   4.471   4.697   9.809 -0.5760  0.2321  1.6723
  943MPD2    N113849   4.661   4.160   9.740  0.2911 -0.1188  0.2251
  943MPD2    H713850   4.599   4.130   9.815 -2.6843  0.4298 -1.9895
  944MPD2     C13851   4.632   2.834  11.736  0.0123  0.8234  0.1213
  944MPD2    C113852   4.618   2.934  11.646 -0.1426  0.2980 -0.1765
  944MPD2    C213853   4.524   3.029  11.668  0.5684  0.1081  0.2603
  944MPD2    C313854   4.444   3.036  11.777 -0.0242  0.1124 -0.1530
  944MPD2    C413855   4.453   2.931  11.874 -0.2738 -0.3124 -0.7455
  944MPD2    C513856   4.552   2.833  11.843 -0.8060  0.1298  0.2676
  944MPD2     H13857   4.510   3.095  11.583  1.7633 -1.7667 -1.3835
  944MPD2    H113858   4.385   2.922  11.957 -0.4796 -1.9295 -1.0893
  944MPD2    H213859   4.707   2.755  11.735 -0.0075  0.8141 -0.7349
  944MPD2    H313860   4.571   2.754  11.915 -1.2187 -0.8513 -0.6911
  944MPD2     N13861   4.349   3.144  11.784 -0.3980  0.5513  0.1595
  944MPD2    H513862   4.360   3.216  11.712  0.6491 -0.7646 -0.9956
  944MPD2    N113863   4.688   2.929  11.528 -0.0496  0.1738  0.4569
  944MPD2    H713864   0.002   2.842  11.514 -2.1479 -1.1879  1.3122
    1TMC1    C113865   2.759   3.603  14.958  0.0084  0.4595  0.6472
    1TMC1    C213866   2.674   3.540  14.873 -0.8064  1.5767 -0.2169
    1TMC1    C313867   2.671   3.403  14.878 -0.0962 -0.7718 -0.3091
    1TMC1    C413868   2.839   3.530  15.044 -0.0650 -0.7786  0.1720
    1TMC1    C513869   2.824   3.395  15.052  0.4547 -0.1067  0.5622
    1TMC1    C613870   2.743   3.327  14.966 -0.0204  0.0131  0.4907
    1TMC1     C13871   2.701   3.707  15.032 -0.0440  0.2038 -0.0582
    1TMC1     O13872   2.708   3.685  15.153  0.3308  0.0847  0.1063
    1TMC1     H13873   2.595   3.595  14.823 -1.8477 -0.9037 -1.2964
    1TMC1    H113874   2.907   3.578  15.113 -0.1845 -1.1502  0.5465
    1TMC1    H213875   2.726   3.220  14.967 -0.8362  0.1293 -0.8361
    1TMC1    C713876   2.886   3.335  15.163 -1.2691 -0.0939  0.9133
    1TMC1    C813877   2.569   3.337  14.803  0.2756 -0.0433  0.4476
    1TMC1    O113878   2.983   3.389  15.215 -0.1421 -0.6717  0.5850
    1TMC1    O213879   2.523   3.232  14.843  0.4247  0.0717 -0.0150
    1TMC1    O313880   2.810   3.238  15.221 -0.4351  0.5520 -0.6826
    1TMC1    H313881   2.724   3.229  15.176 -0.1946 -0.0536 -1.0194
    1TMC1    O513882   2.573   3.373  14.671  0.4228 -0.1918 -0.2848
    1TMC1    H513883   2.644   3.437  14.653 -2.1687  2.2590 -1.6859
    2MPD2     C13884   2.495   4.175  15.057 -0.2125  0.1843 -0.6145
    2MPD2    C113885   2.504   4.136  14.926  0.2183  0.5669  0.2519
    2MPD2    C213886   2.555   4.012  14.891  0.0541 -0.0222 -0.2037
    2MPD2    C313887   2.601   3.927  14.989 -0.1891 -0.7315 -0.3672
    2MPD2    C413888   2.603   3.971  15.126  0.5513  0.8116 -0.0661
    2MPD2    C513889   2.551   4.093  15.159  0.3701 -0.6891 -0.3020
    2MPD2     H13890   2.545   3.978  14.789 -1.8962 -1.0582  0.3223
    2MPD2    H113891   2.640   3.911  15.208  1.2148  0.9656 -0.2589
    2MPD2    H213892   2.455   4.272  15.085 -0.3086 -0.0097 -0.0752
    2MPD2    H313893   2.546   4.116  15.265 -0.2616 -1.0517 -0.2525
    2MPD2     N13894   2.654   3.806  14.949  0.0333  0.2925  0.2707
    2MPD2    H513895   2.654   3.794  14.848 -4.6789 -1.4179  0.4796
    2MPD2    N113896   2.430   4.217  14.838  0.1497 -0.3082  0.8813
    2MPD2    H713897   2.377   4.291  14.883  1.1104  1.9385 -1.7417
    3TMC2    C113898   2.338   4.299  14.637 -0.0417  0.1830  0.2099
    3TMC2    C213899   2.282   4.406  14.709 -0.0324  0.0959  0.1276
    3TMC2    C313900   2.174   4.466  14.652 -0.1480 -0.3120  0.7532
    3TMC2    C413901   2.290   4.268  14.511  0.2714  0.3192  0.6693
    3TMC2    C513902   2.200   4.348  14.455 -0.2562 -0.9753  0.1238
    3TMC2    C613903   2.130   4.434  14.531  0.4877 -0.4778  0.5356
    3TMC2     C13904   2.422   4.207  14.700 -0.7125  0.4033 -0.0934
    3TMC2     O13905   2.477   4.128  14.626 -0.5020  0.9959 -0.7943
    3TMC2     H13906   2.318   4.444  14.804  0.0557  0.4049 -0.0318
    3TMC2    H113907   2.352   4.211  14.443 -0.0166  1.1713 -0.3182
    3TMC2    H213908   2.055   4.492  14.479  1.8029 -0.7468 -1.6494
    3TMC2    C713909   2.190   4.337  14.308 -0.3117  0.8971 -0.4659
    3TMC2    C813910   2.117   4.587  14.711  0.2029 -0.2995 -0.5751
    3TMC2    O113911   2.217   4.227  14.256  0.1757 -0.0406 -0.4000
    3TMC2    O213912   2.178   4.658  14.788  0.1402  0.2027 -0.4807
    3TMC2    O513913   1.988   4.559  14.728  0.8240  0.1113  0.2265
    3TMC2    H513914   1.959   4.475  14.686  2.8970  0.2547 -1.4912
    4TMC2    C113915   1.805   0.428  13.852  0.9518 -0.1300  0.4578
    4TMC2    C213916   1.885   0.486  13.757  0.2305  0.2484 -0.4424
    4TMC2    C313917   1.998   0.411  13.722  0.2674 -0.3303  0.6922
    4TMC2    C413918   1.844   0.316  13.924  0.2811  0.8871  0.2490
    4TMC2    C513919   1.952   0.240  13.878  0.7637  0.0738 -0.5892
    4TMC2    C613920   2.032   0.291  13.780 -0.4617  0.7061  0.0688
    4TMC2     C13921   1.685   0.493  13.907  0.6280 -0.0411  0.0419
    4TMC2     O13922   1.653   0.455  14.024 -0.5900  0.7033  0.0963
    4TMC2     H13923   1.855   0.578  13.707 -0.8827 -0.7156 -1.5658
    4TMC2    H113924   1.777   0.261  13.989  0.0549 -0.0394 -0.7582
    4TMC2    H213925   2.128   0.247  13.754  0.1713  2.2024 -0.1009
    4TMC2    C713926   1.980   0.118  13.954 -0.5378 -0.6971 -0.2473
    4TMC2    C813927   2.085   0.468  13.628  0.1730  0.0956 -0.1471
    4TMC2    O113928   1.917   0.101  14.060 -0.3504 -0.1863 -0.0834
    4TMC2    O213929   2.166   0.413  13.552 -0.0806 -0.9953 -0.2738
    4TMC2    O513930   2.112   0.593  13.670  0.6424  0.8734 -0.8527
    4TMC2    H513931   2.068   0.623  13.752  0.5627 -0.6691 -0.3291
    5MPD2     C13932   1.244   0.726  13.896  0.1295  0.5877 -0.1245
    5MPD2    C113933   1.285   0.733  13.765 -0.2640 -0.1227  0.1190
    5MPD2    C213934   1.418   0.691  13.748  0.9010 -0.8120  0.0391
    5MPD2    C313935   1.497   0.647  13.855  0.4711  0.4658  0.1545
    5MPD2    C413936   1.444   0.640  13.984 -0.2413 -0.3224 -0.5136
    5MPD2    C513937   1.318   0.679  14.001  0.3874 -0.1549 -0.1494
    5MPD2     H13938   1.472   0.710  13.656  0.2291  1.3278  0.0669
    5MPD2    H113939   1.502   0.602  14.068  1.6569  2.2423 -0.6534
    5MPD2    H213940   1.143   0.760  13.918 -0.1906 -1.2054  1.1362
    5MPD2    H313941   1.270   0.688  14.097  1.9639  0.8325  0.5464
    5MPD2     N13942   1.625   0.589  13.826  0.3644 -0.4546  0.2993
    5MPD2    H513943   1.659   0.592  13.731  0.5478 -1.5786  0.3284
    5MPD2    N113944   1.188   0.780  13.667  0.2880  0.6762  0.3202
    5MPD2    H713945   1.095   0.796  13.704 -0.5538 -0.8617 -1.1034
    6MPD1     C13946   1.155   2.496  13.029 -0.3912  1.2039 -0.1565
    6MPD1    C113947   1.075   2.491  13.142 -0.2413  0.2099 -0.4256
    6MPD1    C213948   1.069   2.364  13.202 -0.1851 -1.0095 -0.2587
    6MPD1    C313949   1.136   2.263  13.148 -0.0501 -0.1210  0.0906
    6MPD1    C413950   1.221   2.268  13.041  0.9010  0.5424 -0.0309
    6MPD1    C513951   1.233   2.396  12.988 -0.2370  1.3402  0.6094
    6MPD1     H13952   1.021   2.358  13.299 -0.2340  3.6428  0.0038
    6MPD1    H113953   1.285   2.184  13.018  0.8403  0.3365  0.5581
    6MPD1    H213954   1.176   2.591  12.981 -0.3945  0.6406 -1.2671
    6MPD1    H313955   1.290   2.412  12.897 -1.6194  2.2518 -0.0891
    6MPD1     N13956   1.116   2.131  13.198 -0.6115  0.1168 -0.5873
    6MPD1    H513957   1.165   2.060  13.144  1.2279  2.0161 -1.4462
    6MPD1    N113958   0.994   2.602  13.182 -0.0625 -0.6371  0.0970
    6MPD1    H613959   1.043   2.688  13.160  0.5843 -1.1859 -0.5951
    6MPD1    H713960   0.986   2.585  13.282 -1.2469 -0.5039  0.0213
    7MPD2     C13961   0.594   1.478  13.378  0.2778  0.7029  0.3960
    7MPD2    C113962   0.704   1.470  13.457  0.8426 -1.0009 -0.2320
    7MPD2    C213963   0.741   1.339  13.486  0.1345  0.5661 -0.4345
    7MPD2    C313964   0.668   1.229  13.451  0.3762  0.0113  0.5617
    7MPD2    C413965   0.557   1.243  13.378  0.2246  0.1533  0.6996
    7MPD2    C513966   0.521   1.366  13.344  0.2718  0.5290 -0.7248
    7MPD2     H13967   0.838   1.319  13.531 -0.5039 -2.0786 -0.2466
    7MPD2    H113968   0.497   1.157  13.351 -1.4178  1.0857  1.3310
    7MPD2    H213969   0.557   1.572  13.339 -2.2815 -0.9478 -1.1124
    7MPD2    H313970   0.444   1.377  13.269  0.1204  1.0353 -0.4937
    7MPD2     N13971   0.722   1.100  13.451 -0.1215  0.1074  0.4356
    7MPD2    H513972   0.684   1.032  13.386 -0.6641  1.6228 -0.8455
    7MPD2    N113973   0.796   1.577  13.472  0.5935  0.4244  0.3715
    7MPD2    H713974   0.886   1.566  13.518  0.6462  1.1313  0.4329
    8TMC3    C113975   0.897   0.954  13.458 -0.5480  0.5425  0.7032
    8TMC3    C213976   0.997   0.896  13.532  0.1606 -0.5834 -0.0461
    8TMC3    C313977   1.101   0.839  13.465  0.2170  0.2151  0.9446
    8TMC3    C413978   0.898   0.950  13.319  0.0343 -0.0663 -0.4161
    8TMC3    C513979   1.006   0.902  13.251  0.7754 -0.7457  0.3543
    8TMC3    C613980   1.115   0.852  13.325 -0.2084  0.5119 -0.2923
    8TMC3     C13981   0.827   1.055  13.526  0.1302 -0.5728  0.1269
    8TMC3     O13982   0.890   1.104  13.617 -0.0102 -0.2687  0.3735
    8TMC3     H13983   0.994   0.913  13.639  3.0717 -0.1516 -0.0308
    8TMC3    H113984   0.816   0.979  13.254 -0.1098  0.3519 -0.0496
    8TMC3    H213985   1.202   0.815  13.272  1.5638  2.9753  0.8977
    8TMC3    C713986   1.055   1.027  13.188  0.1669  0.6453  0.1419
    8TMC3    C813987   1.213   0.780  13.532 -0.3435  0.8147  0.1868
    8TMC3    O113988   0.967   1.109  13.156  0.0489 -0.1491  0.0149
    8TMC3    O213989   1.316   0.787  13.471  0.4623  0.4865 -0.2005
    9TMC3    C113990   1.037   1.956  13.327  0.8564 -0.2788  0.6242
    9TMC3    C213991   1.133   1.867  13.277  0.0692  0.6385  0.2254
    9TMC3    C313992   1.110   1.735  13.274  0.0664  0.3779 -0.4440
    9TMC3    C413993   0.930   1.897  13.380  0.9621 -0.5465 -0.0289
    9TMC3    C513994   0.919   1.763  13.389 -0.6591 -0.4997 -0.2717
    9TMC3    C613995   1.011   1.681  13.342 -0.4448  0.0891 -0.0661
    9TMC3     C13996   1.031   2.099  13.297 -0.2355  0.5853  0.2489
    9TMC3     O13997   0.946   2.166  13.358 -0.3765  0.3631  0.3380
    9TMC3     H13998   1.219   1.911  13.228  0.0852  0.6003  0.2195
    9TMC3    H113999   0.841   1.948  13.415 -1.0050 -3.1159 -1.2838
    9TMC3    H214000   0.987   1.575  13.338  3.3418 -0.8995  3.9747
    9TMC3    C714001   0.790   1.696  13.405 -0.5138  0.1671  1.3359
    9TMC3    C814002   1.218   1.653  13.225 -0.4154  0.5290  0.5543
    9TMC3    O114003   0.702   1.744  13.333 -0.5045 -0.1320  0.3146
    9TMC3    O214004   1.333   1.705  13.220 -0.2955 -0.0894  0.5263
   10MPD2     C14005   1.396   1.170  13.175 -0.7301  0.2978 -0.5832
   10MPD2    C114006   1.256   1.167  13.175 -0.1273 -0.2660  0.3974
   10MPD2    C214007   1.195   1.289  13.172  0.1301  0.3141 -0.0322
   10MPD2    C314008   1.258   1.412  13.177  0.1136 -0.2869 -0.4521
   10MPD2    C414009   1.396   1.413  13.165 -0.1482 -0.0530 -0.4840
   10MPD2    C514010   1.463   1.292  13.155  0.6659 -0.0073  0.8419
   10MPD2     H14011   1.090   1.297  13.197 -0.0941 -0.5816 -0.6835
   10MPD2    H114012   1.449   1.507  13.163  1.1753 -0.7466  1.3585
   10MPD2    H214013   1.456   1.079  13.169 -2.3232 -0.7104 -1.2504
   10MPD2    H314014   1.569   1.288  13.133  0.5167 -2.0387  0.4977
   10MPD2     N14015   1.178   1.523  13.198  0.6182  0.2903 -0.7126
   10MPD2    H514016   1.081   1.495  13.187  0.5271  0.8512 -1.3590
   10MPD2    N114017   1.187   1.047  13.197 -0.3808 -0.1286  0.5643
   10MPD2    H714018   1.248   0.968  13.211 -2.2160 -1.2467  2.2958
   11MPD2     C14019   2.176   4.398  14.022 -0.5031 -0.3878  1.1546
   11MPD2    C114020   2.137   4.489  14.117  0.3656 -0.2883 -0.8819
   11MPD2    C214021   2.083   4.603  14.067  0.1352 -0.3530  0.3768
   11MPD2    C314022   2.081   4.632  13.929 -0.3565  0.6757 -0.6890
   11MPD2    C414023   2.123   4.540  13.840 -0.5588 -0.0497  0.2546
   11MPD2    C514024   2.170   4.424  13.890 -0.4413  0.1670 -0.3572
   11MPD2     H14025   2.071   4.693  14.126 -0.4688 -0.6128  0.6527
   11MPD2    H114026   2.135   4.555  13.734 -0.4341  0.6511  0.3701
   11MPD2    H214027   2.214   4.300  14.048 -1.6085 -0.9225  0.7880
   11MPD2    H314028   2.207   4.348  13.823 -0.6319  0.7479 -1.1295
   11MPD2     N14029   2.040   0.021  13.876  0.5868  0.2577 -0.5258
   11MPD2    H514030   2.062   0.049  13.781 -2.4538 -0.2417 -1.3989
   11MPD2    N114031   2.142   4.458  14.254 -0.3589 -0.1089 -0.3172
   11MPD2    H714032   2.117   4.535  14.316 -0.7728 -1.1230  0.7748
    1MPD1     C14033   4.029   1.256  16.446  0.1891 -0.1685  0.9461
    1MPD1    C114034   4.037   1.332  16.558  0.5673  0.5570  0.1911
    1MPD1    C214035   4.025   1.468  16.548 -0.4732  0.1286  1.2006
    1MPD1    C314036   4.000   1.533  16.428 -0.0533  0.2922  0.3293
    1MPD1    C414037   4.010   1.458  16.314 -0.3491 -0.0534  0.6985
    1MPD1    C514038   4.029   1.326  16.326 -1.0535  0.7360 -0.6227
    1MPD1     H14039   4.032   1.527  16.639  4.7725  0.1969  0.7493
    1MPD1    H114040   4.015   1.490  16.210  3.2809 -1.1372  0.5444
    1MPD1    H214041   4.038   1.148  16.453  0.2467 -0.3075 -1.1678
    1MPD1    H314042   4.039   1.268  16.234  2.0170  1.4846 -0.7471
    1MPD1     N14043   3.988   1.677  16.417  0.1403 -0.1202 -0.6265
    1MPD1    H514044   3.982   1.710  16.321 -0.2815  1.7013  0.0179
    1MPD1    N114045   4.069   1.279  16.681  0.2992  0.1592  0.6759
    1MPD1    H614046   4.019   1.327  16.756 -0.1501  0.5127  0.1503
    1MPD1    H714047   4.060   1.177  16.684 -0.6916  0.2726  1.6913
    2MPD1     C14048   4.403   2.428  16.878  0.5547 -0.2240 -0.2875
    2MPD1    C114049   4.420   2.290  16.880 -0.0275 -0.3694  0.7629
    2MPD1    C214050   4.322   2.221  16.808 -0.1616 -0.3379  0.2968
    2MPD1    C314051   4.219   2.275  16.742  0.0945  0.1229  0.4730
    2MPD1    C414052   4.192   2.407  16.765 -0.4722 -0.0538 -0.0470
    2MPD1    C514053   4.287   2.481  16.830  0.6181  0.0370 -0.3459
    2MPD1     H14054   4.331   2.114  16.796 -1.0352 -0.4343  0.5063
    2MPD1    H114055   4.107   2.459  16.722 -0.8372  1.4584  2.4711
    2MPD1    H214056   4.460   2.497  16.939  1.1798 -0.1447 -0.9538
    2MPD1    H314057   4.273   2.587  16.850  0.3589 -0.6451  3.1919
    2MPD1     N14058   4.136   2.189  16.666  0.4027 -0.4635 -0.3088
    2MPD1    H514059   4.172   2.095  16.656 -1.2188 -0.9870 -1.0915
    2MPD1    N114060   4.542   2.227  16.923  0.4502  0.0746  0.1813
    2MPD1    H614061   4.519   2.132  16.951 -4.0785  1.5928  1.5426
    2MPD1    H714062   4.597   2.274  16.995  1.1136 -2.0496  1.0683
    3TMC3    C114063   3.964   2.123  16.520  0.7298 -0.4067 -0.0159
    3TMC3    C214064   3.939   2.150  16.390 -0.3420  0.2098  0.6427
    3TMC3    C314065   3.911   2.048  16.298  0.6536 -0.0759  0.1267
    3TMC3    C414066   3.975   1.999  16.563 -0.4514  0.2693 -0.0607
    3TMC3    C514067   3.953   1.900  16.474 -0.0313 -0.4697 -0.3120
    3TMC3    C614068   3.917   1.915  16.338  0.2864 -0.0397 -0.2295
    3TMC3     C14069   4.022   2.233  16.598 -0.6096 -0.0631  0.2050
    3TMC3     O14070   3.973   2.342  16.576  0.2211 -0.6765 -0.8090
    3TMC3     H14071   3.915   2.252  16.362 -1.4590 -0.5365 -1.0936
    3TMC3    H114072   4.010   1.971  16.662 -0.1274 -0.0038 -0.2522
    3TMC3    H214073   3.887   1.831  16.277  1.0858  1.8959 -3.2878
    3TMC3    C714074   3.979   1.766  16.524 -0.4807 -0.4139  0.1358
    3TMC3    C814075   3.942   2.071  16.161 -0.1420  0.0014 -0.2528
    3TMC3    O114076   3.965   1.744  16.645 -0.1019  0.3429  0.3634
    3TMC3    O214077   4.045   2.134  16.141 -0.3582 -0.8066  0.1878
    4MPD1     C14078   3.850   1.993  15.657 -0.1748 -0.2861 -0.1445
    4MPD1    C114079   3.744   1.934  15.727  0.9929  0.1956  0.2966
    4MPD1    C214080   3.755   1.932  15.865 -0.0971 -0.1883  0.1930
    4MPD1    C314081   3.856   2.002  15.936 -0.4686 -0.7176  0.2001
    4MPD1    C414082   3.948   2.071  15.857 -0.1120  0.4865 -0.5981
    4MPD1    C514083   3.946   2.060  15.723  0.3332 -1.0755  0.3272
    4MPD1     H14084   3.681   1.868  15.913  2.0507 -1.0710  2.3171
    4MPD1    H114085   4.029   2.129  15.899  0.3831 -0.0349 -0.8268
    4MPD1    H214086   3.866   1.989  15.550 -0.1960  4.4922 -0.3442
    4MPD1    H314087   4.027   2.112  15.673  2.3039 -3.0271  1.4864
    4MPD1     N14088   3.855   2.002  16.078  0.1403 -0.2942  0.1078
    4MPD1    H514089   3.774   1.955  16.117 -0.7567 -0.0744 -1.5365
    4MPD1    N114090   3.659   1.856  15.652  0.4182 -0.5066  0.0677
    4MPD1    H614091   3.572   1.820  15.693  0.8553 -0.2658  1.2152
    4MPD1    H714092   3.642   1.882  15.556 -0.0421 -0.5822  0.1269
    1TCq1    O114093   1.221   1.738  11.851  0.5219 -0.1562  0.1397
    1TCq1    C114094   1.092   1.712  11.868  0.6086 -0.2341 -0.0053
    1TCq1    O214095   1.033   1.707  11.972 -0.3326 -0.6202  0.2984
    1TCq1    C214096   1.027   1.730  11.735 -0.2546  0.5591 -0.7096
    1TCq1    C314097   1.089   1.676  11.622  0.2357  0.7176 -0.0989
    1TCq1    C414098   1.010   1.657  11.512 -0.3820  0.4607  0.4509
    1TCq1    C514099   0.873   1.679  11.517 -0.0135 -0.3095  0.6589
    1TCq1    C614100   0.819   1.722  11.641  0.0161  0.2791  0.5137
    1TCq1    C714101   0.897   1.766  11.745  0.0897 -0.1874  0.1813
    1TCq1    C814102   0.684   1.771  11.629  0.1585 -1.2148 -0.6215
    1TCq1    O414103   0.662   1.846  11.536 -0.2320  0.2186 -0.5989
    1TCq1    C914104   1.054   1.558  11.415  0.6359  0.1453 -0.2403
    1TCq1    O514105   0.981   1.528  11.318 -0.5891  0.3334 -0.4323
    1TCq1    O614106   1.159   1.498  11.437  0.8009 -0.2531 -0.3748
    1TCq1    H114107   1.249   1.720  11.759  3.1781 -1.5473  1.2076
    1TCq1    H214108   1.184   1.625  11.621  0.0436  0.3492  0.5785
    1TCq1    H314109   0.807   1.666  11.433 -0.0009  1.2213  0.4179
    1TCq1    H414110   0.845   1.798  11.835  1.0916 -1.9928  1.4075
    2MPD1     C14111   0.212   1.860  11.774 -0.3021  0.4133  0.0674
    2MPD1    C114112   0.277   1.809  11.884  0.5632  0.0092 -0.5600
    2MPD1    C214113   0.411   1.779  11.873 -0.3145  0.3252 -0.6571
    2MPD1    C314114   0.472   1.791  11.753  0.1877 -0.5949  0.6029
    2MPD1    C414115   0.397   1.830  11.643 -0.1972 -0.4322 -0.0794
    2MPD1    C514116   0.273   1.880  11.652 -0.6302 -0.0875 -0.7468
    2MPD1     H14117   0.459   1.748  11.965 -0.2437 -0.2268 -0.8781
    2MPD1    H114118   0.428   1.832  11.539  1.7499  0.7897  0.5279
    2MPD1    H214119   0.110   1.895  11.774 -0.4615 -0.0509 -1.0675
    2MPD1    H314120   0.224   1.925  11.567 -0.5889 -1.4817 -1.5096
    2MPD1     N14121   0.605   1.751  11.737  0.6305  0.2074 -0.4605
    2MPD1    H514122   0.643   1.691  11.810 -2.6822 -0.8599  0.3952
    2MPD1    N114123   0.228   1.829  12.014 -0.1324 -0.1444 -0.1399
    2MPD1    H614124   0.128   1.810  12.022  0.0343 -0.0510  2.1911
    2MPD1    H714125   0.277   1.784  12.091 -1.0989 -1.8555 -0.5217
    1TMC1    C114126   2.628   1.756  10.592  0.6630  0.1457  0.3790
    1TMC1    C214127   2.580   1.856  10.666 -0.5301  0.0096  0.0049
    1TMC1    C314128   2.651   1.913  10.766  0.0713  0.0270 -0.3294
    1TMC1    C414129   2.749   1.698  10.619 -0.0115  0.4935  0.0400
    1TMC1    C514130   2.825   1.753  10.717  0.2472  0.4338 -0.6717
    1TMC1    C614131   2.774   1.859  10.799  0.5415 -0.4923  0.6941
    1TMC1     C14132   2.534   1.683  10.513 -0.3207  0.1174 -0.1030
    1TMC1     O14133   2.412   1.681  10.537 -0.2947 -0.1106  0.0730
    1TMC1     H14134   2.490   1.902  10.627 -0.4576  1.2564  1.3453
    1TMC1    H114135   2.789   1.619  10.555 -2.3506  0.6711 -1.6524
    1TMC1    H214136   2.832   1.904  10.879  1.6622 -1.8859  0.6718
    1TMC1    C714137   2.938   1.670  10.767  0.5081  0.3148  0.3438
    1TMC1    C814138   2.600   2.017  10.849  0.5652 -0.8659  0.1441
    1TMC1    O114139   2.950   1.558  10.720  0.0578 -0.8712 -0.1926
    1TMC1    O214140   2.686   2.106  10.879  0.4307  0.0556  0.5918
    1TMC1    O314141   2.978   1.699  10.891  0.1521 -0.8219 -0.1546
    1TMC1    H314142   2.993   1.796  10.897  1.3928 -0.9760 -0.7512
    1TMC1    O514143   2.470   2.036  10.813 -0.6963 -0.0671  0.3575
    1TMC1    H514144   2.425   1.952  10.788 -0.2188 -0.1497 -0.2365
    2MPD1     C14145   2.534   1.376  10.108 -0.3129  0.2628  0.0810
    2MPD1    C114146   2.654   1.437  10.111  0.1997 -0.5047  0.5202
    2MPD1    C214147   2.665   1.534  10.207  0.2654 -0.5415  0.1507
    2MPD1    C314148   2.569   1.556  10.304 -0.7718 -0.1118 -0.3079
    2MPD1    C414149   2.451   1.489  10.303  0.6019  0.1466  0.3425
    2MPD1    C514150   2.429   1.404  10.195  0.6427  0.5342 -0.0993
    2MPD1     H14151   2.754   1.596  10.198  0.2809 -0.5372  0.3250
    2MPD1    H114152   2.367   1.509  10.368  0.8942  1.5306  0.3038
    2MPD1    H214153   2.513   1.306  10.028 -0.2025 -1.2747  1.3834
    2MPD1    H314154   2.333   1.357  10.178  1.1579 -0.8421  0.7918
    2MPD1     N14155   2.612   1.630  10.412 -0.4368 -0.1904  0.2572
    2MPD1    H514156   2.701   1.678  10.402  0.2818 -1.8226 -1.1177
    2MPD1    N114157   2.745   1.424  10.006  0.0761  0.0842  0.1316
    2MPD1    H614158   2.830   1.471  10.034 -0.1127  1.5712 -1.7629
    2MPD1    H714159   2.770   1.326   9.994 -0.0488 -0.0830  1.2198
    1MPD1     C14160   1.904   0.837  11.726  0.2660 -0.2471  0.0117
    1MPD1    C114161   1.950   0.859  11.853 -0.3492 -0.4138  0.6462
    1MPD1    C214162   2.083   0.882  11.871  1.0939  0.2204  0.1381
    1MPD1    C314163   2.162   0.892  11.760  0.3442 -0.5006  1.2006
    1MPD1    C414164   2.113   0.860  11.631  0.1379  0.6315  0.0598
    1MPD1    C514165   1.981   0.839  11.618 -0.7914  0.3612  0.4610
    1MPD1     H14166   2.126   0.893  11.970 -0.4725 -0.9211  0.9435
    1MPD1    H114167   2.166   0.874  11.538 -2.0716  0.4922 -1.2095
    1MPD1    H214168   1.796   0.833  11.714 -0.1898 -0.7742  4.0165
    1MPD1    H314169   1.938   0.838  11.519 -4.5954 -1.3969  2.1301
    1MPD1     N14170   2.297   0.926  11.778  0.6202 -0.3128 -0.0251
    1MPD1    H514171   2.332   0.942  11.872 -1.4011 -1.0750  0.8635
    1MPD1    N114172   1.862   0.855  11.961  0.2576 -0.2422  0.1350
    1MPD1    H614173   1.831   0.759  11.966 -1.3394  0.2838  0.4622
    1MPD1    H714174   1.914   0.865  12.048 -1.3936  1.0319  0.9876
    2MPD1     C14175   1.455   1.646  11.382  0.8161 -0.1126  0.1816
    2MPD1    C114176   1.457   1.584  11.262 -0.7237  0.2851  0.1008
    2MPD1    C214177   1.580   1.577  11.197  0.7631 -0.3022  0.2002
    2MPD1    C314178   1.691   1.640  11.246  0.2883 -0.3261  0.0738
    2MPD1    C414179   1.684   1.706  11.361 -0.4547  0.6655 -0.5040
    2MPD1    C514180   1.567   1.710  11.427  0.9401  0.1269 -0.1577
    2MPD1     H14181   1.583   1.514  11.109  3.5368  3.1289 -2.1167
    2MPD1    H114182   1.771   1.757  11.400 -2.2656  2.4968  1.2096
    2MPD1    H214183   1.361   1.661  11.434  0.1559 -2.6575 -0.2889
    2MPD1    H314184   1.560   1.761  11.523  0.9579 -0.2560  0.0463
    2MPD1     N14185   1.811   1.631  11.177  0.3283  0.0967  0.3522
    2MPD1    H514186   1.893   1.681  11.212  0.3617 -0.1937  0.6873
    2MPD1    N114187   1.335   1.535  11.209 -0.5641 -0.0070  0.2118
    2MPD1    H614188   1.335   1.437  11.181 -1.4368 -0.5161  1.9512
    2MPD1    H714189   1.257   1.545  11.273 -1.7639  1.2414 -1.4654
    3MPD1     C14190   2.191   0.883  10.735  0.8004 -0.1312 -0.3521
    3MPD1    C114191   2.098   0.950  10.661  0.0797 -0.2827 -0.0278
    3MPD1    C214192   2.068   1.078  10.699 -0.3379 -0.4708 -0.1318
    3MPD1    C314193   2.153   1.144  10.789  0.3099 -0.3047 -0.0319
    3MPD1    C414194   2.252   1.070  10.850 -0.7211  0.6201  0.3506
    3MPD1    C514195   2.279   0.940  10.816 -0.3590  0.3654  0.1048
    3MPD1     H14196   1.993   1.135  10.645  0.7329  1.2778  0.2201
    3MPD1    H114197   2.312   1.114  10.929  0.1992  1.9365 -1.1020
    3MPD1    H214198   2.201   0.775  10.726  0.4089 -0.1349 -0.7322
    3MPD1    H314199   2.360   0.893  10.870  0.9339 -0.9604 -2.9764
    3MPD1     N14200   2.130   1.278  10.812  0.6182 -0.1105  0.3676
    3MPD1    H514201   2.040   1.314  10.783  1.3357 -0.0726 -1.8168
    3MPD1    N114202   2.027   0.878  10.568 -0.0485 -0.3930  0.2323
    3MPD1    H614203   2.087   0.813  10.516  0.2300  3.2171 -3.9931
    3MPD1    H714204   1.993   0.949  10.504  0.6715  0.1614  0.4707
    4MPD2     C14205   2.721   1.549  11.959  0.4505 -0.0336  0.1673
    4MPD2    C114206   2.775   1.453  11.881  0.0270 -0.0965  0.2885
    4MPD2    C214207   2.869   1.497  11.784  0.9302 -0.6220  0.5737
    4MPD2    C314208   2.895   1.629  11.758 -0.3243 -0.4954 -0.9669
    4MPD2    C414209   2.838   1.722  11.838  0.4223  0.0092  0.1563
    4MPD2    C514210   2.750   1.682  11.931  0.3473  0.9511 -0.0614
    4MPD2     H14211   2.917   1.418  11.727 -3.3244 -1.2956 -2.0880
    4MPD2    H114212   2.858   1.828  11.826  0.4200 -0.1234 -1.0185
    4MPD2    H214213   2.641   1.532  12.030  0.7366 -0.1470  0.4602
    4MPD2    H314214   2.707   1.753  12.002 -1.3208  1.4744 -1.5848
    4MPD2     N14215   2.988   1.661  11.649 -0.1470 -0.2575  0.1155
    4MPD2    H514216   3.022   1.578  11.600  1.5120  0.2887  0.3501
    4MPD2    N114217   2.755   1.318  11.885  0.3122  0.0759  0.2481
    4MPD2    H714218   2.816   1.266  11.822 -0.8941 -0.0924 -0.7819
    5TMC3    C114219   2.650   1.110  11.904 -0.6745  0.1292  0.6760
    5TMC3    C214220   2.527   1.062  11.861 -0.4963  0.1451 -0.5574
    5TMC3    C314221   2.525   0.978  11.746  0.2352  0.3784  0.6301
    5TMC3    C414222   2.761   1.079  11.830 -0.4772 -0.2631 -1.0800
    5TMC3    C514223   2.749   1.020  11.713 -0.1793 -0.4009  0.5381
    5TMC3    C614224   2.636   0.956  11.672  0.2366 -0.2768 -0.2080
    5TMC3     C14225   2.657   1.247  11.954 -0.5350  0.0851 -0.6833
    5TMC3     O14226   2.571   1.290  12.030  0.0306  0.0414 -0.3868
    5TMC3     H14227   2.437   1.101  11.908 -0.1544 -0.3553  0.5264
    5TMC3    H114228   2.862   1.104  11.863 -0.7537  1.2901 -1.3966
    5TMC3    H214229   2.628   0.907  11.576 -1.1170  0.4506 -0.4734
    5TMC3    C714230   2.823   1.091  11.610  0.5058  0.4451 -0.1089
    5TMC3    C814231   2.395   0.927  11.686  0.3107 -0.1516 -0.6116
    5TMC3    O114232   2.869   1.201  11.643 -0.6577 -0.3745  0.6334
    5TMC3    O214233   2.388   0.889  11.568  0.1509 -1.1259 -0.0733
    6TMC3    C114234   1.966   1.574  11.023 -0.2312  0.6205 -0.5190
    6TMC3    C214235   2.028   1.466  10.968 -0.5530  0.2319 -0.3032
    6TMC3    C314236   2.155   1.486  10.917  0.1685  0.9058  0.1523
    6TMC3    C414237   2.028   1.697  11.037  0.5229  0.1113  0.7418
    6TMC3    C514238   2.162   1.705  10.994  0.2171  0.5223  0.5904
    6TMC3    C614239   2.228   1.604  10.937  0.0579 -0.3120  0.5567
    6TMC3     C14240   1.835   1.552  11.072  0.0197 -0.7547 -0.2975
    6TMC3     O14241   1.762   1.467  11.017 -0.0038  0.4140 -0.3175
    6TMC3     H14242   1.972   1.376  10.945  0.2003 -0.0156 -1.1902
    6TMC3    H114243   1.977   1.786  11.074  0.5696 -0.6442  2.6324
    6TMC3    H214244   2.331   1.615  10.905 -0.8250 -0.6004 -2.4084
    6TMC3    C714245   2.228   1.823  11.045 -0.7051 -0.6618  0.6993
    6TMC3    C814246   2.223   1.365  10.869  1.1262 -0.3894 -0.6429
    6TMC3    O114247   2.164   1.918  11.069  0.1431 -0.6014 -0.6161
    6TMC3    O214248   2.344   1.357  10.875 -0.0246  0.0227 -0.0222
    7MPD2     C14249   3.030   1.186  11.145 -0.3411  0.0693 -0.0560
    7MPD2    C114250   3.043   1.254  11.267  0.2502 -0.3154  0.3457
    7MPD2    C214251   2.980   1.199  11.378  0.0047 -0.5170  0.3658
    7MPD2    C314252   2.905   1.082  11.369  0.0380  0.3513  0.2063
    7MPD2    C414253   2.905   1.014  11.246  0.7686 -0.1863  0.5890
    7MPD2    C514254   2.950   1.076  11.135 -0.4106  0.0565 -0.1620
    7MPD2     H14255   2.969   1.261  11.466  0.9037 -0.6782  0.5883
    7MPD2    H114256   2.838   0.933  11.219  0.3491 -0.0978  1.3663
    7MPD2    H214257   3.077   1.228  11.057 -0.9145 -1.8309 -1.2588
    7MPD2    H314258   2.945   1.003  11.055 -1.1357  1.5731 -1.5021
    7MPD2     N14259   2.835   1.027  11.486 -0.9105 -0.5651 -0.0239
    7MPD2    H514260   2.802   0.932  11.473  0.2964 -0.6973 -2.1160
    7MPD2    N114261   3.104   1.382  11.269 -0.7266  0.0392 -0.9839
    7MPD2    H714262   3.145   1.413  11.182 -1.9009  2.4440 -0.6751
    8TMC3    C114263   3.156   1.601  11.346  0.3743 -0.5377 -0.5584
    8TMC3    C214264   3.051   1.637  11.262  0.5019 -0.4304  0.8281
    8TMC3    C314265   2.984   1.759  11.286  0.0070 -0.0587  0.9021
    8TMC3    C414266   3.173   1.666  11.466  0.5109  1.0635  0.0114
    8TMC3    C514267   3.099   1.779  11.494  0.9833  0.6328  0.3842
    8TMC3    C614268   3.007   1.826  11.407 -0.1363  0.3134  0.1678
    8TMC3     C14269   3.124   1.463  11.381 -0.2879 -0.1521  0.1842
    8TMC3     O14270   3.106   1.436  11.499 -0.1471  0.1644  0.4569
    8TMC3     H14271   3.044   1.592  11.163 -1.7604 -0.8185  1.1608
    8TMC3    H114272   3.250   1.643  11.539  1.1544  1.7663 -0.4454
    8TMC3    H214273   2.951   1.913  11.442  0.4639  0.6905  0.1923
    8TMC3    C714274   3.044   1.785  11.622  0.0849  0.2430 -0.7133
    8TMC3    C814275   2.861   1.789  11.218 -0.0225  0.6734  0.3733
    8TMC3    O114276   3.028   1.890  11.686 -0.2119  0.2785 -0.1593
    8TMC3    O214277   2.824   1.698  11.142  0.2773 -0.4753  0.1440
    9MPD2     C14278   2.632   2.072  11.236 -0.0628  0.8208  0.1597
    9MPD2    C114279   2.674   1.940  11.208  0.3239  1.3063 -0.1344
    9MPD2    C214280   2.584   1.850  11.152  0.4477 -0.0097 -0.5322
    9MPD2    C314281   2.453   1.890  11.126  0.6684  0.3100 -1.2174
    9MPD2    C414282   2.422   2.021  11.151  0.5024  0.7665 -0.2512
    9MPD2    C514283   2.503   2.106  11.215 -0.4443 -0.4252 -0.0842
    9MPD2     H14284   2.615   1.747  11.135 -0.2582 -0.1626 -0.8538
    9MPD2    H114285   2.323   2.059  11.128 -0.0212  0.0724  0.8571
    9MPD2    H214286   2.699   2.148  11.275 -0.2919  0.1568  1.8105
    9MPD2    H314287   2.480   2.210  11.234  0.5240 -0.0219 -1.1626
    9MPD2     N14288   2.363   1.799  11.067 -0.1517  0.2092  0.1846
    9MPD2    H514289   2.400   1.709  11.037  0.1509  0.1593  0.6961
    9MPD2    N114290   2.806   1.912  11.243 -0.4292 -0.7081  0.1986
    9MPD2    H714291   2.856   1.987  11.289  0.0890  0.4311 -2.2472
    1MPD1     C14292   3.546   0.586  16.971 -0.7628 -0.0957 -0.3321
    1MPD1    C114293   3.492   0.484  16.896 -0.1342 -0.1378  0.6337
    1MPD1    C214294   3.358   0.482  16.873  0.6183  0.5912  0.3592
    1MPD1    C314295   3.272   0.576  16.923 -0.8228 -0.0801  0.2260
    1MPD1    C414296   3.322   0.676  16.999  0.2264  0.3098  0.3470
    1MPD1    C514297   3.459   0.677  17.022  0.2499  0.1466 -0.4855
    1MPD1     H14298   3.317   0.411  16.801 -0.4099  3.3698 -1.7681
    1MPD1    H114299   3.264   0.752  17.051  2.7855  1.0520  2.0907
    1MPD1    H214300   3.654   0.599  16.980 -0.8823  0.3661  0.3617
    1MPD1    H314301   3.505   0.758  17.077 -0.2140 -0.0869  0.2420
    1MPD1     N14302   3.137   0.592  16.888 -0.4414 -0.2693 -0.1340
    1MPD1    H514303   3.093   0.678  16.919 -2.5520 -0.8145 -1.5933
    1MPD1    N114304   3.568   0.391  16.822  0.3535  0.2138  0.6489
    1MPD1    H614305   3.511   0.320  16.776  0.1944  0.3756  0.5939
    1MPD1    H714306   3.625   0.337  16.886 -0.0643  1.8004  2.3553
    2TMC2    C114307   2.709   0.442  16.801  0.7007 -0.4509  0.5455
    2TMC2    C214308   2.656   0.534  16.893 -0.1699 -0.4802  0.6066
    2TMC2    C314309   2.737   0.637  16.927  0.6436  1.0781 -0.2944
    2TMC2    C414310   2.838   0.449  16.754 -0.2673 -0.0555  0.3151
    2TMC2    C514311   2.916   0.540  16.815 -0.2240 -0.0684 -0.2015
    2TMC2    C614312   2.873   0.634  16.904  0.0457  0.2399 -0.0188
    2TMC2     C14313   2.619   0.328  16.773 -0.0249 -0.0014 -0.9232
    2TMC2     O14314   2.547   0.279  16.860  0.1420  0.4586 -0.3701
    2TMC2     H14315   2.554   0.521  16.927 -0.0433 -0.2838  1.0752
    2TMC2    H114316   2.881   0.380  16.682 -0.2010  1.4778 -1.1111
    2TMC2    H214317   2.939   0.712  16.941  0.8644 -1.0743  1.2821
    2TMC2    C714318   3.058   0.516  16.800  0.6568 -0.7983  0.1471
    2TMC2    C814319   2.686   0.747  16.997  0.0354  0.0221 -0.3423
    2TMC2    O114320   3.091   0.416  16.736  0.1463 -0.4408 -0.7456
    2TMC2    O214321   2.756   0.827  17.056 -0.5174 -0.3557 -0.2583
    2TMC2    O514322   2.553   0.745  16.983  0.6715  0.3845  0.1948
    2TMC2    H514323   2.522   0.691  16.908  0.6968 -0.6658  0.9495
    3MPD1     C14324   2.384   0.025  16.419  0.0201 -0.5696 -0.4234
    3MPD1    C114325   2.497   0.083  16.365 -0.1910 -0.8754  0.4569
    3MPD1    C214326   2.572   0.174  16.444 -0.0099  0.5324 -0.0972
    3MPD1    C314327   2.543   0.196  16.577 -0.6667 -0.0191  0.0866
    3MPD1    C414328   2.435   0.130  16.629 -0.2084  0.6039  0.3958
    3MPD1    C514329   2.361   0.043  16.549  0.4918  0.1431 -0.4131
    3MPD1     H14330   2.646   0.241  16.402 -2.0579  0.1687 -4.2649
    3MPD1    H114331   2.409   0.145  16.733 -2.3652 -2.2145  0.2683
    3MPD1    H214332   2.315   4.709  16.354 -0.6377  0.2883 -0.4120
    3MPD1    H314333   2.280   4.726  16.596  1.3128 -0.2151  0.5900
    3MPD1     N14334   2.629   0.290  16.646  0.1618  0.2692  0.2616
    3MPD1    H514335   2.694   0.337  16.584  0.8735  0.5012  1.1801
    3MPD1    N114336   2.511   0.077  16.231 -0.2465  0.1265 -0.6621
    3MPD1    H614337   2.490   4.719  16.199  1.4094 -0.8601  1.1501
    3MPD1    H714338   2.610   0.093  16.211  0.0724 -0.2680  0.6549
    1TMC1    C114339   0.604   4.471  13.342 -0.9265  0.3863 -1.1613
    1TMC1    C214340   0.536   4.509  13.461  0.4988  0.3486  0.2257
    1TMC1    C314341   0.400   4.514  13.459  0.4846 -0.1095  0.6552
    1TMC1    C414342   0.536   4.450  13.228  0.4873 -0.5394 -0.0167
    1TMC1    C514343   0.401   4.475  13.228  0.0634 -0.5686  0.2961
    1TMC1    C614344   0.333   4.506  13.340  0.2538  0.3970  0.1631
    1TMC1     C14345   0.753   4.449  13.337  0.3566 -0.0652 -0.8648
    1TMC1     O14346   0.812   4.462  13.233 -0.1080 -0.2784  0.1727
    1TMC1     H14347   0.575   4.527  13.561  0.3148  2.1274 -0.0182
    1TMC1    H114348   0.578   4.438  13.129  1.6132 -1.2157  0.5475
    1TMC1    H214349   0.224   4.507  13.344  0.2769  0.6917  0.7469
    1TMC1    C714350   0.313   4.445  13.119  0.7718 -0.5523 -0.1467
    1TMC1    C814351   0.330   4.528  13.583 -0.0587  0.2679 -0.5567
    1TMC1    O114352   0.214   4.512  13.096 -0.3385  0.5423  0.0496
    1TMC1    O214353   0.241   4.611  13.606  0.4199  0.3442  0.1144
    1TMC1    O314354   0.318   4.308  13.092 -0.3219  0.0310 -0.1357
    1TMC1    H314355   0.398   4.257  13.116 -0.5020 -0.9670 -1.6294
    1TMC1    O514356   0.369   4.434  13.673 -0.6411  0.2346  0.0457
    1TMC1    H514357   0.434   4.383  13.621  0.6857  0.2790  1.6594
    2MPD2     C14358   1.041   4.393  13.393  0.4001  0.4758  0.8313
    2MPD2    C114359   0.939   4.377  13.488  0.6641  0.1765  0.1990
    2MPD2    C214360   0.972   4.328  13.611  0.2934 -0.3156 -0.8541
    2MPD2    C314361   1.108   4.302  13.640  0.7742  0.1141  0.2875
    2MPD2    C414362   1.201   4.315  13.543 -0.6450  0.2191  0.3449
    2MPD2    C514363   1.171   4.366  13.423  0.2679  0.7126  0.2632
    2MPD2     H14364   0.894   4.305  13.683  1.1709 -0.0188  0.1845
    2MPD2    H114365   1.307   4.300  13.561 -0.5709 -0.7224 -0.8759
    2MPD2    H214366   1.027   4.427  13.291  2.1740 -0.3400  0.3118
    2MPD2    H314367   1.247   4.377  13.347  0.8890 -0.0967  0.7550
    2MPD2     N14368   1.141   4.244  13.759 -0.1863 -0.0109 -0.1700
    2MPD2    H514369   1.073   4.260  13.833  1.7697 -1.1834  1.8707
    2MPD2    N114370   0.808   4.415  13.457 -0.0743 -0.0512 -0.0434
    2MPD2    H714371   0.737   4.400  13.529  0.9078  2.5871  1.4994
    3TCq1    O114372   1.549   3.846  13.976 -0.6272 -0.3190  0.1404
    3TCq1    C114373   1.492   3.875  14.095 -0.0830 -0.3519 -0.0848
    3TCq1    O214374   1.518   3.816  14.197  0.3498 -0.1206 -0.0233
    3TCq1    C214375   1.389   3.977  14.076  0.3104  0.4245 -0.0944
    3TCq1    C314376   1.293   3.992  14.174 -0.0357 -0.0125  0.4914
    3TCq1    C414377   1.178   4.063  14.140 -0.1188 -0.0604 -0.1297
    3TCq1    C514378   1.175   4.140  14.026 -0.3119 -0.0812 -0.2656
    3TCq1    C614379   1.280   4.142  13.938 -0.8693 -0.3607 -0.1368
    3TCq1    C714380   1.386   4.059  13.962  1.3347  0.6620 -0.8262
    3TCq1    C814381   1.259   4.177  13.796 -0.3765 -0.6745 -0.6842
    3TCq1    O414382   1.358   4.153  13.728  0.3275  0.3751  0.6452
    3TCq1    C914383   1.077   4.068  14.243  0.0988 -0.3638  0.3299
    3TCq1    O514384   0.979   4.142  14.221 -0.0776 -0.3463 -0.0719
    3TCq1    O614385   1.092   3.976  14.332  0.2683 -0.2998  0.2272
    3TCq1    H114386   1.510   3.890  13.897  1.5580  0.6283 -0.4040
    3TCq1    H214387   1.285   3.918  14.253 -0.8117 -1.4186 -0.9056
    3TCq1    H314388   1.081   4.189  14.008 -0.0457  0.4124 -0.3064
    3TCq1    H414389   1.467   4.059  13.890  1.8861 -2.0659 -0.2243
    1MPD2     C14390   0.202   1.014  15.189 -0.6350 -0.1317 -0.4177
    1MPD2    C114391   0.079   0.944  15.201  0.0978 -0.3639  0.7902
    1MPD2    C214392   0.094   0.808  15.220 -0.1100 -0.4530  0.2863
    1MPD2    C314393   0.217   0.749  15.233  0.3672 -0.2994 -0.0029
    1MPD2    C414394   0.331   0.818  15.253  0.9523 -0.0718  0.2012
    1MPD2    C514395   0.317   0.958  15.231 -0.2481  0.2318  0.7864
    1MPD2     H14396   0.006   0.746  15.232 -0.5836  0.4324  1.3068
    1MPD2    H114397   0.424   0.771  15.282  0.6260  0.4414  2.0767
    1MPD2    H214398   0.200   1.121  15.173 -1.4750 -0.0310  0.3442
    1MPD2    H314399   0.411   1.012  15.243  0.4815 -1.0246  0.7142
    1MPD2     N14400   0.223   0.606  15.232 -0.3900 -0.1596 -0.1511
    1MPD2    H514401   0.311   0.557  15.248 -0.6428 -1.4442 -2.6132
    1MPD2    N114402   4.691   1.018  15.206 -0.0089  0.0172 -0.5399
    1MPD2    H714403   4.714   1.117  15.210  2.3085 -0.4959 -0.9510
    2TMC3    C114404   4.450   1.054  15.176  0.5214 -0.5520 -0.0658
    2TMC3    C214405   4.333   0.980  15.186 -0.2394 -0.8935 -0.6499
    2TMC3    C314406   4.251   0.990  15.077 -1.4395  0.2111 -0.2399
    2TMC3    C414407   4.474   1.147  15.079 -0.9136  0.2804 -0.2925
    2TMC3    C514408   4.382   1.160  14.976 -0.0640  0.3241 -0.1187
    2TMC3    C614409   4.273   1.072  14.973  0.0872 -0.7680  0.2007
    2TMC3     C14410   4.566   0.969  15.187  0.2849  0.3611 -0.4327
    2TMC3     O14411   4.534   0.851  15.176  0.0409  0.0521  0.0297
    2TMC3     H14412   4.305   0.913  15.266  0.4103 -0.1134  0.2302
    2TMC3    H114413   4.576   1.179  15.063 -0.3181 -2.4995 -2.0435
    2TMC3    H214414   4.209   1.058  14.887  0.2937 -0.0220 -0.0760
    2TMC3    C714415   4.386   1.285  14.897 -0.5633  0.2370 -0.8108
    2TMC3    C814416   4.190   0.862  15.040  0.4221  0.9226  0.5583
    2TMC3    O114417   4.327   1.294  14.790  0.5440 -0.3243 -0.9778
    2TMC3    O214418   4.100   0.856  14.959  0.3996  0.6269 -0.0181
    3TCq1    O114419   0.490   2.014  14.984 -0.1315  0.1533 -0.4166
    3TCq1    C114420   0.378   2.068  14.935 -0.6352  0.3538 -0.3079
    3TCq1    O214421   0.344   2.067  14.819  0.6199  0.2903 -0.5122
    3TCq1    C214422   0.286   2.024  15.043 -0.1066  0.1994 -0.0002
    3TCq1    C314423   0.327   2.055  15.170  0.3599 -0.6428 -0.6568
    3TCq1    C414424   0.284   1.980  15.274  0.1475 -0.1214 -0.4242
    3TCq1    C514425   0.203   1.875  15.247  0.4394 -0.1223  0.9766
    3TCq1    C614426   0.156   1.854  15.119 -0.6418 -0.1848 -0.5385
    3TCq1    C714427   0.186   1.934  15.012  0.5430  0.0311  0.4578
    3TCq1    C814428   0.048   1.767  15.106  1.1066 -0.0672 -0.0073
    3TCq1    O414429   0.026   1.693  15.201  0.3971 -0.5960  0.1145
    3TCq1    C914430   0.332   2.000  15.406 -0.0003  0.6958  0.6531
    3TCq1    O514431   0.421   2.090  15.422  0.2564 -0.0881  0.7540
    3TCq1    O614432   0.327   1.903  15.488  0.1205 -0.0100 -0.2466
    3TCq1    H114433   0.498   2.010  15.082 -0.9910  0.9769 -0.3151
    3TCq1    H214434   0.402   2.132  15.178 -3.1296  2.7324 -0.2973
    3TCq1    H314435   0.175   1.811  15.331 -1.7305  1.4887  1.4953
    3TCq1    H414436   0.169   1.918  14.906 -2.3022  1.2956  0.6987
    4MPD2     C14437   4.531   1.771  14.836 -0.4683 -0.1253 -0.2258
    4MPD2    C114438   4.598   1.717  14.943 -0.0587 -0.5315 -0.0841
    4MPD2    C214439   4.575   1.584  14.987  0.0164 -0.0589  0.0862
    4MPD2    C314440   4.483   1.512  14.919 -0.2205 -0.2223 -0.5895
    4MPD2    C414441   4.408   1.566  14.815 -0.1091  0.2807  0.3473
    4MPD2    C514442   4.441   1.692  14.774 -0.0727  0.0478 -0.7456
    4MPD2     H14443   4.637   1.545  15.066  0.0715  1.0282  0.5893
    4MPD2    H114444   4.326   1.518  14.764  0.9997 -1.1540 -0.0968
    4MPD2    H214445   4.560   1.868  14.797 -2.6557  2.0525  3.6028
    4MPD2    H314446   4.397   1.720  14.678  0.4328  0.6945 -0.7799
    4MPD2     N14447   4.464   1.378  14.964 -0.5810 -0.1441  0.4095
    4MPD2    H514448   4.515   1.348  15.046 -0.0749 -0.4196 -0.0090
    4MPD2    N114449   4.700   1.795  14.999 -0.2365  0.4662  0.2449
    4MPD2    H714450   4.718   1.883  14.950 -2.5013  1.2215  0.7565
    5TMC2    C114451   4.711   0.223  15.139 -0.8518  0.5731  0.2690
    5TMC2    C214452   0.008   0.154  15.256 -0.1399  0.3075 -0.3135
    5TMC2    C314453   0.103   0.203  15.337  0.1878 -0.2315  0.9954
    5TMC2    C414454   0.056   0.323  15.104  0.2293 -0.1096 -0.0025
    5TMC2    C514455   0.142   0.382  15.192 -0.1859 -0.3932 -0.3451
    5TMC2    C614456   0.167   0.323  15.308  0.2107 -0.0414  0.0944
    5TMC2     C14457   4.574   0.240  15.105  0.3506  0.2875  0.0734
    5TMC2     O14458   4.502   0.142  15.135 -0.0974  0.2827 -0.1134
    5TMC2     H14459   4.704   0.057  15.282  2.1708 -0.2494  1.1562
    5TMC2    H114460   0.039   0.374  15.009  2.1459  0.9496  0.2267
    5TMC2    H214461   0.232   0.368  15.382 -0.7723 -0.0031  0.9350
    5TMC2    C714462   0.123   0.529  15.178 -0.0688 -0.4993  0.2669
    5TMC2    C814463   0.140   0.145  15.464  0.0175 -0.3820  0.1510
    5TMC2    O114464   0.028   0.566  15.112  0.2268 -0.2588 -0.2404
    5TMC2    O214465   0.168   0.205  15.565  0.1520  0.3430 -0.5336
    5TMC2    O514466   0.187   0.024  15.429  0.0849 -0.1386 -0.4734
    5TMC2    H514467   0.179   4.733  15.335  0.7174 -2.5988  0.1717
    6MPD2     C14468   4.173   0.563  15.007  0.8005  0.4940  0.2166
    6MPD2    C114469   4.286   0.630  15.045 -0.3636  0.1447 -0.4104
    6MPD2    C214470   4.400   0.564  15.075 -0.4763  0.0274  0.5269
    6MPD2    C314471   4.409   0.427  15.076  0.2599  0.3321 -0.0326
    6MPD2    C414472   4.305   0.360  15.025 -0.1650  0.6253 -0.0878
    6MPD2    C514473   4.188   0.427  14.991 -0.4520 -0.8299  0.4240
    6MPD2     H14474   4.487   0.618  15.108  1.1658 -0.2103 -3.4645
    6MPD2    H114475   4.297   0.255  15.000  0.2029  0.7253 -0.6318
    6MPD2    H214476   4.075   0.606  14.989  0.1314 -0.0637  2.4771
    6MPD2    H314477   4.108   0.371  14.945 -2.3476  1.8187  0.5074
    6MPD2     N14478   4.542   0.376  15.092  0.2513  0.3336  0.1609
    6MPD2    H514479   4.615   0.446  15.095  1.3889 -0.8275 -0.6265
    6MPD2    N114480   4.286   0.767  15.066  0.1747  0.2040  0.3066
    6MPD2    H714481   4.377   0.803  15.094  0.9493 -1.9913  0.6466
  945NH4     N114482   1.363   0.850  11.590 -0.4120  0.1967  0.6026
  945NH4     H214483   1.287   0.842  11.519  0.8775  2.7772 -1.0222
  945NH4     H314484   1.435   0.777  11.573 -0.0347  1.2279 -2.1313
  945NH4     H414485   1.317   0.831  11.682 -0.7053 -2.4441 -0.0727
  945NH4     H514486   1.393   0.949  11.590 -0.0356  0.0854  0.2555
  946SOD     NA14487   0.149   2.084   7.566  0.0360  0.0390  0.1375
  947SOD     NA14488   3.685   4.279  13.840 -0.5429  0.2727 -0.0646
  948SOD     NA14489   3.692   0.618  12.923  0.1485 -0.6857 -0.0946
  949SOD     NA14490   2.403   0.526  16.249  0.2600  0.0384  0.0167
  950SOD     NA14491   4.260   4.261   8.551  0.1017  0.0202  0.1060
  951SOD     NA14492   0.041   2.742   3.975 -0.2526 -0.1266  0.2836
  952SOD     NA14493   3.721   1.183  14.484 -0.2356 -0.5388 -0.2700
  953SOL     OW14494   2.188   1.238   3.367  0.2255  0.0697  0.2428
  953SOL    HW114495   2.273   1.213   3.332  1.1011  0.6774  1.9196
  953SOL    HW214496   2.180   1.316   3.313 -3.3818 -0.9554 -0.7496
  954SOL     OW14497   0.609   3.273   8.451  0.7647  0.0580 -0.1082
  954SOL    HW114498   0.588   3.260   8.359  1.4195 -1.0021 -0.1124
  954SOL    HW214499   0.701   3.244   8.452  0.2306 -1.6066  1.1123
  955SOL     OW14500   2.363   0.140   6.323  0.0235 -0.1673  0.2835
  955SOL    HW114501   2.393   0.114   6.236 -1.5594  1.2110 -0.6842
  955SOL    HW214502   2.269   0.132   6.305 -0.1299 -1.2429  1.5727
  956SOL     OW14503   1.892   0.775   2.081 -0.2079 -0.4526  0.4539
  956SOL    HW114504   1.876   0.755   1.988 -0.5887 -2.0203  0.8557
  956SOL    HW214505   1.807   0.799   2.116  1.9802  0.7510  4.8873
  957SOL     OW14506   2.644   2.488   3.965 -0.1336  0.4713 -0.2773
  957SOL    HW114507   2.712   2.555   3.974 -0.8143  0.8110  2.3574
  957SOL    HW214508   2.569   2.525   4.011 -0.5003 -2.2327  1.2307
  958SOL     OW14509   4.587   0.905   3.346  0.0340  0.0466  0.6896
  958SOL    HW114510   4.638   0.825   3.358  0.1652 -0.0812 -0.7537
  958SOL    HW214511   4.560   0.917   3.437  0.8202 -1.5207  1.1309
  959SOL     OW14512   3.825   0.720   9.104  0.0544 -0.4629 -0.6342
  959SOL    HW114513   3.772   0.641   9.117  0.3888 -0.5159  0.4030
  959SOL    HW214514   3.761   0.789   9.087  1.8997  1.7499  1.3962
  960SOL     OW14515   3.137   1.615   2.835  0.1932  0.8288  0.3583
  960SOL    HW114516   3.065   1.673   2.858 -0.2301  0.7040 -0.6426
  960SOL    HW214517   3.186   1.672   2.775  1.0014 -2.4970 -2.1476
  961SOL     OW14518   1.287   1.962   4.236  0.1450 -0.1359  0.0491
  961SOL    HW114519   1.205   2.002   4.264 -1.1630 -1.5737 -1.7900
  961SOL    HW214520   1.259   1.895   4.174 -0.1392  1.0736 -1.1364
  962SOL     OW14521   0.478   0.852   2.718  0.3181  0.0534  0.5758
  962SOL    HW114522   0.451   0.871   2.628  2.1269  0.4661  0.1184
  962SOL    HW214523   0.411   0.788   2.744  0.7539 -0.1972  1.1033
  963SOL     OW14524   2.568   2.371   5.792  0.2168  0.1527 -0.0289
  963SOL    HW114525   2.497   2.329   5.742  0.2918 -1.2497  1.0425
  963SOL    HW214526   2.638   2.306   5.784  0.9211  0.7415  1.4098
  964SOL     OW14527   1.941   3.015   3.407 -0.3646 -0.2094  0.1679
  964SOL    HW114528   2.020   3.053   3.368  0.8734 -2.2589  0.6368
  964SOL    HW214529   1.933   2.939   3.349  0.3217 -0.3356  0.2297
  965SOL     OW14530   1.149   0.524  17.468  0.2947 -0.2332 -0.3271
  965SOL    HW114531   1.148   0.428  17.467 -0.7112 -0.1904 -2.6662
  965SOL    HW214532   1.081   0.547  17.405 -1.4635  2.2575  2.4901
  966SOL     OW14533   3.642   2.816  10.854 -0.3493  0.3030 -0.3225
  966SOL    HW114534   3.609   2.855  10.935 -1.9503 -0.4667 -0.6077
  966SOL    HW214535   3.651   2.892  10.796  1.5456 -0.3861 -0.9579
  967SOL     OW14536   4.315   4.102   3.162 -0.4614 -0.1980 -0.3404
  967SOL    HW114537   4.337   4.047   3.237 -0.6223 -0.2390 -0.3243
  967SOL    HW214538   4.226   4.125   3.188 -0.6296  0.3753 -1.4551
  968SOL     OW14539   4.714   3.887   8.524  0.4537 -0.1412  0.2935
  968SOL    HW114540   4.731   3.929   8.440 -1.9342  1.2763  0.5077
  968SOL    HW214541   0.060   3.909   8.567 -0.3725 -2.5352  3.1521
  969SOL     OW14542   0.430   0.033   7.363  0.4402 -0.8812  0.5793
  969SOL    HW114543   0.376   0.053   7.287 -2.0713 -0.7291  2.3845
  969SOL    HW214544   0.376   0.086   7.421  0.3915 -0.6594  0.3277
  970SOL     OW14545   1.851   0.545  15.267  0.0314 -0.1386  0.1315
  970SOL    HW114546   1.777   0.548  15.328 -1.3357 -1.4920 -1.4233
  970SOL    HW214547   1.808   0.601  15.202  1.0496 -1.7917 -1.9674
  971SOL     OW14548   3.828   3.475   3.037  0.3765 -0.2472 -0.2376
  971SOL    HW114549   3.734   3.494   3.035  0.0483 -1.7896  0.2644
  971SOL    HW214550   3.834   3.394   2.986 -1.9483 -0.8080  0.3555
  972SOL     OW14551   3.492   3.216   3.709 -0.7458  0.3338  0.1066
  972SOL    HW114552   3.411   3.245   3.751 -0.6846  0.2301  0.2973
  972SOL    HW214553   3.471   3.122   3.717  0.0794  0.0383 -1.4088
  973SOL     OW14554   2.527   0.240   8.376  0.2400  0.2426 -0.2055
  973SOL    HW114555   2.525   0.331   8.403 -0.2983  0.4964 -1.1000
  973SOL    HW214556   2.551   0.251   8.284 -0.9817 -1.4855 -0.7300
  974SOL     OW14557   0.341   4.350   8.025 -0.5407  0.4613 -0.1596
  974SOL    HW114558   0.417   4.400   8.055 -0.1332 -1.9713  2.8200
  974SOL    HW214559   0.386   4.305   7.954 -0.1418 -1.0041  1.0349
  975SOL     OW14560   1.546   3.402   9.963 -0.7216 -0.4350  0.3038
  975SOL    HW114561   1.576   3.313   9.945 -1.8148 -0.6283 -0.5333
  975SOL    HW214562   1.619   3.446  10.007 -0.8663 -0.0653  0.1784
  976SOL     OW14563   1.192   0.848   6.564 -0.6668  0.4254  0.5364
  976SOL    HW114564   1.153   0.931   6.538 -1.6908  0.0563  0.8909
  976SOL    HW214565   1.212   0.803   6.482 -2.2477  1.3116 -0.3531
  977SOL     OW14566   0.550   2.497   7.148  0.0608  0.0500  0.1802
  977SOL    HW114567   0.495   2.424   7.174  1.0945 -0.4166  1.0376
  977SOL    HW214568   0.605   2.452   7.084 -0.9168 -1.2772  0.2862
  978SOL     OW14569   4.639   0.682  14.894  0.0069  0.3370 -0.4838
  978SOL    HW114570   4.628   0.714  14.983  1.2666  0.5519 -0.3956
  978SOL    HW214571   4.575   0.742  14.855  0.2869  0.5232 -0.6589
  979SOL     OW14572   0.997   0.878  15.565  0.3930  0.1651 -0.9391
  979SOL    HW114573   0.949   0.817  15.622  3.0974  0.6405  1.8792
  979SOL    HW214574   1.011   0.943  15.635 -2.6334 -0.1179 -0.0503
  980SOL     OW14575   1.855   1.459   2.401  0.0018 -0.2325  0.4099
  980SOL    HW114576   1.851   1.555   2.405 -3.1184 -0.2845 -1.2965
  980SOL    HW214577   1.794   1.436   2.471  0.1430  0.5948  0.8035
  981SOL     OW14578   2.434   4.025   5.580  0.7237 -0.1985 -0.0696
  981SOL    HW114579   2.358   3.974   5.608  1.0060 -0.3870  0.3451
  981SOL    HW214580   2.404   4.108   5.616  1.7425  1.3919 -2.8300
  982SOL     OW14581   3.077   1.508  17.584 -0.3984 -0.0480 -0.2162
  982SOL    HW114582   3.121   1.450  17.522 -1.2674 -0.7308 -0.2081
  982SOL    HW214583   3.150   1.552  17.627 -0.8199  1.2158 -0.7715
  983SOL     OW14584   3.019   4.571   5.291 -0.3695 -0.0102  0.2989
  983SOL    HW114585   3.080   4.635   5.328 -0.7581 -0.3915  1.5637
  983SOL    HW214586   3.037   4.498   5.349 -2.9731 -0.3183  0.7032
  984SOL     OW14587   0.609   3.471   2.567  0.3857  0.1998 -0.5353
  984SOL    HW114588   0.582   3.518   2.646  2.6597  0.6570 -0.0191
  984SOL    HW214589   0.689   3.518   2.540  0.1986  1.2647  0.7445
  985SOL     OW14590   4.365   3.844  16.850 -0.0573  0.5108  0.3686
  985SOL    HW114591   4.426   3.918  16.853  1.1730 -0.4149 -1.6265
  985SOL    HW214592   4.318   3.868  16.770 -1.5553 -0.6121  0.9364
  986SOL     OW14593   0.885   1.137   8.965  0.6890 -0.4711  0.3164
  986SOL    HW114594   0.933   1.219   8.980  0.2339 -0.2603  0.6255
  986SOL    HW214595   0.958   1.082   8.936  0.6458  0.3256 -1.3062
  987SOL     OW14596   0.979   4.043  16.207 -0.7546  0.3782 -0.8103
  987SOL    HW114597   1.031   3.981  16.154  0.3721 -1.1766  2.1355
  987SOL    HW214598   0.935   4.091  16.137 -1.9682  0.6973  0.1846
  988SOL     OW14599   2.270   4.333   3.083 -0.1659  0.3615 -0.5183
  988SOL    HW114600   2.346   4.339   3.026  0.1589 -1.3686 -0.2751
  988SOL    HW214601   2.202   4.384   3.038 -0.1596 -0.8520 -1.8795
  989SOL     OW14602   4.088   2.159   4.908  0.2834 -0.4264  0.8793
  989SOL    HW114603   4.150   2.127   4.842 -1.6858 -0.9435 -0.7076
  989SOL    HW214604   4.123   2.149   4.997  1.5057  1.5319  0.6088
  990SOL     OW14605   0.262   2.387  12.315 -0.1210  0.3729 -0.2462
  990SOL    HW114606   0.232   2.457  12.373 -0.2572 -0.9995  1.3560
  990SOL    HW214607   0.287   2.445  12.243  1.2512 -0.8434 -0.7409
  991SOL     OW14608   4.219   1.863   2.705 -0.3178  0.4900  0.1936
  991SOL    HW114609   4.308   1.831   2.717  0.8531  3.3663 -0.7470
  991SOL    HW214610   4.198   1.878   2.797  0.2643 -0.9385  0.5534
  992SOL     OW14611   0.744   3.368   3.931 -0.2619 -0.1222  0.1155
  992SOL    HW114612   0.649   3.376   3.929 -0.1812  0.9378  0.4277
  992SOL    HW214613   0.767   3.391   3.841 -0.6624 -0.6056 -0.1050
  993SOL     OW14614   2.846   2.942   2.446  0.3679  0.2749  0.3161
  993SOL    HW114615   2.851   2.964   2.539  0.5743 -2.0953  0.8869
  993SOL    HW214616   2.937   2.958   2.421  0.5301 -1.5415 -0.3121
  994SOL     OW14617   4.666   0.817   5.267 -0.8837 -0.0030 -0.1878
  994SOL    HW114618   4.715   0.759   5.208  1.9861  1.2967  0.9123
  994SOL    HW214619   4.621   0.757   5.327  1.2046  0.0178  1.4381
  995SOL     OW14620   0.926   0.456   4.980  0.1586 -0.1456 -0.2667
  995SOL    HW114621   0.922   0.545   5.013  2.3146 -0.0786 -0.1888
  995SOL    HW214622   1.008   0.431   5.023  0.9548  0.3386 -1.4915
  996SOL     OW14623   0.799   0.307   0.347  0.6961  0.5080 -0.1409
  996SOL    HW114624   0.825   0.376   0.286 -0.8012  0.2316 -1.0970
  996SOL    HW214625   0.797   0.354   0.430  0.0994  3.0318 -1.5781
  997SOL     OW14626   1.725   0.811   8.928 -0.2373  0.4538 -0.5364
  997SOL    HW114627   1.645   0.849   8.891 -0.4358  1.1656  0.6112
  997SOL    HW214628   1.777   0.886   8.959  0.1506 -0.8514  1.9692
  998SOL     OW14629   0.913   0.197   8.640  0.1216 -0.0805 -0.3598
  998SOL    HW114630   0.935   0.266   8.702 -2.1817 -1.5755  2.1027
  998SOL    HW214631   0.828   0.177   8.679  0.4888 -1.4428 -0.2676
  999SOL     OW14632   0.084   4.396   4.924  0.5194 -0.5687 -0.0416
  999SOL    HW114633   0.085   4.420   5.017 -0.3027 -1.1872  0.1296
  999SOL    HW214634   4.727   4.399   4.905  0.0059 -2.7671  2.1193
 1000SOL     OW14635   2.199   2.852   8.827 -0.1192  0.3141 -0.1851
 1000SOL    HW114636   2.192   2.947   8.826  2.1781  0.4590 -1.2671
 1000SOL    HW214637   2.109   2.829   8.851 -0.0389 -1.1453 -1.2835
 1001SOL     OW14638   1.618   0.452   5.928 -0.4548 -0.0649  0.1102
 1001SOL    HW114639   1.700   0.434   5.975 -0.5631  1.6242  0.9592
 1001SOL    HW214640   1.653   0.469   5.841 -1.3777  1.7426  0.0904
 1002SOL     OW14641   4.592   1.454   2.995 -0.1128  0.4908 -0.0745
 1002SOL    HW114642   4.597   1.550   2.993 -2.9017  0.7307  3.4841
 1002SOL    HW214643   4.670   1.436   2.944 -0.3074 -2.5046  0.6596
 1003SOL     OW14644   4.227   0.863   6.332  0.7437  0.1124  0.7081
 1003SOL    HW114645   4.307   0.840   6.285 -0.5839  0.3882 -1.6871
 1003SOL    HW214646   4.191   0.775   6.347 -1.7064  0.9782  0.0130
 1004SOL     OW14647   0.292   3.393   1.889  0.0337  0.0273  0.1747
 1004SOL    HW114648   0.378   3.421   1.859 -0.8349  0.6528 -1.7206
 1004SOL    HW214649   0.245   3.393   1.806 -1.0325 -0.3871  0.7795
 1005SOL     OW14650   1.062   1.853   4.570 -0.1164 -0.0025 -0.2308
 1005SOL    HW114651   1.004   1.840   4.495  0.1229 -1.3616 -0.1655
 1005SOL    HW214652   1.142   1.809   4.542  0.4231 -0.0344  1.3733
 1006SOL     OW14653   2.934   1.189   3.492  0.3609  0.0603 -0.7675
 1006SOL    HW114654   3.028   1.201   3.508  0.2451 -0.8572  0.6326
 1006SOL    HW214655   2.938   1.108   3.441  0.2808 -0.9520  0.8373
 1007SOL     OW14656   0.380   2.043   7.551 -0.7580  0.5925  0.2338
 1007SOL    HW114657   0.408   1.967   7.500 -3.0557 -1.0153  1.3427
 1007SOL    HW214658   0.432   2.118   7.522  1.8457 -1.7009 -0.9177
 1008SOL     OW14659   2.786   2.898   7.222 -0.1550  0.3039  0.2797
 1008SOL    HW114660   2.796   2.804   7.206  1.1360  0.5409 -0.3431
 1008SOL    HW214661   2.837   2.936   7.149 -0.3698  1.2279  0.6141
 1009SOL     OW14662   2.075   0.132   5.535  0.3338 -0.5398 -0.8550
 1009SOL    HW114663   2.096   0.107   5.445 -1.5051 -1.6065 -0.9887
 1009SOL    HW214664   1.988   0.169   5.520  1.5192  1.6755 -2.0791
 1010SOL     OW14665   3.911   3.380   2.376 -0.3458 -0.5285 -0.4447
 1010SOL    HW114666   3.846   3.450   2.377 -1.2251 -1.2957 -3.3818
 1010SOL    HW214667   3.988   3.431   2.403 -0.8462  0.7904 -1.5148
 1011SOL     OW14668   1.877   1.185  12.900  0.0276 -0.7102 -0.0881
 1011SOL    HW114669   1.863   1.229  12.816  1.9990 -0.5055 -0.3266
 1011SOL    HW214670   1.962   1.146  12.878  0.2795 -1.1457  1.7104
 1012SOL     OW14671   2.727   2.627  13.788  0.7947 -0.3918 -0.1168
 1012SOL    HW114672   2.741   2.722  13.780  0.5112 -0.4774 -1.5562
 1012SOL    HW214673   2.669   2.619  13.863  1.5713 -0.3800  0.4909
 1013SOL     OW14674   2.743   1.156   3.176  0.4838  0.4643 -0.5816
 1013SOL    HW114675   2.771   1.089   3.238 -1.7137  0.3504  0.2978
 1013SOL    HW214676   2.745   1.234   3.231  0.4088 -0.0888  0.1915
 1014SOL     OW14677   2.048   3.563   5.655  0.3135  0.4056 -0.0606
 1014SOL    HW114678   1.980   3.550   5.720  1.4533  1.6351  1.3836
 1014SOL    HW214679   2.111   3.605   5.714  2.2829 -0.8120 -1.2601
 1015SOL     OW14680   4.521   0.175   4.295  0.1863  0.0409  0.9005
 1015SOL    HW114681   4.501   0.246   4.233  1.5564  0.1449  0.5690
 1015SOL    HW214682   4.453   0.185   4.361  0.2926 -0.9887  1.1528
 1016SOL     OW14683   4.251   3.861  16.571 -0.5905  0.1643 -0.2215
 1016SOL    HW114684   4.258   3.957  16.575  2.7784 -0.1363  1.3404
 1016SOL    HW214685   4.330   3.847  16.518  0.1113  2.3972  0.2123
 1017SOL     OW14686   3.210   1.174   3.305 -0.2917 -0.0596  0.0007
 1017SOL    HW114687   3.303   1.161   3.284 -0.1149 -0.4149  1.0403
 1017SOL    HW214688   3.167   1.117   3.241 -0.3686 -0.3095  0.2790
 1018SOL     OW14689   0.246   0.311   4.686  0.5630 -0.5269  0.4060
 1018SOL    HW114690   0.278   0.378   4.746 -2.3724  0.0138  1.3629
 1018SOL    HW214691   0.202   0.253   4.748 -1.7561  0.3997 -0.3871
 1019SOL     OW14692   1.163   4.163   6.543  0.0382  1.0056 -0.4470
 1019SOL    HW114693   1.140   4.241   6.593 -0.6824  1.2752 -1.1964
 1019SOL    HW214694   1.172   4.205   6.458 -0.0762 -0.3858 -1.1479
 1020SOL     OW14695   4.339   4.425   2.329  0.0619 -0.3645  0.3592
 1020SOL    HW114696   4.284   4.353   2.358 -1.3036  0.7509  0.5164
 1020SOL    HW214697   4.285   4.461   2.258 -0.0380 -1.5875 -0.1904
 1021SOL     OW14698   3.573   0.839   8.156 -0.0265  0.4066 -0.0091
 1021SOL    HW114699   3.526   0.819   8.074  4.0434 -0.1084 -2.2149
 1021SOL    HW214700   3.659   0.869   8.126 -0.3711  1.9671  0.5631
 1022SOL     OW14701   2.770   0.358   4.405 -0.2321 -0.8973  0.1334
 1022SOL    HW114702   2.816   0.376   4.324  0.6016 -1.7558  0.4162
 1022SOL    HW214703   2.682   0.366   4.369 -0.0369 -2.6472 -0.7477
 1023SOL     OW14704   3.944   3.233   2.861 -0.4191 -0.4290 -0.0788
 1023SOL    HW114705   4.007   3.304   2.853 -0.5494 -0.5413 -2.0753
 1023SOL    HW214706   3.995   3.157   2.835 -0.7261 -0.0444 -1.7954
 1024SOL     OW14707   1.023   1.020   1.978 -0.1655 -0.0184  0.6307
 1024SOL    HW114708   0.975   1.103   1.983  0.5183  0.3716  0.5987
 1024SOL    HW214709   1.032   1.024   1.883  1.1880 -0.3526  0.7459
 1025SOL     OW14710   1.435   3.661  16.708  0.4323 -0.1275  0.1926
 1025SOL    HW114711   1.418   3.748  16.671  0.7421 -1.2208 -2.5724
 1025SOL    HW214712   1.369   3.615  16.655 -0.5191  0.1751  1.1116
 1026SOL     OW14713   2.534   1.851   2.632  0.2281  0.3933 -0.3993
 1026SOL    HW114714   2.486   1.801   2.566 -0.2500  0.6887 -0.2747
 1026SOL    HW214715   2.617   1.826   2.591 -0.9834 -0.0276 -2.6169
 1027SOL     OW14716   0.679   0.832  12.626 -0.3760 -0.4317  0.5150
 1027SOL    HW114717   0.644   0.909  12.670  1.8668 -0.3503  2.1543
 1027SOL    HW214718   0.635   0.808  12.544 -1.2254  0.7841  0.6159
 1028SOL     OW14719   4.108   1.903  17.526  0.1369  0.0622  0.0108
 1028SOL    HW114720   4.061   1.826  17.558  0.9670 -0.0834  0.8889
 1028SOL    HW214721   4.186   1.866  17.484  0.3999  2.4789 -1.5742
 1029SOL     OW14722   4.669   0.678   3.465  0.0066 -0.2023  0.4738
 1029SOL    HW114723   4.601   0.612   3.480 -0.7247  0.5257  0.3802
 1029SOL    HW214724   4.670   0.710   3.555  0.3219 -0.9242  0.7325
 1030SOL     OW14725   4.148   1.394   5.227 -0.1523  0.3337  0.2285
 1030SOL    HW114726   4.157   1.345   5.309  1.2283  0.8241  0.3793
 1030SOL    HW214727   4.144   1.320   5.166  2.3715  0.2065  0.2098
 1031SOL     OW14728   2.061   2.190  17.703 -0.0170  0.4082  0.4841
 1031SOL    HW114729   2.006   2.224  17.633  1.1950 -1.3876 -1.3583
 1031SOL    HW214730   2.119   2.128  17.659  0.0398  1.2617 -0.6275
 1032SOL     OW14731   2.170   3.462   4.425  1.0976  0.3875 -0.3117
 1032SOL    HW114732   2.146   3.530   4.487  0.6052  0.1257 -0.2163
 1032SOL    HW214733   2.137   3.508   4.347 -0.6509 -1.3951 -0.6363
 1033SOL     OW14734   4.237   2.157  15.551  0.0634 -0.0225 -0.0935
 1033SOL    HW114735   4.219   2.233  15.495  0.0710  1.0187  1.3022
 1033SOL    HW214736   4.187   2.090  15.505 -1.5067  0.0457  1.5071
 1034SOL     OW14737   2.400   4.176   8.487  0.0347 -0.0680 -0.2370
 1034SOL    HW114738   2.452   4.103   8.521  0.2133  1.1334  2.1110
 1034SOL    HW214739   2.333   4.187   8.555  2.8151  2.5337  2.1086
 1035SOL     OW14740   1.417   4.112   2.667 -0.2315  0.2890 -0.1338
 1035SOL    HW114741   1.370   4.143   2.590  0.9197 -0.6268 -1.2063
 1035SOL    HW214742   1.381   4.024   2.677 -3.6216  1.5105 -1.6352
 1036SOL     OW14743   4.329   1.017   5.138  0.3460  0.5005  0.0628
 1036SOL    HW114744   4.399   1.007   5.073 -1.8679 -2.0152 -1.9605
 1036SOL    HW214745   4.373   1.029   5.222  0.4687  1.0836 -0.0885
 1037SOL     OW14746   1.283   2.137   0.298 -0.0803  0.1292 -0.0994
 1037SOL    HW114747   1.201   2.104   0.262 -0.6632  2.0491 -0.5305
 1037SOL    HW214748   1.323   2.063   0.344 -0.5691  1.0211  1.7438
 1038SOL     OW14749   4.382   4.487  10.652 -0.3081 -0.1571  0.2536
 1038SOL    HW114750   4.405   4.504  10.560  1.6476 -3.6175  0.0911
 1038SOL    HW214751   4.330   4.565  10.672  0.3396  0.1168  0.8452
 1039SOL     OW14752   0.812   1.151   4.411  0.0181  0.1801 -0.0619
 1039SOL    HW114753   0.796   1.122   4.322 -2.2699  2.2476 -0.3227
 1039SOL    HW214754   0.905   1.177   4.409  0.0318  0.1911  0.5744
 1040SOL     OW14755   2.392   2.164   6.631 -0.1302  0.1642 -0.6166
 1040SOL    HW114756   2.420   2.255   6.628 -0.7522  0.4267  1.4941
 1040SOL    HW214757   2.427   2.135   6.715  0.9963 -0.9539 -1.4661
 1041SOL     OW14758   3.205   0.446  12.795 -0.0228 -0.1381  0.4647
 1041SOL    HW114759   3.181   0.354  12.804 -0.0903 -0.2623 -0.9051
 1041SOL    HW214760   3.272   0.456  12.863 -0.2768 -0.0266  0.6990
 1042SOL     OW14761   4.525   1.562   9.944 -0.2591  0.0040 -0.2913
 1042SOL    HW114762   4.570   1.549  10.027 -0.1505  1.7680 -0.0854
 1042SOL    HW214763   4.448   1.505   9.941 -2.4836  2.9614  0.8617
 1043SOL     OW14764   1.994   0.430   9.539  1.2161 -0.1103 -0.1736
 1043SOL    HW114765   2.044   0.362   9.584  0.0735 -0.9129 -0.1188
 1043SOL    HW214766   1.927   0.445   9.605  2.4589 -0.8712  1.2518
 1044SOL     OW14767   2.756   2.895  13.827 -0.3037 -0.1996  0.0399
 1044SOL    HW114768   2.773   2.980  13.785 -0.2188  0.4869  1.4456
 1044SOL    HW214769   2.693   2.931  13.890  1.6966  1.3675  1.1555
 1045SOL     OW14770   3.537   3.136   6.753 -0.4137  0.6052  0.1511
 1045SOL    HW114771   3.442   3.131   6.766 -0.1804 -2.1525  0.6738
 1045SOL    HW214772   3.539   3.085   6.672  0.2499 -1.0064  1.1772
 1046SOL     OW14773   1.708   2.485   3.334 -0.0410 -0.0073 -0.2065
 1046SOL    HW114774   1.711   2.578   3.310 -1.5947 -0.1088 -0.7650
 1046SOL    HW214775   1.615   2.463   3.336 -0.7130  2.4696 -3.1132
 1047SOL     OW14776   2.377   1.337   8.798  0.2813 -0.2987 -0.1208
 1047SOL    HW114777   2.318   1.276   8.752 -0.0797  0.4239 -0.6187
 1047SOL    HW214778   2.438   1.277   8.840 -1.2392 -1.0179  1.0430
 1048SOL     OW14779   1.780   0.243   6.451  0.9877 -0.5875 -0.1719
 1048SOL    HW114780   1.766   0.254   6.546 -0.2134  0.5631 -0.4782
 1048SOL    HW214781   1.810   0.152   6.449 -1.1373 -1.2593 -1.2822
 1049SOL     OW14782   3.745   4.629   2.027  0.2252 -0.2764 -0.6091
 1049SOL    HW114783   3.770   4.620   1.936  1.2656  1.4815 -0.4900
 1049SOL    HW214784   3.688   4.552   2.036 -2.0824  1.5397  0.3889
 1050SOL     OW14785   3.886   4.071  16.580  0.0246  0.0208  0.4163
 1050SOL    HW114786   3.967   4.121  16.584 -0.2128  0.6298 -2.1029
 1050SOL    HW214787   3.879   4.050  16.487  2.8128  0.0812  0.1994
 1051SOL     OW14788   1.241   2.652   9.571 -0.2344 -0.2129  0.4614
 1051SOL    HW114789   1.227   2.557   9.565 -0.3040 -0.3369  2.3744
 1051SOL    HW214790   1.167   2.682   9.625 -0.3766 -1.6973  1.0929
 1052SOL     OW14791   0.509   2.019   4.296  0.3344  0.0147  0.0236
 1052SOL    HW114792   0.569   1.944   4.289  0.1972  0.0729 -1.9931
 1052SOL    HW214793   0.428   1.989   4.254 -0.3336  0.7218  0.8248
 1053SOL     OW14794   1.056   1.309  17.303  0.6121 -0.2571  0.4982
 1053SOL    HW114795   0.981   1.348  17.259  0.4316 -0.7359  0.3921
 1053SOL    HW214796   1.121   1.335  17.237  0.2240 -0.1285  0.1693
 1054SOL     OW14797   4.346   2.630   5.611  0.3049  0.0848 -0.3404
 1054SOL    HW114798   4.280   2.560   5.607 -1.4290  1.6949  0.3722
 1054SOL    HW214799   4.369   2.638   5.703  2.7440 -1.2859 -0.8269
 1055SOL     OW14800   0.832   0.548   4.621  0.0748  0.3452  0.5080
 1055SOL    HW114801   0.743   0.549   4.587  0.4467  1.2673 -0.4360
 1055SOL    HW214802   0.818   0.613   4.689  4.0432 -0.5823  2.2381
 1056SOL     OW14803   0.816   2.814   4.397  0.4265 -0.5700  0.2456
 1056SOL    HW114804   0.840   2.804   4.305  0.8569  2.1774  0.0579
 1056SOL    HW214805   0.801   2.725   4.428  0.4219 -1.0776 -1.2181
 1057SOL     OW14806   1.211   0.361   5.092  0.2856  0.4478 -0.1722
 1057SOL    HW114807   1.264   0.415   5.150 -1.2854  0.4884  1.2271
 1057SOL    HW214808   1.172   0.298   5.153 -0.9236  1.7187  0.3708
 1058SOL     OW14809   1.760   2.537  13.692  0.1663  0.0476  0.0740
 1058SOL    HW114810   1.739   2.505  13.780 -0.6647  0.0493 -0.1268
 1058SOL    HW214811   1.829   2.599  13.716 -1.6946  1.6258  1.3595
 1059SOL     OW14812   4.344   0.638   6.143 -0.2939  0.6397  0.5632
 1059SOL    HW114813   4.252   0.613   6.152 -0.3347  0.7014  0.3197
 1059SOL    HW214814   4.379   0.568   6.198  1.3661  0.5220 -0.6566
 1060SOL     OW14815   3.302   4.018  16.270  0.0350 -0.1248  0.2638
 1060SOL    HW114816   3.339   3.971  16.195  0.9627  2.9520 -1.2012
 1060SOL    HW214817   3.384   4.039  16.313  0.5855 -0.7946 -0.4395
 1061SOL     OW14818   2.816   3.775   0.137 -0.5660  0.2590  0.2196
 1061SOL    HW114819   2.886   3.840   0.132 -0.3285  0.2412  2.9829
 1061SOL    HW214820   2.823   3.727   0.055 -1.5662 -1.4942  1.1569
 1062SOL     OW14821   1.549   0.004   9.190  0.2285  0.6311 -0.3187
 1062SOL    HW114822   1.546   0.100   9.187  2.0632  0.6608 -1.0585
 1062SOL    HW214823   1.531   4.734   9.284  0.1452  0.6728 -0.3310
 1063SOL     OW14824   1.651   0.907   7.159 -0.0855 -0.3753 -0.1230
 1063SOL    HW114825   1.679   0.954   7.080 -1.0704  0.0462 -0.2157
 1063SOL    HW214826   1.556   0.912   7.154  0.0070 -0.2919 -1.7588
 1064SOL     OW14827   1.697   2.380   7.471 -0.3447 -0.3330  0.0284
 1064SOL    HW114828   1.700   2.474   7.493 -2.6941 -0.6836  1.8738
 1064SOL    HW214829   1.616   2.384   7.420  0.4312  1.2697 -1.0871
 1065SOL     OW14830   3.498   4.706   6.666  0.3413  0.0633 -0.2694
 1065SOL    HW114831   3.575   4.656   6.693  1.2804  0.4241 -2.2509
 1065SOL    HW214832   3.504   4.702   6.570 -1.0121  0.7583 -0.3947
 1066SOL     OW14833   2.711   3.164   4.059 -0.4672  0.2499  0.0638
 1066SOL    HW114834   2.731   3.258   4.064 -0.6402  0.2758  0.3001
 1066SOL    HW214835   2.615   3.159   4.052 -0.6136 -0.4619  2.2750
 1067SOL     OW14836   2.929   3.176   6.664  0.1569 -0.5547  0.3763
 1067SOL    HW114837   2.966   3.112   6.603  0.4711 -1.3674  1.4210
 1067SOL    HW214838   2.856   3.204   6.610  0.6510 -0.1538 -0.0853
 1068SOL     OW14839   1.088   3.122  15.161  0.0324  0.1244 -0.1045
 1068SOL    HW114840   1.082   3.104  15.255  2.7383 -1.2362 -0.1725
 1068SOL    HW214841   0.996   3.128  15.136  0.9265 -0.4624 -3.7029
 1069SOL     OW14842   4.718   3.421   4.159  0.0360 -0.3231  0.4734
 1069SOL    HW114843   0.016   3.336   4.131 -0.8540 -1.1835  2.0183
 1069SOL    HW214844   4.729   3.472   4.079 -0.0286  0.1123  0.7466
 1070SOL     OW14845   2.471   2.829   0.455 -0.2651 -0.1337  0.1757
 1070SOL    HW114846   2.398   2.891   0.453  1.0247  1.4279  1.6811
 1070SOL    HW214847   2.420   2.755   0.490  0.8941 -1.5257 -1.0795
 1071SOL     OW14848   3.658   2.937   8.485  0.0795 -0.3710  0.3061
 1071SOL    HW114849   3.728   2.959   8.547  1.2323 -1.3617 -0.6482
 1071SOL    HW214850   3.645   3.021   8.441  1.5394  0.8064  2.1010
 1072SOL     OW14851   0.118   1.042   2.642 -0.7926  0.3965  0.2028
 1072SOL    HW114852   0.141   0.997   2.561  1.2791 -0.2008  1.1240
 1072SOL    HW214853   0.204   1.066   2.676 -0.7499 -0.3290  0.6159
 1073SOL     OW14854   4.722   2.903   9.002 -0.4300 -0.3693  0.2808
 1073SOL    HW114855   4.627   2.905   8.992 -0.5704  0.0604  1.7417
 1073SOL    HW214856   0.007   2.946   9.084 -1.0316 -0.6168  0.5643
 1074SOL     OW14857   3.229   2.370  15.784  0.8284 -0.3553 -0.2726
 1074SOL    HW114858   3.284   2.379  15.862  0.4811  0.4447 -0.1250
 1074SOL    HW214859   3.156   2.431  15.789  0.7011 -0.5800  0.5657
 1075SOL     OW14860   1.206   3.884   6.534  0.3782  0.0435 -0.3480
 1075SOL    HW114861   1.187   3.978   6.544  0.5263  0.2184 -1.8101
 1075SOL    HW214862   1.124   3.860   6.490  0.9680 -1.9390 -0.3410
 1076SOL     OW14863   4.368   0.131   4.916 -0.0729 -0.1617 -0.1979
 1076SOL    HW114864   4.326   0.117   4.831 -0.1773 -0.7796 -0.0414
 1076SOL    HW214865   4.384   0.225   4.920 -0.8879 -0.0698  0.8464
 1077SOL     OW14866   1.121   2.865   1.727  0.0402 -0.0466  0.4707
 1077SOL    HW114867   1.184   2.802   1.692 -0.8404  0.7856 -2.6202
 1077SOL    HW214868   1.108   2.822   1.812  0.6689  0.2952  0.7435
 1078SOL     OW14869   1.091   0.656   3.008  0.3166  0.0060  0.2031
 1078SOL    HW114870   1.029   0.681   2.939  0.9578 -1.4355 -0.8892
 1078SOL    HW214871   1.091   0.561   2.995  2.3752  0.2287 -1.4682
 1079SOL     OW14872   0.344   4.401   4.843 -0.5481  0.0911 -0.4636
 1079SOL    HW114873   0.366   4.388   4.935 -0.2013 -0.3885 -0.6145
 1079SOL    HW214874   0.256   4.366   4.859 -0.5600  0.3853  0.1142
 1080SOL     OW14875   0.795   1.770   5.862 -0.2321 -0.0437 -0.1263
 1080SOL    HW114876   0.858   1.841   5.876  0.7261 -1.0238  0.5967
 1080SOL    HW214877   0.771   1.751   5.953  2.5039 -0.2064  0.5854
 1081SOL     OW14878   1.004   0.054   0.621 -0.0072  0.1117  0.0128
 1081SOL    HW114879   0.925   0.092   0.658  0.1679  1.9742 -1.5366
 1081SOL    HW214880   0.997   4.708   0.670  0.7006  1.2130  1.9645
 1082SOL     OW14881   0.029   2.258   7.161  0.7826  0.1841  0.3202
 1082SOL    HW114882   0.080   2.199   7.106 -0.6221 -0.4900 -0.2497
 1082SOL    HW214883   4.703   2.285   7.094  3.1276  2.1015 -1.0782
 1083SOL     OW14884   1.145   0.339   7.152 -0.2253  0.4649 -0.0097
 1083SOL    HW114885   1.211   0.387   7.102 -2.4984  1.4579 -2.0226
 1083SOL    HW214886   1.205   0.288   7.207  0.2737 -1.0948 -2.0306
 1084SOL     OW14887   1.138   2.841  13.069 -0.1728 -0.2412  0.4611
 1084SOL    HW114888   1.071   2.908  13.053 -0.5352 -0.0822  2.6513
 1084SOL    HW214889   1.165   2.824  12.979  1.9727  0.9850  0.8678
 1085SOL     OW14890   3.493   1.877   8.816  0.1140 -0.4367  0.1243
 1085SOL    HW114891   3.484   1.890   8.721 -2.0599 -0.1688  0.3744
 1085SOL    HW214892   3.515   1.784   8.818  3.6309  0.4137  0.5814
 1086SOL     OW14893   2.748   2.204   8.423 -0.0112  0.0723  0.0621
 1086SOL    HW114894   2.765   2.289   8.383 -2.0671  0.3667 -0.1936
 1086SOL    HW214895   2.657   2.188   8.397  0.1670 -0.9021  0.0688
 1087SOL     OW14896   4.534   4.357  12.686  0.4041  0.5205  0.0437
 1087SOL    HW114897   4.530   4.334  12.778  0.1752  2.5895  0.5502
 1087SOL    HW214898   4.441   4.354  12.662  0.0834  0.1485  1.3693
 1088SOL     OW14899   3.899   2.632   2.953  0.0814 -0.2490 -0.1046
 1088SOL    HW114900   3.927   2.679   2.875 -0.0203  0.4599  0.2838
 1088SOL    HW214901   3.899   2.542   2.921 -3.7408 -0.4253  0.3749
 1089SOL     OW14902   0.712   3.253   2.168 -0.4679 -0.1987 -0.3069
 1089SOL    HW114903   0.722   3.214   2.081 -1.7287  0.2328 -0.6521
 1089SOL    HW214904   0.716   3.343   2.134  1.7052 -0.8299 -1.7293
 1090SOL     OW14905   2.579   1.716   9.149 -0.2007 -0.0401  0.3824
 1090SOL    HW114906   2.631   1.737   9.227  0.3680 -1.8699  0.4887
 1090SOL    HW214907   2.618   1.778   9.087 -0.6544 -2.5057 -2.3542
 1091SOL     OW14908   4.279   2.841   8.231  0.0013  0.0279  0.2786
 1091SOL    HW114909   4.301   2.884   8.314  0.3883 -1.3057  0.8586
 1091SOL    HW214910   4.278   2.912   8.167  0.5963 -1.5278 -1.4549
 1092SOL     OW14911   4.210   4.208   2.947 -0.1871 -0.7480 -0.0161
 1092SOL    HW114912   4.282   4.184   3.005 -0.5520 -1.0054  0.3320
 1092SOL    HW214913   4.191   4.116   2.926  1.0433 -0.9118 -0.4460
 1093SOL     OW14914   3.855   4.654  16.295  0.2160 -0.1301 -0.5675
 1093SOL    HW114915   3.934   4.696  16.261 -0.8191  0.7121 -1.9496
 1093SOL    HW214916   3.807   4.643  16.213 -2.2198 -0.9422  0.9749
 1094SOL     OW14917   4.222   2.326  11.456 -0.5610 -0.5641 -0.3380
 1094SOL    HW114918   4.306   2.349  11.415 -0.2723 -1.6241 -0.3419
 1094SOL    HW214919   4.224   2.231  11.448 -0.3780 -0.6920  1.2625
 1095SOL     OW14920   0.987   3.714   3.917  0.0131  0.0566 -0.2771
 1095SOL    HW114921   0.926   3.750   3.981  0.4999  1.7314 -0.7536
 1095SOL    HW214922   0.941   3.750   3.841 -0.3054  0.6855  0.2093
 1096SOL     OW14923   4.089   2.423   0.617 -0.9176 -0.1772 -0.1060
 1096SOL    HW114924   4.050   2.449   0.701  0.9350  1.9824  0.0614
 1096SOL    HW214925   4.144   2.346   0.636  0.0093  0.8526  1.3457
 1097SOL     OW14926   2.014   3.108   9.419  0.1959  0.4211  0.2440
 1097SOL    HW114927   2.070   3.111   9.341  1.6282  2.3259  1.3365
 1097SOL    HW214928   2.050   3.032   9.464  1.3797  0.3564 -0.7874
 1098SOL     OW14929   2.247   4.325   5.990  0.2517  0.5291  0.2853
 1098SOL    HW114930   2.326   4.331   6.042  1.5458 -1.2310 -1.4744
 1098SOL    HW214931   2.179   4.325   6.058 -1.3355 -0.3908 -1.2840
 1099SOL     OW14932   4.696   2.366  11.540 -0.3073  0.9021 -0.0969
 1099SOL    HW114933   4.673   2.274  11.550 -0.5805  0.8627 -1.1532
 1099SOL    HW214934   0.055   2.359  11.541 -0.4043 -0.3887  0.2281
 1100SOL     OW14935   2.250   4.130   8.930 -0.0258  0.3214  0.2961
 1100SOL    HW114936   2.237   4.141   8.836 -0.6345  2.6089  0.6418
 1100SOL    HW214937   2.217   4.041   8.941  0.2181  0.1524 -0.3737
 1101SOL     OW14938   3.181   3.626   2.759 -0.2707  0.3001  0.2740
 1101SOL    HW114939   3.167   3.690   2.689 -1.5910 -0.3564 -0.0640
 1101SOL    HW214940   3.265   3.656   2.793 -0.7662  1.2506  0.6723
 1102SOL     OW14941   0.754   2.513   8.806 -0.0629 -0.8133 -0.7751
 1102SOL    HW114942   0.695   2.568   8.755  0.3995  1.1216  0.7968
 1102SOL    HW214943   0.702   2.465   8.870  1.0181 -0.4874  0.3591
 1103SOL     OW14944   0.239   2.184   3.149 -0.1111  0.5154 -0.2553
 1103SOL    HW114945   0.304   2.248   3.121 -1.9985  1.6712 -2.0530
 1103SOL    HW214946   0.254   2.109   3.091  0.4503  0.6488 -0.2809
 1104SOL     OW14947   2.881   1.665   1.219 -0.0801  0.0945 -0.2993
 1104SOL    HW114948   2.870   1.760   1.219 -0.4185  0.0566 -1.0870
 1104SOL    HW214949   2.851   1.639   1.132  1.5529 -0.9975 -0.5184
 1105SOL     OW14950   0.086   3.151   8.915  0.2470 -0.3913 -0.5629
 1105SOL    HW114951   0.028   3.176   8.844 -1.9943 -2.4640  0.5417
 1105SOL    HW214952   0.062   3.062   8.942  1.2690 -0.9585 -1.5017
 1106SOL     OW14953   4.477   3.633   5.961  0.6591 -0.0382  0.0408
 1106SOL    HW114954   4.488   3.601   5.871  1.9861 -1.9284  0.8740
 1106SOL    HW214955   4.476   3.727   5.946 -1.8295  0.0656  0.8566
 1107SOL     OW14956   2.271   0.201  10.349  0.1002 -0.1855 -0.0993
 1107SOL    HW114957   2.276   0.234  10.259 -1.3233  1.0006  0.2542
 1107SOL    HW214958   2.178   0.216  10.367  0.1883  0.9495 -0.6140
 1108SOL     OW14959   4.120   1.950   8.666  0.3368 -0.2048 -0.2129
 1108SOL    HW114960   4.160   1.948   8.753  1.2075 -0.0062 -0.6032
 1108SOL    HW214961   4.031   1.984   8.677  0.9797  0.9723  1.3449
 1109SOL     OW14962   1.397   1.114   3.475  0.0744  0.2080 -0.5702
 1109SOL    HW114963   1.355   1.033   3.505  0.0814  0.3941 -0.0706
 1109SOL    HW214964   1.404   1.095   3.381  1.6634  1.0903 -0.6435
 1110SOL     OW14965   1.654   3.848  17.716 -0.0740 -0.8721  0.1674
 1110SOL    HW114966   1.585   3.791   0.005  0.2492 -0.7164  1.1108
 1110SOL    HW214967   1.711   3.792  17.663  0.3403 -2.3465  2.1910
 1111SOL     OW14968   1.337   2.065   8.048  0.6189 -0.4249 -0.1178
 1111SOL    HW114969   1.254   2.057   8.096 -0.3168  2.1018 -1.3375
 1111SOL    HW214970   1.298   2.091   7.965  2.2925  1.1068 -0.4132
 1112SOL     OW14971   3.344   4.120   8.211 -0.3857 -0.0299 -0.4252
 1112SOL    HW114972   3.256   4.082   8.212 -0.5762  0.4303  0.0376
 1112SOL    HW214973   3.339   4.180   8.285  0.4746 -0.2866 -0.1690
 1113SOL     OW14974   3.442   4.424   8.420  0.3693 -0.0297 -0.1506
 1113SOL    HW114975   3.414   4.450   8.332  1.0804  1.2770  0.0131
 1113SOL    HW214976   3.362   4.382   8.451 -0.3570  1.9205  0.6116
 1114SOL     OW14977   3.058   2.485   9.054  0.1512 -0.4615  0.2716
 1114SOL    HW114978   3.129   2.431   9.089  0.5774 -0.4693 -0.5998
 1114SOL    HW214979   2.984   2.426   9.069 -0.6972  0.8352  1.1150
 1115SOL     OW14980   4.126   2.719   4.779 -0.4358 -0.0856  0.1213
 1115SOL    HW114981   4.184   2.765   4.840  1.1063 -1.0717 -0.6172
 1115SOL    HW214982   4.054   2.699   4.839  0.2145  1.4155  1.4136
 1116SOL     OW14983   2.925   0.955  12.979 -0.4052  0.1414 -0.0606
 1116SOL    HW114984   2.906   0.911  13.062  2.0003 -0.2907  0.2493
 1116SOL    HW214985   2.850   0.927  12.926 -1.8383  2.9009  0.5439
 1117SOL     OW14986   3.823   4.149   3.538  0.1952  0.5198  0.4245
 1117SOL    HW114987   3.734   4.183   3.544  0.0181 -0.1112  1.3986
 1117SOL    HW214988   3.876   4.224   3.509 -1.4696  0.8774 -1.6322
 1118SOL     OW14989   0.471   4.473  14.382  0.0136  0.2136  0.1127
 1118SOL    HW114990   0.462   4.555  14.430  2.6366 -1.1828  3.0100
 1118SOL    HW214991   0.403   4.480  14.315  0.1356 -0.0703 -0.0415
 1119SOL     OW14992   3.139   0.327   9.559 -0.8064  0.4977 -0.3343
 1119SOL    HW114993   3.159   0.398   9.498 -0.4407  1.3969  0.8399
 1119SOL    HW214994   3.097   0.268   9.497 -2.0439 -0.7989  1.7340
 1120SOL     OW14995   3.191   3.339   2.692  0.4580  0.1994  0.1035
 1120SOL    HW114996   3.220   3.413   2.745  0.2291  2.1842 -2.5148
 1120SOL    HW214997   3.112   3.378   2.655  1.3754  1.6445 -0.3743
 1121SOL     OW14998   3.049   4.207   1.806 -0.0574  0.5194  0.6046
 1121SOL    HW114999   3.048   4.112   1.799  0.8877  0.6289 -1.0130
 1121SOL    HW215000   2.955   4.220   1.821  0.1771  0.6970  1.9844
 1122SOL     OW15001   1.114   2.964   3.069  0.6552 -0.1868  0.7196
 1122SOL    HW115002   1.143   2.915   3.146  0.5388 -0.9764  0.2692
 1122SOL    HW215003   1.024   2.932   3.067  0.0815  1.4375  1.2629
 1123SOL     OW15004   2.718   3.624  11.728  0.1738  0.0956  0.0938
 1123SOL    HW115005   2.788   3.559  11.738  0.2645  0.5796  2.5510
 1123SOL    HW215006   2.775   3.699  11.710 -0.4679  0.6015  0.2164
 1124SOL     OW15007   0.463   0.334   6.660 -0.6451  0.1095 -0.0452
 1124SOL    HW115008   0.429   0.406   6.607 -0.8933 -1.9368 -2.6728
 1124SOL    HW215009   0.387   0.277   6.674 -0.4569 -0.4620 -1.4402
 1125SOL     OW15010   3.007   3.177  10.052 -0.0592  0.5197 -0.1871
 1125SOL    HW115011   3.084   3.222  10.017  0.0189 -0.1921 -0.9240
 1125SOL    HW215012   2.948   3.195   9.978 -3.5057 -1.0943  2.1891
 1126SOL     OW15013   4.290   0.299   7.957 -0.1930 -0.0824 -0.0779
 1126SOL    HW115014   4.367   0.324   7.906 -2.5283  0.6510 -3.2904
 1126SOL    HW215015   4.324   0.269   8.041  1.5123  0.3626 -0.5997
 1127SOL     OW15016   3.690   2.917  13.477  0.2357 -0.7556 -0.3504
 1127SOL    HW115017   3.596   2.921  13.494  0.6223  2.3378  1.0165
 1127SOL    HW215018   3.698   2.822  13.469  1.3545 -0.6759 -0.1631
 1128SOL     OW15019   2.914   4.268   2.732 -0.4103 -0.2249 -0.1288
 1128SOL    HW115020   2.898   4.200   2.797 -1.4327 -1.8135 -2.0216
 1128SOL    HW215021   2.863   4.342   2.765 -1.7609 -0.8609 -0.7732
 1129SOL     OW15022   1.066   0.586  15.042  0.2042  0.1027  0.1217
 1129SOL    HW115023   1.064   0.495  15.070 -1.7316  0.1129  0.0353
 1129SOL    HW215024   1.004   0.637  15.095  2.1931  1.5697  1.0379
 1130SOL     OW15025   1.498   4.546   3.360 -0.4551 -0.2129 -0.5646
 1130SOL    HW115026   1.435   4.589   3.302 -2.3903 -0.0305  1.6514
 1130SOL    HW215027   1.477   4.453   3.346  1.2704 -0.6152 -0.4791
 1131SOL     OW15028   3.528   1.610   8.833 -0.5184 -0.3082 -0.3483
 1131SOL    HW115029   3.438   1.578   8.821 -1.1928  1.4380  0.0664
 1131SOL    HW215030   3.548   1.584   8.923 -2.7004 -0.8940 -0.0336
 1132SOL     OW15031   0.304   1.751   1.548 -0.0144  0.4890  0.0845
 1132SOL    HW115032   0.267   1.666   1.568  2.5277  0.2678  3.8418
 1132SOL    HW215033   0.309   1.760   1.453  1.7252  0.3285  0.1623
 1133SOL     OW15034   1.044   3.205   4.743 -0.6231  0.2292  0.0517
 1133SOL    HW115035   0.958   3.247   4.746  0.1535  1.8093  0.3324
 1133SOL    HW215036   1.096   3.243   4.814 -1.8206  0.4071  0.8462
 1134SOL     OW15037   4.485   3.347   7.626  0.6423 -0.2436  0.0359
 1134SOL    HW115038   4.499   3.278   7.562  0.1816  0.2739 -0.6148
 1134SOL    HW215039   4.390   3.342   7.626  0.5053  2.5719 -0.2870
 1135SOL     OW15040   2.745   2.541   5.381 -0.3320  0.2215  0.4578
 1135SOL    HW115041   2.655   2.511   5.368  0.3945 -1.8503  0.2926
 1135SOL    HW215042   2.762   2.584   5.297 -4.3075  1.4401  0.2377
 1136SOL     OW15043   3.266   4.691  15.313  0.6390  0.0682  0.2893
 1136SOL    HW115044   3.289   4.733  15.396  3.4724 -3.0199  1.0542
 1136SOL    HW215045   3.171   4.706  15.305  0.5079 -1.2554 -0.6312
 1137SOL     OW15046   1.899   4.579   6.060  0.4338 -0.4326  0.1382
 1137SOL    HW115047   1.850   4.645   6.110  0.8767 -0.0361  0.0509
 1137SOL    HW215048   1.934   4.612   5.977 -0.3719  0.5938  0.2074
 1138SOL     OW15049   1.070   1.907   5.896 -0.1168  0.0795  0.5562
 1138SOL    HW115050   1.046   1.859   5.816 -0.8032 -2.0472  2.0524
 1138SOL    HW215051   1.144   1.961   5.869 -0.6163  1.8440  2.7099
 1139SOL     OW15052   0.191   3.166   7.251 -0.3924  0.0344 -0.2706
 1139SOL    HW115053   0.113   3.197   7.205 -0.6893 -2.9766 -1.8472
 1139SOL    HW215054   0.261   3.225   7.221  0.8547 -1.1860  0.2300
 1140SOL     OW15055   2.037   4.684   8.550  0.0409 -0.1752  0.0811
 1140SOL    HW115056   2.075   4.646   8.629  1.1115  1.7630  0.4989
 1140SOL    HW215057   2.074   4.635   8.478  0.8433 -1.7540  1.5686
 1141SOL     OW15058   3.228   4.653   1.479 -0.4573  0.3730  0.4893
 1141SOL    HW115059   3.162   4.610   1.534  0.8731 -1.4991  0.6112
 1141SOL    HW215060   3.257   4.722   1.539  1.1766  0.2385 -0.1464
 1142SOL     OW15061   1.775   4.022  17.491  0.6444 -0.1306  0.0263
 1142SOL    HW115062   1.777   3.991  17.401  2.4821  0.4567 -0.1314
 1142SOL    HW215063   1.685   3.996  17.512  0.1336  0.8215 -0.9836
 1143SOL     OW15064   3.656   2.100   8.348  0.1844  0.0667 -0.1662
 1143SOL    HW115065   3.657   2.178   8.293 -0.4686 -1.0385 -1.7714
 1143SOL    HW215066   3.592   2.040   8.310  0.6265 -1.4174  1.4330
 1144SOL     OW15067   2.586   3.036   7.604  0.5222  0.6442 -0.4586
 1144SOL    HW115068   2.547   3.123   7.614 -1.4232 -0.2954  0.3364
 1144SOL    HW215069   2.672   3.053   7.641  0.3065  1.1291 -0.1788
 1145SOL     OW15070   2.228   2.370   8.333 -0.2747  0.5385  0.0329
 1145SOL    HW115071   2.182   2.412   8.406 -0.4131 -0.3376  0.4575
 1145SOL    HW215072   2.160   2.346   8.269  0.0937  2.1915 -0.9644
 1146SOL     OW15073   3.421   3.885   2.460 -0.1368  0.0898  0.1662
 1146SOL    HW115074   3.345   3.900   2.404  0.1218  0.0818 -0.1795
 1146SOL    HW215075   3.395   3.935   2.538 -0.0848 -0.7855  0.7462
 1147SOL     OW15076   2.591   0.640   3.685 -0.0416  0.1489  0.0771
 1147SOL    HW115077   2.616   0.664   3.774 -2.0342 -1.0234  0.9606
 1147SOL    HW215078   2.658   0.578   3.656 -0.1841 -0.4088  0.9309
 1148SOL     OW15079   4.245   2.574   9.752 -0.5366 -0.3644 -0.1994
 1148SOL    HW115080   4.298   2.502   9.717  1.0758  1.6444 -1.8590
 1148SOL    HW215081   4.258   2.653   9.700  0.0448 -0.7488 -0.6437
 1149SOL     OW15082   1.003   2.657   3.778  0.1220  0.2008  0.3021
 1149SOL    HW115083   1.092   2.643   3.811 -1.0286 -1.2416  2.8079
 1149SOL    HW215084   0.951   2.626   3.853  1.0974 -0.4471  0.7135
 1150SOL     OW15085   0.202   4.669  15.714  0.4148  0.8498 -0.4414
 1150SOL    HW115086   0.213   0.022  15.681  0.1383  0.9204 -0.3381
 1150SOL    HW215087   0.123   4.643  15.666  0.0645  0.6283  0.2550
 1151SOL     OW15088   3.771   4.166   8.862 -0.5822  0.2002  0.4266
 1151SOL    HW115089   3.726   4.231   8.808 -1.1000 -0.7673 -0.2973
 1151SOL    HW215090   3.810   4.106   8.798 -1.9958  0.1108 -0.3568
 1152SOL     OW15091   0.281   0.444   4.923  0.0135 -0.0932  0.6943
 1152SOL    HW115092   0.311   0.521   4.970 -1.7620  0.2510  1.2519
 1152SOL    HW215093   0.187   0.459   4.915  0.2478  0.5937 -0.7685
 1153SOL     OW15094   0.360   1.476  17.609  0.5611  0.5275  0.3819
 1153SOL    HW115095   0.323   1.564  17.603 -2.7252 -0.7729  1.6126
 1153SOL    HW215096   0.411   1.471  17.690  0.6497 -1.4796  0.2000
 1154SOL     OW15097   0.550   4.637   3.004 -0.0800  0.0831 -0.8463
 1154SOL    HW115098   0.461   4.613   3.032  1.0179  0.5886  3.0540
 1154SOL    HW215099   0.558   4.612   2.912 -0.8597  0.9196 -1.1440
 1155SOL     OW15100   0.403   2.358   8.772 -0.0482  0.3221 -0.5663
 1155SOL    HW115101   0.335   2.393   8.830  1.2811  2.0861 -0.0956
 1155SOL    HW215102   0.478   2.405   8.807  1.1932 -2.8140  0.9821
 1156SOL     OW15103   0.830   3.733  16.603  0.5307  0.2782 -0.3965
 1156SOL    HW115104   0.763   3.800  16.587  0.6384  0.7255  0.9751
 1156SOL    HW215105   0.862   3.770  16.686 -1.6400 -0.2374  0.6753
 1157SOL     OW15106   4.083   0.126   5.239 -0.9200 -0.0754 -0.4237
 1157SOL    HW115107   4.136   0.046   5.227  1.1794  1.1303  0.8952
 1157SOL    HW215108   3.994   0.096   5.222 -1.0068 -0.1157  0.1176
 1158SOL     OW15109   0.047   1.098   7.703 -0.1706 -0.1075 -0.2652
 1158SOL    HW115110   0.001   1.144   7.773 -0.1663  1.0953 -1.0458
 1158SOL    HW215111   0.043   1.015   7.750  1.6608  0.9027  1.6772
 1159SOL     OW15112   4.228   0.872   2.015 -0.2681  0.1232 -0.0401
 1159SOL    HW115113   4.256   0.791   2.057 -1.9501  0.2069  1.2785
 1159SOL    HW215114   4.202   0.931   2.087 -0.7339  1.0167 -0.9373
 1160SOL     OW15115   0.874   4.358   1.544 -0.3181  0.4181  0.5485
 1160SOL    HW115116   0.798   4.360   1.602 -1.7012 -0.4855 -1.2305
 1160SOL    HW215117   0.943   4.373   1.610 -1.3721  0.8091  1.5545
 1161SOL     OW15118   1.193   2.570   8.299 -0.2293 -0.1899  0.3504
 1161SOL    HW115119   1.168   2.518   8.376 -2.1426 -1.3142 -1.0368
 1161SOL    HW215120   1.186   2.502   8.233  0.4531  0.6512 -0.5789
 1162SOL     OW15121   0.398   0.520  14.513  0.4970 -0.3488 -0.4785
 1162SOL    HW115122   0.347   0.601  14.514  0.0875 -0.6057 -1.0365
 1162SOL    HW215123   0.471   0.539  14.454  0.4693 -0.3285 -0.5060
 1163SOL     OW15124   2.218   4.341  15.004 -0.6364 -0.0546  0.5553
 1163SOL    HW115125   2.124   4.349  14.985 -1.0423 -1.4366  1.9548
 1163SOL    HW215126   2.211   4.302  15.091 -2.7189 -1.6509 -0.3271
 1164SOL     OW15127   0.460   1.712   6.638 -0.0895 -0.4710 -0.1557
 1164SOL    HW115128   0.495   1.780   6.695 -0.9641  0.7263 -1.0527
 1164SOL    HW215129   0.521   1.639   6.649  0.2445 -0.3657 -1.2976
 1165SOL     OW15130   4.400   1.906   3.130  0.4291  0.3030  0.1901
 1165SOL    HW115131   4.320   1.897   3.182  0.3963 -0.5408 -0.0143
 1165SOL    HW215132   4.435   1.992   3.152  1.5738 -0.0576 -0.2110
 1166SOL     OW15133   1.963   4.278   8.501  0.2383 -0.7107  0.0748
 1166SOL    HW115134   1.951   4.217   8.428 -4.0555 -0.3308  0.4782
 1166SOL    HW215135   1.890   4.339   8.488 -0.8120 -1.4167  2.7109
 1167SOL     OW15136   0.481   0.472  10.726  0.2643  0.3174 -0.3089
 1167SOL    HW115137   0.402   0.465  10.674  0.2503  0.0833 -0.2562
 1167SOL    HW215138   0.473   0.558  10.769  1.4612  0.9079 -1.2626
 1168SOL     OW15139   4.048   3.869   4.716 -0.6383 -0.1203  0.3774
 1168SOL    HW115140   4.039   3.825   4.632  0.0080  0.3408  0.0668
 1168SOL    HW215141   4.068   3.792   4.770 -1.0271 -0.1115  0.5390
 1169SOL     OW15142   0.299   2.900  16.114  0.2217  0.1306  0.4263
 1169SOL    HW115143   0.295   2.834  16.183  0.3658 -1.2818 -0.9199
 1169SOL    HW215144   0.327   2.975  16.168 -0.2932  1.4360 -1.1190
 1170SOL     OW15145   3.692   0.777   6.836 -0.1705  0.2723 -0.2341
 1170SOL    HW115146   3.766   0.769   6.896 -0.2193  0.5596 -0.1345
 1170SOL    HW215147   3.621   0.754   6.896 -1.0062  0.2623 -1.2101
 1171SOL     OW15148   0.197   0.288   3.358 -0.0456 -0.1207 -0.2199
 1171SOL    HW115149   0.271   0.227   3.360 -0.2729 -0.3657  0.9543
 1171SOL    HW215150   0.142   0.240   3.296 -0.1973 -0.4854  0.1961
 1172SOL     OW15151   1.393   0.509  12.861  0.3870 -0.2457 -0.7371
 1172SOL    HW115152   1.362   0.437  12.916  0.8209 -0.0430 -0.2292
 1172SOL    HW215153   1.334   0.575  12.897  0.7769  0.1435 -0.8203
 1173SOL     OW15154   1.466   2.659  12.220  0.3929  0.1099  0.0447
 1173SOL    HW115155   1.462   2.607  12.140 -0.6185  0.3376 -0.0536
 1173SOL    HW215156   1.559   2.672  12.234  0.1886  0.0684  1.3853
 1174SOL     OW15157   0.238   4.390   7.303  0.4862 -0.5021  0.3599
 1174SOL    HW115158   0.173   4.361   7.367 -0.4956 -1.8393 -1.2543
 1174SOL    HW215159   0.241   4.313   7.247  0.9723  0.0546 -0.3794
 1175SOL     OW15160   4.447   4.292   1.763 -0.2100  0.2960 -0.0398
 1175SOL    HW115161   4.441   4.280   1.668 -0.9450  1.5556 -0.1598
 1175SOL    HW215162   4.387   4.222   1.789  0.1380  1.0591  2.7894
 1176SOL     OW15163   0.873   1.534  10.379  0.4476 -0.1173 -0.1403
 1176SOL    HW115164   0.914   1.540  10.465 -0.2633 -0.1031  0.1991
 1176SOL    HW215165   0.792   1.585  10.381  0.5410  0.1002 -1.8199
 1177SOL     OW15166   2.137   2.035   2.308  0.1201  0.2275 -0.6874
 1177SOL    HW115167   2.093   1.985   2.238 -0.7099  1.4334 -1.0267
 1177SOL    HW215168   2.229   2.039   2.280  0.6377  2.7634  1.3578
 1178SOL     OW15169   4.489   2.851   9.455  0.1339 -0.1526 -0.1336
 1178SOL    HW115170   4.429   2.914   9.415 -1.4066 -1.9489 -0.6588
 1178SOL    HW215171   4.506   2.889   9.541  0.8354 -1.0997  0.1436
 1179SOL     OW15172   2.817   0.087  17.355 -0.3043 -0.1931 -0.0068
 1179SOL    HW115173   2.729   0.094  17.317  0.1683  0.2927 -0.9908
 1179SOL    HW215174   2.854   0.174  17.372 -1.3740 -0.1587  2.1174
 1180SOL     OW15175   2.433   0.966   4.296 -0.2548  0.4931 -0.3461
 1180SOL    HW115176   2.512   0.992   4.248  0.0504 -0.7332 -0.5015
 1180SOL    HW215177   2.474   0.923   4.370 -1.1148  0.4441  0.1032
 1181SOL     OW15178   0.405   3.000   6.995 -0.0908  0.4528 -0.4042
 1181SOL    HW115179   0.322   3.039   6.966 -0.0323  1.5938  0.9835
 1181SOL    HW215180   0.375   2.932   7.055  2.2445 -0.1107  0.1287
 1182SOL     OW15181   0.409   3.465   8.474  0.3247 -0.0760  0.3344
 1182SOL    HW115182   0.485   3.407   8.474  1.2786  1.2083 -0.9233
 1182SOL    HW215183   0.387   3.456   8.567  1.7290  0.5998  0.7375
 1183SOL     OW15184   3.454   0.465   6.214  0.0621 -0.0361 -0.2517
 1183SOL    HW115185   3.550   0.464   6.216  0.0422 -2.2988 -0.2346
 1183SOL    HW215186   3.441   0.511   6.297  1.9395 -2.7191  1.5251
 1184SOL     OW15187   0.302   3.399   7.717 -0.0698  0.3277 -0.4738
 1184SOL    HW115188   0.250   3.477   7.695 -0.7644 -0.3870 -1.3526
 1184SOL    HW215189   0.238   3.359   7.776  1.5470 -1.3867  0.0892
 1185SOL     OW15190   1.811   4.440   3.067  0.0234  0.4305  0.0459
 1185SOL    HW115191   1.733   4.484   3.033  0.6076  1.0932 -0.4378
 1185SOL    HW215192   1.853   4.513   3.113  0.7105 -1.8038  2.9706
 1186SOL     OW15193   4.523   4.400   8.137 -0.5539 -0.1372  0.2975
 1186SOL    HW115194   4.549   4.455   8.211 -0.0518 -1.5629  1.1726
 1186SOL    HW215195   4.435   4.432   8.121  0.1179  1.2465 -0.6221
 1187SOL     OW15196   3.414   2.682  13.446 -0.2522  0.3029  0.2353
 1187SOL    HW115197   3.351   2.651  13.511  0.8475  0.9622  1.6202
 1187SOL    HW215198   3.407   2.774  13.473  1.4489  0.8899 -1.3075
 1188SOL     OW15199   2.827   1.816   4.588 -0.3003  0.2343  0.5181
 1188SOL    HW115200   2.889   1.790   4.656  1.4429  0.3146 -1.0264
 1188SOL    HW215201   2.791   1.734   4.556 -0.6335  0.3857  0.5073
 1189SOL     OW15202   4.123   0.322  10.884 -0.2224  0.3696  0.3355
 1189SOL    HW115203   4.082   0.366  10.958  0.4297  1.8722 -0.2043
 1189SOL    HW215204   4.065   0.341  10.810  3.2328 -2.7568 -3.2138
 1190SOL     OW15205   2.962   2.660   8.205 -0.5824 -0.7737  0.1189
 1190SOL    HW115206   2.930   2.645   8.116  0.8633  1.4473 -0.7779
 1190SOL    HW215207   2.946   2.571   8.236  0.9972 -0.7482  1.0279
 1191SOL     OW15208   3.941   2.354   9.476 -0.4770  0.5390  0.1295
 1191SOL    HW115209   3.948   2.403   9.557 -1.5017 -0.0123  0.5472
 1191SOL    HW215210   4.031   2.324   9.462 -0.0005  1.3842  1.3730
 1192SOL     OW15211   0.191   3.178   9.714 -0.1106 -0.2691  0.0960
 1192SOL    HW115212   0.254   3.132   9.769  1.0775  0.3651 -0.7398
 1192SOL    HW215213   0.099   3.153   9.725 -0.0546 -0.4028  0.2563
 1193SOL     OW15214   4.353   0.713  12.135 -0.3197  0.1949  0.2979
 1193SOL    HW115215   4.312   0.631  12.109  1.4124 -0.8148  0.7064
 1193SOL    HW215216   4.441   0.695  12.103 -0.9140  2.1858 -2.3856
 1194SOL     OW15217   4.636   4.250   7.319 -0.0284 -0.8226 -0.2191
 1194SOL    HW115218   4.709   4.225   7.375 -1.7753  1.0281  2.8462
 1194SOL    HW215219   4.671   4.238   7.231 -2.3804  1.5102 -1.4912
 1195SOL     OW15220   3.222   4.456   5.700 -0.7696  0.0304  0.5484
 1195SOL    HW115221   3.278   4.498   5.636 -0.5147 -1.6885 -0.3655
 1195SOL    HW215222   3.155   4.436   5.635  0.6951  0.1222 -0.9873
 1196SOL     OW15223   1.099   2.810   7.561  0.0657  0.1803 -0.1033
 1196SOL    HW115224   1.144   2.892   7.539  0.3009  0.2122  0.4902
 1196SOL    HW215225   1.022   2.819   7.505 -0.6451 -2.6916  0.3735
 1197SOL     OW15226   3.499   0.780   2.316  0.3273  0.2183  0.4780
 1197SOL    HW115227   3.462   0.829   2.242  1.1297  0.2660  0.1024
 1197SOL    HW215228   3.424   0.766   2.373 -0.7527 -1.5405 -1.3541
 1198SOL     OW15229   1.010   0.121   8.401 -0.0799  0.1424 -0.6501
 1198SOL    HW115230   0.955   0.133   8.478  0.0278 -0.4917 -0.4805
 1198SOL    HW215231   1.074   0.187   8.427  0.7045 -0.4800 -1.0092
 1199SOL     OW15232   4.602   2.884   6.514 -0.0716  0.6068  0.1456
 1199SOL    HW115233   4.660   2.933   6.455 -1.7421  1.3100 -0.9084
 1199SOL    HW215234   4.660   2.812   6.537  2.1404  1.8297 -1.4913
 1200SOL     OW15235   0.541   1.877   3.171 -0.0855  0.7708  0.2053
 1200SOL    HW115236   0.601   1.935   3.124 -0.2842  0.5247 -0.3467
 1200SOL    HW215237   0.495   1.942   3.225 -0.5716 -0.5321  1.3559
 1201SOL     OW15238   1.261   4.541   6.341  0.4810  0.2844  0.1537
 1201SOL    HW115239   1.305   4.473   6.290 -0.1680  0.5712 -0.7888
 1201SOL    HW215240   1.196   4.560   6.273  0.7725 -0.4213 -0.3194
 1202SOL     OW15241   2.331   2.215   8.702 -0.0975 -0.0690 -0.3504
 1202SOL    HW115242   2.368   2.219   8.791 -1.2813 -0.3990  0.1685
 1202SOL    HW215243   2.379   2.288   8.664 -0.9433  0.2896 -0.7290
 1203SOL     OW15244   4.175   2.107   7.748  0.0084 -0.0309 -0.3584
 1203SOL    HW115245   4.252   2.149   7.786 -0.6958  1.9915 -1.1700
 1203SOL    HW215246   4.153   2.049   7.821 -2.1253  0.8681 -0.2556
 1204SOL     OW15247   3.562   1.572   1.593  0.3526 -0.2318  0.1772
 1204SOL    HW115248   3.523   1.644   1.544  1.1582  0.6172  0.7833
 1204SOL    HW215249   3.613   1.621   1.658 -0.7623  0.4260  0.5436
 1205SOL     OW15250   3.654   2.814   4.172  0.1670 -0.1338 -0.0243
 1205SOL    HW115251   3.717   2.828   4.243  1.8929 -3.8537 -0.8334
 1205SOL    HW215252   3.635   2.720   4.177  2.5973 -0.5995  0.2614
 1206SOL     OW15253   4.536   2.957   5.424  0.0351 -0.4580  0.0995
 1206SOL    HW115254   4.462   2.901   5.403  0.3838 -0.4784 -1.0555
 1206SOL    HW215255   4.567   2.920   5.506 -1.8228 -0.7327  0.6677
 1207SOL     OW15256   3.033   0.588  13.271 -0.5066 -0.1078  0.3172
 1207SOL    HW115257   3.012   0.674  13.235  1.2265  1.0047  1.9167
 1207SOL    HW215258   2.955   0.577  13.326  0.8617 -0.2619  2.2407
 1208SOL     OW15259   1.679   1.380  14.794  0.1586  0.7220 -0.0049
 1208SOL    HW115260   1.696   1.471  14.772  0.0716  0.3139 -1.7626
 1208SOL    HW215261   1.635   1.363  14.710 -0.5487  0.2229  0.4729
 1209SOL     OW15262   0.987   1.845   6.824 -0.1672  0.1188  0.5335
 1209SOL    HW115263   0.960   1.778   6.761 -2.0342  2.8619 -1.5796
 1209SOL    HW215264   0.932   1.828   6.900 -0.7325  0.9519  0.3087
 1210SOL     OW15265   4.511   0.988   4.957 -0.5360  0.0369 -0.4348
 1210SOL    HW115266   4.492   1.033   4.875 -1.2707 -1.9131 -1.3259
 1210SOL    HW215267   4.541   0.905   4.920  0.4278  0.8739 -1.5140
 1211SOL     OW15268   2.161   0.965   3.061  0.0529  0.1045  0.3207
 1211SOL    HW115269   2.067   0.978   3.049 -0.0186  0.0723  0.8592
 1211SOL    HW215270   2.183   0.905   2.989 -1.7792 -0.4797  0.2499
 1212SOL     OW15271   1.446   0.436  16.046  0.8283  0.1166  0.9324
 1212SOL    HW115272   1.419   0.353  16.085 -1.8230 -0.0324 -1.1973
 1212SOL    HW215273   1.361   0.478  16.035  1.2595  0.2300 -2.1909
 1213SOL     OW15274   1.294   0.928   2.025 -0.4308  0.4988 -0.2176
 1213SOL    HW115275   1.203   0.956   2.015 -0.0388  1.5924 -0.7732
 1213SOL    HW215276   1.308   0.899   1.935  0.9681  0.8898 -0.1188
 1214SOL     OW15277   0.463   1.255   6.792  0.0893  0.5980 -0.0613
 1214SOL    HW115278   0.549   1.276   6.828  0.9542 -0.3193 -1.5982
 1214SOL    HW215279   0.454   1.160   6.790 -1.0992  0.7030  0.1658
 1215SOL     OW15280   0.108   4.527   3.841  0.1440 -0.1983 -0.6759
 1215SOL    HW115281   0.024   4.571   3.854  0.8069  1.1660 -0.9792
 1215SOL    HW215282   0.112   4.439   3.878  3.2331 -0.2222 -1.0730
 1216SOL     OW15283   2.176   4.344   3.790  0.6503  0.0051 -0.0462
 1216SOL    HW115284   2.114   4.330   3.719  0.3896  2.0862 -0.2233
 1216SOL    HW215285   2.127   4.338   3.872  2.9272 -2.0113  1.1792
 1217SOL     OW15286   2.889   1.917   5.249  0.9695  0.4811  1.3457
 1217SOL    HW115287   2.880   1.831   5.207 -0.9654  2.1287 -1.6270
 1217SOL    HW215288   2.806   1.956   5.223  0.1608 -0.8906  1.8269
 1218SOL     OW15289   0.472   0.590   7.396 -0.6215 -0.1059  0.3740
 1218SOL    HW115290   0.447   0.606   7.306 -1.0440  1.6024  0.7938
 1218SOL    HW215291   0.566   0.601   7.380 -1.2542  0.7811 -2.5743
 1219SOL     OW15292   3.320   1.302   7.770 -0.1931  0.1027 -0.1485
 1219SOL    HW115293   3.357   1.215   7.784 -0.9829 -0.0346  1.1825
 1219SOL    HW215294   3.389   1.347   7.722  0.4114 -0.2967  0.3410
 1220SOL     OW15295   1.394   0.598   1.874 -0.2914 -0.1876 -0.3826
 1220SOL    HW115296   1.401   0.522   1.816  3.4261  0.1734 -0.4151
 1220SOL    HW215297   1.475   0.601   1.925 -0.7281 -1.2179  0.3830
 1221SOL     OW15298   2.028   2.055   8.821  0.2530  0.0434  0.1575
 1221SOL    HW115299   2.031   1.972   8.869  2.1118  0.9674  1.6729
 1221SOL    HW215300   2.064   2.037   8.734 -0.7500  2.1706 -0.6785
 1222SOL     OW15301   2.675   2.538   2.857  0.1297  1.1250 -0.1847
 1222SOL    HW115302   2.650   2.448   2.838 -0.3754  1.3327 -0.5033
 1222SOL    HW215303   2.753   2.537   2.801  0.6303  0.9446  0.5076
 1223SOL     OW15304   3.693   4.549   9.451  0.0795  0.2626  0.2393
 1223SOL    HW115305   3.706   4.456   9.474  0.8780  0.0422 -1.0790
 1223SOL    HW215306   3.634   4.538   9.377  3.1430 -0.9841 -2.0231
 1224SOL     OW15307   3.194   3.127   8.301  0.7223 -0.3784  0.1856
 1224SOL    HW115308   3.220   3.102   8.212  0.2604 -1.7747  0.4457
 1224SOL    HW215309   3.144   3.047   8.317  0.6898 -0.3253  0.3487
 1225SOL     OW15310   0.034   0.905   7.906 -0.1396 -0.4132  0.2240
 1225SOL    HW115311   0.125   0.932   7.918  0.2207 -1.5490  0.0512
 1225SOL    HW215312   0.044   0.812   7.889  1.4527  0.1916 -2.2063
 1226SOL     OW15313   0.902   1.530  13.088  0.0355  0.0467  0.1548
 1226SOL    HW115314   0.901   1.487  13.002 -2.0612  1.0461 -0.3289
 1226SOL    HW215315   0.807   1.537  13.090  0.0174 -0.4071  0.6973
 1227SOL     OW15316   1.268   1.290  10.244 -0.3518 -0.7150 -0.5761
 1227SOL    HW115317   1.207   1.216  10.251  0.3209 -1.1998  0.1319
 1227SOL    HW215318   1.220   1.360  10.289 -0.0637 -0.7952 -0.1467
 1228SOL     OW15319   0.274   4.142   2.794 -0.1848  0.2182 -0.7071
 1228SOL    HW115320   0.302   4.117   2.882 -0.1347  0.4215 -0.6664
 1228SOL    HW215321   0.334   4.214   2.778  0.3532 -0.0722 -0.0174
 1229SOL     OW15322   2.795   2.556  14.791  0.3829  0.3530  0.6243
 1229SOL    HW115323   2.783   2.651  14.790  0.3584  0.3138 -2.3390
 1229SOL    HW215324   2.852   2.546  14.868  0.6693  1.5072  0.5717
 1230SOL     OW15325   0.622   0.127  16.110  0.3476 -0.0812 -0.0079
 1230SOL    HW115326   0.569   0.133  16.190  0.6996 -0.8592  0.2789
 1230SOL    HW215327   0.560   0.150  16.041  1.3730  2.5822 -0.0662
 1231SOL     OW15328   0.774   3.085  13.285  0.3059  0.0056  0.3141
 1231SOL    HW115329   0.866   3.088  13.311 -0.0191 -0.3151  1.5192
 1231SOL    HW215330   0.727   3.025  13.344  1.7984 -1.0416  0.4195
 1232SOL     OW15331   1.596   2.391   2.100 -0.1870  0.0725  0.0836
 1232SOL    HW115332   1.646   2.417   2.024 -1.0149  0.6788 -0.2583
 1232SOL    HW215333   1.513   2.370   2.057 -0.0025  0.9624 -0.6895
 1233SOL     OW15334   3.581   3.146   4.394  0.3049  0.4789 -0.1046
 1233SOL    HW115335   3.535   3.067   4.364  1.1634  0.1381 -0.5365
 1233SOL    HW215336   3.499   3.194   4.405 -0.1443 -0.0143 -1.3118
 1234SOL     OW15337   0.131   4.098   8.355  0.5691 -0.0613  0.1267
 1234SOL    HW115338   0.095   4.100   8.266 -1.4681  0.3605  0.9609
 1234SOL    HW215339   0.202   4.162   8.345  0.5237 -0.0819 -0.3360
 1235SOL     OW15340   4.522   2.453   4.403  0.0841 -0.3468 -0.1993
 1235SOL    HW115341   4.481   2.462   4.317 -3.6188  0.1790  1.6198
 1235SOL    HW215342   4.454   2.432   4.467  0.3573  1.5228  0.7085
 1236SOL     OW15343   1.627   4.132   0.597  0.0294  0.7822 -0.3784
 1236SOL    HW115344   1.723   4.128   0.597  0.0015 -0.0330  0.8450
 1236SOL    HW215345   1.606   4.078   0.674 -0.1611 -2.3335 -2.6250
 1237SOL     OW15346   0.723   3.276   6.435  0.4311  0.5299 -0.2022
 1237SOL    HW115347   0.791   3.283   6.502  1.3912  0.8777 -1.2200
 1237SOL    HW215348   0.658   3.343   6.455  0.5722 -0.4043  3.2937
 1238SOL     OW15349   1.793   2.198  13.742  1.0012  0.3638 -0.1396
 1238SOL    HW115350   1.782   2.276  13.795 -2.0391 -0.2246  0.0683
 1238SOL    HW215351   1.762   2.223  13.655  0.4468  2.0172  0.5462
 1239SOL     OW15352   3.976   2.643   1.287 -0.7931  0.0316  0.4431
 1239SOL    HW115353   3.899   2.590   1.264  0.0314 -0.6485 -0.7432
 1239SOL    HW215354   3.935   2.729   1.290  0.2102  0.5648 -1.1164
 1240SOL     OW15355   1.528   4.116   5.154 -0.1048  0.0376  0.4429
 1240SOL    HW115356   1.573   4.079   5.078  0.2763  1.3861  0.0042
 1240SOL    HW215357   1.538   4.208   5.128 -1.2108  0.2751  0.8771
 1241SOL     OW15358   1.636   3.466   2.726 -0.1151  0.3641  0.0929
 1241SOL    HW115359   1.730   3.445   2.723 -0.6230 -2.2362  1.8370
 1241SOL    HW215360   1.645   3.485   2.820 -0.5605 -0.2889  0.2713
 1242SOL     OW15361   2.054   1.222   4.147 -0.0181  0.2698 -0.1017
 1242SOL    HW115362   2.086   1.136   4.174  1.4431  0.6373 -0.6363
 1242SOL    HW215363   1.982   1.210   4.085  0.9602 -0.5328 -1.0797
 1243SOL     OW15364   2.167   2.711   4.360  0.0959  0.3675 -0.0307
 1243SOL    HW115365   2.191   2.768   4.433  0.0481 -0.6136  0.7408
 1243SOL    HW215366   2.089   2.674   4.402 -0.9604  0.4386 -1.9203
 1244SOL     OW15367   4.603   2.651  14.894 -0.1781  0.1145  0.2136
 1244SOL    HW115368   4.657   2.608  14.827  0.7438 -0.9342  1.6277
 1244SOL    HW215369   4.659   2.723  14.923  1.8878 -1.3280 -0.2247
 1245SOL     OW15370   0.542   4.246   3.405 -0.2703 -0.4512  0.2149
 1245SOL    HW115371   0.584   4.329   3.381  0.6736 -1.0082 -0.0509
 1245SOL    HW215372   0.511   4.254   3.495 -0.1582 -0.7064  0.2742
 1246SOL     OW15373   3.061   3.901   7.268  0.1735 -0.0255  0.0652
 1246SOL    HW115374   3.150   3.936   7.271 -0.1665  0.7730  0.9430
 1246SOL    HW215375   3.012   3.978   7.238  0.0595 -0.5433 -1.0940
 1247SOL     OW15376   0.948   2.839   4.927 -0.3033  0.8589  0.1631
 1247SOL    HW115377   0.890   2.763   4.931  0.8458 -0.0449 -0.2257
 1247SOL    HW215378   0.914   2.883   4.849  0.0820  0.9176  0.0283
 1248SOL     OW15379   1.105   3.648   5.928 -0.4968  0.0635  0.3475
 1248SOL    HW115380   1.065   3.735   5.934 -0.5279  0.0439  0.4129
 1248SOL    HW215381   1.045   3.594   5.979 -0.0551 -1.2725 -0.5300
 1249SOL     OW15382   1.469   3.899  13.714  0.1803 -0.5367 -0.1298
 1249SOL    HW115383   1.410   3.974  13.709  0.9209  0.1303  1.0818
 1249SOL    HW215384   1.471   3.875  13.621  3.2749 -0.1073 -0.1511
 1250SOL     OW15385   0.728   3.547   5.908  0.8385 -0.2845  0.0826
 1250SOL    HW115386   0.661   3.492   5.947 -0.9668 -0.9285 -3.8747
 1250SOL    HW215387   0.805   3.528   5.962 -0.6751 -0.3007  2.2371
 1251SOL     OW15388   2.111   3.109  12.729  0.3654  0.5717 -0.6579
 1251SOL    HW115389   2.165   3.145  12.799  0.9887 -0.5000 -0.5787
 1251SOL    HW215390   2.044   3.053  12.768 -0.0769  2.1774  0.8337
 1252SOL     OW15391   0.047   0.406  14.406 -0.1274 -0.1685 -0.1421
 1252SOL    HW115392   0.070   0.397  14.499 -0.3477 -1.6693 -0.2402
 1252SOL    HW215393   0.120   0.354  14.372 -1.6449 -0.1863 -3.3284
 1253SOL     OW15394   3.004   3.377  13.284 -0.0599 -0.0827  0.3547
 1253SOL    HW115395   3.028   3.332  13.203  0.5578  2.0477 -0.6503
 1253SOL    HW215396   2.923   3.419  13.254  0.1665  1.2936  1.6771
 1254SOL     OW15397   2.797   3.063   6.084  0.2466  1.0520  0.2655
 1254SOL    HW115398   2.785   3.052   5.990  3.0795  0.6210 -0.0642
 1254SOL    HW215399   2.813   3.157   6.079 -0.5091  1.0365 -2.2893
 1255SOL     OW15400   3.012   4.383  14.381 -0.1856 -0.7289  0.0063
 1255SOL    HW115401   3.044   4.371  14.292  0.2084 -1.0620  0.1945
 1255SOL    HW215402   3.095   4.399  14.425  0.1093 -1.9528 -0.1230
 1256SOL     OW15403   2.302   4.321   9.720 -0.0149 -0.3978 -0.6266
 1256SOL    HW115404   2.274   4.396   9.772  0.3445 -1.1136  0.6019
 1256SOL    HW215405   2.238   4.251   9.735  0.7416 -1.0503 -0.4773
 1257SOL     OW15406   0.482   2.412   8.246  0.1670  0.1508  0.2751
 1257SOL    HW115407   0.439   2.403   8.331  1.0363  0.8040  0.7781
 1257SOL    HW215408   0.427   2.357   8.190  2.1014 -0.9421 -0.5445
 1258SOL     OW15409   4.505   3.804   4.507 -0.0654  0.0030 -0.1938
 1258SOL    HW115410   4.472   3.752   4.579  2.8181  0.5324  1.4870
 1258SOL    HW215411   4.490   3.754   4.427 -1.1047  0.1160 -0.0690
 1259SOL     OW15412   2.721   0.302  12.497  0.2913 -0.0252  0.3854
 1259SOL    HW115413   2.688   0.213  12.483  0.8505 -0.2511  0.5075
 1259SOL    HW215414   2.641   0.343  12.529  1.4628  1.0892  1.8738
 1260SOL     OW15415   3.139   0.960  13.163  0.1670 -0.1435  0.1540
 1260SOL    HW115416   3.078   0.963  13.088  0.2316 -1.0826  0.0651
 1260SOL    HW215417   3.107   1.040  13.205  1.8031 -0.3062  1.6750
 1261SOL     OW15418   1.959   0.943  12.219  0.2249  0.0012 -0.1174
 1261SOL    HW115419   1.966   1.037  12.205  0.2671  0.2733  1.7888
 1261SOL    HW215420   1.947   0.944  12.314  0.2595  0.2043 -0.1159
 1262SOL     OW15421   0.746   0.264   4.729  0.2270 -0.3912  0.1203
 1262SOL    HW115422   0.697   0.316   4.792  0.5786  1.1440 -0.8706
 1262SOL    HW215423   0.772   0.338   4.674  0.7201 -0.4407  0.2871
 1263SOL     OW15424   1.221   2.498   0.536  0.2565  0.1930  0.2994
 1263SOL    HW115425   1.145   2.553   0.518  1.0173  1.6916  1.6488
 1263SOL    HW215426   1.270   2.560   0.590  1.3160  0.2919 -0.7777
 1264SOL     OW15427   2.292   4.664   4.877 -0.1671 -0.1823  0.0568
 1264SOL    HW115428   2.341   4.704   4.805 -0.5042 -3.6212 -2.0427
 1264SOL    HW215429   2.354   4.683   4.948 -1.8339 -1.6701  1.8713
 1265SOL     OW15430   3.949   0.905  16.447 -0.5455 -0.3229 -0.6240
 1265SOL    HW115431   4.021   0.925  16.507 -1.4461 -0.5377  0.5433
 1265SOL    HW215432   3.870   0.908  16.501 -1.1041 -0.1032 -1.4645
 1266SOL     OW15433   1.924   4.280  10.638  0.5747  0.1543 -0.1600
 1266SOL    HW115434   1.990   4.231  10.687 -0.7025 -1.6509 -0.2518
 1266SOL    HW215435   1.924   4.359  10.692 -1.1900  0.4645 -0.6355
 1267SOL     OW15436   4.170   1.799   8.176 -0.6312  0.5487  0.5188
 1267SOL    HW115437   4.190   1.775   8.266 -1.0253 -0.0451  0.4518
 1267SOL    HW215438   4.095   1.739   8.171 -0.5280  0.1936  3.1780
 1268SOL     OW15439   2.154   3.051   9.187 -0.4540  0.2762  0.1601
 1268SOL    HW115440   2.224   3.084   9.131 -1.6661  2.6964  0.0731
 1268SOL    HW215441   2.183   2.960   9.197  0.2658  0.2998 -1.7601
 1269SOL     OW15442   4.728   1.493   1.379  0.2152 -0.1860  0.0077
 1269SOL    HW115443   0.007   1.585   1.398  1.7310 -0.4397  0.0197
 1269SOL    HW215444   0.081   1.466   1.357  1.2092  1.4855  1.9191
 1270SOL     OW15445   0.968   4.124  10.735 -0.1215  0.1944  0.0383
 1270SOL    HW115446   1.058   4.138  10.703 -0.1660  1.1796  0.3732
 1270SOL    HW215447   0.919   4.144  10.655  1.3196 -2.7107 -1.5813
 1271SOL     OW15448   0.074   0.124   0.869  0.2905  0.0789 -0.3214
 1271SOL    HW115449   0.111   0.145   0.955 -0.0977 -1.4529  0.2362
 1271SOL    HW215450   0.045   0.211   0.841 -2.1921  0.0676  2.1813
 1272SOL     OW15451   2.382   0.286   0.435  0.4159  0.4899 -0.0286
 1272SOL    HW115452   2.418   0.373   0.420  0.7136  0.2485 -0.6996
 1272SOL    HW215453   2.459   0.237   0.464 -0.5922 -1.8205 -1.2588
 1273SOL     OW15454   1.319   2.197   6.110 -0.6043  0.0861  0.2413
 1273SOL    HW115455   1.235   2.232   6.140 -0.1918  0.7341  0.6480
 1273SOL    HW215456   1.318   2.220   6.016 -1.9313 -0.3690  0.1384
 1274SOL     OW15457   4.233   2.851   4.982  0.1533  0.5037 -0.2771
 1274SOL    HW115458   4.296   2.791   5.022 -1.7725 -0.1028  1.7934
 1274SOL    HW215459   4.166   2.852   5.050  0.9567 -1.5142  0.5448
 1275SOL     OW15460   4.253   4.612   4.677 -0.4733 -0.0040 -0.0039
 1275SOL    HW115461   4.255   4.525   4.717  1.8266  0.0816  0.0729
 1275SOL    HW215462   4.197   4.668   4.731 -1.0271 -0.5318 -0.0290
 1276SOL     OW15463   0.926   1.967  10.376 -0.6723  0.5041  0.9714
 1276SOL    HW115464   0.928   2.058  10.407  0.4033  0.9531 -0.4101
 1276SOL    HW215465   0.851   1.977  10.317  0.3569  0.0705 -0.3950
 1277SOL     OW15466   2.226   3.077   2.865  0.3496 -0.4767 -0.0892
 1277SOL    HW115467   2.294   3.136   2.897  1.5561 -1.0421 -1.6371
 1277SOL    HW215468   2.151   3.106   2.917 -0.0632  0.6683 -1.3282
 1278SOL     OW15469   3.247   0.474  12.263 -0.7790 -0.1915 -0.1853
 1278SOL    HW115470   3.260   0.451  12.355 -2.3713  1.1627  0.3873
 1278SOL    HW215471   3.243   0.569  12.253  2.8631 -0.0170  0.1044
 1279SOL     OW15472   4.108   3.876   7.727  0.1110 -0.5536 -0.2270
 1279SOL    HW115473   4.029   3.872   7.674  0.6511 -1.0800 -0.9926
 1279SOL    HW215474   4.167   3.822   7.675  0.3382  0.3609 -0.9146
 1280SOL     OW15475   4.441   2.508   4.155 -0.9448  0.0691  0.3970
 1280SOL    HW115476   4.358   2.543   4.190 -1.4456 -0.5961 -0.1181
 1280SOL    HW215477   4.436   2.570   4.082 -0.3617  3.3222  3.1111
 1281SOL     OW15478   1.607   3.560   2.467 -0.9264 -1.1035  0.0489
 1281SOL    HW115479   1.655   3.493   2.419  0.0565  0.5252 -1.2815
 1281SOL    HW215480   1.629   3.534   2.556 -0.8776 -0.1588  0.3167
 1282SOL     OW15481   3.494   2.670   4.499 -0.7678  0.5799 -0.0281
 1282SOL    HW115482   3.556   2.709   4.561  1.1801 -0.6636 -1.2284
 1282SOL    HW215483   3.456   2.593   4.541  0.2764 -0.6804 -1.4453
 1283SOL     OW15484   4.708   1.789  13.513 -0.1965  0.5937  0.0366
 1283SOL    HW115485   0.045   1.805  13.453 -0.0317 -0.9947 -0.1841
 1283SOL    HW215486   4.723   1.851  13.585  1.8718 -1.0326  1.0007
 1284SOL     OW15487   3.609   2.895   3.364 -0.4830 -0.0188 -0.0595
 1284SOL    HW115488   3.594   2.989   3.378 -1.1515 -0.2468  0.8107
 1284SOL    HW215489   3.560   2.872   3.285  0.7839  0.3312 -0.9408
 1285SOL     OW15490   1.506   3.572  17.237 -0.9839  0.3242 -0.1905
 1285SOL    HW115491   1.537   3.570  17.146 -1.2699 -0.0131 -0.2778
 1285SOL    HW215492   1.490   3.480  17.257  1.0585  0.5261  2.4904
 1286SOL     OW15493   0.718   3.341   8.128  0.3210 -0.4016  0.0132
 1286SOL    HW115494   0.739   3.248   8.116 -1.0300 -0.9121  1.4576
 1286SOL    HW215495   0.695   3.357   8.037  0.1060  2.1866  0.5346
 1287SOL     OW15496   4.073   3.574  13.383 -0.6900  0.5669  0.3326
 1287SOL    HW115497   4.148   3.620  13.344  0.4593 -0.3842  1.4041
 1287SOL    HW215498   4.125   3.527  13.448  1.4609  1.9169 -0.3812
 1288SOL     OW15499   4.333   4.121   9.331  0.0668 -0.4611 -0.5941
 1288SOL    HW115500   4.369   4.208   9.319  1.1800 -0.9552 -0.8038
 1288SOL    HW215501   4.276   4.108   9.254 -2.9529 -1.3072  1.7721
 1289SOL     OW15502   2.605   0.179   0.537  0.6788 -0.2355  0.0283
 1289SOL    HW115503   2.690   0.136   0.525 -0.0224 -1.4698 -0.5712
 1289SOL    HW215504   2.607   0.187   0.632  0.7148  1.2078 -0.0972
 1290SOL     OW15505   3.689   1.383   6.816 -0.1928  0.4355 -0.0691
 1290SOL    HW115506   3.765   1.442   6.816  0.4335 -0.3866 -1.5046
 1290SOL    HW215507   3.722   1.309   6.765 -1.0936 -0.6610  0.9393
 1291SOL     OW15508   2.340   4.448   7.504  0.0456 -0.2643 -0.1703
 1291SOL    HW115509   2.256   4.404   7.493 -0.0275 -0.4429  1.0841
 1291SOL    HW215510   2.391   4.367   7.515  1.9369  0.6654 -2.0289
 1292SOL     OW15511   3.830   0.206  13.163  0.5179 -0.1952  0.2761
 1292SOL    HW115512   3.901   0.266  13.183  1.7815 -1.7877  0.5370
 1292SOL    HW215513   3.757   0.266  13.179  0.3699 -0.4209  0.4573
 1293SOL     OW15514   1.276   3.935   0.199 -0.3409 -0.5198  0.0227
 1293SOL    HW115515   1.310   3.851   0.229 -0.0421 -0.2582  0.4062
 1293SOL    HW215516   1.358   3.970   0.165  0.7844 -0.9161  2.3587
 1294SOL     OW15517   1.933   3.407   4.200  0.5235  0.1783  0.1179
 1294SOL    HW115518   1.919   3.399   4.295 -0.1202 -1.4043 -0.1127
 1294SOL    HW215519   1.998   3.477   4.203  0.1755  0.5596 -1.6322
 1295SOL     OW15520   2.490   4.712   3.415 -0.4030  0.4122  0.2482
 1295SOL    HW115521   2.580   0.008   3.410  1.2644 -4.4182 -1.6446
 1295SOL    HW215522   2.471   4.694   3.507  0.7410 -0.0270  0.4045
 1296SOL     OW15523   3.879   3.400   7.430 -0.9669  0.0053 -0.4386
 1296SOL    HW115524   3.803   3.366   7.382 -1.3026 -0.3653  0.3576
 1296SOL    HW215525   3.893   3.330   7.494 -1.2916  2.1236  1.9719
 1297SOL     OW15526   0.196   3.223   4.765  0.2574  0.0727  0.0299
 1297SOL    HW115527   0.243   3.206   4.847 -0.6480  1.1390  0.7780
 1297SOL    HW215528   0.133   3.152   4.751  1.1813 -0.7767  0.1613
 1298SOL     OW15529   2.141   3.853   4.808 -0.0901 -0.0291  0.1602
 1298SOL    HW115530   2.163   3.787   4.741  2.1377  0.9276 -0.0554
 1298SOL    HW215531   2.096   3.799   4.873 -0.2448 -1.2121 -0.9288
 1299SOL     OW15532   3.111   1.077   3.003 -0.0914  0.3113 -0.6881
 1299SOL    HW115533   3.028   1.050   2.964 -0.1275  0.9882 -1.0800
 1299SOL    HW215534   3.094   1.171   3.006 -1.7036 -0.0031 -0.1721
 1300SOL     OW15535   3.775   2.705   9.981  0.0891 -0.3067  0.5509
 1300SOL    HW115536   3.704   2.650  10.015 -1.1094 -0.2832 -1.9059
 1300SOL    HW215537   3.740   2.789  10.012 -0.5601 -0.5212  0.4027
 1301SOL     OW15538   2.479   0.450   8.164 -0.1189  0.4156  0.0166
 1301SOL    HW115539   2.460   0.541   8.140  1.8065  0.6289 -0.6755
 1301SOL    HW215540   2.396   0.426   8.206  0.2544  0.4431  0.7636
 1302SOL     OW15541   2.358   1.190   7.840  0.0919  0.1777 -0.4578
 1302SOL    HW115542   2.344   1.234   7.924 -1.4280  1.9853 -1.6458
 1302SOL    HW215543   2.277   1.142   7.820 -0.1532  1.3739 -2.3528
 1303SOL     OW15544   3.883   2.928  14.258  0.6438  0.6345  0.1406
 1303SOL    HW115545   3.815   2.945  14.192 -0.1356 -0.6455  0.6098
 1303SOL    HW215546   3.871   3.002  14.316  1.5492  0.5999  0.3668
 1304SOL     OW15547   2.818   3.379   6.191 -0.2495 -0.2998 -0.0198
 1304SOL    HW115548   2.741   3.337   6.229  0.0264 -0.1875  0.6761
 1304SOL    HW215549   2.788   3.449   6.134  1.6082  1.0932  0.7072
 1305SOL     OW15550   2.235   2.934   7.401  0.3120 -0.4507 -0.0899
 1305SOL    HW115551   2.276   2.848   7.400 -2.2004 -1.6631  0.3003
 1305SOL    HW215552   2.285   2.965   7.476 -1.7864  1.1401  0.6641
 1306SOL     OW15553   2.375   1.962   3.551 -0.4206 -0.6037  0.0131
 1306SOL    HW115554   2.439   1.898   3.523 -0.6807 -0.8802  0.0537
 1306SOL    HW215555   2.329   1.997   3.475  0.8026 -1.1163 -0.9497
 1307SOL     OW15556   4.198   2.993   5.504 -0.4415 -0.3157  0.1156
 1307SOL    HW115557   4.158   2.921   5.552 -2.5325  0.9199  0.1970
 1307SOL    HW215558   4.265   2.949   5.452 -0.6795  0.1260 -0.5597
 1308SOL     OW15559   3.654   0.261  15.791  0.5485  0.1191  0.1423
 1308SOL    HW115560   3.730   0.282  15.846  0.4308  0.8790  0.0072
 1308SOL    HW215561   3.582   0.283  15.849 -0.4964 -1.5865 -0.4888
 1309SOL     OW15562   4.184   0.036  14.716 -0.6831  0.0033  0.1341
 1309SOL    HW115563   4.142   0.004  14.636 -1.7930  0.9675  0.3244
 1309SOL    HW215564   4.105   0.046  14.768  0.4291  0.7924  1.6957
 1310SOL     OW15565   2.864   2.270   5.225  0.2417  0.3033  0.1354
 1310SOL    HW115566   2.916   2.242   5.301 -0.3622  1.8038  1.1002
 1310SOL    HW215567   2.843   2.357   5.260 -0.4393  0.8092 -1.5538
 1311SOL     OW15568   1.644   3.451   4.252  0.3343 -0.6016 -0.2006
 1311SOL    HW115569   1.575   3.484   4.194 -0.0363  0.3465  0.7856
 1311SOL    HW215570   1.664   3.366   4.213 -1.9044 -1.8212  1.3236
 1312SOL     OW15571   1.347   0.957  17.620 -0.2341 -0.0914  0.2194
 1312SOL    HW115572   1.256   0.929  17.609  0.1132 -1.3694  0.6566
 1312SOL    HW215573   1.368   0.971  17.528 -1.5551  0.0029 -0.0621
 1313SOL     OW15574   0.506   1.829   5.795  0.4218 -0.0091 -0.1125
 1313SOL    HW115575   0.521   1.893   5.725  0.0263 -3.2696 -3.1997
 1313SOL    HW215576   0.596   1.797   5.804  0.9760  1.0178 -2.0022
 1314SOL     OW15577   1.581   2.496   8.754  0.4220 -0.0142 -0.6769
 1314SOL    HW115578   1.492   2.509   8.787  0.4988 -0.0852 -0.4469
 1314SOL    HW215579   1.565   2.493   8.660 -0.2057 -0.7914 -0.5414
 1315SOL     OW15580   0.490   2.089  11.031 -0.2131  0.1983  0.0518
 1315SOL    HW115581   0.497   2.008  10.979  1.2236  0.6942 -0.5091
 1315SOL    HW215582   0.421   2.063  11.092 -1.5812  0.4798 -1.3762
 1316SOL     OW15583   1.147   1.354  17.045 -0.0111  0.5542 -0.0216
 1316SOL    HW115584   1.136   1.282  16.982  0.7514  1.6405 -1.4139
 1316SOL    HW215585   1.242   1.351  17.058  0.5843  2.4506 -3.8621
 1317SOL     OW15586   2.839   1.470   2.155 -0.3679 -0.2811  0.2555
 1317SOL    HW115587   2.767   1.442   2.212  2.4245 -0.4907  3.6577
 1317SOL    HW215588   2.846   1.564   2.170  2.8075 -0.4847  0.0914
 1318SOL     OW15589   2.225   2.218   1.635  0.0703  0.2290  0.2579
 1318SOL    HW115590   2.291   2.155   1.607 -0.7579  0.7062 -2.7257
 1318SOL    HW215591   2.149   2.170   1.601 -0.1409 -0.3408  1.4978
 1319SOL     OW15592   4.063   3.106  12.205  0.0375 -0.7062  0.6029
 1319SOL    HW115593   4.086   3.014  12.215  0.0424 -0.5881  1.5924
 1319SOL    HW215594   4.119   3.128  12.130  2.2800 -0.9517  2.1957
 1320SOL     OW15595   2.311   2.340   5.650  0.1058  0.0381  1.2659
 1320SOL    HW115596   2.337   2.258   5.609 -1.8393 -0.2139  0.5609
 1320SOL    HW215597   2.216   2.333   5.641 -0.1037  1.3563  2.4114
 1321SOL     OW15598   3.524   2.937   2.194  0.0317 -0.1148 -0.1559
 1321SOL    HW115599   3.515   3.032   2.203 -0.1432 -0.3416  2.0311
 1321SOL    HW215600   3.569   2.928   2.110 -0.1976  0.3458 -0.3308
 1322SOL     OW15601   3.450   4.044  12.904  0.7127  0.1423  0.2416
 1322SOL    HW115602   3.537   4.030  12.867  1.1485  0.3762  1.1955
 1322SOL    HW215603   3.456   4.110  12.973 -4.2142  0.5884  0.2237
 1323SOL     OW15604   1.141   3.565   2.419 -0.6534 -0.1309 -0.4979
 1323SOL    HW115605   1.222   3.598   2.460 -0.6995 -2.8617  1.7777
 1323SOL    HW215606   1.171   3.572   2.329  2.2653  2.2317  0.6415
 1324SOL     OW15607   3.946   3.720  10.752  0.0070 -0.3624  0.3858
 1324SOL    HW115608   4.032   3.759  10.766 -0.7121  1.5760 -0.6069
 1324SOL    HW215609   3.894   3.799  10.742  1.3102  0.6075  1.2677
 1325SOL     OW15610   3.402   0.909   5.897 -0.8758 -0.6486 -0.7574
 1325SOL    HW115611   3.421   1.000   5.921 -1.6183 -1.0892  1.4549
 1325SOL    HW215612   3.474   0.877   5.951 -2.4145 -2.5104  0.2113
 1326SOL     OW15613   1.210   2.175   3.011  0.3651 -0.3056 -0.1200
 1326SOL    HW115614   1.230   2.268   3.012 -0.3686 -0.1427 -0.5024
 1326SOL    HW215615   1.153   2.157   2.936 -1.9471  3.1633  0.8291
 1327SOL     OW15616   4.187   4.396   0.543 -0.4059  0.3702 -0.1232
 1327SOL    HW115617   4.178   4.303   0.524 -0.1649  0.0209  1.4300
 1327SOL    HW215618   4.169   4.432   0.456 -2.4496  0.4284  0.3222
 1328SOL     OW15619   2.224   3.174   1.871  0.2340  0.4000 -0.1486
 1328SOL    HW115620   2.155   3.157   1.935 -1.3703  1.2830 -1.6221
 1328SOL    HW215621   2.171   3.177   1.791 -0.9701 -1.6824  0.5719
 1329SOL     OW15622   4.428   1.739  12.767 -0.2697 -0.0334 -0.3222
 1329SOL    HW115623   4.450   1.773  12.681  0.6911  2.1896  0.8068
 1329SOL    HW215624   4.439   1.646  12.750 -2.1710 -0.0869 -1.3279
 1330SOL     OW15625   0.771   2.721   5.588  0.1760 -0.3764 -0.2194
 1330SOL    HW115626   0.735   2.706   5.501  0.5711 -0.1736 -0.4136
 1330SOL    HW215627   0.728   2.806   5.602 -2.3801 -1.9332  1.3457
 1331SOL     OW15628   3.876   2.261   5.739 -0.4071  0.3554 -0.1367
 1331SOL    HW115629   3.807   2.241   5.802  1.5426  0.2026  1.9276
 1331SOL    HW215630   3.844   2.227   5.655  0.0638  3.8339 -1.6999
 1332SOL     OW15631   2.292   4.558   5.842 -0.8722 -0.2553  0.4123
 1332SOL    HW115632   2.212   4.563   5.790 -1.3631  1.9235  1.3598
 1332SOL    HW215633   2.273   4.482   5.897 -1.0052  0.0619  0.8072
 1333SOL     OW15634   0.773   4.461   3.348 -0.3889  0.5641  0.5445
 1333SOL    HW115635   0.825   4.535   3.380 -1.2863  0.8696  1.2775
 1333SOL    HW215636   0.826   4.388   3.382  0.7727  1.4138  0.5428
 1334SOL     OW15637   4.579   2.715  17.059  0.2385 -0.8704 -1.0811
 1334SOL    HW115638   4.544   2.802  17.037 -0.6787 -0.9061  0.2214
 1334SOL    HW215639   4.632   2.692  16.983  0.0551 -0.2324 -1.4012
 1335SOL     OW15640   1.874   3.975   1.220  0.2377  0.8019  0.1247
 1335SOL    HW115641   1.925   4.049   1.252  1.1095 -0.0584  0.7256
 1335SOL    HW215642   1.866   3.938   1.308 -0.4674 -1.5899 -0.9524
 1336SOL     OW15643   0.385   1.067   4.137 -0.4667 -0.1753  0.3116
 1336SOL    HW115644   0.304   1.046   4.183 -0.9103  0.6615 -0.1057
 1336SOL    HW215645   0.428   1.113   4.209  1.6113  0.0820 -1.0673
 1337SOL     OW15646   4.289   3.583  11.470 -0.6974  0.0624  0.0237
 1337SOL    HW115647   4.287   3.677  11.451  1.5985 -0.4708 -2.7398
 1337SOL    HW215648   4.380   3.573  11.495 -0.8923  0.7466  1.0147
 1338SOL     OW15649   4.144   0.651  16.897 -0.0027  0.2974  0.1917
 1338SOL    HW115650   4.211   0.675  16.961  1.9166 -1.1291 -1.2906
 1338SOL    HW215651   4.127   0.736  16.856 -1.2230 -1.0891 -2.2062
 1339SOL     OW15652   3.606   3.381   5.236  0.3918 -0.6413 -0.6222
 1339SOL    HW115653   3.655   3.322   5.178  2.0479  1.8329 -1.7279
 1339SOL    HW215654   3.683   3.421   5.277 -0.4817 -0.7823  1.1641
 1340SOL     OW15655   0.884   1.764   1.970  0.0395 -0.2133 -0.3529
 1340SOL    HW115656   0.817   1.784   1.905 -0.5725  0.4398  0.4841
 1340SOL    HW215657   0.835   1.728   2.044  0.6781 -2.0668 -0.8325
 1341SOL     OW15658   4.170   1.849   7.894  0.2332 -0.4502  0.2658
 1341SOL    HW115659   4.262   1.837   7.917  0.8008 -0.7216 -2.1465
 1341SOL    HW215660   4.135   1.815   7.976 -0.0511  2.4145  1.3333
 1342SOL     OW15661   0.400   2.026   2.499 -0.1907 -0.3838  0.3043
 1342SOL    HW115662   0.336   2.006   2.568 -2.3903  1.0430 -1.3450
 1342SOL    HW215663   0.480   1.981   2.528  0.3840 -0.1604 -0.9271
 1343SOL     OW15664   3.699   2.187   3.038 -0.5054  0.1735  0.5886
 1343SOL    HW115665   3.661   2.275   3.035  3.0620  1.7360  0.5372
 1343SOL    HW215666   3.619   2.138   3.058 -0.9491  0.9820  0.8006
 1344SOL     OW15667   0.546   0.553   8.511 -0.3819  0.1574  0.1365
 1344SOL    HW115668   0.560   0.647   8.513  3.0130 -0.3113 -0.3868
 1344SOL    HW215669   0.606   0.523   8.580 -1.0291  0.3797  0.8002
 1345SOL     OW15670   0.079   3.706  16.176 -0.2665 -0.3569 -0.3220
 1345SOL    HW115671   0.097   3.673  16.088  2.5194  0.4506 -0.0471
 1345SOL    HW215672   4.727   3.670  16.186 -0.2584 -0.5456 -0.8911
 1346SOL     OW15673   3.916   2.347  12.871 -0.2498 -0.7085  0.1115
 1346SOL    HW115674   3.945   2.397  12.795 -1.0149 -0.7288 -0.1879
 1346SOL    HW215675   3.966   2.383  12.945  1.5863 -0.4046 -1.2876
 1347SOL     OW15676   1.179   3.093   6.497 -0.6316  0.0113 -0.2084
 1347SOL    HW115677   1.219   3.007   6.513 -0.7788  0.3116  1.8638
 1347SOL    HW215678   1.105   3.085   6.557 -0.8184 -0.2863 -0.4806
 1348SOL     OW15679   1.206   4.093   2.020  0.6882  0.4898  0.0453
 1348SOL    HW115680   1.291   4.108   1.979 -0.2680  0.0694 -2.0836
 1348SOL    HW215681   1.173   4.022   1.965  0.3133 -0.5808  1.6361
 1349SOL     OW15682   0.744   4.167   2.277  0.5696 -0.4335  0.0442
 1349SOL    HW115683   0.777   4.095   2.222 -1.1567 -1.6808  0.6424
 1349SOL    HW215684   0.663   4.185   2.231  0.1249  0.8943  1.3663
 1350SOL     OW15685   3.967   0.053  14.847 -0.0373 -0.0884  0.1545
 1350SOL    HW115686   3.880   0.019  14.825 -0.5506  0.3647  1.5078
 1350SOL    HW215687   3.949   0.054  14.941  2.6809  0.0979  0.6937
 1351SOL     OW15688   1.649   2.377   3.827 -0.2928  0.2648 -0.4757
 1351SOL    HW115689   1.721   2.366   3.765  0.3646  3.1133 -0.2125
 1351SOL    HW215690   1.573   2.362   3.770 -0.2086 -1.1871 -0.2129
 1352SOL     OW15691   2.098   4.462   2.932 -0.0338  0.2016 -0.1713
 1352SOL    HW115692   2.080   4.498   2.846  1.5725  1.4129 -0.0048
 1352SOL    HW215693   2.009   4.442   2.960 -1.6127  4.3668 -2.2114
 1353SOL     OW15694   1.498   0.328   3.366 -0.6539  0.1563 -0.4058
 1353SOL    HW115695   1.413   0.309   3.404 -0.8453  1.6950 -0.0923
 1353SOL    HW215696   1.561   0.326   3.438  0.1474 -0.3825 -1.1095
 1354SOL     OW15697   1.376   0.707   2.192  0.2671  0.5946  0.2399
 1354SOL    HW115698   1.312   0.685   2.260 -1.6985  1.6026 -1.2708
 1354SOL    HW215699   1.310   0.757   2.142  1.4147 -0.0432 -1.9200
 1355SOL     OW15700   1.173   2.098  16.546  0.0435  0.0522  0.4850
 1355SOL    HW115701   1.227   2.159  16.595  0.7894  0.5814 -0.9948
 1355SOL    HW215702   1.107   2.069  16.609  0.6789  1.0743  1.6143
 1356SOL     OW15703   3.651   3.378   3.556 -0.6134  0.0363  0.4703
 1356SOL    HW115704   3.740   3.346   3.574 -0.6610 -0.5720 -0.3822
 1356SOL    HW215705   3.606   3.308   3.604  1.2759 -1.1644  0.4918
 1357SOL     OW15706   0.513   1.310   4.727  0.2821 -0.6337 -0.9739
 1357SOL    HW115707   0.437   1.301   4.784  0.6545 -0.0756 -0.3871
 1357SOL    HW215708   0.471   1.354   4.654 -1.3787 -0.0122  0.3682
 1358SOL     OW15709   3.220   2.632   7.951  0.1681 -0.8108  0.2191
 1358SOL    HW115710   3.251   2.623   8.041  1.0923  0.9935  0.0615
 1358SOL    HW215711   3.250   2.720   7.930 -1.3555 -0.0464  1.2348
 1359SOL     OW15712   1.244   4.228  14.992  0.2388 -0.2413 -0.0685
 1359SOL    HW115713   1.229   4.248  14.900 -0.8796  0.0120  0.1662
 1359SOL    HW215714   1.161   4.189  15.020  1.0935 -0.7493  1.7573
 1360SOL     OW15715   3.157   1.137   3.783  0.0274  0.1417 -0.1220
 1360SOL    HW115716   3.175   1.222   3.744 -2.3582  0.2458 -0.9640
 1360SOL    HW215717   3.241   1.097   3.760 -0.3171 -0.5406 -0.2009
 1361SOL     OW15718   1.060   1.088  10.326  0.0863 -0.0186 -0.1512
 1361SOL    HW115719   0.971   1.078  10.290 -0.4520  0.9177  0.8912
 1361SOL    HW215720   1.049   1.054  10.415 -1.5419  0.4964 -0.1419
 1362SOL     OW15721   2.081   4.623   8.835  0.4893 -0.2045  0.3842
 1362SOL    HW115722   2.030   4.663   8.905  0.6338  0.3755  0.1517
 1362SOL    HW215723   2.032   4.541   8.822 -1.2952  0.5682  2.2779
 1363SOL     OW15724   3.253   2.840  11.239  0.0297 -0.2104  0.1481
 1363SOL    HW115725   3.345   2.820  11.256  0.1002  0.3230  0.3983
 1363SOL    HW215726   3.261   2.927  11.279  1.4014  1.1773 -3.1423
 1364SOL     OW15727   1.059   4.094   0.147  0.1868 -0.3817 -1.2863
 1364SOL    HW115728   1.024   4.111   0.234  0.6553 -0.6988 -1.0424
 1364SOL    HW215729   1.131   4.039   0.177  1.7127  3.1446  1.4965
 1365SOL     OW15730   4.389   1.801   4.022 -0.2829  0.5333  0.1199
 1365SOL    HW115731   4.374   1.815   3.929  1.8080  3.3893  0.1958
 1365SOL    HW215732   4.309   1.758   4.051  0.2511 -0.3299  0.2909
 1366SOL     OW15733   3.674   1.585   7.075  0.4728  0.2031  0.5610
 1366SOL    HW115734   3.763   1.556   7.056  0.8585  1.7619  0.0452
 1366SOL    HW215735   3.655   1.523   7.146 -1.1112 -2.2962 -2.0632
 1367SOL     OW15736   3.708   0.475   9.055  0.2181  0.5275  0.1524
 1367SOL    HW115737   3.659   0.395   9.037 -0.1731  0.9298 -0.5567
 1367SOL    HW215738   3.799   0.445   9.054 -0.5841 -1.8357 -0.1029
 1368SOL     OW15739   2.803   0.246   8.439 -0.4738  0.3035  0.0552
 1368SOL    HW115740   2.726   0.202   8.402  0.2545 -0.2324 -0.8196
 1368SOL    HW215741   2.873   0.229   8.376  1.1433  0.7123  1.7213
 1369SOL     OW15742   3.319   1.182   6.776 -0.3775 -0.0835 -0.2458
 1369SOL    HW115743   3.359   1.244   6.715 -0.3306  0.5705  0.4465
 1369SOL    HW215744   3.263   1.244   6.823 -1.2824 -2.0173  1.2165
 1370SOL     OW15745   1.485   3.184   4.978 -0.6426 -0.2441  0.1951
 1370SOL    HW115746   1.441   3.201   4.895  0.0261  1.2579  0.1531
 1370SOL    HW215747   1.471   3.264   5.029  1.0706  0.2567 -0.1380
 1371SOL     OW15748   0.588   2.132   6.403  0.6551  0.0271  0.0004
 1371SOL    HW115749   0.595   2.071   6.329  0.7503  0.7557 -0.5966
 1371SOL    HW215750   0.564   2.215   6.362  1.1423  0.8012  1.2873
 1372SOL     OW15751   2.546   4.304   6.755  0.1429 -0.0481 -0.6591
 1372SOL    HW115752   2.623   4.290   6.812  1.4216 -2.4070 -2.9259
 1372SOL    HW215753   2.586   4.344   6.678  2.9167 -2.3294 -0.4175
 1373SOL     OW15754   2.206   3.311  16.229 -0.5258 -0.1799  0.4557
 1373SOL    HW115755   2.140   3.324  16.297  0.8294  0.3681  1.6742
 1373SOL    HW215756   2.161   3.251  16.169  1.8911 -1.0812 -0.4520
 1374SOL     OW15757   0.013   2.916   6.283 -0.2071  0.2993  0.5947
 1374SOL    HW115758   4.682   2.941   6.220  0.2997  0.4535  0.1043
 1374SOL    HW215759   0.065   2.848   6.239  0.2356  0.2532  1.1942
 1375SOL     OW15760   3.645   3.951  10.484 -0.3055 -0.5319  0.5291
 1375SOL    HW115761   3.616   3.986  10.400 -1.9747  0.2859  1.4655
 1375SOL    HW215762   3.583   3.878  10.491 -1.1887  0.1143 -0.5630
 1376SOL     OW15763   2.396   3.999   4.934 -0.5081 -0.1753  1.1117
 1376SOL    HW115764   2.305   4.025   4.921 -0.9132 -2.0415  0.1737
 1376SOL    HW215765   2.445   4.081   4.920 -1.4225  0.2939  0.6711
 1377SOL     OW15766   4.483   4.155   8.514 -0.3444 -0.2158  0.5247
 1377SOL    HW115767   4.525   4.152   8.599 -0.0038  0.7402  0.3859
 1377SOL    HW215768   4.460   4.063   8.503  1.2888 -0.4387 -1.1243
 1378SOL     OW15769   4.152   3.324  13.047  0.1033  0.3099 -0.1291
 1378SOL    HW115770   4.188   3.246  13.005  0.7865  0.7521 -0.3724
 1378SOL    HW215771   4.117   3.287  13.128  1.1834  0.1122  0.2574
 1379SOL     OW15772   3.079   1.211  13.613 -0.4838 -0.1929  0.0508
 1379SOL    HW115773   3.007   1.149  13.628 -0.8181 -0.0562 -0.9783
 1379SOL    HW215774   3.032   1.291  13.590  1.5170  0.6989 -0.9344
 1380SOL     OW15775   0.032   1.894   3.475 -0.1982  0.8912 -0.2747
 1380SOL    HW115776   0.037   1.857   3.387 -1.9113 -0.4222  0.1945
 1380SOL    HW215777   0.030   1.813   3.527  2.1705  2.1362  1.7600
 1381SOL     OW15778   4.366   0.899   8.411 -0.1869  0.6756 -0.4907
 1381SOL    HW115779   4.305   0.970   8.430 -1.3577 -0.6845  0.7974
 1381SOL    HW215780   4.364   0.862   8.499  3.6070 -0.7699 -1.0302
 1382SOL     OW15781   2.582   3.375   4.399 -0.4848  0.1639 -0.2746
 1382SOL    HW115782   2.656   3.316   4.414 -0.0580  1.1958  1.8365
 1382SOL    HW215783   2.520   3.316   4.358  0.0195 -1.3669  1.1443
 1383SOL     OW15784   2.900   0.896   2.437  0.2146 -0.0369 -0.6849
 1383SOL    HW115785   2.962   0.824   2.442 -1.1591 -1.3045 -1.8150
 1383SOL    HW215786   2.962   0.967   2.422 -1.4117  1.1832 -1.6636
 1384SOL     OW15787   4.296   0.422   7.102  0.2044 -0.4245 -0.0259
 1384SOL    HW115788   4.298   0.394   7.011  2.0380 -1.0117  0.2073
 1384SOL    HW215789   4.207   0.404   7.135 -0.1900 -0.1374 -0.9426
 1385SOL     OW15790   2.147   4.564   6.226  0.4020 -0.3398 -0.2263
 1385SOL    HW115791   2.222   4.527   6.179  0.1624  0.6430 -1.3712
 1385SOL    HW215792   2.072   4.516   6.193 -0.1599  1.0249 -0.9579
 1386SOL     OW15793   3.131   4.338  12.593  0.0613  0.6215 -0.1909
 1386SOL    HW115794   3.167   4.425  12.575 -0.3164  0.6967 -0.5887
 1386SOL    HW215795   3.047   4.342  12.546 -0.5120  0.3205  0.8025
 1387SOL     OW15796   3.372   2.957  13.786  0.3682 -0.2487  0.3481
 1387SOL    HW115797   3.437   3.025  13.804  0.1813  0.4926 -1.7553
 1387SOL    HW215798   3.296   3.003  13.822  0.9707  1.2429 -0.2635
 1388SOL     OW15799   3.163   3.519   2.252  0.1893 -0.1205 -0.0261
 1388SOL    HW115800   3.112   3.459   2.197  2.2672 -1.0425 -0.9541
 1388SOL    HW215801   3.086   3.566   2.284 -0.8251 -3.4882  2.5398
 1389SOL     OW15802   3.869   0.034   3.839 -0.3640 -0.7402  0.2040
 1389SOL    HW115803   3.963   0.033   3.853 -0.5313 -0.3443  1.3716
 1389SOL    HW215804   3.834   0.081   3.915 -2.5344 -0.7106 -0.8093
 1390SOL     OW15805   4.087   2.023   3.151 -0.1375 -0.0835 -0.4553
 1390SOL    HW115806   4.024   2.076   3.200  1.7257  0.1171  1.6677
 1390SOL    HW215807   4.078   2.076   3.071  1.0264 -0.3809 -0.7774
 1391SOL     OW15808   2.046   2.346   2.010 -0.1037 -0.2313 -0.2618
 1391SOL    HW115809   2.034   2.252   1.996  0.3098 -0.4877  1.0704
 1391SOL    HW215810   1.971   2.377   1.960 -1.2082 -1.1041  0.8742
 1392SOL     OW15811   0.984   3.739   9.919  0.3085 -0.2850  0.0811
 1392SOL    HW115812   0.964   3.810   9.979 -2.2836 -1.4072  0.5653
 1392SOL    HW215813   1.078   3.726   9.928  0.0271 -1.4779  1.3618
 1393SOL     OW15814   3.571   3.624   5.125 -0.0505 -0.1868 -0.1024
 1393SOL    HW115815   3.599   3.684   5.194 -0.6679 -0.1312  0.0957
 1393SOL    HW215816   3.594   3.535   5.153 -0.0536  0.9686  3.5557
 1394SOL     OW15817   3.705   2.945  14.051  0.1842 -0.0819 -0.0241
 1394SOL    HW115818   3.618   2.925  14.017 -0.9411  2.7553  1.1667
 1394SOL    HW215819   3.735   3.020  13.999  1.0356 -0.7904 -0.5689
 1395SOL     OW15820   1.281   0.935   6.857  0.6131 -0.5209 -0.5699
 1395SOL    HW115821   1.208   0.924   6.795  0.1081  0.0738 -0.0756
 1395SOL    HW215822   1.341   0.861   6.845  2.2433  0.7284 -0.0316
 1396SOL     OW15823   4.331   3.005   7.660 -0.2284  0.0400 -0.1765
 1396SOL    HW115824   4.306   2.916   7.634  0.5635  0.1925 -1.4885
 1396SOL    HW215825   4.426   2.992   7.653 -0.2406  0.1595 -0.5336
 1397SOL     OW15826   4.352   2.713   3.955  0.0942  0.3457 -0.0599
 1397SOL    HW115827   4.369   2.679   3.867 -0.1874  1.5474 -0.5890
 1397SOL    HW215828   4.259   2.734   3.948 -0.0826  0.3199  2.4997
 1398SOL     OW15829   2.569   2.597   6.644 -0.6337  0.0932  0.5920
 1398SOL    HW115830   2.562   2.651   6.722  0.5735 -0.3748  1.0204
 1398SOL    HW215831   2.520   2.653   6.584  1.6652  1.7912  0.3188
 1399SOL     OW15832   4.311   3.802   4.902  0.2119  0.0649 -0.1940
 1399SOL    HW115833   4.247   3.826   4.969  0.3116 -0.7666  0.1946
 1399SOL    HW215834   4.333   3.717   4.940 -2.0857 -0.3312  0.2420
 1400SOL     OW15835   3.258   0.066   5.677  0.0812  0.1985 -0.1558
 1400SOL    HW115836   3.320   0.019   5.733 -1.4178 -2.0738 -0.3836
 1400SOL    HW215837   3.175   0.027   5.704 -1.4475  3.2038 -0.5532
 1401SOL     OW15838   3.456   0.476   6.904  0.4396 -0.5226  0.1975
 1401SOL    HW115839   3.505   0.399   6.876  1.5271  0.1638  0.2114
 1401SOL    HW215840   3.386   0.433   6.953  0.1518  1.0189  1.1609
 1402SOL     OW15841   1.593   3.671   8.133 -0.1356 -0.2714  0.0924
 1402SOL    HW115842   1.562   3.760   8.115  0.9004 -0.0413 -0.5080
 1402SOL    HW215843   1.506   3.638   8.158  1.3929 -3.6670  0.7807
 1403SOL     OW15844   0.628   3.887  16.561 -0.2417 -0.1947 -0.5179
 1403SOL    HW115845   0.544   3.870  16.604  0.9731 -1.0606  1.4913
 1403SOL    HW215846   0.603   3.918  16.474 -0.0076  3.1531  0.6089
 1404SOL     OW15847   3.620   1.390   7.267 -0.1112 -0.4690  0.2415
 1404SOL    HW115848   3.699   1.381   7.321 -0.3344 -0.9181  0.4971
 1404SOL    HW215849   3.635   1.318   7.205  2.6019 -1.3988  1.9716
 1405SOL     OW15850   3.459   3.619   2.516 -0.4332  0.2552 -0.4025
 1405SOL    HW115851   3.457   3.605   2.610 -1.7784  0.8764 -0.3403
 1405SOL    HW215852   3.451   3.714   2.503 -0.8273  0.0527 -1.6398
 1406SOL     OW15853   1.746   4.597   8.186  0.3450  0.1255  0.2852
 1406SOL    HW115854   1.655   4.566   8.188  0.4699 -0.3384 -1.2166
 1406SOL    HW215855   1.783   4.509   8.188  0.0798 -0.0260 -1.3199
 1407SOL     OW15856   3.953   3.468   3.568  0.2763 -0.2594 -0.3809
 1407SOL    HW115857   4.010   3.544   3.561 -1.8435  1.4885  1.4922
 1407SOL    HW215858   3.993   3.440   3.650 -0.7349  0.6657  0.4240
 1408SOL     OW15859   0.493   3.250   9.454  0.4808 -0.1885 -0.6482
 1408SOL    HW115860   0.546   3.174   9.433 -1.3351 -1.8458  0.7421
 1408SOL    HW215861   0.522   3.269   9.543  0.0723  2.2955 -1.0490
 1409SOL     OW15862   2.663   4.696   7.770 -0.1207 -0.4326  0.7958
 1409SOL    HW115863   2.735   4.640   7.741  0.0567  1.2194 -1.9783
 1409SOL    HW215864   2.661   0.023   7.698 -1.8882 -0.2237  1.0245
 1410SOL     OW15865   0.033   0.103   4.382  0.0952  0.2150 -0.6432
 1410SOL    HW115866   4.679   0.122   4.359 -0.7695 -3.3039 -0.1930
 1410SOL    HW215867   0.027   0.103   4.478  0.7133  0.2405 -0.5995
 1411SOL     OW15868   4.492   0.481   6.643 -0.3308  0.4051  0.3806
 1411SOL    HW115869   4.518   0.524   6.562 -0.1540 -1.3466 -0.5050
 1411SOL    HW215870   4.577   0.465   6.683  0.1796  2.0707 -0.0453
 1412SOL     OW15871   4.578   3.642   3.341 -0.0964 -0.2033 -0.2525
 1412SOL    HW115872   4.573   3.598   3.256 -0.9365 -1.1246  0.2642
 1412SOL    HW215873   4.493   3.627   3.382  0.0037 -1.5052 -0.5025
 1413SOL     OW15874   0.600   2.681  11.938 -0.0487  0.2347  0.0060
 1413SOL    HW115875   0.660   2.623  11.891  0.7083 -0.9539  2.4829
 1413SOL    HW215876   0.658   2.757  11.944 -1.9935  1.7398 -0.2364
 1414SOL     OW15877   3.029   4.680   2.259 -0.1222  0.7973 -0.0141
 1414SOL    HW115878   3.056   0.025   2.215  0.1024  0.3804 -0.6365
 1414SOL    HW215879   3.097   4.618   2.234 -0.9849  0.4107 -1.4093
 1415SOL     OW15880   0.189   2.359   2.770 -0.3366  0.4727 -0.3747
 1415SOL    HW115881   0.131   2.329   2.840 -0.9595 -2.6209 -2.2130
 1415SOL    HW215882   0.245   2.422   2.815  2.0462 -2.0821  0.2463
 1416SOL     OW15883   4.124   0.539   2.538 -0.0049  0.1803  0.7000
 1416SOL    HW115884   4.069   0.470   2.575 -1.2565  0.2896 -0.9724
 1416SOL    HW215885   4.059   0.573   2.477  0.2227 -0.4337  0.1295
 1417SOL     OW15886   2.960   1.254   9.399  0.1467  0.3570  0.4760
 1417SOL    HW115887   3.021   1.185   9.426 -2.1266 -0.6212  3.0268
 1417SOL    HW215888   2.886   1.231   9.454 -0.4197 -1.8209 -1.2211
 1418SOL     OW15889   1.417   4.323   6.238  0.6500 -0.5646 -0.1400
 1418SOL    HW115890   1.394   4.230   6.236 -1.0030 -0.2197  3.6359
 1418SOL    HW215891   1.430   4.340   6.144  0.2928 -1.9088 -0.4263
 1419SOL     OW15892   2.407   2.068   2.751 -0.2610  0.1206  0.3484
 1419SOL    HW115893   2.440   1.990   2.707 -1.1993 -1.2385  2.0406
 1419SOL    HW215894   2.346   2.027   2.812  0.4429  3.6397  3.4155
 1420SOL     OW15895   0.168   2.946  13.025  0.1580 -0.0564 -0.6566
 1420SOL    HW115896   0.124   2.954  13.109 -1.8898 -0.8182 -1.6370
 1420SOL    HW215897   0.181   2.852  13.041 -3.1478 -0.3966  0.0471
 1421SOL     OW15898   0.558   2.083  11.662  0.3757 -0.1666  0.0408
 1421SOL    HW115899   0.506   2.020  11.713 -3.8162  1.8830 -1.6420
 1421SOL    HW215900   0.611   2.027  11.605 -1.1394 -1.9284  0.3347
 1422SOL     OW15901   0.251   2.552   8.036 -1.0648 -0.3246 -0.3879
 1422SOL    HW115902   0.261   2.457   8.049 -0.4764 -0.1323  0.4956
 1422SOL    HW215903   0.338   2.584   8.059 -1.7429  0.8911  0.4543
 1423SOL     OW15904   2.352   3.914   0.826 -0.6762 -0.3818  0.3428
 1423SOL    HW115905   2.374   3.823   0.846 -0.8188 -0.3905  0.4525
 1423SOL    HW215906   2.349   3.923   0.730  1.2655 -0.4136  0.2632
 1424SOL     OW15907   4.646   1.084  14.139  0.0527  0.0635 -0.7578
 1424SOL    HW115908   4.648   0.991  14.163 -0.9719  0.2079 -0.1433
 1424SOL    HW215909   4.571   1.100  14.083 -0.3948 -0.2305 -0.2496
 1425SOL     OW15910   2.270   1.186   1.933  0.0803  0.0509  0.1135
 1425SOL    HW115911   2.213   1.120   1.972  1.3953 -0.7771  0.6332
 1425SOL    HW215912   2.355   1.175   1.975  0.3765 -0.6130 -0.6468
 1426SOL     OW15913   0.657   1.886   1.789 -0.2604  0.4590  0.4143
 1426SOL    HW115914   0.578   1.939   1.777  0.1857  0.7079 -1.3604
 1426SOL    HW215915   0.719   1.954   1.815 -0.5944 -0.5086  3.8372
 1427SOL     OW15916   1.829   3.350  13.156  0.3436 -0.0841 -0.1776
 1427SOL    HW115917   1.759   3.395  13.109 -0.1366  0.3664  0.9822
 1427SOL    HW215918   1.808   3.257  13.144 -2.0244  0.6417 -1.8652
 1428SOL     OW15919   4.594   2.639   9.344 -0.0580 -0.6756  0.2387
 1428SOL    HW115920   4.528   2.706   9.361  0.0379 -0.4411 -0.3144
 1428SOL    HW215921   4.617   2.621   9.435 -0.8616 -1.2884  0.3132
 1429SOL     OW15922   0.747   0.012  17.674  0.1191  0.0162  0.9129
 1429SOL    HW115923   0.700   4.686  17.729 -0.5866 -0.7155 -0.5009
 1429SOL    HW215924   0.817   4.694  17.636  0.2652 -0.1284  1.3961
 1430SOL     OW15925   1.334   0.602   1.159 -0.0782  0.5435 -0.1043
 1430SOL    HW115926   1.264   0.537   1.150 -0.4905  0.9741 -0.0146
 1430SOL    HW215927   1.342   0.593   1.254  0.3308  0.3568 -0.1605
 1431SOL     OW15928   3.644   2.395  12.972 -0.1795 -0.2730 -0.3776
 1431SOL    HW115929   3.580   2.374  12.904 -1.5332 -0.9590  1.1062
 1431SOL    HW215930   3.728   2.395  12.927 -0.4761 -1.0028 -0.9421
 1432SOL     OW15931   2.343   4.147   3.857 -0.6544 -0.1143  0.6748
 1432SOL    HW115932   2.285   4.223   3.849  0.6327  0.6289 -1.5714
 1432SOL    HW215933   2.418   4.178   3.909  0.3368 -1.1476 -0.1480
 1433SOL     OW15934   2.635   4.238   5.904  0.6014  0.4046 -0.0746
 1433SOL    HW115935   2.699   4.309   5.899  1.1390 -0.2826 -2.7121
 1433SOL    HW215936   2.598   4.244   5.992 -0.3170  3.5201 -0.6524
 1434SOL     OW15937   3.103   1.549   9.624  0.4368 -0.2646  0.2640
 1434SOL    HW115938   3.156   1.470   9.632  0.6445 -0.1746 -0.1938
 1434SOL    HW215939   3.124   1.569   9.533 -0.2292 -0.7763 -0.0004
 1435SOL     OW15940   4.304   1.993   6.158 -0.1126  0.3529 -0.1403
 1435SOL    HW115941   4.218   2.035   6.158 -0.3196 -0.0728  1.2636
 1435SOL    HW215942   4.325   2.037   6.240  0.0288  2.4202 -1.2725
 1436SOL     OW15943   0.461   3.303   2.295  0.2678 -0.7925 -0.0883
 1436SOL    HW115944   0.404   3.257   2.234 -0.3333  1.0303 -0.9158
 1436SOL    HW215945   0.544   3.289   2.248  1.2604  0.4690  1.2784
 1437SOL     OW15946   1.555   4.029   5.426 -0.4931 -0.5718 -0.0424
 1437SOL    HW115947   1.466   4.014   5.457 -1.2127  1.4338 -1.1672
 1437SOL    HW215948   1.538   4.035   5.332 -0.0483 -1.7635 -0.2097
 1438SOL     OW15949   2.001   0.270   8.909  0.0447  0.1781 -0.5859
 1438SOL    HW115950   2.047   0.307   8.833  1.4977  0.6116  0.5275
 1438SOL    HW215951   1.911   0.302   8.897  0.1473  0.3815 -0.8189
 1439SOL     OW15952   1.075   0.505   0.174  0.1915 -0.3945  0.2257
 1439SOL    HW115953   1.078   0.513   0.269  1.8853 -1.1959  0.2506
 1439SOL    HW215954   0.985   0.482   0.154  0.7312 -1.5657 -0.8686
 1440SOL     OW15955   2.044   0.622  15.824 -0.3262 -0.9067 -0.5325
 1440SOL    HW115956   2.044   0.529  15.846 -0.4506 -0.4611  1.3520
 1440SOL    HW215957   1.992   0.656  15.897 -1.4843  0.8999 -2.2031
 1441SOL     OW15958   1.764   0.726   7.579 -0.0226  0.3164  0.2644
 1441SOL    HW115959   1.707   0.765   7.513  0.7460  0.7635 -0.1320
 1441SOL    HW215960   1.695   0.674   7.620 -0.6511  0.9026 -0.0512
 1442SOL     OW15961   0.084   4.727  13.908 -0.3825 -0.6073 -0.3404
 1442SOL    HW115962   0.127   4.649  13.872  0.4237  0.6456 -2.0655
 1442SOL    HW215963   4.732   4.689  13.912 -1.7168  2.7315  1.9713
 1443SOL     OW15964   3.773   3.668   8.735  0.6280  0.1590 -0.2811
 1443SOL    HW115965   3.747   3.739   8.794 -0.0877  0.8728 -1.4719
 1443SOL    HW215966   3.699   3.608   8.744  1.8630 -1.5305 -1.3460
 1444SOL     OW15967   2.122   1.013   2.472 -0.1488  0.0106  1.1827
 1444SOL    HW115968   2.179   0.990   2.399  0.7549  2.3077  1.1917
 1444SOL    HW215969   2.173   1.082   2.514  0.7710 -0.6855  1.2089
 1445SOL     OW15970   0.244   2.077  17.517 -0.1710 -0.1295  0.6262
 1445SOL    HW115971   0.150   2.095  17.515 -0.1534  0.2313  2.7901
 1445SOL    HW215972   0.277   2.166  17.521 -1.8660  0.5159  0.3771
 1446SOL     OW15973   3.934   0.622   6.622  0.1161  0.3300 -0.2245
 1446SOL    HW115974   3.983   0.697   6.654  0.2628  1.4325 -2.9741
 1446SOL    HW215975   3.949   0.562   6.695  1.1944 -1.3396 -1.7939
 1447SOL     OW15976   4.099   3.208   8.534  0.4159  0.1314 -0.0475
 1447SOL    HW115977   4.142   3.247   8.458 -0.8371 -1.9258 -1.8309
 1447SOL    HW215978   4.020   3.262   8.529 -0.0662 -0.5427  0.1888
 1448SOL     OW15979   4.082   0.473   3.062 -0.1277 -0.2898 -0.5008
 1448SOL    HW115980   4.021   0.481   2.988  0.9084  0.6942 -1.2389
 1448SOL    HW215981   4.150   0.414   3.029  0.7159 -0.7406  2.0181
 1449SOL     OW15982   1.862   0.539   6.744 -0.1758  0.1818 -0.1214
 1449SOL    HW115983   1.806   0.504   6.676 -0.7209  1.9237 -0.5631
 1449SOL    HW215984   1.790   0.572   6.798 -0.2149  1.4210 -0.9409
 1450SOL     OW15985   3.888   4.138   1.060  0.2837  0.2783 -0.0171
 1450SOL    HW115986   3.830   4.178   0.994 -1.5662  1.4131  2.3057
 1450SOL    HW215987   3.915   4.061   1.011  1.3796 -0.1025  1.2102
 1451SOL     OW15988   4.668   0.249  11.221  0.2755  0.0629  0.2842
 1451SOL    HW115989   0.024   0.270  11.233  0.4247 -0.1479 -0.5252
 1451SOL    HW215990   4.634   0.337  11.205  2.1542  0.3366 -2.0738
 1452SOL     OW15991   0.920   3.330  13.963  0.1606 -0.7228  0.7216
 1452SOL    HW115992   0.873   3.384  13.900 -0.7748 -0.8895  1.2833
 1452SOL    HW215993   1.008   3.359  13.938 -0.2502 -0.5010 -0.4500
 1453SOL     OW15994   3.550   2.256   9.540  0.4794 -0.2508  0.3724
 1453SOL    HW115995   3.604   2.182   9.566  0.1724 -0.8173 -0.6148
 1453SOL    HW215996   3.602   2.328   9.574 -1.4674  0.1684  2.5099
 1454SOL     OW15997   3.998   2.764   8.322  0.4369 -0.6365  0.0700
 1454SOL    HW115998   3.958   2.825   8.262  4.8004  0.7814 -1.3864
 1454SOL    HW215999   4.093   2.774   8.314  0.6492 -1.5191  1.3960
 1455SOL     OW16000   1.868   3.564   6.154 -0.1903  0.4621 -0.7129
 1455SOL    HW116001   1.797   3.569   6.218  0.7843 -1.5035  0.5470
 1455SOL    HW216002   1.881   3.658   6.161 -0.6079  0.4482  0.3109
 1456SOL     OW16003   3.848   1.876   5.497 -0.0373 -0.8098  0.0375
 1456SOL    HW116004   3.856   1.970   5.482  3.1355 -1.3389 -1.5889
 1456SOL    HW216005   3.765   1.857   5.454 -0.5474 -0.9143  1.0923
 1457SOL     OW16006   2.150   4.189   4.424  0.5325 -0.3007  0.8953
 1457SOL    HW116007   2.113   4.258   4.370 -1.7770 -1.9107  0.4358
 1457SOL    HW216008   2.117   4.114   4.375 -0.2328  1.5133 -1.3637
 1458SOL     OW16009   2.119   4.042   6.177 -0.0689  0.2050  0.0830
 1458SOL    HW116010   2.214   4.033   6.172 -0.1127 -0.2839  0.1427
 1458SOL    HW216011   2.113   3.997   6.262  2.4344  1.7079  1.0459
 1459SOL     OW16012   2.463   2.159  12.840 -0.0371  0.4758 -0.0383
 1459SOL    HW116013   2.372   2.144  12.867  0.7587  0.1101  2.4551
 1459SOL    HW216014   2.494   2.222  12.906  0.7755  0.0360 -0.0065
 1460SOL     OW16015   3.901   3.604  17.580 -0.3000  0.3297  0.5112
 1460SOL    HW116016   3.849   3.670  17.626 -0.7120 -0.1989  0.8079
 1460SOL    HW216017   3.987   3.644  17.573 -0.3601  0.2558 -0.7423
 1461SOL     OW16018   0.301   1.355   8.799  1.1454  0.3795  0.3903
 1461SOL    HW116019   0.345   1.431   8.762 -0.8007  1.2711 -0.0473
 1461SOL    HW216020   0.257   1.387   8.878  0.6430  0.7020 -0.0223
 1462SOL     OW16021   4.450   1.588   7.829  0.0331 -0.5036 -0.1002
 1462SOL    HW116022   4.532   1.637   7.821  1.3397 -2.6306  0.3015
 1462SOL    HW216023   4.419   1.628   7.910 -0.9112 -3.3399  0.9193
 1463SOL     OW16024   1.686   2.381  13.922 -0.2694 -0.2582  0.4529
 1463SOL    HW116025   1.601   2.418  13.947 -1.2576 -0.3211 -2.7709
 1463SOL    HW216026   1.716   2.355  14.009  3.2087  3.6158  0.4230
 1464SOL     OW16027   1.229   0.532  11.655  0.1268 -0.0430  0.5338
 1464SOL    HW116028   1.161   0.599  11.653 -0.4841 -0.6670  0.4083
 1464SOL    HW216029   1.239   0.527  11.560 -0.6324 -1.9350  0.5631
 1465SOL     OW16030   2.809   2.608   7.880 -0.4695 -0.6736  0.2579
 1465SOL    HW116031   2.790   2.702   7.883  2.3951 -0.1257  1.2785
 1465SOL    HW216032   2.758   2.590   7.802  1.3460 -0.9609 -0.8624
 1466SOL     OW16033   0.051   4.258  13.161  0.0518  0.3023 -0.1410
 1466SOL    HW116034   0.086   4.252  13.072 -0.3555  1.8726 -0.4065
 1466SOL    HW216035   0.031   4.349  13.180  0.9957  0.4058  0.3361
 1467SOL     OW16036   2.008   2.548   8.096  0.2756  0.5108 -0.3780
 1467SOL    HW116037   1.997   2.617   8.031 -2.6241  0.7133  0.3224
 1467SOL    HW216038   1.958   2.584   8.169  0.9686 -0.5776  0.6383
 1468SOL     OW16039   0.201   1.451   3.919  0.3108  0.3849  0.2583
 1468SOL    HW116040   0.216   1.404   3.837  2.1188 -1.4558  1.6493
 1468SOL    HW216041   0.117   1.408   3.937  1.3084 -0.9848  1.5579
 1469SOL     OW16042   1.025   3.773   9.059 -0.7436  0.0871 -0.1732
 1469SOL    HW116043   1.102   3.767   9.003 -1.1076  1.4963 -0.8412
 1469SOL    HW216044   1.038   3.710   9.130  2.2708  0.0031 -0.7881
 1470SOL     OW16045   2.010   0.648   4.494 -0.1758  0.1115  0.0656
 1470SOL    HW116046   2.070   0.672   4.424  3.0845 -1.6970  2.2030
 1470SOL    HW216047   2.056   0.575   4.537 -0.6807  0.7833  1.7350
 1471SOL     OW16048   0.523   0.588   2.465  0.3904 -0.7321 -0.4237
 1471SOL    HW116049   0.471   0.598   2.385 -0.5798 -1.8548  0.0760
 1471SOL    HW216050   0.473   0.523   2.514 -0.4536  0.7467  0.7025
 1472SOL     OW16051   0.019   3.586   2.302  0.6849 -0.5856  0.4253
 1472SOL    HW116052   0.073   3.582   2.223 -0.3249  0.9936 -0.3220
 1472SOL    HW216053   0.092   3.599   2.363  1.3998 -0.6265 -0.4331
 1473SOL     OW16054   3.215   3.362   8.063 -0.2491  0.3707  0.3714
 1473SOL    HW116055   3.218   3.275   8.102 -2.2839 -0.8651 -2.2075
 1473SOL    HW216056   3.303   3.387   8.091  0.1703 -0.3708 -0.2815
 1474SOL     OW16057   2.805   3.669   1.577  0.2334 -0.4122  1.0655
 1474SOL    HW116058   2.803   3.611   1.500 -1.3378  1.1341 -0.0611
 1474SOL    HW216059   2.874   3.621   1.622  0.8843 -0.6991 -0.2241
 1475SOL     OW16060   1.341   4.370  12.852 -0.2042 -0.1433  0.0722
 1475SOL    HW116061   1.290   4.311  12.795 -0.3788 -1.6650  1.7779
 1475SOL    HW216062   1.316   4.452  12.810 -1.2628 -0.6441 -0.2809
 1476SOL     OW16063   1.984   2.386   4.784  0.2012 -0.5938 -0.5136
 1476SOL    HW116064   1.970   2.411   4.876 -0.5082  1.4029 -1.1666
 1476SOL    HW216065   1.906   2.416   4.738  1.3586  1.9264 -0.8312
 1477SOL     OW16066   1.952   1.236   5.760 -0.3665 -0.8157  0.0957
 1477SOL    HW116067   1.872   1.283   5.737 -0.2163 -0.9129 -0.6295
 1477SOL    HW216068   1.982   1.287   5.835 -0.9784  1.0041 -0.8831
 1478SOL     OW16069   0.818   1.006  15.395 -0.0727  0.1687  0.2922
 1478SOL    HW116070   0.868   0.931  15.427  1.8623  1.4494  0.2809
 1478SOL    HW216071   0.830   1.062  15.471 -2.4578  0.0447  0.7698
 1479SOL     OW16072   0.444   0.579   6.420  0.6544 -0.0604  0.1436
 1479SOL    HW116073   0.412   0.510   6.362  0.0127  1.7200 -1.6262
 1479SOL    HW216074   0.479   0.635   6.351  2.0244 -2.0663 -0.7849
 1480SOL     OW16075   1.547   0.667  11.541  0.1017 -0.0340  0.4570
 1480SOL    HW116076   1.598   0.637  11.466  0.4874  0.6269  0.4532
 1480SOL    HW216077   1.575   0.624  11.622  3.0801  0.1755 -0.4532
 1481SOL     OW16078   2.711   0.603  12.772 -0.2096  0.5617 -0.0823
 1481SOL    HW116079   2.658   0.545  12.717  1.0150 -0.3481 -0.3092
 1481SOL    HW216080   2.776   0.614  12.704  0.9837  2.2041  1.3220
 1482SOL     OW16081   4.256   3.998  14.274 -0.0812  0.1973 -0.0773
 1482SOL    HW116082   4.250   4.093  14.262  0.9262  0.2893  0.2099
 1482SOL    HW216083   4.168   3.989  14.312  0.6930 -1.2056  1.3734
 1483SOL     OW16084   1.757   4.089  16.741 -0.7198 -0.1725  0.9361
 1483SOL    HW116085   1.789   4.000  16.756  3.4146  1.7471  3.4248
 1483SOL    HW216086   1.767   4.126  16.829  0.9986 -1.3891  1.2672
 1484SOL     OW16087   0.797   1.654   0.118 -0.1961  0.1724  0.6283
 1484SOL    HW116088   0.824   1.744   0.104 -0.6347  0.2650  0.3729
 1484SOL    HW216089   0.873   1.613   0.159 -0.7267 -1.2398  0.2179
 1485SOL     OW16090   0.491   2.111  16.649  0.2300  0.9901 -0.4114
 1485SOL    HW116091   0.570   2.090  16.599 -0.2831  1.2175 -1.3200
 1485SOL    HW216092   0.515   2.185  16.705  1.7675 -0.2582  0.5937
 1486SOL     OW16093   3.738   1.437  15.424  0.5984  0.3027 -0.5414
 1486SOL    HW116094   3.660   1.386  15.404 -0.3119  1.9615 -1.2584
 1486SOL    HW216095   3.716   1.457  15.515 -2.8730 -0.2892 -1.2507
 1487SOL     OW16096   2.202   0.218   9.628  0.3275 -0.6618  0.5967
 1487SOL    HW116097   2.232   0.193   9.540  1.3642  1.7063  0.2845
 1487SOL    HW216098   2.286   0.230   9.672 -0.8427  1.1825  2.3331
 1488SOL     OW16099   2.407   3.268   1.187  0.8341 -0.3622  0.4414
 1488SOL    HW116100   2.373   3.245   1.274  2.8299  1.1645  1.6253
 1488SOL    HW216101   2.333   3.326   1.166  1.6663  0.7880  0.6930
 1489SOL     OW16102   1.899   3.373   2.713 -0.4253 -0.4963  0.0237
 1489SOL    HW116103   1.951   3.438   2.761 -2.7000 -0.0784  1.9307
 1489SOL    HW216104   1.953   3.356   2.636 -1.8052  0.6309 -1.1935
 1490SOL     OW16105   0.618   0.738   5.365 -0.6658  0.7842  0.4483
 1490SOL    HW116106   0.550   0.745   5.433 -0.7661 -2.3919  0.6386
 1490SOL    HW216107   0.600   0.652   5.329  1.4238  0.8815 -0.8202
 1491SOL     OW16108   2.197   2.016  17.538 -0.6878 -0.1353  0.0632
 1491SOL    HW116109   2.253   1.971  17.602 -1.0502 -0.4560  0.1599
 1491SOL    HW216110   2.156   1.936  17.506 -0.1073 -0.3166 -0.2151
 1492SOL     OW16111   1.223   0.582  11.130 -0.2307 -0.1436  0.0122
 1492SOL    HW116112   1.165   0.507  11.136  0.9211 -1.0353  0.0646
 1492SOL    HW216113   1.270   0.564  11.048  0.5321 -0.5946  0.5455
 1493SOL     OW16114   4.429   3.887   8.511 -0.0201 -0.0129 -0.3599
 1493SOL    HW116115   4.524   3.878   8.521 -0.0856  0.8467  0.9849
 1493SOL    HW216116   4.403   3.798   8.537  1.3214 -0.7833 -1.5896
 1494SOL     OW16117   2.805   0.038  14.154  0.3076 -0.6340 -0.1723
 1494SOL    HW116118   2.824   4.726  14.234 -0.4829 -0.0076  0.3966
 1494SOL    HW216119   2.878   0.100  14.155 -0.1478 -0.1098  0.7228
 1495SOL     OW16120   4.547   3.430   6.922  0.2696  0.4123 -0.1600
 1495SOL    HW116121   4.465   3.431   6.972  1.5285 -1.0489  1.9367
 1495SOL    HW216122   4.567   3.523   6.909  0.5329  0.6083  1.5914
 1496SOL     OW16123   2.562   1.566  13.132 -0.5742  0.2889 -0.6253
 1496SOL    HW116124   2.503   1.512  13.080 -0.9524  0.3887 -0.2964
 1496SOL    HW216125   2.534   1.552  13.222 -0.0308 -1.5824 -0.7500
 1497SOL     OW16126   0.598   3.935   7.538 -0.2582  0.1952  0.4227
 1497SOL    HW116127   0.585   3.920   7.632 -0.4968 -0.2386  0.3184
 1497SOL    HW216128   0.516   3.971   7.505  0.4821 -0.2383 -1.8263
 1498SOL     OW16129   4.441   2.396   9.660 -0.2924  0.2417 -0.1415
 1498SOL    HW116130   4.451   2.334   9.733  1.0425  0.9163  0.2428
 1498SOL    HW216131   4.524   2.442   9.670 -0.1886 -0.1127  0.6478
 1499SOL     OW16132   1.365   1.775   6.080  0.1106  0.1097  0.5894
 1499SOL    HW116133   1.427   1.843   6.052 -0.6382  2.1866  3.8389
 1499SOL    HW216134   1.335   1.827   6.155 -0.0764  1.3275 -0.3282
 1500SOL     OW16135   1.107   3.860   4.985 -0.2705 -0.2087  0.0364
 1500SOL    HW116136   1.148   3.946   5.000 -0.1313 -0.3208  0.3079
 1500SOL    HW216137   1.078   3.873   4.895  0.6556 -3.1343 -0.6683
 1501SOL     OW16138   1.327   1.751   3.071  0.4936  0.4822  0.0415
 1501SOL    HW116139   1.350   1.679   3.013  0.0741  2.9023 -3.1027
 1501SOL    HW216140   1.340   1.817   3.003  0.6042  1.1800  0.7245
 1502SOL     OW16141   0.645   4.669   8.520 -0.1301  0.4029 -0.0724
 1502SOL    HW116142   0.649   4.705   8.609  0.7940 -0.3191  0.1868
 1502SOL    HW216143   0.724   4.614   8.525 -0.7407 -0.4104  0.5583
 1503SOL     OW16144   0.639   3.444   6.814 -0.0317  0.4509 -0.1912
 1503SOL    HW116145   0.672   3.439   6.904  0.3763 -1.5227 -0.4566
 1503SOL    HW216146   0.574   3.375   6.828 -1.6039  1.9030 -0.4607
 1504SOL     OW16147   4.652   1.070   3.714 -0.0905 -0.2559  0.1232
 1504SOL    HW116148   4.582   1.131   3.738 -1.4431 -1.8714  0.2620
 1504SOL    HW216149   4.676   1.104   3.627  0.4113 -1.5201 -0.2282
 1505SOL     OW16150   3.056   4.100   6.456  0.5156 -0.0375 -0.1012
 1505SOL    HW116151   3.103   4.112   6.373  1.8745  1.0131  0.8234
 1505SOL    HW216152   3.091   4.016   6.484  1.3945 -0.2323 -1.7471
 1506SOL     OW16153   4.034   1.646   8.547 -0.6111  0.2621  0.4751
 1506SOL    HW116154   4.071   1.560   8.567 -2.1673 -1.0441 -2.3102
 1506SOL    HW216155   3.964   1.658   8.612  0.4458 -2.0899  2.0788
 1507SOL     OW16156   2.777   1.657   0.976  0.2717  0.3606 -0.0882
 1507SOL    HW116157   2.848   1.676   0.915 -0.0054  0.1142 -0.4806
 1507SOL    HW216158   2.711   1.619   0.918 -0.3770  0.1040  0.8136
 1508SOL     OW16159   0.881   3.098   7.176  0.4582 -1.0808  0.1287
 1508SOL    HW116160   0.809   3.120   7.235  0.2775 -2.0967  0.2878
 1508SOL    HW216161   0.921   3.183   7.162  2.1115 -2.0108 -0.8335
 1509SOL     OW16162   0.375   1.523   4.155 -0.1170  0.1580  0.4113
 1509SOL    HW116163   0.325   1.534   4.075 -2.9448 -1.1956  2.0005
 1509SOL    HW216164   0.308   1.500   4.218 -0.4288 -1.1339 -0.3832
 1510SOL     OW16165   4.290   2.151  15.818  0.0262  0.5683  0.6180
 1510SOL    HW116166   4.292   2.161  15.723 -0.8863 -0.0541  0.5280
 1510SOL    HW216167   4.278   2.244  15.836  1.6637  0.7851  0.5496
 1511SOL     OW16168   0.699   4.412   8.631 -0.2613  0.4994  0.2879
 1511SOL    HW116169   0.649   4.465   8.694  0.0324 -1.3265  2.0676
 1511SOL    HW216170   0.647   4.332   8.634 -0.9466  0.9748  0.9994
 1512SOL     OW16171   4.421   0.336   7.438 -0.0171 -0.4562  0.4964
 1512SOL    HW116172   4.364   0.406   7.469 -0.7215 -1.2045  0.9105
 1512SOL    HW216173   4.385   0.256   7.478 -1.4710 -0.4602 -0.8151
 1513SOL     OW16174   1.765   1.874   7.366 -0.1280 -0.3748  0.1943
 1513SOL    HW116175   1.771   1.969   7.351 -2.6423  0.2037  2.8712
 1513SOL    HW216176   1.672   1.861   7.350 -0.4820  3.8510 -1.2159
 1514SOL     OW16177   0.125   4.337  17.376  0.2041 -0.6686  0.2612
 1514SOL    HW116178   0.067   4.403  17.414 -0.8862 -0.9509 -0.9019
 1514SOL    HW216179   0.112   4.264  17.437  0.0408 -1.0010 -0.1701
 1515SOL     OW16180   1.304   3.466   5.977 -0.3718 -0.3153  0.5511
 1515SOL    HW116181   1.227   3.435   6.025 -0.8707  1.9639  1.2095
 1515SOL    HW216182   1.281   3.556   5.956  0.5561 -0.1014  0.4617
 1516SOL     OW16183   1.501   1.997   8.609  0.2570  0.0614  0.0455
 1516SOL    HW116184   1.455   1.914   8.625  0.3937  0.0350  0.2957
 1516SOL    HW216185   1.585   1.954   8.624 -0.3267 -0.5350  1.5638
 1517SOL     OW16186   1.850   0.346   0.914 -0.1302  0.0342  0.3254
 1517SOL    HW116187   1.807   0.269   0.876 -1.4196  0.7703  0.2933
 1517SOL    HW216188   1.832   0.417   0.852  0.1672 -1.6468 -1.6842
 1518SOL     OW16189   0.860   4.718  16.164 -0.2532 -0.2389 -0.5052
 1518SOL    HW116190   0.799   0.054  16.152  0.3844  0.3731 -0.0641
 1518SOL    HW216191   0.803   4.644  16.146  1.5083 -1.9840  1.1041
 1519SOL     OW16192   0.323   1.639   2.327  0.0519  0.2696  0.0092
 1519SOL    HW116193   0.335   1.555   2.282 -2.0376  0.0262 -0.1142
 1519SOL    HW216194   0.369   1.704   2.274  0.8686 -0.4631 -0.1809
 1520SOL     OW16195   4.028   1.193   2.544 -0.0407  0.4173  0.0170
 1520SOL    HW116196   4.000   1.273   2.500 -1.7822 -0.5841 -0.6957
 1520SOL    HW216197   4.121   1.193   2.520 -0.9626  0.6788 -3.5950
 1521SOL     OW16198   2.590   2.522   9.103 -0.2168 -0.2644 -0.3076
 1521SOL    HW116199   2.617   2.572   9.180 -2.0014  1.0775 -0.5609
 1521SOL    HW216200   2.533   2.588   9.064 -1.5158 -0.4080  1.3384
 1522SOL     OW16201   3.133   3.024  11.786  0.5402  0.4223 -0.1707
 1522SOL    HW116202   3.080   2.958  11.831  1.4272 -0.6118 -0.6368
 1522SOL    HW216203   3.217   3.011  11.831  1.1432  2.2662 -0.7872
 1523SOL     OW16204   4.508   0.494  16.993 -0.2018  0.2904  0.1021
 1523SOL    HW116205   4.443   0.499  16.923  0.6715 -1.1470 -0.8212
 1523SOL    HW216206   4.558   0.569  16.961 -0.3261  0.3812  0.1240
 1524SOL     OW16207   1.001   4.050   2.756 -0.1070 -0.4755  0.3021
 1524SOL    HW116208   0.914   4.087   2.742 -0.0994 -1.4059 -2.1587
 1524SOL    HW216209   1.027   4.041   2.664 -0.5815  0.6598  0.0584
 1525SOL     OW16210   0.509   2.025   7.107 -0.1182  0.0465 -0.1706
 1525SOL    HW116211   0.449   1.950   7.105 -2.0904  1.5238  2.4037
 1525SOL    HW216212   0.501   2.064   7.020 -0.5312 -0.0978 -0.1956
 1526SOL     OW16213   2.175   0.393  16.599 -0.0172  0.7287 -0.2363
 1526SOL    HW116214   2.158   0.477  16.642 -0.6700  0.0085  0.9530
 1526SOL    HW216215   2.139   0.338  16.670 -0.4241  2.2235  0.7147
 1527SOL     OW16216   0.276   4.529   9.075  0.4875 -0.0106 -0.3505
 1527SOL    HW116217   0.215   4.467   9.114  1.5524 -1.2069 -0.5665
 1527SOL    HW216218   0.254   4.525   8.982 -0.3737  2.9352 -0.2834
 1528SOL     OW16219   1.544   3.594  16.955  0.1236 -0.0110 -0.4128
 1528SOL    HW116220   1.483   3.616  16.884  1.0641  0.9208 -0.9357
 1528SOL    HW216221   1.607   3.552  16.896  0.7551  1.1986 -0.6161
 1529SOL     OW16222   2.000   2.557   4.479  0.0807 -0.0734  0.0449
 1529SOL    HW116223   2.005   2.565   4.574  1.0952  1.4589 -0.1136
 1529SOL    HW216224   1.941   2.482   4.474  0.6551 -0.3645 -2.6037
 1530SOL     OW16225   1.089   3.381   0.997 -0.1806 -0.5441 -0.4481
 1530SOL    HW116226   1.052   3.469   1.001 -1.2959 -0.8910 -2.9439
 1530SOL    HW216227   1.182   3.400   1.007 -0.8735  2.9034 -0.5678
 1531SOL     OW16228   1.891   2.467   6.172 -0.3124 -0.2775 -0.2884
 1531SOL    HW116229   1.905   2.550   6.126 -1.4825  1.3170  2.2517
 1531SOL    HW216230   1.858   2.499   6.256  0.5258 -0.0083 -0.0642
 1532SOL     OW16231   3.360   0.307   5.629  0.4642 -0.4988 -0.2934
 1532SOL    HW116232   3.449   0.280   5.651  0.6895  1.5555  1.3636
 1532SOL    HW216233   3.311   0.230   5.659 -0.5612 -0.2802 -1.4388
 1533SOL     OW16234   0.370   3.004   5.759  0.4633  0.1361 -0.1629
 1533SOL    HW116235   0.385   2.922   5.713  1.3981 -0.6766  1.5557
 1533SOL    HW216236   0.346   2.970   5.846  1.0482 -0.3285 -0.1800
 1534SOL     OW16237   1.946   2.253   7.484  0.3596  0.2325  0.2863
 1534SOL    HW116238   1.865   2.303   7.488  1.3419  1.8372  0.2445
 1534SOL    HW216239   2.016   2.315   7.466 -0.0340  0.3621 -0.8005
 1535SOL     OW16240   3.913   2.007   0.906  0.3145 -0.0657  0.2496
 1535SOL    HW116241   3.818   2.010   0.897  0.2963 -0.2470  0.3893
 1535SOL    HW216242   3.909   1.967   0.992 -0.5308 -0.2248  0.1381
 1536SOL     OW16243   2.639   3.796   3.418 -0.2404 -0.2721  0.0215
 1536SOL    HW116244   2.585   3.717   3.424  1.7927 -1.8070 -2.1592
 1536SOL    HW216245   2.699   3.806   3.492 -0.2056  0.5785 -0.1186
 1537SOL     OW16246   1.583   3.759   5.994  0.4012 -0.1007 -0.1392
 1537SOL    HW116247   1.632   3.828   6.040  0.4581 -0.0649 -0.2539
 1537SOL    HW216248   1.496   3.794   6.011 -0.9623 -3.3857 -0.5170
 1538SOL     OW16249   0.052   0.660   7.838 -0.0363  0.0013  0.6498
 1538SOL    HW116250   0.106   0.597   7.885  0.4688 -0.1336 -0.1093
 1538SOL    HW216251   0.037   0.609   7.758 -1.4372  3.3209 -1.2154
 1539SOL     OW16252   4.079   2.254   1.512 -0.4717  0.7722  0.6959
 1539SOL    HW116253   4.075   2.346   1.538  1.0799  0.8955  0.5113
 1539SOL    HW216254   4.077   2.214   1.599 -1.3922  0.0181  0.3280
 1540SOL     OW16255   2.515   0.931   8.411  0.4916  0.2538  0.4107
 1540SOL    HW116256   2.573   0.962   8.341  1.6116 -0.6785  0.9273
 1540SOL    HW216257   2.509   1.005   8.472  1.3234  0.7015 -0.0520
 1541SOL     OW16258   2.951   1.858  16.915  0.0862 -0.0317 -0.0329
 1541SOL    HW116259   2.920   1.948  16.905  1.1750  0.2119 -1.1301
 1541SOL    HW216260   3.042   1.872  16.940 -0.1236  1.2715 -0.0212
 1542SOL     OW16261   0.749   3.072   5.565  0.2864 -0.1548  0.0973
 1542SOL    HW116262   0.722   3.051   5.476 -0.6336  1.0289  0.0866
 1542SOL    HW216263   0.842   3.094   5.560  0.5365 -0.8554  1.9411
 1543SOL     OW16264   4.434   1.656   1.801 -0.5060  0.0268  0.2325
 1543SOL    HW116265   4.391   1.571   1.807  0.6663 -0.7257 -1.8089
 1543SOL    HW216266   4.519   1.629   1.835  0.1209  0.1634 -1.2301
 1544SOL     OW16267   2.288   3.708   6.306  0.1723  0.0153  0.6719
 1544SOL    HW116268   2.254   3.619   6.317  0.1455  0.3133  3.1012
 1544SOL    HW216269   2.382   3.702   6.284 -0.0120 -1.4172  0.2519
 1545SOL     OW16270   3.412   1.929   9.097  0.9064  0.3762 -0.6943
 1545SOL    HW116271   3.437   1.920   9.005  0.7126 -1.0372 -0.6094
 1545SOL    HW216272   3.335   1.985   9.087 -0.3622 -1.3544 -0.7188
 1546SOL     OW16273   1.333   0.932   5.679  0.0919 -0.0015 -0.0410
 1546SOL    HW116274   1.371   1.009   5.638  0.6162 -0.0420  0.3650
 1546SOL    HW216275   1.335   0.869   5.607 -0.1731 -0.7286  0.5844
 1547SOL     OW16276   2.884   2.946   4.498 -0.0535 -0.0674 -0.2812
 1547SOL    HW116277   2.939   2.868   4.503 -0.7138 -0.5597 -0.7555
 1547SOL    HW216278   2.792   2.923   4.489 -0.3188  1.0942 -0.6034
 1548SOL     OW16279   4.392   4.515  10.372  0.3288  0.1263 -0.0068
 1548SOL    HW116280   4.457   4.445  10.368  0.3020  0.1523 -1.1029
 1548SOL    HW216281   4.433   4.588  10.325 -1.1641  1.3117  0.5595
 1549SOL     OW16282   2.571   2.275   9.348  0.1911 -0.4715  0.4754
 1549SOL    HW116283   2.477   2.290   9.342 -0.1611 -2.5353  0.9358
 1549SOL    HW216284   2.609   2.363   9.338 -0.8025 -0.4086 -2.9647
 1550SOL     OW16285   1.167   1.331   0.168 -0.1282  0.7844  0.2064
 1550SOL    HW116286   1.251   1.337   0.215  0.1990 -5.2176  0.3802
 1550SOL    HW216287   1.149   1.239   0.185 -0.2966  0.8599  0.4333
 1551SOL     OW16288   2.121   0.216  17.085  0.2875  0.4981 -0.0909
 1551SOL    HW116289   2.105   0.240  17.176 -0.7292 -2.8072  0.6242
 1551SOL    HW216290   2.214   0.194  17.079 -0.2243 -1.7375 -0.1023
 1552SOL     OW16291   3.322   4.476   8.180  0.5190  0.2372 -0.0964
 1552SOL    HW116292   3.374   4.509   8.106 -0.5092  1.7435 -0.1651
 1552SOL    HW216293   3.243   4.467   8.126  0.2196  0.8613  0.2426
 1553SOL     OW16294   2.237   0.131   8.087  0.0902 -0.1644 -0.4355
 1553SOL    HW116295   2.243   0.219   8.048  1.3499 -0.2609 -0.4730
 1553SOL    HW216296   2.331   0.111   8.079 -0.1991 -2.2796  1.4750
 1554SOL     OW16297   4.203   1.784  16.785  0.3084  0.5944 -0.2999
 1554SOL    HW116298   4.172   1.698  16.754 -0.4224 -0.4809  3.3988
 1554SOL    HW216299   4.237   1.820  16.703 -2.1430 -1.0236 -2.0479
 1555SOL     OW16300   0.417   4.131   0.160 -0.5334  0.1287  0.5958
 1555SOL    HW116301   0.447   4.050   0.118  1.4765  0.4029  1.5350
 1555SOL    HW216302   0.336   4.115   0.209 -1.4081 -1.2852 -1.3202
 1556SOL     OW16303   3.785   2.109   0.653 -0.1218 -0.0105  0.0185
 1556SOL    HW116304   3.811   2.189   0.607  0.6526 -0.8777 -1.0378
 1556SOL    HW216305   3.811   2.043   0.589 -0.6394 -0.7326  0.5475
 1557SOL     OW16306   3.201   2.530   6.712  0.0411  0.2143  0.0125
 1557SOL    HW116307   3.184   2.573   6.796  0.0590  2.7633 -1.2932
 1557SOL    HW216308   3.118   2.485   6.697 -0.8697  1.9542 -0.1375
 1558SOL     OW16309   0.220   2.434  15.318  0.3401 -0.4172 -0.3491
 1558SOL    HW116310   0.315   2.429  15.315  0.4447  0.7045  1.0140
 1558SOL    HW216311   0.197   2.402  15.405 -3.5736  1.3881 -0.7187
 1559SOL     OW16312   1.612   0.595  15.884 -0.2575  0.0093 -0.0512
 1559SOL    HW116313   1.547   0.555  15.943  0.8559 -1.8179 -0.0893
 1559SOL    HW216314   1.563   0.662  15.837  1.8748  0.3214 -1.8177
 1560SOL     OW16315   3.801   0.959   5.475  0.5940  0.0032 -0.9994
 1560SOL    HW116316   3.864   1.026   5.501 -0.7698  1.1291 -0.5396
 1560SOL    HW216317   3.788   0.916   5.560  0.2738  1.3788 -0.3357
 1561SOL     OW16318   2.512   4.081   3.153 -0.3405 -0.0285  0.5089
 1561SOL    HW116319   2.502   4.068   3.247 -1.3010 -1.1958  0.2515
 1561SOL    HW216320   2.476   3.999   3.117  0.0602  0.1431 -0.2921
 1562SOL     OW16321   0.406   2.708   6.844 -0.4679  0.1107  0.1150
 1562SOL    HW116322   0.482   2.697   6.787 -0.9449  2.7929 -1.0139
 1562SOL    HW216323   0.426   2.797   6.871 -1.1715 -0.1013  1.3404
 1563SOL     OW16324   0.057   2.365  11.210  0.4337 -0.5043 -0.7390
 1563SOL    HW116325   4.733   2.436  11.229 -0.8669 -2.0611  0.9188
 1563SOL    HW216326   0.142   2.393  11.245  0.0186 -0.8224  0.5317
 1564SOL     OW16327   3.964   3.176   2.035 -0.3733 -0.1288 -0.1794
 1564SOL    HW116328   4.021   3.103   2.059 -0.3679 -0.0558  0.0302
 1564SOL    HW216329   3.910   3.180   2.114 -1.6406 -0.7379 -1.0262
 1565SOL     OW16330   2.442   1.565   8.670 -0.0974 -0.2570  0.1596
 1565SOL    HW116331   2.524   1.604   8.698 -1.4259  1.4861  1.6250
 1565SOL    HW216332   2.417   1.482   8.711  1.1122 -1.7683 -2.1561
 1566SOL     OW16333   2.385   2.276  14.275 -0.3862  0.3818  0.5294
 1566SOL    HW116334   2.470   2.319  14.275 -0.1762 -0.0365  0.3499
 1566SOL    HW216335   2.322   2.332  14.322  0.8628 -0.1268  2.8246
 1567SOL     OW16336   2.672   2.181   2.391  0.0761 -0.2619  0.7051
 1567SOL    HW116337   2.681   2.157   2.299 -1.6386  4.3801 -0.6451
 1567SOL    HW216338   2.748   2.135   2.426  1.3349  1.8370  0.7126
 1568SOL     OW16339   3.447   2.270   7.758  0.0198  0.3417 -0.3774
 1568SOL    HW116340   3.524   2.269   7.701  0.5864  0.7075  0.3863
 1568SOL    HW216341   3.381   2.275   7.689  0.1810 -5.7873 -0.9485
 1569SOL     OW16342   1.458   4.106  10.032  0.2314 -0.0395  0.2705
 1569SOL    HW116343   1.467   4.055  10.113  0.3346 -0.1432  0.1922
 1569SOL    HW216344   1.378   4.157  10.041  0.5650  0.2132  1.8622
 1570SOL     OW16345   1.604   1.219   0.246  0.3529 -0.1181  0.3623
 1570SOL    HW116346   1.534   1.183   0.191 -0.9726  2.3278  0.4635
 1570SOL    HW216347   1.664   1.146   0.262  1.8389  1.6604  2.8865
 1571SOL     OW16348   1.417   1.851   7.043  0.2029  0.8452 -0.4103
 1571SOL    HW116349   1.343   1.910   7.029  0.6765  1.4988 -0.0920
 1571SOL    HW216350   1.453   1.858   6.954  2.4383 -1.1034  0.3337
 1572SOL     OW16351   3.171   4.650  11.908  1.2516  0.6122 -0.2433
 1572SOL    HW116352   3.102   4.605  11.956  1.0700 -1.6760 -2.6580
 1572SOL    HW216353   3.136   0.003  11.907  0.3051  0.2383  0.1302
 1573SOL     OW16354   2.136   2.923   5.443 -0.2258 -0.1910 -0.0225
 1573SOL    HW116355   2.206   2.858   5.438 -1.6290 -1.8791  2.3475
 1573SOL    HW216356   2.081   2.881   5.508 -0.3245 -1.0108 -0.6368
 1574SOL     OW16357   0.704   2.287   5.867 -0.0750  0.4993 -0.7747
 1574SOL    HW116358   0.611   2.295   5.844  0.8625  1.8431 -4.1156
 1574SOL    HW216359   0.727   2.378   5.846  0.1383  0.2267 -1.7120
 1575SOL     OW16360   4.272   2.970   8.482 -0.1983  0.3501 -0.0263
 1575SOL    HW116361   4.254   3.056   8.520  0.6392  0.4411  0.1663
 1575SOL    HW216362   4.209   2.914   8.529 -0.8069  0.5370 -0.6267
 1576SOL     OW16363   1.840   4.684   2.044 -0.4494  0.1569  0.3050
 1576SOL    HW116364   1.785   4.631   1.987 -0.9498 -1.0804  1.9333
 1576SOL    HW216365   1.778   4.678   2.118 -0.7024 -1.9209 -0.0647
 1577SOL     OW16366   3.461   2.518   2.391  0.2998 -0.6918 -0.0384
 1577SOL    HW116367   3.505   2.601   2.408  1.5567 -1.3192 -0.1819
 1577SOL    HW216368   3.467   2.501   2.297 -1.1069 -1.1368 -0.0409
 1578SOL     OW16369   1.198   3.489   7.906 -0.0918 -0.3615 -0.0483
 1578SOL    HW116370   1.187   3.395   7.888  0.3291 -0.6700  1.2870
 1578SOL    HW216371   1.155   3.504   7.990 -1.5284 -0.9428 -0.6837
 1579SOL     OW16372   0.023   3.758   7.872 -0.2001 -0.5093 -0.2978
 1579SOL    HW116373   0.086   3.797   7.933  0.6268 -1.0422 -0.7983
 1579SOL    HW216374   4.727   3.840   7.835 -0.9443 -0.7045 -0.0733
 1580SOL     OW16375   0.635   3.539   6.282  0.1534  0.7946  0.1715
 1580SOL    HW116376   0.578   3.525   6.206  1.2227  0.1810 -0.5161
 1580SOL    HW216377   0.591   3.494   6.354 -1.3514  0.1587 -1.1421
 1581SOL     OW16378   4.165   2.082   8.402  0.3571 -0.2065 -0.0674
 1581SOL    HW116379   4.107   2.037   8.464 -0.9686  1.7273  0.0890
 1581SOL    HW216380   4.227   2.014   8.375  0.1179 -0.1907 -0.6686
 1582SOL     OW16381   3.297   0.613  13.107  0.2159  0.3327 -0.3227
 1582SOL    HW116382   3.240   0.585  13.179 -0.5038 -3.8355 -2.5074
 1582SOL    HW216383   3.261   0.699  13.087  0.3714 -0.0575 -2.2681
 1583SOL     OW16384   3.237   4.525   2.153 -0.0417 -0.2387 -0.5044
 1583SOL    HW116385   3.204   4.447   2.109 -1.5976  0.3776 -0.4358
 1583SOL    HW216386   3.285   4.491   2.227 -0.1016  0.4184 -0.1664
 1584SOL     OW16387   4.025   3.792  15.997  0.4337  0.2174 -0.3705
 1584SOL    HW116388   4.109   3.752  16.020 -0.6873 -1.2702  1.1093
 1584SOL    HW216389   4.044   3.802  15.903  1.2410 -0.0796 -0.2462
 1585SOL     OW16390   1.237   2.559   3.270  0.3467  0.0508  0.1843
 1585SOL    HW116391   1.171   2.511   3.320 -0.3716 -0.5029 -1.2974
 1585SOL    HW216392   1.220   2.652   3.279  2.0197  0.3655  0.1180
 1586SOL     OW16393   2.538   3.054  13.677  0.3321  0.0782 -0.6371
 1586SOL    HW116394   2.569   3.028  13.590  0.2218 -1.4549 -0.2297
 1586SOL    HW216395   2.513   2.969  13.714  0.8684 -0.0198 -0.4969
 1587SOL     OW16396   0.258   0.605   5.713 -0.3559  0.3318  0.0973
 1587SOL    HW116397   0.168   0.638   5.719 -0.2194  0.1422  2.9362
 1587SOL    HW216398   0.243   0.511   5.723 -0.5905  0.4970  1.2879
 1588SOL     OW16399   3.005   2.809   4.888  0.3561  0.1930  0.0287
 1588SOL    HW116400   2.934   2.763   4.842 -0.0368  0.4614  0.3583
 1588SOL    HW216401   3.007   2.890   4.837  1.1436 -0.0880 -0.3854
 1589SOL     OW16402   2.451   1.104   4.939  0.4196  0.1369 -0.5176
 1589SOL    HW116403   2.449   1.163   4.864 -0.4283  1.1545  0.2999
 1589SOL    HW216404   2.536   1.061   4.927 -0.3730 -2.2294  2.2942
 1590SOL     OW16405   1.983   1.382   2.716 -0.0519  0.5586  0.4173
 1590SOL    HW116406   1.910   1.444   2.719  1.6462  2.6857 -2.5774
 1590SOL    HW216407   2.055   1.442   2.696  2.3648 -2.0453  1.4277
 1591SOL     OW16408   1.662   0.941  13.848  0.3779  0.4513 -0.2565
 1591SOL    HW116409   1.748   0.925  13.809  1.6162  1.5923  1.9911
 1591SOL    HW216410   1.601   0.961  13.777  0.1404  1.9337  0.3710
 1592SOL     OW16411   3.140   0.142   3.713 -0.0048 -0.0100  0.1912
 1592SOL    HW116412   3.161   0.207   3.780  1.9183 -1.0147  0.5535
 1592SOL    HW216413   3.225   0.105   3.688  0.9108  2.1501  0.0591
 1593SOL     OW16414   0.835   3.613   4.843 -0.7490 -0.2402 -0.2899
 1593SOL    HW116415   0.762   3.672   4.860 -0.1724 -0.0056  1.3638
 1593SOL    HW216416   0.841   3.613   4.747 -0.2403  4.2814 -0.2365
 1594SOL     OW16417   3.281   2.299   7.041  0.7359 -0.1075  0.2538
 1594SOL    HW116418   3.225   2.239   6.992  0.8395  0.5460 -0.6824
 1594SOL    HW216419   3.258   2.277   7.131  0.4425  0.2506  0.2712
 1595SOL     OW16420   0.746   3.177  14.100  0.2464 -0.7045  0.1116
 1595SOL    HW116421   0.802   3.240  14.056 -0.8839  0.2162 -0.0104
 1595SOL    HW216422   0.761   3.099  14.047  0.6039 -0.2020 -0.5240
 1596SOL     OW16423   2.406   4.164   8.180 -0.3385 -0.0860 -0.3589
 1596SOL    HW116424   2.356   4.229   8.230 -0.3705  1.6614 -2.6578
 1596SOL    HW216425   2.388   4.087   8.234 -0.8047 -0.3327 -0.8605
 1597SOL     OW16426   1.652   0.954   4.755  0.1435 -1.4782  0.0044
 1597SOL    HW116427   1.605   0.872   4.771 -1.3437 -0.3721  1.3329
 1597SOL    HW216428   1.735   0.921   4.719  0.4319  0.2926 -0.9325
 1598SOL     OW16429   4.037   1.834   4.663  0.1448  0.5327  0.4831
 1598SOL    HW116430   3.980   1.822   4.739  2.3204  0.6075  2.1149
 1598SOL    HW216431   4.077   1.747   4.659 -0.5373  0.2477 -0.1432
 1599SOL     OW16432   1.338   2.772  10.665  0.3665  0.1690  0.4473
 1599SOL    HW116433   1.433   2.785  10.661  0.0836  2.0256 -0.6623
 1599SOL    HW216434   1.329   2.685  10.704 -0.8848  0.3735  0.6061
 1600SOL     OW16435   0.303   2.228   9.538  0.3605  0.0291  0.1174
 1600SOL    HW116436   0.287   2.297   9.473  4.3860  1.6342  0.8112
 1600SOL    HW216437   0.225   2.176   9.516 -0.0029  0.3836  0.5682
 1601SOL     OW16438   2.664   2.079   3.003 -0.2061 -0.8538 -0.1420
 1601SOL    HW116439   2.574   2.082   3.033  0.0259  0.0063  0.4669
 1601SOL    HW216440   2.689   1.988   3.020  0.8952 -0.3974  0.6590
 1602SOL     OW16441   2.279   3.556   7.388  0.5456  0.2253 -0.1926
 1602SOL    HW116442   2.252   3.628   7.444 -1.9459 -1.0017  0.1966
 1602SOL    HW216443   2.235   3.568   7.304  0.1779  0.3232  0.0146
 1603SOL     OW16444   0.627   0.549   2.112  0.7508 -0.6686  0.4355
 1603SOL    HW116445   0.715   0.532   2.146  0.9351 -1.3705 -0.3972
 1603SOL    HW216446   0.591   0.461   2.099 -1.3745  0.2305  0.1589
 1604SOL     OW16447   4.254   2.751  13.101  0.8077  0.2830 -0.2859
 1604SOL    HW116448   4.335   2.796  13.078  0.7917  0.7162  0.4939
 1604SOL    HW216449   4.256   2.672  13.047 -0.5042  0.7208 -0.9748
 1605SOL     OW16450   2.184   2.516  13.430  0.1765  0.0588 -0.6564
 1605SOL    HW116451   2.215   2.605  13.414  0.5763 -0.1132 -0.8351
 1605SOL    HW216452   2.110   2.505  13.370 -1.3960  0.9032  1.1402
 1606SOL     OW16453   4.637   4.064   2.336  0.3599 -0.1151 -0.6240
 1606SOL    HW116454   4.658   4.152   2.369 -0.0793  0.5932 -2.2291
 1606SOL    HW216455   4.573   4.079   2.266 -0.0855  2.7620  0.3907
 1607SOL     OW16456   3.848   0.305   6.909 -0.1058 -0.5429  0.0665
 1607SOL    HW116457   3.779   0.307   6.976  0.6268 -0.7309  0.8171
 1607SOL    HW216458   3.816   0.237   6.849 -1.0486  0.1652 -0.2305
 1608SOL     OW16459   3.795   3.122  13.636  0.7559 -0.2743 -0.0537
 1608SOL    HW116460   3.888   3.102  13.650  0.7623  2.7745  4.3856
 1608SOL    HW216461   3.772   3.058  13.570  3.1082 -0.3462 -0.8216
 1609SOL     OW16462   1.186   0.826  17.276  0.1646  0.1238  0.1591
 1609SOL    HW116463   1.143   0.875  17.206 -1.3550  0.1709  1.1212
 1609SOL    HW216464   1.133   0.857  17.349  0.8420 -0.7337  1.0184
 1610SOL     OW16465   0.169   1.553   0.928 -0.3872 -0.0198 -0.0964
 1610SOL    HW116466   0.176   1.608   0.850 -0.9038 -0.9107 -0.7568
 1610SOL    HW216467   0.209   1.617   0.988 -1.2033  0.0534  0.3635
 1611SOL     OW16468   0.209   0.732   4.341 -0.2629  0.0637  0.4203
 1611SOL    HW116469   0.290   0.742   4.291 -0.4573 -2.0917 -0.3104
 1611SOL    HW216470   0.166   0.814   4.317 -0.1741 -0.1214 -0.3523
 1612SOL     OW16471   0.157   0.267  13.811  0.0877  0.6369  0.1982
 1612SOL    HW116472   0.161   0.204  13.884 -0.6768 -1.8793 -1.9326
 1612SOL    HW216473   0.191   0.340  13.862  0.9438  0.8956 -0.7528
 1613SOL     OW16474   4.093   1.877   9.320  0.5509  0.5231  0.0196
 1613SOL    HW116475   4.080   1.934   9.244 -3.4359 -1.0110 -0.4201
 1613SOL    HW216476   4.188   1.861   9.318  0.5014  0.3153 -0.9230
 1614SOL     OW16477   3.460   4.382   6.930 -0.0650 -0.3166 -0.4431
 1614SOL    HW116478   3.430   4.349   7.015 -1.5357  2.5369  0.1363
 1614SOL    HW216479   3.387   4.432   6.894 -0.8750 -0.1036  1.4959
 1615SOL     OW16480   4.352   3.995   8.002  0.1656 -0.2181  0.6059
 1615SOL    HW116481   4.338   3.914   8.052 -0.7453 -0.2848  0.2488
 1615SOL    HW216482   4.434   4.021   8.044 -0.7203  2.4287  0.6736
 1616SOL     OW16483   2.203   3.780   5.807 -0.1572 -0.1525  0.2607
 1616SOL    HW116484   2.161   3.853   5.852  1.3915  1.0628 -0.3009
 1616SOL    HW216485   2.180   3.802   5.716 -0.3033  2.6370  0.9823
 1617SOL     OW16486   0.005   1.390   2.269  0.3917  0.5739  0.1272
 1617SOL    HW116487   4.724   1.480   2.243  0.5317  0.1337 -1.5181
 1617SOL    HW216488   4.661   1.353   2.233  0.4754  1.0035 -0.4940
 1618SOL     OW16489   0.950   4.625   8.927 -0.1252 -0.0069  0.1501
 1618SOL    HW116490   0.862   4.621   8.889  0.0516  0.0169 -0.2733
 1618SOL    HW216491   0.921   4.630   9.017 -2.3187 -1.3804 -0.4817
 1619SOL     OW16492   4.009   2.739   2.727  0.2336 -0.0399  0.0399
 1619SOL    HW116493   4.052   2.822   2.747  0.7131  0.1795 -1.9800
 1619SOL    HW216494   3.964   2.761   2.646  0.6282 -0.5033 -0.2993
 1620SOL     OW16495   0.050   0.005  16.386 -0.3555  0.3518 -0.2879
 1620SOL    HW116496   0.054   4.653  16.350 -0.8778  0.3588 -0.3669
 1620SOL    HW216497   0.063   0.053  16.304  1.2076 -1.4867 -1.1087
 1621SOL     OW16498   4.369   2.615   6.043  0.0785 -0.3101  0.5808
 1621SOL    HW116499   4.414   2.630   6.126  0.0408 -1.6350  0.8394
 1621SOL    HW216500   4.377   2.696   5.992 -0.1021 -1.4631 -1.2620
 1622SOL     OW16501   1.486   0.661   7.323  0.2600  0.5430  0.0542
 1622SOL    HW116502   1.563   0.605   7.338  0.2325  0.8959  1.5624
 1622SOL    HW216503   1.518   0.745   7.357  1.5476 -0.7824  2.1521
 1623SOL     OW16504   4.053   3.779   2.289 -0.1874  0.2571 -0.0699
 1623SOL    HW116505   4.022   3.696   2.253 -0.7155 -0.1330  1.2943
 1623SOL    HW216506   4.075   3.823   2.206 -0.8888 -2.2597 -1.6128
 1624SOL     OW16507   0.751   2.863   7.902  0.8607  0.0254  0.2286
 1624SOL    HW116508   0.768   2.770   7.890  0.6937  0.0788 -0.4366
 1624SOL    HW216509   0.700   2.890   7.825  1.0302  1.2594  0.5379
 1625SOL     OW16510   3.751   2.054  10.693  0.2019  0.2108  0.0658
 1625SOL    HW116511   3.701   2.123  10.650  0.5201 -0.8084 -1.9099
 1625SOL    HW216512   3.699   2.026  10.768 -1.5029  1.4267 -0.6572
 1626SOL     OW16513   0.516   3.239   6.934  0.4252 -0.1463 -0.4389
 1626SOL    HW116514   0.435   3.261   6.888 -0.5502 -1.1259  0.7911
 1626SOL    HW216515   0.500   3.152   6.970 -1.8210  0.9910  1.3526
 1627SOL     OW16516   1.345   1.884   5.203 -0.6496 -0.0026  0.2921
 1627SOL    HW116517   1.327   1.978   5.206  2.0819  0.5163  0.3537
 1627SOL    HW216518   1.433   1.874   5.166 -1.0344 -2.2224 -0.0064
 1628SOL     OW16519   4.262   3.321   1.547  0.4007  0.1250  0.5394
 1628SOL    HW116520   4.285   3.261   1.476 -0.5485 -0.0875  0.4180
 1628SOL    HW216521   4.296   3.408   1.525 -1.8671  0.8367 -0.1524
 1629SOL     OW16522   0.908   2.417   2.210 -0.0670 -0.0500 -0.3332
 1629SOL    HW116523   0.949   2.491   2.254  1.3809 -2.7927  2.8747
 1629SOL    HW216524   0.825   2.448   2.172 -1.5811 -1.6759  1.6606
 1630SOL     OW16525   0.814   0.070   8.225  0.4031 -0.0874 -0.4399
 1630SOL    HW116526   0.884   0.087   8.289  0.9393  0.3311 -1.1381
 1630SOL    HW216527   0.747   0.132   8.254 -1.3359 -1.9938 -0.4536
 1631SOL     OW16528   3.571   3.695   6.915 -0.0927  1.0629  0.7483
 1631SOL    HW116529   3.597   3.658   6.830  1.8598  2.9933  0.4755
 1631SOL    HW216530   3.508   3.634   6.951  0.7125 -0.1598  0.0944
 1632SOL     OW16531   4.275   2.362   5.510 -0.4436  0.3605 -0.4204
 1632SOL    HW116532   4.205   2.393   5.454  0.6141  2.0152 -0.8093
 1632SOL    HW216533   4.234   2.369   5.596 -0.5900 -0.5111 -0.4221
 1633SOL     OW16534   3.880   1.819  13.787 -0.0624  0.0554 -0.8357
 1633SOL    HW116535   3.915   1.795  13.701  0.3679  0.3971 -0.7548
 1633SOL    HW216536   3.855   1.732  13.816 -1.5505  0.4764 -0.8511
 1634SOL     OW16537   2.217   1.230   5.648  0.0050  0.3600 -0.0543
 1634SOL    HW116538   2.252   1.260   5.732  0.3995  0.3656 -0.2199
 1634SOL    HW216539   2.126   1.217   5.673 -0.0598 -1.0214 -1.0403
 1635SOL     OW16540   0.911   2.398   5.401 -0.2502  0.1861  0.0976
 1635SOL    HW116541   0.820   2.374   5.419 -0.3120  2.6348  2.9862
 1635SOL    HW216542   0.968   2.321   5.408  1.1308  1.3132  1.4097
 1636SOL     OW16543   2.472   2.494  13.254  0.4184 -0.0219 -0.5682
 1636SOL    HW116544   2.552   2.522  13.298  1.0412 -2.2964 -0.3076
 1636SOL    HW216545   2.407   2.490  13.324  0.1623  0.3463 -0.7837
 1637SOL     OW16546   4.570   2.067   5.119  0.2688 -0.0820 -0.2379
 1637SOL    HW116547   4.503   2.073   5.187 -0.2808  1.0989 -0.8828
 1637SOL    HW216548   4.549   2.150   5.076  0.2590  0.3141  0.5243
 1638SOL     OW16549   2.925   0.752   8.202 -0.3205  0.1435  0.2925
 1638SOL    HW116550   2.908   0.664   8.236 -0.6765  0.6750  1.5147
 1638SOL    HW216551   2.857   0.759   8.136  0.2329  0.6660 -0.2243
 1639SOL     OW16552   3.917   4.355  16.148  0.2240  0.6651 -0.2442
 1639SOL    HW116553   3.851   4.393  16.090  1.3818 -0.7154 -2.4492
 1639SOL    HW216554   3.865   4.318  16.220 -0.5350  1.4307 -0.4046
 1640SOL     OW16555   2.360   3.397   9.329 -0.5009  0.2556  0.1689
 1640SOL    HW116556   2.385   3.306   9.314  2.2352  0.9653  0.4288
 1640SOL    HW216557   2.265   3.395   9.346 -0.0832  0.7457  2.5846
 1641SOL     OW16558   2.187   1.411   7.288 -0.3968 -0.4605 -0.4095
 1641SOL    HW116559   2.213   1.398   7.196  1.4980 -1.0393  0.2162
 1641SOL    HW216560   2.092   1.399   7.282 -0.5650  1.0724 -0.6510
 1642SOL     OW16561   0.670   2.625   7.739  0.6124  0.9852  0.2898
 1642SOL    HW116562   0.660   2.568   7.663 -0.6916 -0.9872  1.9463
 1642SOL    HW216563   0.631   2.573   7.809 -1.5766 -0.9345 -2.3428
 1643SOL     OW16564   3.495   1.773   6.632 -0.5067 -0.0581  0.0011
 1643SOL    HW116565   3.492   1.758   6.727 -2.1833  0.5718  0.0552
 1643SOL    HW216566   3.580   1.808   6.607 -0.4640  0.0300  0.2632
 1644SOL     OW16567   1.161   3.273   9.081  0.2234 -0.3401 -0.2091
 1644SOL    HW116568   1.247   3.313   9.086  0.1488 -0.3038  0.9185
 1644SOL    HW216569   1.111   3.333   9.027 -1.8315 -0.8521  1.0750
 1645SOL     OW16570   4.414   3.089   3.242  0.1647 -0.1460 -0.2050
 1645SOL    HW116571   4.346   3.023   3.227  0.0073  0.6321 -2.8992
 1645SOL    HW216572   4.381   3.147   3.311  1.0336  1.0952 -0.8485
 1646SOL     OW16573   4.340   0.489  16.785 -0.3268  0.0579 -0.6636
 1646SOL    HW116574   4.264   0.500  16.842 -0.4665 -1.1659 -0.6201
 1646SOL    HW216575   4.311   0.530  16.704 -1.6362  1.1920  0.3911
 1647SOL     OW16576   2.382   3.322   3.885 -0.1964  0.5486 -0.1491
 1647SOL    HW116577   2.371   3.258   3.955 -0.1763 -0.0685 -0.7097
 1647SOL    HW216578   2.424   3.390   3.937  0.2222  0.1647  0.0118
 1648SOL     OW16579   0.037   0.999   7.061  0.2008  0.1884  0.0887
 1648SOL    HW116580   0.120   1.046   7.061 -0.1241  0.7666  1.4696
 1648SOL    HW216581   0.064   0.913   7.027  1.8538  0.8846 -0.3243
 1649SOL     OW16582   4.613   1.519   3.812 -0.6265  0.6021 -0.0048
 1649SOL    HW116583   4.649   1.463   3.880  1.2009  1.5892 -0.1724
 1649SOL    HW216584   4.525   1.485   3.795 -0.4340  1.3635 -2.6026
 1650SOL     OW16585   1.347   2.167   5.207 -0.2537  0.1927 -0.1739
 1650SOL    HW116586   1.394   2.247   5.228  0.3017 -0.3426  0.6445
 1650SOL    HW216587   1.318   2.184   5.117  1.4395  0.5776 -0.6449
 1651SOL     OW16588   3.887   0.786  15.092 -0.0107 -0.2385 -0.2977
 1651SOL    HW116589   3.964   0.812  15.042 -1.4116  0.8650 -1.8813
 1651SOL    HW216590   3.914   0.817  15.179 -0.2258 -2.2291  0.4825
 1652SOL     OW16591   0.787   3.890   8.993  0.9210 -0.2173  0.0373
 1652SOL    HW116592   0.745   3.921   9.073 -0.2203 -1.5458 -0.0549
 1652SOL    HW216593   0.835   3.824   9.041  2.7056  0.4069 -0.9027
 1653SOL     OW16594   2.069   0.094   6.262  0.0239 -0.4226  0.0036
 1653SOL    HW116595   2.073   4.735   6.268  0.4891 -0.3596  0.7097
 1653SOL    HW216596   1.989   0.111   6.212 -0.8363  0.4643  1.6677
 1654SOL     OW16597   0.625   3.092   8.043 -0.4454 -0.4745  0.0457
 1654SOL    HW116598   0.575   3.122   7.966 -0.5151  1.0317  0.6786
 1654SOL    HW216599   0.651   3.008   8.004 -1.0360 -0.3771 -0.5731
 1655SOL     OW16600   4.618   3.582   7.598 -0.3377  0.0143 -0.1900
 1655SOL    HW116601   4.619   3.538   7.513 -1.3628  0.5836 -0.4945
 1655SOL    HW216602   4.585   3.512   7.655 -0.1660 -1.6034 -2.0770
 1656SOL     OW16603   3.797   1.884   3.070  0.0560 -0.3714 -0.1440
 1656SOL    HW116604   3.705   1.910   3.078 -0.0605 -1.0691  0.7414
 1656SOL    HW216605   3.837   1.967   3.097  1.1679 -0.6619 -0.8971
 1657SOL     OW16606   2.831   2.640   6.522  0.1378  0.5032 -0.5260
 1657SOL    HW116607   2.751   2.595   6.546  0.7984  0.6772  1.9833
 1657SOL    HW216608   2.791   2.697   6.456  0.2156  0.1639 -0.8667
 1658SOL     OW16609   2.059   3.202   1.661 -0.9403  0.6345 -0.2164
 1658SOL    HW116610   2.065   3.294   1.637 -1.2702  0.9079  0.7448
 1658SOL    HW216611   1.966   3.189   1.682 -0.5954  1.8373  1.9946
 1659SOL     OW16612   4.055   3.512   6.996  0.1714  0.0466 -0.0865
 1659SOL    HW116613   4.055   3.588   6.938  2.3728 -0.8582 -1.2931
 1659SOL    HW216614   3.960   3.503   6.995  0.2509 -0.9950  2.2174
 1660SOL     OW16615   1.096   4.126   0.433 -0.0099  0.0448 -0.0393
 1660SOL    HW116616   1.181   4.150   0.469 -0.7697 -0.5862  2.1757
 1660SOL    HW216617   1.041   4.128   0.511 -1.0045 -4.0560 -0.6110
 1661SOL     OW16618   2.564   3.237   9.226 -0.5681  0.6228 -0.3663
 1661SOL    HW116619   2.567   3.297   9.152 -0.1062 -1.4035 -1.9696
 1661SOL    HW216620   2.563   3.150   9.186 -1.2020  0.7119 -0.5468
 1662SOL     OW16621   2.013   3.636   5.385 -0.3251 -0.0660  0.4062
 1662SOL    HW116622   1.918   3.622   5.387 -0.1547 -1.5730 -1.0868
 1662SOL    HW216623   2.038   3.598   5.469 -2.1312 -1.4955  0.3087
 1663SOL     OW16624   2.051   3.313   6.734  0.3055 -0.1486 -0.2130
 1663SOL    HW116625   2.027   3.353   6.651 -0.4336  0.4512  0.2863
 1663SOL    HW216626   2.144   3.296   6.717  0.3366  0.4468 -0.6410
 1664SOL     OW16627   1.805   3.405   4.916 -0.3281  0.1229 -0.0979
 1664SOL    HW116628   1.863   3.348   4.866  2.6492  1.1450  2.1112
 1664SOL    HW216629   1.862   3.483   4.917  1.7811 -1.4063 -0.1690
 1665SOL     OW16630   1.897   1.964  11.331  0.4867 -0.1589 -0.0304
 1665SOL    HW116631   1.977   2.017  11.334  1.2161 -0.9563 -4.4692
 1665SOL    HW216632   1.928   1.878  11.358  1.2867  0.0212 -0.3820
 1666SOL     OW16633   0.853   0.026   2.949 -0.5333  0.4542  0.8425
 1666SOL    HW116634   0.911   0.045   3.022 -0.2548 -1.9714  1.2554
 1666SOL    HW216635   0.913   0.036   2.875 -0.0536  0.4123  1.2287
 1667SOL     OW16636   3.974   1.508   4.896 -0.1666 -0.3703  0.4283
 1667SOL    HW116637   3.945   1.497   4.987 -0.7323  0.0759  0.3032
 1667SOL    HW216638   3.942   1.596   4.875  0.7500  0.6665  3.3964
 1668SOL     OW16639   0.220   4.144   5.045 -0.6289  0.5475  0.3328
 1668SOL    HW116640   0.160   4.174   4.977 -1.0967 -0.3329  0.3604
 1668SOL    HW216641   0.266   4.069   5.007  0.1242 -0.3863  3.0353
 1669SOL     OW16642   4.016   2.901   7.491  0.2126  0.7690  0.0239
 1669SOL    HW116643   3.938   2.848   7.477  2.1256 -1.8549 -0.6996
 1669SOL    HW216644   4.079   2.893   7.419  0.4406  3.4677 -0.0735
 1670SOL     OW16645   3.995   2.460   3.621 -0.5470 -0.0524  0.2376
 1670SOL    HW116646   3.947   2.378   3.607 -1.1681  0.0812  1.6162
 1670SOL    HW216647   4.059   2.428   3.684 -0.0849  0.1125 -0.1476
 1671SOL     OW16648   0.588   3.508   7.102  0.3107  0.0483  0.4694
 1671SOL    HW116649   0.667   3.459   7.078  0.4902  0.5748 -0.0258
 1671SOL    HW216650   0.615   3.542   7.188 -1.8149 -0.8293  1.4607
 1672SOL     OW16651   2.291   2.534   7.658 -0.0849 -0.2047  0.0950
 1672SOL    HW116652   2.261   2.452   7.696  0.2181  1.0982  3.1377
 1672SOL    HW216653   2.384   2.516   7.646 -0.0178 -0.3162  0.7935
 1673SOL     OW16654   1.296   0.859   1.733 -0.7595  0.1111  0.1918
 1673SOL    HW116655   1.352   0.783   1.750 -0.2888  0.1692 -1.0598
 1673SOL    HW216656   1.245   0.822   1.661  1.0536  1.0201 -1.5711
 1674SOL     OW16657   2.607   1.465   2.322 -0.1003 -0.1165  0.3222
 1674SOL    HW116658   2.559   1.518   2.260 -0.3733  0.3768  0.9540
 1674SOL    HW216659   2.586   1.506   2.406  2.0179  1.6675 -0.0042
 1675SOL     OW16660   0.909   2.208   6.963 -0.3357  0.3161  0.6123
 1675SOL    HW116661   0.961   2.217   6.883  0.5257  1.5438  1.3001
 1675SOL    HW216662   0.822   2.190   6.927  0.9704 -0.0137 -2.3484
 1676SOL     OW16663   2.068   1.303   2.346  0.0565  0.0753  0.2500
 1676SOL    HW116664   2.017   1.231   2.308 -2.3962  3.3719 -2.6710
 1676SOL    HW216665   1.993   1.359   2.365 -0.8511 -0.7739 -0.7791
 1677SOL     OW16666   2.299   0.890   4.819 -0.3956 -0.1234  0.1617
 1677SOL    HW116667   2.248   0.947   4.761  1.6602  1.6101  0.0366
 1677SOL    HW216668   2.354   0.959   4.856  0.3158 -0.2596 -0.6424
 1678SOL     OW16669   1.100   2.254   9.243 -0.9419  0.0542  0.1146
 1678SOL    HW116670   1.038   2.296   9.302 -2.1128 -0.3097 -0.8689
 1678SOL    HW216671   1.145   2.334   9.218  1.5767 -1.5258 -0.4651
 1679SOL     OW16672   2.874   1.945   4.239 -0.0154  0.0408  0.8420
 1679SOL    HW116673   2.823   1.907   4.168  0.0615  0.1660  0.7200
 1679SOL    HW216674   2.897   2.032   4.205  1.3232 -0.0152  1.5936
 1680SOL     OW16675   1.533   2.192   8.195  0.4499 -0.2238 -0.1385
 1680SOL    HW116676   1.486   2.155   8.270  1.8600 -0.6422  0.5417
 1680SOL    HW216677   1.489   2.140   8.127 -3.2698  3.6162 -0.6884
 1681SOL     OW16678   1.926   3.167  12.346  0.3078  0.7675 -0.2389
 1681SOL    HW116679   1.982   3.165  12.268 -0.1868  0.8048 -0.5929
 1681SOL    HW216680   1.857   3.100  12.340  0.7600  0.2287  0.5814
 1682SOL     OW16681   1.668   3.688   9.023 -0.4642  0.4179 -0.1570
 1682SOL    HW116682   1.606   3.623   8.990  0.8546 -0.9050  0.0216
 1682SOL    HW216683   1.747   3.635   9.019  0.2455  1.4314  0.4368
 1683SOL     OW16684   3.705   0.118  15.569 -0.4861  0.2009  0.2261
 1683SOL    HW116685   3.699   0.174  15.646 -0.9539  3.1379 -1.9276
 1683SOL    HW216686   3.612   0.096  15.564 -0.2294 -0.7050 -0.5014
 1684SOL     OW16687   0.327   3.231   6.731  0.0536 -0.6444 -0.5816
 1684SOL    HW116688   0.250   3.182   6.760 -1.4101  2.2891  0.4658
 1684SOL    HW216689   0.283   3.313   6.710  0.8448  0.2031  1.0677
 1685SOL     OW16690   1.720   4.688   6.287 -0.1006 -0.4994  0.0633
 1685SOL    HW116691   1.650   4.686   6.353 -0.1656 -1.0999 -0.0282
 1685SOL    HW216692   1.686   4.633   6.217  1.1547  1.6294 -2.2004
 1686SOL     OW16693   2.800   0.485   3.602 -0.3004  0.1799 -0.6357
 1686SOL    HW116694   2.809   0.496   3.507 -0.3778  0.6800 -0.5832
 1686SOL    HW216695   2.839   0.397   3.608 -0.8663  0.0193  0.7637
 1687SOL     OW16696   4.619   3.087   2.797 -0.2246 -0.8187 -0.8743
 1687SOL    HW116697   4.658   3.000   2.804 -0.4588 -0.7995  0.6841
 1687SOL    HW216698   4.671   3.118   2.723 -0.7328  0.2067 -0.7984
 1688SOL     OW16699   1.430   1.577   7.268  0.5942  0.3018  0.2590
 1688SOL    HW116700   1.394   1.547   7.185  0.5702  2.3889 -0.5010
 1688SOL    HW216701   1.371   1.528   7.325 -1.1188  1.2658 -0.6715
 1689SOL     OW16702   0.342   3.678   4.087 -0.8510  0.4790  0.0065
 1689SOL    HW116703   0.358   3.729   4.166 -3.6603 -0.7755  1.3743
 1689SOL    HW216704   0.386   3.725   4.017 -1.1089 -0.0819 -0.5311
 1690SOL     OW16705   3.154   3.690   6.141 -0.4960 -0.1319 -0.2320
 1690SOL    HW116706   3.246   3.708   6.120 -1.0695  0.8865 -1.9061
 1690SOL    HW216707   3.107   3.741   6.076 -0.7133 -0.1640 -0.0986
 1691SOL     OW16708   3.664   4.418  17.316 -0.0303  0.2158 -0.0719
 1691SOL    HW116709   3.735   4.354  17.321  1.4988  2.0132  1.5868
 1691SOL    HW216710   3.608   4.383  17.247 -0.0076 -0.6693  0.3623
 1692SOL     OW16711   0.612   3.977   9.194  0.0063  0.5769 -0.7753
 1692SOL    HW116712   0.658   4.053   9.159 -2.3283  2.6968  0.7592
 1692SOL    HW216713   0.546   4.015   9.251  0.4415  0.4619 -0.1866
 1693SOL     OW16714   1.438   2.410   5.190 -0.0014 -0.3514  0.8358
 1693SOL    HW116715   1.475   2.494   5.165  1.2419 -0.5491  2.0201
 1693SOL    HW216716   1.357   2.439   5.232 -0.5651 -0.9886  0.1911
 1694SOL     OW16717   1.769   4.226   6.195 -0.2850  0.1543  0.3082
 1694SOL    HW116718   1.774   4.272   6.111  0.0262 -0.6486 -0.1087
 1694SOL    HW216719   1.733   4.139   6.179  2.6085 -1.5970  3.0781
 1695SOL     OW16720   4.032   0.299   2.687 -0.0490 -0.7596  0.4756
 1695SOL    HW116721   3.961   0.255   2.641 -0.8722  0.0953  0.9380
 1695SOL    HW216722   4.110   0.245   2.674 -0.2705 -1.2031  0.9717
 1696SOL     OW16723   0.344   3.665   5.915  0.3172  0.4351 -0.3891
 1696SOL    HW116724   0.376   3.715   5.840 -0.1309 -0.3079 -1.0825
 1696SOL    HW216725   0.310   3.741   5.962  1.9848  0.4059  0.8766
 1697SOL     OW16726   3.025   4.197  11.353  0.8204  0.0588 -0.1748
 1697SOL    HW116727   3.095   4.138  11.324  2.2412  0.9667  1.3744
 1697SOL    HW216728   3.065   4.213  11.439  0.8476  0.5858 -0.2871
 1698SOL     OW16729   2.143   2.738   7.757  0.1383  0.0216 -0.0198
 1698SOL    HW116730   2.175   2.649   7.745  0.7114  0.2593 -0.2342
 1698SOL    HW216731   2.194   2.784   7.690  0.4456 -0.0347  0.1781
 1699SOL     OW16732   1.094   3.068   5.072  0.1924  0.7013  0.4400
 1699SOL    HW116733   1.150   3.016   5.130 -0.5855 -1.3908 -0.6899
 1699SOL    HW216734   1.023   3.007   5.053 -0.1712  1.7003 -1.4488
 1700SOL     OW16735   1.198   4.580   5.768 -0.5644 -0.5153 -0.4528
 1700SOL    HW116736   1.126   4.639   5.791  0.6436  1.3363 -1.3241
 1700SOL    HW216737   1.180   4.512   5.832 -1.0142  0.0998  0.0827
 1701SOL     OW16738   2.037   1.582   6.377 -0.1034  0.3979  0.1805
 1701SOL    HW116739   2.011   1.621   6.460  0.9071  2.5575 -0.5085
 1701SOL    HW216740   1.955   1.563   6.331 -1.0329  3.3867  0.6410
 1702SOL     OW16741   2.743   1.796   8.478  0.2642 -0.1627 -0.0438
 1702SOL    HW116742   2.703   1.761   8.558  1.3673  3.0602  1.9032
 1702SOL    HW216743   2.794   1.868   8.514 -0.6001 -0.3028  1.4684
 1703SOL     OW16744   1.660   3.278  17.102 -0.6408 -0.1014 -0.5301
 1703SOL    HW116745   1.578   3.272  17.152  0.2241  0.1227  0.9251
 1703SOL    HW216746   1.637   3.222  17.029  1.1793 -1.7680  0.1951
 1704SOL     OW16747   0.518   3.331  16.030  0.6254  0.4915  0.3265
 1704SOL    HW116748   0.554   3.417  16.051 -0.0073  0.9032 -0.2662
 1704SOL    HW216749   0.580   3.314  15.959  0.4260 -0.7682  0.4666
 1705SOL     OW16750   4.204   1.380   6.213  0.0144 -0.1848 -0.1491
 1705SOL    HW116751   4.295   1.353   6.200  0.9413  2.7918  0.1202
 1705SOL    HW216752   4.207   1.436   6.290  2.3944 -1.5240  0.7373
 1706SOL     OW16753   4.641   1.366   0.765 -0.2287 -0.0699  0.2597
 1706SOL    HW116754   4.617   1.309   0.692 -1.1387  1.0790 -0.3225
 1706SOL    HW216755   4.734   1.377   0.748  0.1762 -1.6517  1.3831
 1707SOL     OW16756   1.040   1.389   1.689 -0.4888  0.0320 -0.4290
 1707SOL    HW116757   1.054   1.294   1.688  2.0563  0.3925  0.7924
 1707SOL    HW216758   1.031   1.392   1.594 -2.4230 -1.3280 -0.2770
 1708SOL     OW16759   4.368   1.605  13.120  0.1246 -0.2251 -0.1578
 1708SOL    HW116760   4.442   1.606  13.060 -1.1041 -0.9231 -1.6983
 1708SOL    HW216761   4.408   1.638  13.201 -1.0216 -1.5995  0.9769
 1709SOL     OW16762   3.059   3.452   4.069 -0.4469 -0.2738 -0.0541
 1709SOL    HW116763   3.050   3.429   4.161 -2.9411 -2.0025 -0.7148
 1709SOL    HW216764   3.143   3.497   4.068  0.0241 -1.1508  0.2632
 1710SOL     OW16765   0.297   4.334   8.339  0.1656  0.0372  0.4734
 1710SOL    HW116766   0.256   4.370   8.417  2.7426 -0.9534  2.3102
 1710SOL    HW216767   0.380   4.382   8.339  0.1176  0.1776 -3.0424
 1711SOL     OW16768   0.657   4.549   8.865 -0.1733  0.2274 -0.4852
 1711SOL    HW116769   0.682   4.471   8.914 -2.4960  1.0833  2.0372
 1711SOL    HW216770   0.605   4.591   8.933 -1.8948 -0.3255 -1.4456
 1712SOL     OW16771   3.613   2.050   4.034  0.2185  0.3710  0.1254
 1712SOL    HW116772   3.553   2.040   4.108 -1.4036  0.1812 -1.2016
 1712SOL    HW216773   3.672   1.976   4.045  0.6770  0.7960  0.5499
 1713SOL     OW16774   2.872   1.349   0.784  0.0719  0.0546 -0.2105
 1713SOL    HW116775   2.783   1.314   0.785  0.8025 -1.7920 -0.2081
 1713SOL    HW216776   2.895   1.321   0.696  0.3294  0.6985 -0.3512
 1714SOL     OW16777   1.362   3.189  13.566 -0.0625  0.1314  0.1676
 1714SOL    HW116778   1.270   3.171  13.544 -0.5635  1.9029  0.7877
 1714SOL    HW216779   1.366   3.277  13.527 -0.4394  0.4301  0.7903
 1715SOL     OW16780   4.440   1.247   0.957  0.5664  0.0845 -0.9616
 1715SOL    HW116781   4.394   1.329   0.940  0.2076  0.0756  0.0189
 1715SOL    HW216782   4.497   1.247   0.880  0.5282 -0.1133 -0.9913
 1716SOL     OW16783   4.301   3.857   6.135  0.4264  1.0364  0.1279
 1716SOL    HW116784   4.276   3.778   6.089  1.3977  1.7707 -1.6546
 1716SOL    HW216785   4.278   3.926   6.073 -0.7905  0.0609 -0.4958
 1717SOL     OW16786   2.949   1.047   6.199 -0.3348 -0.0365  0.1847
 1717SOL    HW116787   3.022   0.986   6.185 -0.1794  1.0353 -3.6991
 1717SOL    HW216788   2.903   1.046   6.115 -2.1868  2.6953  1.1959
 1718SOL     OW16789   1.812   2.943   5.296  0.0100 -0.5492  0.4977
 1718SOL    HW116790   1.733   2.947   5.349  0.5530  0.9988  1.1889
 1718SOL    HW216791   1.868   3.017   5.321 -0.6844  0.0686  0.1998
 1719SOL     OW16792   1.765   0.218   5.843 -0.2621 -0.1588 -0.3756
 1719SOL    HW116793   1.727   0.276   5.777 -0.2161  1.2893  0.8838
 1719SOL    HW216794   1.838   0.183   5.791 -0.1871 -0.3259 -0.1567
 1720SOL     OW16795   2.814   3.296   9.331  0.1733 -0.2246 -0.2955
 1720SOL    HW116796   2.792   3.389   9.335 -1.4531 -0.5164 -2.2118
 1720SOL    HW216797   2.737   3.280   9.276  0.9975 -1.3577 -1.1290
 1721SOL     OW16798   2.372   2.896   7.694  0.6475 -0.5075 -0.2960
 1721SOL    HW116799   2.439   2.964   7.685  1.3312 -1.1506 -0.0656
 1721SOL    HW216800   2.391   2.854   7.778 -1.0718 -1.0429 -0.1888
 1722SOL     OW16801   2.697   4.388   6.540  0.2310 -0.4368  0.2382
 1722SOL    HW116802   2.776   4.356   6.583  0.3820  2.8298  2.4318
 1722SOL    HW216803   2.720   4.480   6.524  2.5863 -0.4450  3.5838
 1723SOL     OW16804   0.765   3.003   2.798  0.4578 -0.0511 -0.2261
 1723SOL    HW116805   0.813   3.085   2.789  1.0368 -0.2332  1.2902
 1723SOL    HW216806   0.830   2.945   2.839  0.6122  0.6461  0.5043
 1724SOL     OW16807   4.398   0.546   5.649 -0.0936  0.0272 -0.1557
 1724SOL    HW116808   4.317   0.571   5.694 -0.9693 -0.9064 -1.1770
 1724SOL    HW216809   4.406   0.458   5.686 -1.2858  0.3882  0.9760
 1725SOL     OW16810   1.907   0.007   5.189 -0.3295  0.9815  0.3494
 1725SOL    HW116811   1.928   4.661   5.144 -2.0643  0.2745  0.8030
 1725SOL    HW216812   1.962   0.065   5.137  0.5815 -0.6580 -0.5181
 1726SOL     OW16813   1.684   4.491   3.640  0.3739  0.0327 -0.0929
 1726SOL    HW116814   1.720   4.455   3.559 -1.2956  0.7805 -1.1512
 1726SOL    HW216815   1.660   4.580   3.616 -1.0856 -0.9883 -2.3843
 1727SOL     OW16816   0.838   4.361   1.266 -0.0055 -0.5992 -0.1109
 1727SOL    HW116817   0.863   4.358   1.359  2.5771 -0.0010 -0.7769
 1727SOL    HW216818   0.755   4.313   1.271  0.0807 -0.8594 -1.1927
 1728SOL     OW16819   2.238   2.744   3.560  0.1594 -0.3335 -0.1927
 1728SOL    HW116820   2.158   2.739   3.613 -0.1255 -4.6674 -0.9758
 1728SOL    HW216821   2.221   2.675   3.495 -1.0434  0.4929 -0.7531
 1729SOL     OW16822   2.201   4.092   9.973  0.2175  0.7829 -0.1624
 1729SOL    HW116823   2.220   4.060   9.885  0.4213  1.7460 -0.4741
 1729SOL    HW216824   2.179   4.185   9.960 -0.5099  0.1920 -3.2291
 1730SOL     OW16825   4.508   4.135  13.333  0.3638  0.1309  0.5464
 1730SOL    HW116826   4.481   4.065  13.393 -0.2412 -0.4373 -0.3923
 1730SOL    HW216827   4.562   4.072  13.286 -2.5552 -0.6545 -1.7149
 1731SOL     OW16828   2.312   1.340   6.539 -0.3484  0.6179 -0.2749
 1731SOL    HW116829   2.273   1.317   6.455  0.3236  0.5024 -0.5574
 1731SOL    HW216830   2.366   1.262   6.555 -1.4244 -0.0859 -0.0542
 1732SOL     OW16831   2.642   1.641   1.836  0.4043  0.0494  0.3500
 1732SOL    HW116832   2.637   1.553   1.798 -0.3629 -0.0437  0.6701
 1732SOL    HW216833   2.608   1.701   1.770 -0.9174 -0.7826  0.2552
 1733SOL     OW16834   2.542   2.116  16.795 -0.4936  0.3483 -0.2400
 1733SOL    HW116835   2.509   2.061  16.724  1.0459 -1.6850  0.6141
 1733SOL    HW216836   2.496   2.075  16.867  0.3540 -1.2385 -0.6079
 1734SOL     OW16837   1.048   0.479   0.430 -0.1154 -0.4670  0.9007
 1734SOL    HW116838   1.104   0.413   0.471  0.6289  0.6361  1.6494
 1734SOL    HW216839   0.961   0.459   0.465 -0.4950  1.2536  0.9492
 1735SOL     OW16840   1.892   3.512   8.969  0.1628 -0.0245 -0.5135
 1735SOL    HW116841   1.818   3.479   8.919 -0.0619  0.3821 -0.4501
 1735SOL    HW216842   1.939   3.434   8.998 -2.3204 -0.6171  1.8567
 1736SOL     OW16843   2.685   1.995  13.289  0.1009 -0.3318 -0.1770
 1736SOL    HW116844   2.758   1.979  13.350  0.3663  0.1754 -0.3624
 1736SOL    HW216845   2.649   2.071  13.336 -1.4235 -1.4805  0.5025
 1737SOL     OW16846   1.307   0.600   7.735  0.1785 -0.5804  0.3579
 1737SOL    HW116847   1.301   0.587   7.830 -0.7827 -3.4611 -0.0986
 1737SOL    HW216848   1.218   0.632   7.717 -0.0105 -1.8032 -0.8915
 1738SOL     OW16849   2.176   2.961  10.589  0.1373  0.3023  0.0700
 1738SOL    HW116850   2.159   2.905  10.513 -0.6413  1.0701 -0.3098
 1738SOL    HW216851   2.212   2.896  10.650  1.6517 -0.4111 -1.5833
 1739SOL     OW16852   1.380   3.956   7.621  0.0916  0.2118  0.1196
 1739SOL    HW116853   1.421   4.042   7.611 -0.0957  0.1829 -0.8977
 1739SOL    HW216854   1.331   3.945   7.540  1.2635  0.1868 -0.5788
 1740SOL     OW16855   4.018   3.645   4.852  0.4068  0.3676 -0.0636
 1740SOL    HW116856   3.933   3.669   4.888  0.6282  0.1448  0.6006
 1740SOL    HW216857   4.055   3.616   4.935  1.3703  0.3990 -0.4746
 1741SOL     OW16858   2.883   0.625  10.945  0.3970  0.3681 -0.4404
 1741SOL    HW116859   2.805   0.679  10.930  0.7445  1.1370  0.5109
 1741SOL    HW216860   2.927   0.669  11.018  2.0394 -3.9966  1.1690
 1742SOL     OW16861   0.571   1.654   7.215 -0.3062 -0.3019 -0.0488
 1742SOL    HW116862   0.641   1.589   7.218  0.9370  0.9837 -1.2988
 1742SOL    HW216863   0.603   1.728   7.267 -1.3156 -1.0274  1.6143
 1743SOL     OW16864   2.561   1.965   9.439  0.1260 -0.0012 -0.1266
 1743SOL    HW116865   2.476   1.955   9.397  0.6346  0.6627 -1.3033
 1743SOL    HW216866   2.581   2.056   9.419  0.0306  0.1457  0.4515
 1744SOL     OW16867   4.569   0.871   6.432 -0.4115  0.1598 -0.3075
 1744SOL    HW116868   4.578   0.944   6.494  0.0732 -0.4898  0.3998
 1744SOL    HW216869   4.517   0.909   6.362 -0.9949 -2.3384 -1.2330
 1745SOL     OW16870   1.233   2.302   1.342 -0.1101  0.0774 -0.5646
 1745SOL    HW116871   1.241   2.212   1.308  0.9451  0.1879 -0.6185
 1745SOL    HW216872   1.175   2.346   1.280 -1.1613  0.8008  0.9288
 1746SOL     OW16873   2.376   3.527   8.514 -0.4147 -0.4730 -0.2323
 1746SOL    HW116874   2.355   3.470   8.588  0.5551  0.2255  0.5842
 1746SOL    HW216875   2.307   3.507   8.451 -0.2238 -1.0938 -0.2479
 1747SOL     OW16876   2.599   2.178  15.808  0.0804  0.6278 -0.1495
 1747SOL    HW116877   2.589   2.272  15.792  1.2820  0.8759  0.5743
 1747SOL    HW216878   2.537   2.137  15.748 -0.8735  0.1436  1.1484
 1748SOL     OW16879   2.683   1.003   5.535 -0.8848  0.0457  0.7463
 1748SOL    HW116880   2.609   0.949   5.507  0.4046 -0.5262 -1.5840
 1748SOL    HW216881   2.633   1.066   5.587  0.9271  0.4385  2.0048
 1749SOL     OW16882   1.146   3.989  16.560  0.6533  0.0520  0.0317
 1749SOL    HW116883   1.231   3.945  16.570  0.4743 -0.8897 -2.7409
 1749SOL    HW216884   1.084   3.962  16.628 -0.3898  0.1644 -0.8860
 1750SOL     OW16885   1.270   0.207  14.983  0.0354  0.1110 -0.3733
 1750SOL    HW116886   1.292   0.133  15.038  0.3459 -0.7372 -1.6368
 1750SOL    HW216887   1.279   0.280  15.044 -2.8825  0.4419 -0.3232
 1751SOL     OW16888   3.113   2.773   0.576  0.1906  0.5360 -0.3339
 1751SOL    HW116889   3.031   2.791   0.529  0.7655  2.0819 -0.7627
 1751SOL    HW216890   3.170   2.764   0.500  1.0055 -1.3524  0.5056
 1752SOL     OW16891   3.546   3.571   5.987  0.2002  0.3624  0.1316
 1752SOL    HW116892   3.489   3.639   6.023  0.9968  0.9461  0.3064
 1752SOL    HW216893   3.603   3.534   6.055 -1.1061  0.6451  1.3749
 1753SOL     OW16894   4.408   3.674   4.072 -0.0671  0.2395  0.0350
 1753SOL    HW116895   4.457   3.673   4.154  1.7203 -1.5219 -1.0631
 1753SOL    HW216896   4.352   3.597   4.075 -0.1093  0.2605 -0.1892
 1754SOL     OW16897   3.765   2.650  11.744  0.0352  0.0107  0.4902
 1754SOL    HW116898   3.849   2.657  11.789 -0.0739 -1.4708  0.9152
 1754SOL    HW216899   3.717   2.712  11.799 -1.8276 -1.6376  0.7365
 1755SOL     OW16900   3.270   3.643   5.146  0.2712 -0.4688  0.0753
 1755SOL    HW116901   3.296   3.659   5.055  3.6817 -0.4725  1.0779
 1755SOL    HW216902   3.296   3.551   5.152  0.1800 -0.4824  0.2788
 1756SOL     OW16903   1.583   0.019   2.192 -0.8429 -0.0013 -0.3115
 1756SOL    HW116904   1.558   0.097   2.240 -1.5331 -0.4905  0.1265
 1756SOL    HW216905   1.573   4.687   2.259 -1.1315  0.9006  0.5605
 1757SOL     OW16906   2.733   4.523   5.361 -0.1423  0.2588  0.0408
 1757SOL    HW116907   2.734   4.473   5.443  1.9774  0.3377  0.0796
 1757SOL    HW216908   2.829   4.522   5.359 -0.1883 -1.6457 -0.8768
 1758SOL     OW16909   3.617   4.150   2.205 -0.2612 -0.3348  0.0432
 1758SOL    HW116910   3.624   4.148   2.301 -0.4705 -1.2050  0.0389
 1758SOL    HW216911   3.684   4.086   2.181 -0.0230 -0.3040  0.6346
 1759SOL     OW16912   3.778   1.193  11.756 -0.1088  0.9439 -0.3543
 1759SOL    HW116913   3.849   1.141  11.720  2.1512  1.2269  3.6902
 1759SOL    HW216914   3.791   1.273  11.706 -1.9994  0.8550 -0.9992
 1760SOL     OW16915   2.665   1.427   9.719  0.5243 -0.3757 -0.2368
 1760SOL    HW116916   2.603   1.500   9.721  1.3924  0.3410  0.1942
 1760SOL    HW216917   2.694   1.423   9.810  0.6712  0.4186 -0.2505
 1761SOL     OW16918   1.491   4.137   8.354  0.4103  0.1392 -0.4156
 1761SOL    HW116919   1.424   4.199   8.324  1.0635 -0.0288 -2.1972
 1761SOL    HW216920   1.561   4.201   8.367  0.7080 -0.3685  0.4934
 1762SOL     OW16921   0.004   1.767   5.352  0.6162  0.3058  0.1918
 1762SOL    HW116922   0.034   1.813   5.430 -0.4897  3.8783 -1.4974
 1762SOL    HW216923   4.646   1.762   5.366  0.0877  1.3754 -2.9102
 1763SOL     OW16924   0.366   1.593   8.712  0.2195  0.4373 -0.1070
 1763SOL    HW116925   0.325   1.644   8.644  0.6403 -1.1655 -1.5647
 1763SOL    HW216926   0.351   1.643   8.793 -0.2293  0.7614 -0.3939
 1764SOL     OW16927   2.730   0.640  13.902 -0.1751 -0.1457  0.3027
 1764SOL    HW116928   2.653   0.589  13.880  0.1247 -0.0837 -0.8706
 1764SOL    HW216929   2.808   0.588  13.880  0.9178  2.0835 -1.0587
 1765SOL     OW16930   2.438   3.502   5.244  0.1124 -0.1242 -0.0918
 1765SOL    HW116931   2.527   3.498   5.211  0.2956 -0.2452  0.4181
 1765SOL    HW216932   2.390   3.562   5.188  0.0713 -0.9227 -0.9118
 1766SOL     OW16933   2.026   2.116   3.663 -0.0129  0.6454  0.3379
 1766SOL    HW116934   2.085   2.190   3.645 -0.0402  0.4428 -0.5586
 1766SOL    HW216935   1.976   2.118   3.582  2.4751  0.4545 -1.2201
 1767SOL     OW16936   0.346   3.417   4.187 -0.0157  0.2083  0.1794
 1767SOL    HW116937   0.356   3.512   4.184 -1.3234  0.3573  0.4935
 1767SOL    HW216938   0.352   3.394   4.280 -2.9146  1.5800  0.7012
 1768SOL     OW16939   1.250   2.558   3.871 -1.1178  0.0030 -0.2704
 1768SOL    HW116940   1.322   2.613   3.839 -0.7894  0.8650  1.9392
 1768SOL    HW216941   1.246   2.485   3.809 -0.7386  0.5404 -0.9278
 1769SOL     OW16942   0.242   0.627   3.738  0.5859 -0.2239  0.0706
 1769SOL    HW116943   0.166   0.598   3.689 -2.2745  3.9510  2.0370
 1769SOL    HW216944   0.263   0.544   3.781 -0.2107 -0.2673  0.3759
 1770SOL     OW16945   3.698   4.690   7.933 -0.2087 -0.2835 -0.0405
 1770SOL    HW116946   3.679   4.597   7.940 -0.4960 -0.2575 -0.5399
 1770SOL    HW216947   3.768   4.689   7.999 -0.3011  3.9881  0.1330
 1771SOL     OW16948   2.645   3.954  17.569  0.0598 -0.6457 -0.3605
 1771SOL    HW116949   2.587   3.889  17.532  0.1425 -0.6409 -0.5009
 1771SOL    HW216950   2.629   4.027  17.509  0.4405 -2.0992 -2.1906
 1772SOL     OW16951   2.860   1.115  17.278  0.1594 -0.6821  0.2993
 1772SOL    HW116952   2.777   1.106  17.231 -0.1861  1.2898  0.5377
 1772SOL    HW216953   2.835   1.107  17.370  1.1221  0.6717  0.6724
 1773SOL     OW16954   2.029   2.743   4.787  0.2340  0.3068  0.0213
 1773SOL    HW116955   2.020   2.796   4.866 -1.8584 -1.0325  0.6858
 1773SOL    HW216956   2.007   2.799   4.712  1.3525 -0.0292 -0.5499
 1774SOL     OW16957   2.003   3.665  16.919  0.1455 -0.1464 -0.1045
 1774SOL    HW116958   2.080   3.609  16.928  0.8189  0.9775  1.2514
 1774SOL    HW216959   1.934   3.622  16.969 -1.1862  1.0249 -0.9359
 1775SOL     OW16960   3.517   2.695   1.580  0.4739  0.0662 -0.0203
 1775SOL    HW116961   3.573   2.757   1.533 -0.9018  1.0594 -0.3262
 1775SOL    HW216962   3.576   2.620   1.573  1.5844  1.2407 -3.3427
 1776SOL     OW16963   1.627   2.926  10.617 -0.1799  0.1743 -0.5022
 1776SOL    HW116964   1.586   3.001  10.574  0.4876  0.7692 -0.1085
 1776SOL    HW216965   1.719   2.952  10.620  0.6550 -3.2453  3.6105
 1777SOL     OW16966   4.613   3.555   7.935 -0.1993  0.0517 -0.0516
 1777SOL    HW116967   4.642   3.530   8.023 -1.1069  1.2952  0.6012
 1777SOL    HW216968   4.670   3.630   7.917 -0.6975  0.4308 -0.0383
 1778SOL     OW16969   0.779   2.886   7.617  0.0779 -0.3417  0.1805
 1778SOL    HW116970   0.833   2.903   7.540  0.3751  1.9863  0.8758
 1778SOL    HW216971   0.747   2.797   7.608  0.8186 -0.4182 -1.4930
 1779SOL     OW16972   2.250   2.030   5.443 -0.5247  0.3964  0.2494
 1779SOL    HW116973   2.294   1.966   5.387  0.4467  0.1125  1.3307
 1779SOL    HW216974   2.314   2.101   5.447 -0.9901  0.7398  1.5933
 1780SOL     OW16975   2.005   0.748  13.866  0.1451  0.6034 -0.0808
 1780SOL    HW116976   2.083   0.782  13.909  0.8335 -0.2010 -0.6967
 1780SOL    HW216977   1.963   0.826  13.831 -1.5711  0.1098  0.8818
 1781SOL     OW16978   2.764   2.055   3.587 -0.1434  0.0572 -0.0488
 1781SOL    HW116979   2.701   2.093   3.648 -0.5854 -1.1373  0.2329
 1781SOL    HW216980   2.810   2.137   3.566  0.4241 -0.2491  0.0136
 1782SOL     OW16981   2.148   2.252   0.848  0.3676 -0.0538  0.3987
 1782SOL    HW116982   2.158   2.346   0.865 -0.1296  0.1151 -0.2095
 1782SOL    HW216983   2.130   2.258   0.754 -0.8956 -0.6350  0.6026
 1783SOL     OW16984   0.106   3.826   6.487 -0.6999 -0.3611  0.3377
 1783SOL    HW116985   0.136   3.776   6.412  0.3076  0.0021  0.4994
 1783SOL    HW216986   0.018   3.787   6.486 -0.6427 -0.4108 -1.8829
 1784SOL     OW16987   1.069   4.460   4.292 -0.0246 -0.2314  0.0314
 1784SOL    HW116988   1.138   4.473   4.226  1.6930  2.1350  2.2795
 1784SOL    HW216989   1.011   4.529   4.262 -0.2492 -0.3104  0.2904
 1785SOL     OW16990   3.093   3.501   6.461  0.2288 -0.1543  0.1981
 1785SOL    HW116991   3.163   3.520   6.523 -0.6234  3.8758 -0.1224
 1785SOL    HW216992   3.107   3.414   6.423  1.9324  0.4068 -0.4613
 1786SOL     OW16993   3.253   1.525   9.413  0.0926 -0.4230  0.0237
 1786SOL    HW116994   3.329   1.486   9.371 -0.7397 -1.8157 -0.1680
 1786SOL    HW216995   3.252   1.611   9.369 -0.3248 -1.0554 -1.2077
 1787SOL     OW16996   2.751   3.542  14.578  0.2165  0.3791 -0.2272
 1787SOL    HW116997   2.752   3.543  14.482  2.1952  0.8935 -0.1958
 1787SOL    HW216998   2.843   3.524  14.594 -0.2881 -1.2220  0.9598
 1788SOL     OW16999   1.045   1.992   5.061 -0.6255 -0.2614 -0.0670
 1788SOL    HW117000   1.017   1.930   4.994 -4.3696  1.9582 -0.5522
 1788SOL    HW217001   1.138   1.985   5.036 -0.2984  0.0060  1.0638
 1789SOL     OW17002   3.187   1.719  15.168 -0.1336 -0.5610 -0.0010
 1789SOL    HW117003   3.244   1.687  15.098 -1.6464 -3.6001  0.1899
 1789SOL    HW217004   3.200   1.814  15.163  0.3598 -0.5392  1.8033
 1790SOL     OW17005   0.860   0.622   3.815 -0.0041  0.2571 -0.2230
 1790SOL    HW117006   0.787   0.618   3.752 -0.5187 -1.1774  0.4918
 1790SOL    HW217007   0.820   0.605   3.900  1.1773  1.1072  0.4959
 1791SOL     OW17008   0.820   4.399   4.104 -0.1495 -0.3159 -0.0727
 1791SOL    HW117009   0.904   4.382   4.147 -0.7132 -0.3383  1.0244
 1791SOL    HW217010   0.760   4.424   4.174 -0.9188  0.4780 -1.0114
 1792SOL     OW17011   2.812   2.714   3.356 -0.3248 -0.4630 -0.1887
 1792SOL    HW117012   2.900   2.682   3.336 -0.2681 -0.3689 -0.0806
 1792SOL    HW217013   2.772   2.658   3.289 -3.3522 -0.3897  1.5375
 1793SOL     OW17014   0.103   3.497  10.433  0.5242  0.2822 -0.0448
 1793SOL    HW117015   0.076   3.512  10.523 -2.1878  3.8809 -1.4459
 1793SOL    HW217016   0.130   3.585  10.408 -1.0769  1.2076  1.4830
 1794SOL     OW17017   1.080   2.685   3.520  0.1363  0.0209 -0.2204
 1794SOL    HW117018   1.030   2.665   3.599 -1.8844 -0.1566 -1.5457
 1794SOL    HW217019   1.162   2.723   3.554 -0.3485  0.9185 -0.0555
 1795SOL     OW17020   1.237   2.743  15.199  0.1163  0.5438  0.0611
 1795SOL    HW117021   1.277   2.829  15.186 -0.0648  0.3602 -1.7182
 1795SOL    HW217022   1.151   2.773  15.227 -0.2746  0.2678 -0.8486
 1796SOL     OW17023   1.165   1.589   5.590  0.8043 -0.1399 -0.0890
 1796SOL    HW117024   1.074   1.567   5.605 -0.1246  2.3075 -2.1678
 1796SOL    HW217025   1.216   1.585   5.672  1.6147  0.8838 -0.5474
 1797SOL     OW17026   2.520   4.203   4.331  0.2163 -0.5086 -0.3070
 1797SOL    HW117027   2.461   4.246   4.392 -1.5291 -0.7778 -1.8087
 1797SOL    HW217028   2.571   4.134   4.373 -0.2610  0.0901  1.2353
 1798SOL     OW17029   0.041   1.685   3.674  0.3361  0.4400 -0.9195
 1798SOL    HW117030   0.132   1.676   3.700  0.0886  1.6386  0.3685
 1798SOL    HW217031   4.736   1.631   3.742 -0.5652  2.2896  0.0128
 1799SOL     OW17032   1.362   2.904   2.857  0.6150  0.5355  0.0906
 1799SOL    HW117033   1.359   2.849   2.936  0.4148  0.0500 -0.2518
 1799SOL    HW217034   1.332   2.853   2.782 -2.5061  1.2814  0.8128
 1800SOL     OW17035   2.988   1.841   7.570 -0.2319 -0.3469  0.3431
 1800SOL    HW117036   3.067   1.816   7.620 -0.4451 -2.3330 -0.3230
 1800SOL    HW217037   3.022   1.901   7.504  1.2811 -1.4208  0.1314
 1801SOL     OW17038   0.258   2.473   6.849 -0.2124 -0.1352  0.3417
 1801SOL    HW117039   0.172   2.501   6.879 -0.6503 -0.1348 -0.9640
 1801SOL    HW217040   0.299   2.559   6.857  0.0875 -0.1476 -1.1905
 1802SOL     OW17041   1.708   0.934   7.964 -0.3371  0.1587 -0.1320
 1802SOL    HW117042   1.716   0.842   7.939 -0.1363 -0.3018  1.6279
 1802SOL    HW217043   1.798   0.966   7.952 -0.5049  0.5496 -0.3416
 1803SOL     OW17044   1.471   1.516   3.532 -0.3561  0.2859  0.1776
 1803SOL    HW117045   1.432   1.597   3.563 -1.1723  1.4821 -4.0404
 1803SOL    HW217046   1.489   1.525   3.439 -1.6633 -2.4978 -0.3471
 1804SOL     OW17047   3.650   0.521   2.338  0.1863 -0.3024 -0.4530
 1804SOL    HW117048   3.651   0.482   2.250 -0.8481 -0.4417 -0.3994
 1804SOL    HW217049   3.631   0.613   2.322  2.1884  0.6024  2.4726
 1805SOL     OW17050   4.693   1.676   2.215 -0.5420 -0.1504 -0.5482
 1805SOL    HW117051   0.012   1.694   2.291 -0.3227  1.1445 -1.0228
 1805SOL    HW217052   4.661   1.762   2.187 -0.8391 -0.3542 -0.8229
 1806SOL     OW17053   1.682   0.979   6.353  0.5452 -0.2375 -0.4698
 1806SOL    HW117054   1.760   0.986   6.407 -1.0398  1.6131  1.5698
 1806SOL    HW217055   1.626   0.911   6.391  1.2189 -0.6421 -0.2119
 1807SOL     OW17056   1.727   0.645   0.938 -0.3594  0.0421  0.4382
 1807SOL    HW117057   1.742   0.603   0.853  1.5989  2.2406 -0.2952
 1807SOL    HW217058   1.817   0.672   0.959 -1.2149  1.3829  2.3404
 1808SOL     OW17059   0.271   3.011   4.554  0.4564 -0.1409 -0.2163
 1808SOL    HW117060   0.338   2.956   4.595 -0.6345 -0.7081  0.8191
 1808SOL    HW217061   0.195   2.966   4.592  0.6422 -1.8271 -1.8144
 1809SOL     OW17062   1.638   3.780   2.318  0.2769 -0.2533  0.3337
 1809SOL    HW117063   1.676   3.840   2.382 -0.9926  0.8517  0.0556
 1809SOL    HW217064   1.628   3.703   2.374 -2.7170  0.4890  0.8054
 1810SOL     OW17065   0.607   4.396   8.095  0.2340  0.6171 -0.3845
 1810SOL    HW117066   0.644   4.403   8.007 -0.3076  0.7463 -0.5983
 1810SOL    HW217067   0.650   4.315   8.124 -2.2876 -1.1401 -1.5204
 1811SOL     OW17068   2.926   4.190   4.432  0.0414  0.0112 -0.1519
 1811SOL    HW117069   2.926   4.274   4.477  1.5055  0.2868 -0.6491
 1811SOL    HW217070   2.961   4.207   4.345 -0.7655  0.3150 -0.4108
 1812SOL     OW17071   1.417   2.649   7.056  0.0199  0.0134  0.0685
 1812SOL    HW117072   1.357   2.623   6.987 -0.1572 -0.5143  0.4191
 1812SOL    HW217073   1.494   2.666   7.002 -0.1189  1.8393  0.4547
 1813SOL     OW17074   2.371   1.528   6.073  0.0122  0.0973  0.2341
 1813SOL    HW117075   2.342   1.619   6.068  1.5907  0.7641  3.3697
 1813SOL    HW217076   2.462   1.538   6.100  0.5979 -0.7579 -1.4566
 1814SOL     OW17077   3.790   2.231  14.758 -0.1759 -0.3810  0.5414
 1814SOL    HW117078   3.757   2.202  14.673 -1.0932 -1.7411  1.3564
 1814SOL    HW217079   3.713   2.219  14.814 -0.1996 -2.6768  0.0290
 1815SOL     OW17080   2.853   2.013   2.504 -0.1490 -0.4239 -0.2171
 1815SOL    HW117081   2.939   1.984   2.533  1.1451  1.2392 -2.3969
 1815SOL    HW217082   2.792   1.940   2.516  1.3789 -1.4860  0.9951
 1816SOL     OW17083   1.635   3.344   7.924 -0.1567 -0.8944 -0.4799
 1816SOL    HW117084   1.717   3.360   7.876 -0.3442 -2.0398 -1.1858
 1816SOL    HW217085   1.584   3.420   7.897  0.9194  0.3072  0.8637
 1817SOL     OW17086   3.059   3.241  11.299  0.1272  0.4029 -1.0220
 1817SOL    HW117087   2.979   3.242  11.351  0.5213  1.1122 -0.4320
 1817SOL    HW217088   3.029   3.275  11.214 -2.2926  3.2129  0.9485
 1818SOL     OW17089   4.354   3.195   1.751  0.2258  0.4324  0.1714
 1818SOL    HW117090   4.264   3.196   1.782  0.1290 -0.5814 -0.0830
 1818SOL    HW217091   4.335   3.234   1.666  1.0050 -1.7444 -1.0238
 1819SOL     OW17092   2.911   1.604   6.227 -0.3681 -0.2663 -0.1391
 1819SOL    HW117093   2.886   1.547   6.300 -0.2542 -0.9286 -0.6106
 1819SOL    HW217094   2.972   1.667   6.265 -0.4554 -0.8861  1.0376
 1820SOL     OW17095   0.921   1.091   5.425  0.1609  0.4489  0.5025
 1820SOL    HW117096   0.894   1.047   5.505  2.0195 -0.9137  0.3845
 1820SOL    HW217097   0.908   1.184   5.442 -1.3310  0.5638 -1.3216
 1821SOL     OW17098   1.465   4.463   5.415 -0.1320 -0.6606  0.1639
 1821SOL    HW117099   1.377   4.464   5.454  0.7841  3.2142  2.1378
 1821SOL    HW217100   1.475   4.557   5.406  0.4627 -0.7245  0.1625
 1822SOL     OW17101   3.845   2.345   0.512  0.2374  0.0929 -0.3781
 1822SOL    HW117102   3.930   2.373   0.544 -0.4103 -0.9394  2.2199
 1822SOL    HW217103   3.836   2.425   0.461 -1.3832  0.7300  0.9046
 1823SOL     OW17104   4.120   0.389   9.613 -0.0800  0.1776 -0.8244
 1823SOL    HW117105   4.140   0.469   9.662  0.9612 -0.8126  0.3635
 1823SOL    HW217106   4.026   0.380   9.628  0.1423 -2.7767 -1.2870
 1824SOL     OW17107   4.510   2.817  15.153  0.0788 -0.1401  0.5748
 1824SOL    HW117108   4.499   2.855  15.066 -2.8303 -2.2755 -0.0232
 1824SOL    HW217109   4.435   2.758  15.151 -2.2742  2.8946 -0.1399
 1825SOL     OW17110   0.889   2.214  13.843  0.5727 -0.0200  0.4059
 1825SOL    HW117111   0.851   2.164  13.770  1.0163  0.0537  0.1292
 1825SOL    HW217112   0.917   2.148  13.907  1.1960 -0.4508 -0.3064
 1826SOL     OW17113   1.220   2.719  17.173  0.0331  0.1604  0.3411
 1826SOL    HW117114   1.291   2.741  17.113  0.4899  0.7157  1.0781
 1826SOL    HW217115   1.220   2.796  17.230  0.5967  0.5630 -0.2074
 1827SOL     OW17116   4.214   0.543   4.283 -0.1983 -0.4829 -0.0901
 1827SOL    HW117117   4.214   0.482   4.209 -1.5837 -1.3518  0.6258
 1827SOL    HW217118   4.302   0.580   4.292  0.1676 -1.1262 -1.0326
 1828SOL     OW17119   3.029   4.067  17.400  0.0656  0.3825  0.6376
 1828SOL    HW117120   3.006   4.047  17.490  4.1063 -1.1677  1.2786
 1828SOL    HW217121   3.051   4.159  17.410 -0.6760  0.7195 -0.6632
 1829SOL     OW17122   3.534   1.274   8.795 -0.4549 -0.1736 -0.2654
 1829SOL    HW117123   3.530   1.179   8.802 -1.1973 -0.0243  1.3156
 1829SOL    HW217124   3.467   1.300   8.732  0.4834  1.8873 -0.4026
 1830SOL     OW17125   4.209   1.869   1.763 -0.8838  0.3630 -0.0162
 1830SOL    HW117126   4.264   1.925   1.707  1.3061 -0.3954  1.3855
 1830SOL    HW217127   4.217   1.794   1.704  1.5281  0.2518  0.4325
 1831SOL     OW17128   0.713   0.525   4.025 -0.3009  0.0050 -0.3023
 1831SOL    HW117129   0.711   0.430   4.013  0.6623 -0.0241 -0.2177
 1831SOL    HW217130   0.645   0.525   4.093 -0.7383 -0.5159 -0.7353
 1832SOL     OW17131   0.161   4.628   2.704 -0.1917  0.1841  0.5611
 1832SOL    HW117132   0.199   4.677   2.776  2.9228  0.5051 -1.3090
 1832SOL    HW217133   0.120   4.557   2.754  1.9562 -0.7714  0.9320
 1833SOL     OW17134   3.200   1.846   7.798  0.7544  0.5514  0.3886
 1833SOL    HW117135   3.160   1.767   7.834  0.6066  0.2578 -0.4164
 1833SOL    HW217136   3.152   1.909   7.851  0.8501  0.8929  0.0631
 1834SOL     OW17137   4.110   1.613   3.629 -0.5061 -0.3148 -0.1141
 1834SOL    HW117138   4.142   1.536   3.582  0.5351 -0.6778  1.1755
 1834SOL    HW217139   4.076   1.582   3.713  0.2940  2.9709  1.4249
 1835SOL     OW17140   2.261   2.162  13.048  0.1614 -0.3532  0.5060
 1835SOL    HW117141   2.309   2.148  13.130  0.5985  1.1939  0.5078
 1835SOL    HW217142   2.259   2.257  13.053 -1.8249 -0.3744 -0.1647
 1836SOL     OW17143   0.917   0.917   5.669 -0.2610  0.3384  0.3040
 1836SOL    HW117144   0.982   0.978   5.706  1.8087 -2.8089  1.8774
 1836SOL    HW217145   0.835   0.963   5.688  1.2074  2.0611  2.5112
 1837SOL     OW17146   3.483   4.513   4.677 -0.1593 -0.2691  0.4946
 1837SOL    HW117147   3.392   4.497   4.702  0.1969  1.9537  3.2538
 1837SOL    HW217148   3.469   4.537   4.586 -1.5800  0.8590  1.0195
 1838SOL     OW17149   0.935   4.098   1.956  0.0470  0.2728  0.5275
 1838SOL    HW117150   0.858   4.041   1.948  1.1874 -1.1216 -0.4706
 1838SOL    HW217151   0.956   4.080   2.047  1.4446 -0.4530  0.0516
 1839SOL     OW17152   1.067   4.112   4.100  0.0325 -0.2200 -0.1584
 1839SOL    HW117153   1.042   4.103   4.192 -1.1490 -1.2033 -0.5763
 1839SOL    HW217154   1.110   4.027   4.096  1.5118  0.4872  0.7688
 1840SOL     OW17155   4.000   3.305  10.372  0.1180  0.0206  0.2429
 1840SOL    HW117156   4.065   3.239  10.394  0.6863  0.6446  0.4377
 1840SOL    HW217157   4.049   3.378  10.410  2.7027 -0.3357 -2.3441
 1841SOL     OW17158   0.875   4.231  11.773  0.1659  0.8127 -0.5418
 1841SOL    HW117159   0.849   4.187  11.854 -0.4942  1.8701 -0.1667
 1841SOL    HW217160   0.860   4.164  11.706 -0.3530 -2.0187  2.4119
 1842SOL     OW17161   3.508   4.142  13.788 -0.6987  0.4339  0.2266
 1842SOL    HW117162   3.475   4.150  13.877 -1.2744  0.3318  0.0292
 1842SOL    HW217163   3.427   4.143  13.736  0.3961 -3.1404 -1.5458
 1843SOL     OW17164   2.494   2.556   3.316  0.4406 -0.0874 -0.1264
 1843SOL    HW117165   2.502   2.650   3.332  0.2517 -0.0522 -0.2323
 1843SOL    HW217166   2.523   2.545   3.225 -0.4081  3.9064 -0.8503
 1844SOL     OW17167   0.896   1.134   6.752 -0.1078 -0.3740 -0.3651
 1844SOL    HW117168   0.827   1.147   6.686  1.1290  2.1424 -1.1659
 1844SOL    HW217169   0.971   1.143   6.693 -0.7770  3.0666 -0.7288
 1845SOL     OW17170   1.141   1.540  10.332  0.1619  0.2964  0.4332
 1845SOL    HW117171   1.144   1.619  10.278 -1.1760  0.4207  0.5356
 1845SOL    HW217172   1.046   1.531  10.342  0.2472 -3.6739 -2.3967
 1846SOL     OW17173   4.159   3.952  13.357  0.4633 -0.1700  0.1695
 1846SOL    HW117174   4.148   3.887  13.288 -0.3902  0.4561 -0.2831
 1846SOL    HW217175   4.252   3.943  13.378  0.5279 -2.3145 -1.0567
 1847SOL     OW17176   4.351   4.391   9.318  0.3033  0.6064  0.7432
 1847SOL    HW117177   4.403   4.467   9.345  0.2240  0.9054  0.0497
 1847SOL    HW217178   4.263   4.428   9.316 -0.1581 -0.4334  1.9759
 1848SOL     OW17179   2.957   3.911  11.930  0.1680  0.1105  0.2406
 1848SOL    HW117180   2.992   3.922  12.018 -0.4854  2.4881  0.2240
 1848SOL    HW217181   2.864   3.911  11.954 -0.1548  0.5713 -0.9934
 1849SOL     OW17182   4.013   2.884   7.760 -0.2184 -0.0869  0.1446
 1849SOL    HW117183   4.036   2.883   7.667  1.0642  3.7748  0.4188
 1849SOL    HW217184   4.084   2.934   7.800  1.4692 -1.0089 -1.6653
 1850SOL     OW17185   2.125   3.938   5.600 -0.4330 -0.0899  0.4000
 1850SOL    HW117186   2.105   3.983   5.518  0.3705  1.2394  0.9380
 1850SOL    HW217187   2.055   3.972   5.657  0.0437  1.7331 -0.1286
 1851SOL     OW17188   2.300   1.985   4.992 -0.0426 -0.3323  0.4530
 1851SOL    HW117189   2.297   1.889   4.997  0.3868 -0.1700  3.4060
 1851SOL    HW217190   2.260   2.016   4.911  0.3899 -0.4237  0.1984
 1852SOL     OW17191   2.082   2.017   9.119 -0.5109  0.6561  0.2895
 1852SOL    HW117192   2.078   2.084   9.052  0.1866  0.6551  0.2484
 1852SOL    HW217193   2.168   1.975   9.119  0.2517  2.2266 -1.0721
 1853SOL     OW17194   0.881   4.629  15.202 -0.4769  0.8741  0.0478
 1853SOL    HW117195   0.939   4.670  15.267 -0.6735  0.0063  0.7700
 1853SOL    HW217196   0.860   4.544  15.239  4.1529 -0.0221  0.5312
 1854SOL     OW17197   3.898   0.901   6.424  0.4269 -0.0890 -0.6007
 1854SOL    HW117198   3.858   0.958   6.490 -0.8646 -0.4635 -1.0553
 1854SOL    HW217199   3.840   0.825   6.419  1.7377 -1.1621  0.4159
 1855SOL     OW17200   2.523   3.683   2.421  0.6517 -0.4967  0.0738
 1855SOL    HW117201   2.511   3.600   2.375  1.0800 -1.7052  2.1529
 1855SOL    HW217202   2.521   3.646   2.509  0.0498 -0.6302  0.0007
 1856SOL     OW17203   0.041   3.085   4.251  0.5067  0.3516  0.5945
 1856SOL    HW117204   0.112   3.141   4.218  0.9215 -1.0975 -0.9606
 1856SOL    HW217205   0.017   3.139   4.326  2.8276  1.7745  0.3173
 1857SOL     OW17206   0.640   4.382  14.631  0.3313 -0.1674 -0.0027
 1857SOL    HW117207   0.668   4.300  14.589 -2.4853 -2.1353  2.0171
 1857SOL    HW217208   0.588   4.423  14.562  1.3148  1.1566  0.0445
 1858SOL     OW17209   2.104   1.402  15.035 -0.3026 -0.1962 -0.2799
 1858SOL    HW117210   2.050   1.330  15.004 -0.0380 -0.3499 -0.3794
 1858SOL    HW217211   2.117   1.454  14.956 -0.4266 -1.8343 -1.3608
 1859SOL     OW17212   2.853   2.921   2.713  0.3194 -0.4004  0.2124
 1859SOL    HW117213   2.913   2.960   2.776 -0.4728 -1.0191  1.3520
 1859SOL    HW217214   2.787   2.991   2.716 -0.2835 -0.9231 -0.8948
 1860SOL     OW17215   4.061   1.560  15.000  0.0692  0.1216  0.2651
 1860SOL    HW117216   4.106   1.641  14.977  0.4480 -0.3510 -0.6546
 1860SOL    HW217217   3.996   1.596  15.061  0.2155  0.2028  0.3723
 1861SOL     OW17218   0.064   1.528   7.026 -0.2105  0.7636 -0.4644
 1861SOL    HW117219   0.125   1.541   6.953  0.0413 -2.1105 -0.7552
 1861SOL    HW217220   0.124   1.486   7.087 -0.5689 -1.0793 -1.3791
 1862SOL     OW17221   3.317   3.377  11.142 -0.3259 -0.6468  0.0277
 1862SOL    HW117222   3.405   3.346  11.164 -1.2452 -2.7532  0.6905
 1862SOL    HW217223   3.288   3.290  11.117  0.9316 -0.8969 -0.5437
 1863SOL     OW17224   2.398   3.229   2.149  0.1069 -0.3144 -0.3768
 1863SOL    HW117225   2.433   3.197   2.066 -1.3972 -3.0558  0.0357
 1863SOL    HW217226   2.390   3.145   2.194 -0.7576 -1.4966 -2.7493
 1864SOL     OW17227   4.113   0.659   7.325  0.1870  0.4808  0.5147
 1864SOL    HW117228   4.156   0.741   7.348  0.0530  0.9031 -0.7569
 1864SOL    HW217229   4.124   0.666   7.231  2.8979  1.0602  0.8796
 1865SOL     OW17230   3.123   3.675  16.536 -0.2617  0.5548  0.4353
 1865SOL    HW117231   3.107   3.662  16.630 -1.9951  0.9091  0.1861
 1865SOL    HW217232   3.171   3.594  16.517 -0.0898  0.4610  1.2671
 1866SOL     OW17233   1.533   1.377  17.502  0.0564  0.0113  0.4062
 1866SOL    HW117234   1.499   1.387  17.591  0.2679  0.0466  0.4845
 1866SOL    HW217235   1.453   1.384  17.450  0.0453 -0.2154  0.3932
 1867SOL     OW17236   2.778   4.101  15.604  0.1220 -0.0668 -0.2171
 1867SOL    HW117237   2.765   4.008  15.625 -0.5044 -0.3907 -2.0278
 1867SOL    HW217238   2.737   4.146  15.678 -1.2364  2.5674 -2.6035
 1868SOL     OW17239   1.837   1.092   9.333 -0.0688 -0.3122 -0.1293
 1868SOL    HW117240   1.932   1.093   9.325  0.1463 -0.8550  2.6056
 1868SOL    HW217241   1.808   1.087   9.241 -0.6485 -2.2764  0.1567
 1869SOL     OW17242   1.543   3.100  16.903  0.2305  0.3441 -0.0288
 1869SOL    HW117243   1.509   3.094  16.814 -1.9220 -1.3172  0.8828
 1869SOL    HW217244   1.615   3.037  16.903  0.3080  0.4353  0.3461
 1870SOL     OW17245   2.478   1.200   2.319  0.2003  0.1292 -0.9219
 1870SOL    HW117246   2.512   1.289   2.317  0.7914 -0.0586  0.2856
 1870SOL    HW217247   2.504   1.179   2.229  0.1064 -0.5208 -0.8032
 1871SOL     OW17248   4.300   2.193   1.858 -0.0161  0.7942 -0.1537
 1871SOL    HW117249   4.230   2.151   1.809 -0.4276  0.4808  0.6993
 1871SOL    HW217250   4.260   2.203   1.945 -0.5047  1.4806 -0.4618
 1872SOL     OW17251   0.895   3.951   5.420 -0.0741  0.6695  0.4104
 1872SOL    HW117252   0.905   3.898   5.341  0.5870  1.1171  0.2047
 1872SOL    HW217253   0.907   4.038   5.384  0.7336  0.1942 -0.4645
 1873SOL     OW17254   0.250   3.922  13.198 -0.4985 -0.5076  0.2489
 1873SOL    HW117255   0.245   3.828  13.178  0.6430 -0.6152  0.5068
 1873SOL    HW217256   0.328   3.931  13.252  0.2894  0.4982 -1.0782
 1874SOL     OW17257   3.545   1.415   4.926  0.1367 -0.3313  0.0963
 1874SOL    HW117258   3.595   1.369   4.859  0.4178  1.2385 -0.7783
 1874SOL    HW217259   3.460   1.379   4.901 -0.8918 -0.2635  3.4779
 1875SOL     OW17260   3.854   3.202  10.743  0.1240 -0.3909 -0.5092
 1875SOL    HW117261   3.897   3.281  10.712  1.7722 -0.5376  1.4403
 1875SOL    HW217262   3.892   3.197  10.830 -1.4179  1.9685  0.3004
 1876SOL     OW17263   1.494   2.059  10.021  0.7007  0.5077  0.0159
 1876SOL    HW117264   1.402   2.033  10.012  0.7961 -0.6404  2.1610
 1876SOL    HW217265   1.545   1.984   9.992  0.7100  0.3089  0.5383
 1877SOL     OW17266   0.422   1.005   8.823 -0.6948 -0.6405  0.0145
 1877SOL    HW117267   0.505   1.020   8.869  0.3626 -1.2031 -1.7096
 1877SOL    HW217268   0.360   1.001   8.896 -0.0707  1.3576  0.6501
 1878SOL     OW17269   0.836   3.274   9.279  0.0780 -0.0818  0.4608
 1878SOL    HW117270   0.918   3.291   9.326  1.3418  0.0492 -1.8164
 1878SOL    HW217271   0.804   3.362   9.260  0.1979  0.0409  0.8293
 1879SOL     OW17272   2.931   2.088   4.747  0.2440 -0.2273 -0.0016
 1879SOL    HW117273   2.867   2.034   4.792  1.2525 -1.4127  0.0065
 1879SOL    HW217274   2.966   2.143   4.818  0.0709  0.1382 -0.2018
 1880SOL     OW17275   2.531   2.682   8.391  0.1015 -0.3448  0.0519
 1880SOL    HW117276   2.440   2.657   8.375  0.3454 -0.1258 -1.6627
 1880SOL    HW217277   2.544   2.716   8.479  0.3137 -1.6724  0.5324
 1881SOL     OW17278   0.644   1.827   2.555 -0.6468 -0.4542 -0.5868
 1881SOL    HW117279   0.709   1.757   2.543 -1.8230 -1.5986 -0.2731
 1881SOL    HW217280   0.641   1.834   2.651 -1.0804 -0.6923 -0.5830
 1882SOL     OW17281   0.777   4.501   5.766  0.3630  0.3723 -0.0321
 1882SOL    HW117282   0.788   4.412   5.799  0.1685  1.0713  1.9205
 1882SOL    HW217283   0.857   4.545   5.795 -0.4658  1.2458  0.9054
 1883SOL     OW17284   3.962   1.768  13.533  0.3520  0.2183  0.4177
 1883SOL    HW117285   3.947   1.698  13.469  0.5570 -0.5197  1.1657
 1883SOL    HW217286   4.017   1.831  13.488 -0.5867  0.2537 -0.6936
 1884SOL     OW17287   3.917   2.408  11.705  0.4701 -0.5660  0.1944
 1884SOL    HW117288   3.861   2.486  11.714  0.6069 -0.1850 -2.4468
 1884SOL    HW217289   3.859   2.337  11.676 -1.9374  1.2947  0.4032
 1885SOL     OW17290   2.396   4.667   7.382 -0.0101 -0.1693 -0.4288
 1885SOL    HW117291   2.302   4.687   7.382 -0.1151 -0.6399 -1.5514
 1885SOL    HW217292   2.393   4.591   7.440 -1.9241 -0.7335 -1.2571
 1886SOL     OW17293   0.809   0.593   7.689 -0.1139 -0.1901 -0.6171
 1886SOL    HW117294   0.734   0.650   7.704 -3.0937 -3.8112 -1.7262
 1886SOL    HW217295   0.884   0.651   7.703  0.0671 -0.6425  0.3233
 1887SOL     OW17296   2.245   2.116   3.366 -0.0255 -0.3397 -0.3986
 1887SOL    HW117297   2.245   2.186   3.300 -0.5328 -0.4698 -0.5322
 1887SOL    HW217298   2.173   2.069   3.325 -0.9259 -0.3968  1.2659
 1888SOL     OW17299   0.937   1.656  17.531  0.2441  0.7536  0.2590
 1888SOL    HW117300   0.863   1.704  17.493  0.3900  0.4830 -0.3692
 1888SOL    HW217301   1.013   1.691  17.484  0.6026  0.5329  0.6731
 1889SOL     OW17302   3.945   3.719   7.213 -0.4961  0.5172 -0.3465
 1889SOL    HW117303   3.913   3.632   7.235  0.1940  0.1476 -0.8214
 1889SOL    HW217304   3.883   3.756   7.150 -0.7910  0.2099 -0.2371
 1890SOL     OW17305   0.209   1.547  15.369 -0.6280  0.0267  0.1127
 1890SOL    HW117306   0.145   1.594  15.315 -1.5802 -1.3285  0.0332
 1890SOL    HW217307   0.163   1.464  15.382  0.4308 -0.4964  0.5166
 1891SOL     OW17308   4.160   1.201   9.544 -0.4429 -0.0802  0.3563
 1891SOL    HW117309   4.207   1.178   9.463  1.8177  2.7299  0.8763
 1891SOL    HW217310   4.146   1.295   9.534 -3.1801 -0.2979  2.0798
 1892SOL     OW17311   0.864   2.408   2.549 -0.3029 -0.2624  0.3252
 1892SOL    HW117312   0.918   2.360   2.487  0.4470  0.0439  0.7309
 1892SOL    HW217313   0.922   2.412   2.625  0.0293  0.6391  0.0253
 1893SOL     OW17314   1.489   1.098   5.141  0.8748  0.0284 -0.1236
 1893SOL    HW117315   1.508   1.186   5.109  1.0638 -0.1285 -0.4515
 1893SOL    HW217316   1.433   1.058   5.075 -0.5446  2.8698 -0.6283
 1894SOL     OW17317   4.583   2.074   9.859  0.5032  0.3768 -0.4173
 1894SOL    HW117318   4.541   2.098   9.777 -1.8366 -0.5431  0.4953
 1894SOL    HW217319   4.545   1.987   9.876 -0.6325  0.6656 -1.5099
 1895SOL     OW17320   3.660   1.168   1.571  0.1562 -0.2009 -0.3787
 1895SOL    HW117321   3.616   1.087   1.546  1.9741 -1.0428 -0.8591
 1895SOL    HW217322   3.591   1.232   1.555 -0.5721 -0.8111  0.3272
 1896SOL     OW17323   0.726   3.813   6.999 -0.7307 -0.1476  0.4572
 1896SOL    HW117324   0.647   3.782   6.954 -1.8378  1.4441  1.3178
 1896SOL    HW217325   0.737   3.763   7.079  2.8144  0.5304  0.3986
 1897SOL     OW17326   1.369   0.096  17.639 -0.3471  0.2087  0.2256
 1897SOL    HW117327   1.336   0.009  17.661  0.0395  0.2504  0.9629
 1897SOL    HW217328   1.296   0.152  17.665 -0.4169 -0.3772  1.2599
 1898SOL     OW17329   2.297   0.805   5.166 -0.3844 -0.1492 -0.4334
 1898SOL    HW117330   2.385   0.780   5.194 -0.0870  2.3563  0.9093
 1898SOL    HW217331   2.240   0.770   5.234 -0.0494 -0.4113 -0.2899
 1899SOL     OW17332   1.526   1.741   9.835 -0.0428  0.0485 -0.4928
 1899SOL    HW117333   1.485   1.745   9.749 -0.2438  2.0993 -0.3072
 1899SOL    HW217334   1.451   1.727   9.894  2.0297 -0.4510  2.0401
 1900SOL     OW17335   3.880   3.893   3.518  0.0086  0.0986  0.1003
 1900SOL    HW117336   3.869   3.974   3.568 -0.5651 -0.1025  0.2994
 1900SOL    HW217337   3.815   3.915   3.451  0.5119  0.2550 -0.3328
 1901SOL     OW17338   1.926   1.210  11.865  0.4531 -0.5938 -0.1540
 1901SOL    HW117339   1.869   1.284  11.844 -0.4013 -1.4232 -0.7425
 1901SOL    HW217340   1.893   1.137  11.813 -2.1771  1.9433 -2.0185
 1902SOL     OW17341   0.239   0.223   6.525  0.5944 -0.0361  0.5476
 1902SOL    HW117342   0.205   0.151   6.578 -3.7451  1.9728  0.4665
 1902SOL    HW217343   0.177   0.293   6.546 -2.1638 -2.1717 -0.4405
 1903SOL     OW17344   2.594   0.735  13.173  0.4848 -0.0656 -0.2209
 1903SOL    HW117345   2.661   0.670  13.151  0.6360  0.1136 -0.2899
 1903SOL    HW217346   2.513   0.691  13.148  0.5909  0.6130 -1.7539
 1904SOL     OW17347   3.371   3.407   6.902 -0.1176 -0.3895  0.5731
 1904SOL    HW117348   3.325   3.415   6.985  1.8855  1.1972  1.5113
 1904SOL    HW217349   3.314   3.342   6.859 -0.0145  0.4457 -0.8187
 1905SOL     OW17350   2.661   2.077   2.124  0.1816  0.0625 -0.1788
 1905SOL    HW117351   2.692   1.987   2.119  0.9934  0.4309 -1.5085
 1905SOL    HW217352   2.677   2.109   2.036  0.0518  0.4903 -0.0484
 1906SOL     OW17353   2.105   4.669   2.071  0.0540  0.2206 -0.1765
 1906SOL    HW117354   2.019   4.709   2.065 -1.0350 -2.0661  0.0761
 1906SOL    HW217355   2.131   4.666   2.163 -0.2771  1.4834 -0.0437
 1907SOL     OW17356   0.716   3.965   1.425 -0.5483 -0.0681 -0.2909
 1907SOL    HW117357   0.790   3.912   1.396 -0.2615 -0.7051  1.5772
 1907SOL    HW217358   0.736   4.054   1.395 -1.2368  0.3373  0.4581
 1908SOL     OW17359   0.240   1.605  16.898 -0.4365 -0.1981 -0.0610
 1908SOL    HW117360   0.218   1.596  16.991 -0.0856  1.3354  0.1827
 1908SOL    HW217361   0.209   1.696  16.888  0.2008  0.2904  2.3149
 1909SOL     OW17362   4.059   1.715   1.935 -0.0821  0.6471 -0.0161
 1909SOL    HW117363   4.106   1.632   1.935 -1.9617 -0.4048  0.6389
 1909SOL    HW217364   4.107   1.760   1.865 -0.3424 -0.7478 -1.0849
 1910SOL     OW17365   3.948   1.705   7.271 -0.0031 -0.1467 -0.1830
 1910SOL    HW117366   4.002   1.671   7.342  0.5862  1.1561  0.0028
 1910SOL    HW217367   3.870   1.743   7.311  0.4323 -1.1494  1.5735
 1911SOL     OW17368   0.026   0.412   7.285  0.0851 -0.1833 -0.3381
 1911SOL    HW117369   0.088   0.458   7.228  0.1575  0.0399 -0.0778
 1911SOL    HW217370   4.688   0.471   7.273 -0.1285 -0.6614 -1.3574
 1912SOL     OW17371   2.488   2.095   5.694  0.2596  0.1415 -0.0755
 1912SOL    HW117372   2.506   2.001   5.683 -0.6982  0.0115 -0.5633
 1912SOL    HW217373   2.562   2.134   5.650  0.2004  0.7471  0.3653
 1913SOL     OW17374   2.681   2.811   6.357  0.1768 -0.3270  0.2097
 1913SOL    HW117375   2.735   2.867   6.301 -0.9804  0.9550  0.3576
 1913SOL    HW217376   2.597   2.856   6.358  0.9246  1.0808 -0.3173
 1914SOL     OW17377   0.278   0.629   1.861 -0.2633  0.5528  0.0155
 1914SOL    HW117378   0.189   0.652   1.833 -0.9889 -0.8196  1.2314
 1914SOL    HW217379   0.274   0.535   1.845  2.4824  0.2576  0.9316
 1915SOL     OW17380   1.437   0.363  11.500  0.1141 -0.4431  0.2939
 1915SOL    HW117381   1.344   0.368  11.476  0.7700  1.2604 -1.8399
 1915SOL    HW217382   1.438   0.416  11.580  1.5378  2.8429 -1.8770
 1916SOL     OW17383   3.191   0.509   7.582 -0.1758 -0.2756  0.2479
 1916SOL    HW117384   3.134   0.577   7.617  2.0988  1.6264  0.2567
 1916SOL    HW217385   3.272   0.528   7.628 -1.7095  0.7476  2.5045
 1917SOL     OW17386   4.606   1.250   7.833 -0.2603  0.2048 -0.2136
 1917SOL    HW117387   4.542   1.222   7.768 -0.4299  2.9575 -1.2130
 1917SOL    HW217388   4.532   1.276   7.889 -1.0609 -2.0689 -0.1884
 1918SOL     OW17389   0.916   4.186   8.223 -0.5508 -0.2317  0.0610
 1918SOL    HW117390   1.000   4.186   8.176  0.9227  0.9439  2.7321
 1918SOL    HW217391   0.900   4.280   8.226  2.4809  0.2914 -0.1297
 1919SOL     OW17392   2.390   1.818   6.789 -0.1340 -0.1621  0.1264
 1919SOL    HW117393   2.333   1.773   6.851 -2.2330 -0.0979 -1.7592
 1919SOL    HW217394   2.393   1.754   6.719 -1.8313 -0.4323  0.3128
 1920SOL     OW17395   2.390   0.048   6.052 -0.3741 -0.0034 -0.2907
 1920SOL    HW117396   2.418   0.121   5.998 -0.6326  0.7151  0.5387
 1920SOL    HW217397   2.357   0.000   5.976  1.3439 -0.6956 -0.5797
 1921SOL     OW17398   0.408   2.941   4.161 -0.5589  0.3294  0.2568
 1921SOL    HW117399   0.453   2.991   4.229  2.1809 -0.0113 -1.3256
 1921SOL    HW217400   0.486   2.913   4.114 -0.4815  2.1098 -0.6634
 1922SOL     OW17401   3.700   3.981  16.740  0.0560 -0.1552  0.5107
 1922SOL    HW117402   3.639   4.050  16.714  0.1588 -0.1933  0.1563
 1922SOL    HW217403   3.777   3.999  16.686  1.1319  1.3771  2.5706
 1923SOL     OW17404   0.177   4.156   4.737 -0.3414  0.0302 -0.0440
 1923SOL    HW117405   0.094   4.203   4.731 -0.5285 -0.2322  0.4543
 1923SOL    HW217406   0.150   4.066   4.720 -0.4158 -0.5305  3.0166
 1924SOL     OW17407   1.016   3.461   7.440  0.1656 -0.3976  0.1442
 1924SOL    HW117408   0.994   3.552   7.423  0.2552 -0.1995  1.0626
 1924SOL    HW217409   1.069   3.485   7.516 -0.0797 -0.1640  0.2426
 1925SOL     OW17410   2.442   3.431   6.119  0.5724 -0.4541  0.1308
 1925SOL    HW117411   2.412   3.494   6.053 -1.5802  0.3667  1.8781
 1925SOL    HW217412   2.433   3.345   6.077 -0.0677  0.4538 -1.5979
 1926SOL     OW17413   0.615   1.225  10.319 -0.0948 -0.1789 -0.3120
 1926SOL    HW117414   0.676   1.164  10.278  0.6412  0.7394 -0.5726
 1926SOL    HW217415   0.668   1.245  10.397 -0.5172 -1.6934  0.3728
 1927SOL     OW17416   3.267   2.109   5.982  0.5267  0.2812 -0.1620
 1927SOL    HW117417   3.304   2.131   6.067 -1.6351 -0.4421  0.9643
 1927SOL    HW217418   3.225   2.191   5.955 -0.8944 -0.9802 -1.8408
 1928SOL     OW17419   2.636   2.084   3.974  0.4576  0.2565  0.1222
 1928SOL    HW117420   2.574   2.079   3.901  1.2220  2.2372 -0.6764
 1928SOL    HW217421   2.629   1.994   4.004  0.5084  0.4457  0.7057
 1929SOL     OW17422   4.499   0.602   1.496  0.1453  0.2472  0.2700
 1929SOL    HW117423   4.490   0.681   1.550  0.6885  0.2368  0.3756
 1929SOL    HW217424   4.428   0.612   1.432  2.1402  3.3148 -1.4714
 1930SOL     OW17425   4.025   2.188   2.946 -0.3315  0.0864  0.4115
 1930SOL    HW117426   3.967   2.262   2.928  0.6942  0.2311 -2.2151
 1930SOL    HW217427   4.111   2.224   2.925 -0.8185  0.8636 -0.2684
 1931SOL     OW17428   2.586   1.142  12.499 -0.4354 -0.1134 -0.7699
 1931SOL    HW117429   2.630   1.062  12.529  0.0323  1.1511  1.8933
 1931SOL    HW217430   2.510   1.122  12.555 -0.0126  0.4262 -0.0003
 1932SOL     OW17431   3.934   1.666   9.050  0.6929  0.4447  0.2201
 1932SOL    HW117432   4.003   1.631   8.993  2.5170  1.5880  1.7414
 1932SOL    HW217433   3.975   1.749   9.072 -1.8720  1.8159 -0.1521
 1933SOL     OW17434   1.233   2.566   2.330  0.3203  0.3715  0.4276
 1933SOL    HW117435   1.217   2.568   2.424  2.1087  0.0787  0.7556
 1933SOL    HW217436   1.327   2.587   2.330  0.9265 -2.3849  3.4690
 1934SOL     OW17437   3.436   0.187   4.773 -0.4367 -0.2835  0.3444
 1934SOL    HW117438   3.436   0.102   4.818 -0.8262 -0.5219 -0.1105
 1934SOL    HW217439   3.518   0.225   4.806 -0.5283  0.2022  0.0170
 1935SOL     OW17440   3.730   4.194   9.129 -0.7290  0.1278 -0.4039
 1935SOL    HW117441   3.812   4.202   9.178 -1.6557 -1.3498  1.3623
 1935SOL    HW217442   3.749   4.182   9.036  1.5991 -2.8832  0.4842
 1936SOL     OW17443   1.006   4.118   2.451  0.4900 -0.2774  0.4115
 1936SOL    HW117444   1.090   4.159   2.471  1.3203 -0.5341 -2.4890
 1936SOL    HW217445   0.945   4.191   2.463 -0.3727 -1.3087  2.2348
 1937SOL     OW17446   3.612   2.481   3.346  0.1321 -0.3355 -0.1704
 1937SOL    HW117447   3.563   2.516   3.272  0.2407 -1.3750 -0.7330
 1937SOL    HW217448   3.582   2.390   3.348  0.0949 -0.2536  2.8855
 1938SOL     OW17449   4.598   2.171   6.096  0.9309  0.4786  0.0076
 1938SOL    HW117450   4.508   2.196   6.115  1.1653  2.3401 -1.3352
 1938SOL    HW217451   4.628   2.255   6.063 -1.4290  0.1793 -2.8610
 1939SOL     OW17452   3.896   4.582   6.502 -0.0818 -0.3897  0.2403
 1939SOL    HW117453   3.876   4.669   6.536 -2.2837 -0.8676  0.1434
 1939SOL    HW217454   3.819   4.571   6.447 -1.6639  1.8020  2.0040
 1940SOL     OW17455   2.405   0.574   5.023  0.1084 -0.6292  0.3606
 1940SOL    HW117456   2.494   0.539   5.026  0.0345 -0.7614  0.9743
 1940SOL    HW217457   2.421   0.656   4.976 -0.4733 -0.3635  0.6257
 1941SOL     OW17458   3.093   3.223   9.427 -0.5114 -0.1902  0.3407
 1941SOL    HW117459   3.085   3.316   9.408 -1.5687 -0.3353  0.0643
 1941SOL    HW217460   3.179   3.228   9.470 -0.0165  1.8695 -0.8814
 1942SOL     OW17461   1.139   3.599   8.383  0.2841 -0.5979  0.4723
 1942SOL    HW117462   1.200   3.601   8.456 -0.8866  2.2820  1.3854
 1942SOL    HW217463   1.081   3.671   8.408  1.5683  0.3166  0.8051
 1943SOL     OW17464   0.336   0.625   6.863 -0.3631  0.1553 -0.2715
 1943SOL    HW117465   0.385   0.656   6.787  1.6135 -0.5847  0.6763
 1943SOL    HW217466   0.281   0.565   6.814 -0.5586  1.0833 -1.1756
 1944SOL     OW17467   3.218   0.782   6.383 -0.3611  0.4462 -0.4409
 1944SOL    HW117468   3.142   0.746   6.428  0.1273  2.2146  1.7614
 1944SOL    HW217469   3.269   0.703   6.367  3.5156  2.4871  1.8989
 1945SOL     OW17470   0.311   0.146   4.331 -0.2532 -0.2008  0.0752
 1945SOL    HW117471   0.217   0.130   4.338  0.5367 -4.4439  1.0270
 1945SOL    HW217472   0.310   0.237   4.302 -0.2956 -0.6462 -1.2970
 1946SOL     OW17473   2.554   0.798  13.446  0.5283  0.4629  0.0117
 1946SOL    HW117474   2.550   0.822  13.353  1.0991  0.7780  0.0710
 1946SOL    HW217475   2.493   0.724  13.451 -0.1422  0.9541 -0.8992
 1947SOL     OW17476   1.927   1.092   4.973 -0.1567 -0.3332  0.3120
 1947SOL    HW117477   2.019   1.115   4.979  0.5999 -3.2937  0.2102
 1947SOL    HW217478   1.897   1.162   4.915 -0.5347  0.1190  1.0556
 1948SOL     OW17479   1.645   2.765   3.340  0.7025  0.0027  0.3189
 1948SOL    HW117480   1.726   2.812   3.322 -0.1031  0.7628 -1.3918
 1948SOL    HW217481   1.584   2.832   3.372 -0.6665 -1.4788  0.8167
 1949SOL     OW17482   2.117   4.220  10.407  0.1813  0.3959 -0.3061
 1949SOL    HW117483   2.196   4.173  10.433 -0.4341  0.1535  1.1176
 1949SOL    HW217484   2.088   4.244  10.495 -2.1941  0.0437 -1.0095
 1950SOL     OW17485   2.603   4.205   6.354 -0.4702  0.1141 -0.2328
 1950SOL    HW117486   2.652   4.268   6.408  0.3250  0.7510 -1.6989
 1950SOL    HW217487   2.607   4.120   6.399  1.6820  1.4085  2.0340
 1951SOL     OW17488   4.242   4.173   6.071 -0.1164  0.0377  0.5263
 1951SOL    HW117489   4.210   4.250   6.025  2.2730  1.0533  0.5355
 1951SOL    HW217490   4.335   4.198   6.077  0.8524 -2.9086 -1.9586
 1952SOL     OW17491   4.016   2.234  13.448 -0.5754 -0.4812  0.1584
 1952SOL    HW117492   3.927   2.269  13.444 -0.3251  0.0875 -0.5431
 1952SOL    HW217493   4.060   2.279  13.376 -1.4330 -2.3445 -1.5104
 1953SOL     OW17494   3.590   2.509   6.688 -0.6331  0.1743 -0.3055
 1953SOL    HW117495   3.537   2.444   6.642 -0.6140 -0.2126  0.2227
 1953SOL    HW217496   3.589   2.473   6.777 -1.6661  0.5395 -0.1677
 1954SOL     OW17497   3.812   1.930   9.373  0.2020  0.0387 -0.2700
 1954SOL    HW117498   3.805   2.022   9.348 -0.3839 -0.1648 -0.8694
 1954SOL    HW217499   3.905   1.916   9.358  0.1093  1.0091 -1.8382
 1955SOL     OW17500   3.260   4.192   5.086 -0.1646 -0.5729 -0.1026
 1955SOL    HW117501   3.173   4.153   5.100 -0.8648  0.6883 -0.9843
 1955SOL    HW217502   3.233   4.283   5.099 -1.2063 -0.7340 -1.0914
 1956SOL     OW17503   2.603   0.434   7.583 -0.0812 -0.0090  0.5734
 1956SOL    HW117504   2.655   0.512   7.599 -0.2683  0.2085  0.0992
 1956SOL    HW217505   2.615   0.434   7.488 -0.5022  0.2325  0.5214
 1957SOL     OW17506   2.300   1.599   8.244  0.1040  0.2080  0.3810
 1957SOL    HW117507   2.386   1.618   8.208 -0.9146  3.2856 -0.4058
 1957SOL    HW217508   2.316   1.615   8.337  0.1470  0.2878  0.3591
 1958SOL     OW17509   3.447   1.574  15.366  0.3394  0.3966 -0.1080
 1958SOL    HW117510   3.353   1.564  15.349  0.4499  0.1978 -0.6042
 1958SOL    HW217511   3.472   1.482  15.359 -0.0605  0.4226 -1.9158
 1959SOL     OW17512   3.739   3.446   9.240 -1.0919 -0.4481  0.1995
 1959SOL    HW117513   3.815   3.411   9.193  0.8854 -0.3526  3.3322
 1959SOL    HW217514   3.769   3.444   9.331 -0.5826  1.0599  0.0620
 1960SOL     OW17515   0.721   2.969  12.988 -0.1506 -0.1955 -0.2620
 1960SOL    HW117516   0.801   3.017  13.013 -0.6915  0.5232  0.1049
 1960SOL    HW217517   0.740   2.924  12.906 -2.1370 -1.5704  0.0620
 1961SOL     OW17518   0.338   1.829   1.202 -0.0876 -0.3790  0.4346
 1961SOL    HW117519   0.431   1.835   1.223  0.0277 -1.8801  0.3736
 1961SOL    HW217520   0.299   1.916   1.202 -0.3785 -0.5078  0.5171
 1962SOL     OW17521   2.145   3.598   9.013 -0.4889 -0.3114  0.2407
 1962SOL    HW117522   2.133   3.613   9.107 -1.1166  1.6972 -0.1650
 1962SOL    HW217523   2.057   3.570   8.986 -0.4295  1.9446 -2.2322
 1963SOL     OW17524   3.951   2.439   3.952 -0.4970  0.4824 -0.0810
 1963SOL    HW117525   3.885   2.496   3.991  0.3585  2.3088 -1.3557
 1963SOL    HW217526   3.914   2.351   3.946 -0.1407  0.3415 -0.2551
 1964SOL     OW17527   4.240   1.760   0.572  0.5143 -0.7783 -0.3117
 1964SOL    HW117528   4.301   1.712   0.628  1.5275 -0.6718 -1.3102
 1964SOL    HW217529   4.219   1.843   0.614 -0.2540 -1.1303 -0.0022
 1965SOL     OW17530   0.468   0.881   3.438 -0.5333 -0.3295  0.5224
 1965SOL    HW117531   0.455   0.807   3.379 -0.9187  2.1728 -2.5748
 1965SOL    HW217532   0.389   0.872   3.492  0.4035  1.8639  2.2494
 1966SOL     OW17533   0.288   2.114   8.645 -0.0080  0.2532  0.2003
 1966SOL    HW117534   0.295   2.053   8.718  0.4073 -0.0635 -0.1133
 1966SOL    HW217535   0.296   2.195   8.697 -0.4466 -0.3913  1.2815
 1967SOL     OW17536   3.470   3.957   6.924 -0.3361 -0.1169  0.2088
 1967SOL    HW117537   3.499   3.867   6.940  1.5645  0.3839 -0.3860
 1967SOL    HW217538   3.422   3.946   6.842  1.1548 -1.8497 -0.4264
 1968SOL     OW17539   2.457   4.176   7.534  0.2076  0.4306 -0.7472
 1968SOL    HW117540   2.399   4.187   7.609  0.4176 -4.4589  0.1494
 1968SOL    HW217541   2.500   4.097   7.567 -0.0996 -1.2095 -4.2855
 1969SOL     OW17542   2.945   4.225  15.418 -0.6622  0.2931 -0.5404
 1969SOL    HW117543   2.876   4.199  15.479  0.1495  2.3217  1.2100
 1969SOL    HW217544   2.927   4.167  15.344 -0.1394 -0.2489 -0.2387
 1970SOL     OW17545   1.225   4.383  16.838 -0.1655 -0.0642 -0.0472
 1970SOL    HW117546   1.223   4.475  16.811 -1.3555  0.0763  0.5094
 1970SOL    HW217547   1.140   4.354  16.805  0.0640  1.4769 -2.0398
 1971SOL     OW17548   1.583   2.360   0.083  0.2978 -0.2581  0.2934
 1971SOL    HW117549   1.596   2.324  17.739 -1.2509 -1.2140  0.4731
 1971SOL    HW217550   1.677   2.379   0.094 -0.3771  1.9044  2.4497
 1972SOL     OW17551   3.039   2.592   3.268  0.4764 -0.0203  0.0786
 1972SOL    HW117552   3.093   2.551   3.335  1.0056  1.2907  0.4493
 1972SOL    HW217553   3.042   2.535   3.191  1.3793  1.1308 -0.7281
 1973SOL     OW17554   4.209   2.558   1.147 -0.0868 -0.0256 -0.2124
 1973SOL    HW117555   4.254   2.628   1.194 -0.4334 -0.2563  0.4780
 1973SOL    HW217556   4.122   2.561   1.188 -0.0027 -0.8175  0.0150
 1974SOL     OW17557   0.015   1.637   6.322  0.0951  0.1038 -0.2090
 1974SOL    HW117558   0.090   1.665   6.374 -1.1677  3.6985 -0.3063
 1974SOL    HW217559   0.059   1.599   6.246  1.7644 -0.6586  1.1421
 1975SOL     OW17560   0.202   2.144  16.733 -0.1294  0.2226  0.5797
 1975SOL    HW117561   0.287   2.131  16.690 -1.3430  0.6824 -1.9999
 1975SOL    HW217562   0.226   2.170  16.822  0.4119 -1.5969  0.9677
 1976SOL     OW17563   2.536   2.192   7.546 -0.0198  0.5773  0.0178
 1976SOL    HW117564   2.510   2.273   7.501  0.1828 -0.4660 -1.9718
 1976SOL    HW217565   2.455   2.145   7.561  0.5555 -0.8141 -1.2832
 1977SOL     OW17566   3.146   2.976   6.469  0.0105 -0.7420  0.2509
 1977SOL    HW117567   3.082   2.987   6.399  1.2342  0.7094 -0.6441
 1977SOL    HW217568   3.206   2.905   6.443  0.1482  0.0841 -1.6962
 1978SOL     OW17569   3.971   3.545   2.144  0.0985  0.7666 -0.1596
 1978SOL    HW117570   4.057   3.542   2.103 -0.0190 -3.3152 -0.1968
 1978SOL    HW217571   3.961   3.461   2.190 -1.2933  0.0971 -1.6654
 1979SOL     OW17572   1.285   1.523   3.882  0.0588 -0.0633  0.8919
 1979SOL    HW117573   1.238   1.496   3.803 -1.8941  1.7003  1.4546
 1979SOL    HW217574   1.276   1.442   3.932  0.8791 -0.5887  0.2007
 1980SOL     OW17575   3.011   3.347   5.198 -0.4759  0.8169  0.1679
 1980SOL    HW117576   3.029   3.254   5.181  0.2526  0.9415  0.2506
 1980SOL    HW217577   2.943   3.337   5.265 -0.5514  0.6902  0.0723
 1981SOL     OW17578   1.617   1.027   3.859 -0.3928 -0.7830 -0.3650
 1981SOL    HW117579   1.527   1.031   3.890  0.1054 -3.2299  1.3820
 1981SOL    HW217580   1.627   1.110   3.813  0.1248 -0.2366  0.7428
 1982SOL     OW17581   1.774   1.775   1.810 -0.6422  0.1799 -0.1056
 1982SOL    HW117582   1.704   1.807   1.867 -1.1308  2.1839 -1.8137
 1982SOL    HW217583   1.720   1.739   1.740 -1.1656  0.2223  0.2722
 1983SOL     OW17584   3.283   3.096  11.365  0.0741  0.1500  0.4788
 1983SOL    HW117585   3.312   3.132  11.449  0.7578  2.2096 -0.6328
 1983SOL    HW217586   3.221   3.160  11.331  0.3392 -0.4562 -1.1643
 1984SOL     OW17587   1.824   1.019  15.824  0.2466  0.0324 -0.6744
 1984SOL    HW117588   1.907   1.058  15.851 -0.5252  1.4447 -0.3236
 1984SOL    HW217589   1.773   1.097  15.801 -1.5707 -1.2092 -0.8479
 1985SOL     OW17590   0.142   2.146   2.305  0.3470 -0.1904 -0.1627
 1985SOL    HW117591   0.159   2.172   2.396 -2.5431  1.6283 -0.1358
 1985SOL    HW217592   0.228   2.126   2.268  0.4961  0.0463  0.0585
 1986SOL     OW17593   1.325   4.543  17.653  0.6421  0.3284 -0.1407
 1986SOL    HW117594   1.278   4.509  17.730 -0.8570 -0.5594 -1.4568
 1986SOL    HW217595   1.391   4.474  17.645  0.0975 -0.1401 -0.5745
 1987SOL     OW17596   0.095   2.529   1.891  0.0003  0.3445 -0.0465
 1987SOL    HW117597   0.018   2.524   1.949 -0.0275  0.5106 -0.0677
 1987SOL    HW217598   0.168   2.506   1.949 -3.3011 -0.7801  3.7179
 1988SOL     OW17599   3.669   1.646  13.725 -0.1984 -0.4356 -0.5250
 1988SOL    HW117600   3.664   1.719  13.786  1.0846  0.9334 -2.0857
 1988SOL    HW217601   3.639   1.697  13.650 -2.9605  0.0707  0.9409
 1989SOL     OW17602   2.155   4.018   1.119  0.3211 -0.1840 -0.4768
 1989SOL    HW117603   2.146   4.104   1.077 -1.4200  0.4905  1.2625
 1989SOL    HW217604   2.155   4.033   1.214 -0.2616 -2.9691 -0.0471
 1990SOL     OW17605   3.465   1.903  11.417  0.0856 -0.2916  0.1367
 1990SOL    HW117606   3.461   1.979  11.476 -2.3878  0.4841 -1.0565
 1990SOL    HW217607   3.381   1.903  11.372  0.1409  1.9445 -0.0011
 1991SOL     OW17608   1.993   4.018   2.005  0.3677 -0.3372  0.7493
 1991SOL    HW117609   1.994   3.952   1.936 -0.3202  1.5764 -1.0909
 1991SOL    HW217610   2.083   4.043   2.027  0.6300 -0.2435 -0.4206
 1992SOL     OW17611   1.247   3.173   9.730  0.5090 -0.5422 -0.0277
 1992SOL    HW117612   1.179   3.110   9.753 -0.5397  0.0828 -1.4283
 1992SOL    HW217613   1.201   3.257   9.732 -0.6156 -1.1345 -2.1494
 1993SOL     OW17614   3.563   1.727  15.172  0.2060 -0.6475 -0.0673
 1993SOL    HW117615   3.605   1.647  15.142 -1.6172 -1.2484 -1.0239
 1993SOL    HW217616   3.535   1.694  15.257  0.4775 -0.0837  0.2430
 1994SOL     OW17617   3.744   4.121   4.957 -0.0596  0.5522  0.3788
 1994SOL    HW117618   3.779   4.109   4.868 -0.3840  0.0632  0.3163
 1994SOL    HW217619   3.786   4.203   4.983  1.7070 -0.0802 -0.4994
 1995SOL     OW17620   4.144   2.037   7.034 -0.5262 -0.2270 -0.1989
 1995SOL    HW117621   4.186   2.092   7.100  4.0815 -2.1293 -1.5698
 1995SOL    HW217622   4.055   2.025   7.065 -0.5826  1.0317  0.1167
 1996SOL     OW17623   1.068   3.536  13.587 -0.4107  0.0832 -0.3556
 1996SOL    HW117624   0.978   3.511  13.611 -0.0917 -0.1298  0.6248
 1996SOL    HW217625   1.063   3.631  13.597 -1.0991  0.0451 -0.2903
 1997SOL     OW17626   0.768   0.434   1.794  0.0920  0.7555 -0.5175
 1997SOL    HW117627   0.712   0.359   1.772  1.6250 -0.4565 -0.3096
 1997SOL    HW217628   0.721   0.507   1.753 -0.9861  1.0046  1.1764
 1998SOL     OW17629   0.886   2.384   4.772  0.5922  0.1058  0.1353
 1998SOL    HW117630   0.976   2.406   4.748 -0.1307  2.9990  0.1399
 1998SOL    HW217631   0.874   2.303   4.722 -0.4816  0.8260 -0.7802
 1999SOL     OW17632   3.452   0.814  12.604 -0.7273 -0.4138  0.9251
 1999SOL    HW117633   3.358   0.799  12.600 -1.0835  1.8984  0.8291
 1999SOL    HW217634   3.483   0.770  12.526 -1.1513  0.9271  0.0024
 2000SOL     OW17635   1.767   3.753   7.024  0.0410  0.5165 -0.2207
 2000SOL    HW117636   1.681   3.768   6.986  0.3724  0.3540 -1.0455
 2000SOL    HW217637   1.817   3.704   6.958  1.1291  0.3619  0.7069
 2001SOL     OW17638   3.887   2.452   2.531 -0.4354  0.2499 -0.0842
 2001SOL    HW117639   3.892   2.547   2.541 -0.3042  0.0560  1.6541
 2001SOL    HW217640   3.873   2.449   2.436 -0.7528  3.1696 -0.1201
 2002SOL     OW17641   2.681   2.213  17.547  0.0870  0.2618 -0.8544
 2002SOL    HW117642   2.740   2.138  17.541  1.5822  1.3314  0.4133
 2002SOL    HW217643   2.725   2.285  17.594  0.8137 -1.2572  0.8093
 2003SOL     OW17644   1.367   4.714   3.125 -0.3548  0.3144  0.1113
 2003SOL    HW117645   1.370   0.025   3.042  0.1257 -1.3817 -0.8290
 2003SOL    HW217646   1.308   4.645   3.097 -1.0701  0.5826  0.9534
 2004SOL     OW17647   4.379   1.305  12.875 -0.1215  0.3534  0.1491
 2004SOL    HW117648   4.302   1.259  12.840  1.7991 -0.0610 -3.5053
 2004SOL    HW217649   4.415   1.350  12.799  1.1657  0.6062  0.9000
 2005SOL     OW17650   3.430   1.797   1.449  0.3347  0.3354  0.8086
 2005SOL    HW117651   3.350   1.744   1.455 -0.0230  1.1151  3.0936
 2005SOL    HW217652   3.398   1.873   1.497  1.3120  2.3362 -1.7732
 2006SOL     OW17653   0.660   2.329  17.206  0.1875 -0.3112  0.8938
 2006SOL    HW117654   0.716   2.316  17.282  0.9278 -0.0507  0.3853
 2006SOL    HW217655   0.644   2.424  17.204  1.8996 -0.0812 -0.9062
 2007SOL     OW17656   0.742   1.092   2.129 -0.1401  0.4087  0.1169
 2007SOL    HW117657   0.746   1.029   2.201  1.9111  1.5893  1.0603
 2007SOL    HW217658   0.673   1.051   2.078  0.3297 -1.2890  0.8600
 2008SOL     OW17659   1.893   4.504  16.380  0.4562 -0.1220 -0.0279
 2008SOL    HW117660   1.886   4.426  16.435 -2.7397 -0.7523 -1.3402
 2008SOL    HW217661   1.925   4.572  16.440 -1.1219 -1.1179  1.9524
 2009SOL     OW17662   0.239   3.722  11.245 -0.0825 -0.3226  0.1506
 2009SOL    HW117663   0.327   3.759  11.251 -0.0762 -0.3051 -0.0772
 2009SOL    HW217664   0.192   3.788  11.194  0.5059 -1.1002 -1.3971
 2010SOL     OW17665   4.014   1.264   3.161 -0.8766  0.3345 -0.4231
 2010SOL    HW117666   3.983   1.254   3.071 -2.6653  0.9559  0.1109
 2010SOL    HW217667   4.102   1.296   3.142 -0.0702 -1.2473  0.6988
 2011SOL     OW17668   2.623   1.858   5.704 -0.4183  0.2189  0.1071
 2011SOL    HW117669   2.567   1.819   5.637 -1.2175  0.1234  0.8298
 2011SOL    HW217670   2.672   1.779   5.730 -0.3174 -0.0738 -0.9498
 2012SOL     OW17671   4.023   4.445   5.224 -0.0335  0.1953  0.0256
 2012SOL    HW117672   4.076   4.408   5.153  3.2245 -0.6885  2.9182
 2012SOL    HW217673   3.982   4.521   5.182 -0.2577 -0.9599 -1.8166
 2013SOL     OW17674   0.021   0.825  11.039 -0.3120  0.5047 -0.1647
 2013SOL    HW117675   4.684   0.854  11.093  1.3347  0.7842  1.9315
 2013SOL    HW217676   0.011   0.730  11.043  0.9636  0.5542  3.5300
 2014SOL     OW17677   3.168   4.489   2.957 -0.2215 -0.1149  0.0181
 2014SOL    HW117678   3.231   4.459   2.891  1.4487  1.0897  1.0520
 2014SOL    HW217679   3.201   4.449   3.037 -0.4957  0.4990  0.4342
 2015SOL     OW17680   0.433   1.524  17.346 -0.0685 -0.1927  0.0053
 2015SOL    HW117681   0.434   1.492  17.436 -0.3948  0.1407  0.1279
 2015SOL    HW217682   0.494   1.597  17.352 -1.5685  1.0727 -0.2140
 2016SOL     OW17683   4.661   0.791   2.148  0.4959  0.1762 -0.5137
 2016SOL    HW117684   4.621   0.875   2.171  1.2919 -0.2125  2.3113
 2016SOL    HW217685   4.598   0.753   2.087  1.4275 -0.7516 -0.8963
 2017SOL     OW17686   3.743   1.844   6.533 -0.0762 -0.5320  0.0670
 2017SOL    HW117687   3.814   1.891   6.489 -0.8412 -1.0641 -1.7262
 2017SOL    HW217688   3.762   1.846   6.626  0.5033  0.2390 -0.0687
 2018SOL     OW17689   4.539   0.181  16.852  0.6489  0.4097 -0.1861
 2018SOL    HW117690   4.538   0.269  16.815  0.0352  0.6357  0.3744
 2018SOL    HW217691   4.461   0.137  16.818  1.6640 -1.0558 -0.6328
 2019SOL     OW17692   3.677   1.780   2.821  0.8753 -0.1125 -0.5610
 2019SOL    HW117693   3.743   1.797   2.887  0.0801  1.0938 -0.0846
 2019SOL    HW217694   3.698   1.856   2.766 -0.4242 -1.4715 -2.9894
 2020SOL     OW17695   3.266   3.525   0.842 -0.4622  1.0458 -0.2845
 2020SOL    HW117696   3.278   3.600   0.901  0.7938  0.8651 -0.3272
 2020SOL    HW217697   3.354   3.508   0.810 -0.0483 -0.7426  1.8062
 2021SOL     OW17698   4.126   4.128   8.405  0.1505 -0.4766  0.2386
 2021SOL    HW117699   4.085   4.184   8.338  1.1699 -0.7750 -0.6278
 2021SOL    HW217700   4.125   4.042   8.364 -0.2517 -0.7447  0.8060
 2022SOL     OW17701   1.194   4.702   7.377  0.1364  0.0788 -0.1403
 2022SOL    HW117702   1.257   4.719   7.307 -0.4946 -0.2996 -0.8008
 2022SOL    HW217703   1.244   4.732   7.453  1.7454 -1.0400 -0.7566
 2023SOL     OW17704   3.742   2.230  11.577  0.2801  0.0710 -0.3216
 2023SOL    HW117705   3.713   2.281  11.501 -0.6897 -0.4166 -0.2814
 2023SOL    HW217706   3.772   2.149  11.537  2.4627 -0.6019  2.6951
 2024SOL     OW17707   2.415   2.903   7.071 -0.0925 -0.7369  0.3361
 2024SOL    HW117708   2.472   2.977   7.048  0.9339 -1.3883  0.7822
 2024SOL    HW217709   2.467   2.872   7.145 -0.0346  1.1167  1.0809
 2025SOL     OW17710   3.736   4.101   4.148 -0.2600  0.8464  0.3194
 2025SOL    HW117711   3.641   4.100   4.141 -0.3081 -2.3379  1.3102
 2025SOL    HW217712   3.748   4.128   4.239 -0.6059 -2.7078  1.4522
 2026SOL     OW17713   4.097   1.803  11.163  0.0795  0.4516  0.7091
 2026SOL    HW117714   4.068   1.815  11.072 -0.5592 -0.8857  0.7395
 2026SOL    HW217715   4.146   1.885  11.170 -1.1250  1.2052  0.2917
 2027SOL     OW17716   2.685   3.929   6.460  0.3139 -0.1056  0.0329
 2027SOL    HW117717   2.629   3.936   6.383  0.0062  1.1750  0.3667
 2027SOL    HW217718   2.761   3.891   6.416  0.7914  1.2050 -0.2931
 2028SOL     OW17719   4.533   0.893  13.005  0.4285 -0.1563 -0.0702
 2028SOL    HW117720   4.585   0.816  13.030  2.4821  1.3148  0.1339
 2028SOL    HW217721   4.591   0.961  12.973  0.0827 -0.6507 -1.7549
 2029SOL     OW17722   0.166   0.284   7.742 -0.1488  0.0213  0.2122
 2029SOL    HW117723   0.104   0.212   7.758 -0.5648  0.8258  2.2344
 2029SOL    HW217724   0.142   0.307   7.652 -0.6402 -0.2312  0.2745
 2030SOL     OW17725   1.598   4.001   0.881 -0.5095  0.3405  0.1665
 2030SOL    HW117726   1.557   3.930   0.833 -1.1981  0.3397  0.7458
 2030SOL    HW217727   1.606   3.968   0.971 -1.4141  0.7380  0.3952
 2031SOL     OW17728   1.217   0.662   3.754  0.1725  0.0673  0.1508
 2031SOL    HW117729   1.219   0.618   3.839  0.4155 -0.4278 -0.1059
 2031SOL    HW217730   1.125   0.672   3.731  0.1078 -2.1489 -0.5672
 2032SOL     OW17731   2.854   0.846  13.219  0.0271  0.5233 -0.4887
 2032SOL    HW117732   2.856   0.878  13.309  0.3731 -1.6122  0.2642
 2032SOL    HW217733   2.762   0.819  13.213 -0.1161  1.4743 -2.6371
 2033SOL     OW17734   3.803   3.545   4.324 -0.0230  0.3050  0.0286
 2033SOL    HW117735   3.888   3.587   4.307 -0.7054  1.6801  0.0552
 2033SOL    HW217736   3.787   3.483   4.253  0.9386  0.3983 -0.2660
 2034SOL     OW17737   4.209   4.284   9.908  0.5497 -0.2008 -1.4894
 2034SOL    HW117738   4.278   4.348   9.925 -0.1997  0.3008 -0.2864
 2034SOL    HW217739   4.259   4.208   9.876 -2.3114 -2.0787 -1.5268
 2035SOL     OW17740   3.446   3.218   5.440 -0.3150  0.1453  0.2267
 2035SOL    HW117741   3.541   3.227   5.438 -0.0496 -2.7919 -0.4354
 2035SOL    HW217742   3.441   3.169   5.357  1.8146  0.7852 -0.2612
 2036SOL     OW17743   3.222   2.694   3.819  0.1256 -0.7210  0.6221
 2036SOL    HW117744   3.278   2.735   3.885 -0.3500  0.0418  0.5453
 2036SOL    HW217745   3.255   2.605   3.831  2.2455 -0.4050 -2.6674
 2037SOL     OW17746   0.045   0.332   3.909  0.1380 -0.5467  0.0165
 2037SOL    HW117747   0.066   0.328   3.815 -0.7136 -1.2982 -0.1525
 2037SOL    HW217748   0.127   0.343   3.956  1.3863 -0.6103 -2.1479
 2038SOL     OW17749   2.103   0.209  16.795 -0.1708  0.3161 -0.5755
 2038SOL    HW117750   2.147   0.242  16.873 -0.6768  0.9894 -0.5825
 2038SOL    HW217751   2.032   0.156  16.831 -1.1288  2.9478  1.3835
 2039SOL     OW17752   1.205   4.384  13.079 -0.2797 -0.2618  0.9742
 2039SOL    HW117753   1.253   4.366  12.998 -0.4754  0.9408  0.5997
 2039SOL    HW217754   1.254   4.318  13.129 -0.6663 -2.4099 -1.4709
 2040SOL     OW17755   2.657   2.032   4.916  0.1550  0.1068 -0.4555
 2040SOL    HW117756   2.671   2.055   5.007  0.1440  1.0858 -0.7023
 2040SOL    HW217757   2.617   1.950   4.943 -1.1320  0.6410 -0.7531
 2041SOL     OW17758   0.962   4.708   5.033 -0.5323  0.2422 -0.1276
 2041SOL    HW117759   0.919   4.726   4.949 -0.5584  0.1611 -0.1318
 2041SOL    HW217760   1.049   4.687   4.999 -1.7536  1.1766 -3.8628
 2042SOL     OW17761   3.713   3.552   2.381  0.0932 -0.4212 -0.0805
 2042SOL    HW117762   3.735   3.631   2.332  0.7005 -0.1117  0.6906
 2042SOL    HW217763   3.633   3.579   2.425  0.0630  2.0071 -1.6392
 2043SOL     OW17764   0.269   2.461   5.977 -0.2928  0.2030  0.2147
 2043SOL    HW117765   0.180   2.441   5.949  0.2836 -1.4503 -0.3935
 2043SOL    HW217766   0.239   2.483   6.066  1.1951  1.4947  0.4027
 2044SOL     OW17767   0.865   2.242   6.589 -0.4660 -0.0534 -0.0697
 2044SOL    HW117768   0.836   2.308   6.526 -0.9088 -0.2128 -0.0341
 2044SOL    HW217769   0.792   2.254   6.651  0.4835 -0.7880  1.1826
 2045SOL     OW17770   1.794   2.184   8.150  0.2135 -0.3767  0.4116
 2045SOL    HW117771   1.825   2.171   8.240 -2.9937  1.5149  1.7910
 2045SOL    HW217772   1.705   2.200   8.180 -0.4578  0.2069 -1.9644
 2046SOL     OW17773   3.360   1.127  11.214  0.3777  0.2140  0.0155
 2046SOL    HW117774   3.398   1.210  11.184 -0.4083  0.7689  0.5511
 2046SOL    HW217775   3.437   1.083  11.250  0.9418  0.7795 -0.5055
 2047SOL     OW17776   1.109   3.898   9.582 -0.2630 -0.5641  0.2434
 2047SOL    HW117777   1.166   3.849   9.642  1.9215  1.1205 -0.4754
 2047SOL    HW217778   1.059   3.945   9.649 -2.5036 -3.9473  0.9450
 2048SOL     OW17779   0.713   2.591  13.235 -0.4972  0.2786 -0.1965
 2048SOL    HW117780   0.797   2.585  13.189 -1.5637  0.1250 -2.1042
 2048SOL    HW217781   0.746   2.606  13.324 -1.1896 -2.7810  0.5819
 2049SOL     OW17782   3.181   0.665   5.691  0.2068 -0.8177 -0.1884
 2049SOL    HW117783   3.121   0.739   5.682 -1.7159 -2.7898 -3.3765
 2049SOL    HW217784   3.260   0.713   5.666  0.1991 -0.1149  1.1011
 2050SOL     OW17785   3.064   0.969   5.742 -0.2869  0.4547 -0.4483
 2050SOL    HW117786   3.146   1.018   5.754  0.6310 -1.2655  0.3627
 2050SOL    HW217787   3.000   1.008   5.802 -0.2116  1.0947 -0.7953
 2051SOL     OW17788   2.194   1.962   2.880  0.0265 -0.6083 -0.0416
 2051SOL    HW117789   2.142   1.931   2.806  0.9347 -1.4217 -0.3396
 2051SOL    HW217790   2.142   2.041   2.893  0.7706 -0.3808  1.5473
 2052SOL     OW17791   4.430   1.483   8.590 -0.3515 -0.3773 -0.0661
 2052SOL    HW117792   4.418   1.500   8.497 -0.1795 -3.2030 -0.6157
 2052SOL    HW217793   4.480   1.403   8.572  2.0819  1.3731 -1.1531
 2053SOL     OW17794   4.451   3.328   2.573 -0.2084 -0.0409  0.5824
 2053SOL    HW117795   4.437   3.396   2.507  1.3791  0.3648  0.6705
 2053SOL    HW217796   4.484   3.387   2.642 -2.3293  1.0027  0.7092
 2054SOL     OW17797   2.271   4.185   3.376 -0.1158  0.1505  0.0900
 2054SOL    HW117798   2.345   4.125   3.382 -0.9755 -0.6786  2.2239
 2054SOL    HW217799   2.255   4.170   3.283 -0.7740 -1.3386  0.4511
 2055SOL     OW17800   4.708   1.168   1.268  0.4994  0.0517 -0.1313
 2055SOL    HW117801   0.001   1.180   1.178 -1.7337  2.5856 -0.5297
 2055SOL    HW217802   4.615   1.179   1.248  1.1997  0.3771 -3.2136
 2056SOL     OW17803   3.279   1.639   5.306 -0.1943  0.3409 -0.1198
 2056SOL    HW117804   3.247   1.647   5.396 -0.1255 -1.1823  0.0473
 2056SOL    HW217805   3.362   1.592   5.313 -0.6374 -0.6753 -1.7620
 2057SOL     OW17806   3.672   0.539   5.162  0.2672  0.5359 -0.3423
 2057SOL    HW117807   3.696   0.602   5.229  0.8786 -0.6840  0.5706
 2057SOL    HW217808   3.633   0.588   5.089  1.5574  3.3416  0.8872
 2058SOL     OW17809   3.661   1.481   4.100  0.4315 -0.3212 -0.8785
 2058SOL    HW117810   3.644   1.491   4.006  0.1679 -0.1428 -0.8094
 2058SOL    HW217811   3.585   1.524   4.139  1.0414 -0.0518  0.0017
 2059SOL     OW17812   2.445   0.544   3.478  0.7746  0.1125 -0.1686
 2059SOL    HW117813   2.495   0.569   3.555  0.4086  1.4694 -0.3848
 2059SOL    HW217814   2.443   0.450   3.495  2.7393 -0.1717 -1.4649
 2060SOL     OW17815   4.609   3.680   8.982  0.6546  0.1217 -0.6262
 2060SOL    HW117816   4.520   3.668   9.015  0.5117 -1.8714 -1.7691
 2060SOL    HW217817   4.604   3.686   8.886  0.3025 -0.4957 -0.6428
 2061SOL     OW17818   0.636   3.019  12.322 -0.3034  0.1303  0.0446
 2061SOL    HW117819   0.679   3.104  12.314  0.3259  0.0658  2.5514
 2061SOL    HW217820   0.684   2.976  12.394  3.2700  1.1262 -1.7467
 2062SOL     OW17821   3.840   3.375  13.439  0.2796 -0.8325 -0.2692
 2062SOL    HW117822   3.888   3.442  13.488 -0.2608  0.6954 -1.7916
 2062SOL    HW217823   3.791   3.327  13.505  1.3177 -0.1716  0.9609
 2063SOL     OW17824   1.718   0.274   6.713 -0.2566  0.2047  0.2095
 2063SOL    HW117825   1.633   0.301   6.747 -0.6848 -0.7823 -0.0810
 2063SOL    HW217826   1.746   0.213   6.781  0.4737 -0.8302 -0.9971
 2064SOL     OW17827   3.795   4.403   3.866 -0.0734 -0.4714  0.0109
 2064SOL    HW117828   3.716   4.372   3.911 -0.0827  0.6895  0.7982
 2064SOL    HW217829   3.793   4.494   3.896 -3.2897 -1.1837  1.9894
 2065SOL     OW17830   3.570   4.427   2.079  0.1510 -0.1052 -0.0451
 2065SOL    HW117831   3.544   4.382   2.159 -0.0127 -2.1559 -1.2716
 2065SOL    HW217832   3.543   4.369   2.008 -0.7180  0.2069  0.0283
 2066SOL     OW17833   1.510   0.900   4.193  0.7905 -0.4075  0.0335
 2066SOL    HW117834   1.567   0.847   4.136 -0.7670 -1.8904 -0.1362
 2066SOL    HW217835   1.505   0.843   4.269 -1.2178  0.0035  0.2118
 2067SOL     OW17836   4.046   1.989  14.681 -0.1575 -0.5177  0.6377
 2067SOL    HW117837   4.063   2.070  14.728  0.9725 -0.4244  0.0882
 2067SOL    HW217838   4.137   1.970  14.656  0.0190  0.5320  0.5182
 2068SOL     OW17839   4.532   0.851   7.554 -0.3590  0.3190 -0.0826
 2068SOL    HW117840   4.582   0.774   7.528 -0.9333  0.7786 -2.4853
 2068SOL    HW217841   4.538   0.854   7.650  1.6759  0.9658 -0.2189
 2069SOL     OW17842   2.637   0.465  13.314 -0.1005 -0.0307  0.5850
 2069SOL    HW117843   2.603   0.455  13.225 -0.5775 -0.7848  0.8484
 2069SOL    HW217844   2.557   0.433  13.356 -0.4347  0.3289  0.2304
 2070SOL     OW17845   3.184   2.829   5.279 -0.0217 -0.2398  0.3443
 2070SOL    HW117846   3.156   2.770   5.210 -0.1678  0.9187 -0.5847
 2070SOL    HW217847   3.123   2.794   5.344 -0.2525  0.9697  0.7838
 2071SOL     OW17848   3.751   2.335   7.014 -0.2123  0.8038  0.2377
 2071SOL    HW117849   3.763   2.329   7.109 -0.4925  1.4851  0.3178
 2071SOL    HW217850   3.670   2.385   7.003  0.4650  1.2158 -2.7201
 2072SOL     OW17851   2.457   0.737  12.859 -0.2470 -0.3356  0.2704
 2072SOL    HW117852   2.392   0.688  12.808  0.2842 -0.3139 -0.4391
 2072SOL    HW217853   2.540   0.702  12.826 -0.0752 -0.1142  0.4658
 2073SOL     OW17854   0.615   4.049   9.494  0.3679  0.5986  0.0801
 2073SOL    HW117855   0.695   4.095   9.468  0.4013  0.9325  0.7700
 2073SOL    HW217856   0.617   3.968   9.443 -1.3708  1.4973 -1.4067
 2074SOL     OW17857   0.866   1.405   6.271 -0.3211  0.1188 -0.3682
 2074SOL    HW117858   0.780   1.399   6.230 -0.0173  1.1789 -1.1643
 2074SOL    HW217859   0.914   1.340   6.219  0.8324  1.6764 -1.2675
 2075SOL     OW17860   0.904   0.261  17.722  0.1748  0.1182  0.2536
 2075SOL    HW117861   0.848   0.184  17.734 -0.4603  0.4689 -0.4819
 2075SOL    HW217862   0.859   0.299  17.647  1.2322  0.5573 -0.1664
 2076SOL     OW17863   0.268   0.235   5.280 -0.0908 -0.0751  0.6196
 2076SOL    HW117864   0.214   0.223   5.358  1.8023  0.5409  2.0127
 2076SOL    HW217865   0.243   0.158   5.228  2.3731 -1.0717  0.9367
 2077SOL     OW17866   0.871   1.228   3.693  0.5706  1.0011  0.3890
 2077SOL    HW117867   0.858   1.139   3.726  2.6446  0.3389 -0.5820
 2077SOL    HW217868   0.805   1.278   3.741  1.1773  0.5793  1.6638
 2078SOL     OW17869   1.267   2.940   9.368 -0.2758 -0.1505 -0.0984
 2078SOL    HW117870   1.330   2.896   9.425 -1.9199 -1.1251  0.9586
 2078SOL    HW217871   1.245   3.015   9.423  0.6933 -0.1595  0.2958
 2079SOL     OW17872   0.457   3.447   6.105  0.1644  0.1404 -0.6599
 2079SOL    HW117873   0.412   3.503   6.042  0.1191  1.2652  0.3889
 2079SOL    HW217874   0.438   3.361   6.066  0.1260  0.6080 -1.6746
 2080SOL     OW17875   2.619   3.281   6.363  0.0494  0.5863  0.1979
 2080SOL    HW117876   2.579   3.206   6.319  0.1272  0.2561  0.6924
 2080SOL    HW217877   2.607   3.255   6.454 -0.8784  0.3494  0.0009
 2081SOL     OW17878   3.038   1.615   7.842  0.0884  0.1344 -0.2128
 2081SOL    HW117879   3.068   1.548   7.903  2.3671 -0.5416 -2.0582
 2081SOL    HW217880   2.977   1.574   7.780  0.3134  1.3122 -1.2041
 2082SOL     OW17881   0.679   2.388   3.700  0.1286  0.5379  0.6419
 2082SOL    HW117882   0.621   2.312   3.691 -0.2827  0.8993  0.2655
 2082SOL    HW217883   0.763   2.360   3.663  0.1805 -0.5474  1.5625
 2083SOL     OW17884   4.340   1.588  17.253 -0.1420  0.1090  0.1311
 2083SOL    HW117885   4.320   1.589  17.159 -1.0882  1.7222  0.3391
 2083SOL    HW217886   4.327   1.680  17.275  1.9264  0.7795 -1.3885
 2084SOL     OW17887   2.759   1.789   9.343 -0.0612 -0.4540  0.5510
 2084SOL    HW117888   2.691   1.839   9.388  1.0205  0.1260  1.5424
 2084SOL    HW217889   2.791   1.727   9.409  0.6632 -1.6296 -0.9199
 2085SOL     OW17890   2.845   4.612  17.693 -0.9788 -0.1663  0.3612
 2085SOL    HW117891   2.899   4.601   0.027 -0.3048 -1.7844 -0.3296
 2085SOL    HW217892   2.833   4.707  17.698  1.5983  0.0582  2.1942
 2086SOL     OW17893   2.883   1.593  15.160  0.3196  1.0051  0.0287
 2086SOL    HW117894   2.852   1.556  15.243 -2.1759  0.1139 -1.3009
 2086SOL    HW217895   2.964   1.636  15.189  0.9970 -1.3702  1.6718
 2087SOL     OW17896   4.236   1.073   6.013  0.0881 -0.0324 -0.0280
 2087SOL    HW117897   4.265   1.140   5.951 -0.7484  2.5300  2.3979
 2087SOL    HW217898   4.152   1.103   6.046  0.5501  2.3079 -0.9739
 2088SOL     OW17899   1.849   2.332  16.492  0.1495  0.2917 -0.2680
 2088SOL    HW117900   1.940   2.340  16.465  0.0623  1.1630 -0.3110
 2088SOL    HW217901   1.817   2.421  16.507  0.3491  0.0251  1.7295
 2089SOL     OW17902   3.128   1.305   1.439  0.0537 -0.4071  0.4583
 2089SOL    HW117903   3.121   1.378   1.377 -1.2249 -0.0164  1.0716
 2089SOL    HW217904   3.059   1.324   1.502  0.4734  1.3484  0.3981
 2090SOL     OW17905   0.078   3.974   5.800  0.4455 -0.0924  0.1716
 2090SOL    HW117906   0.088   3.920   5.721  1.8606  0.2537  0.1137
 2090SOL    HW217907   0.135   3.926   5.860  0.7374  0.0136 -0.0221
 2091SOL     OW17908   3.620   4.658  14.814  0.0088 -0.7193 -0.0732
 2091SOL    HW117909   3.627   4.588  14.879  0.9485 -1.0267 -0.4994
 2091SOL    HW217910   3.571   4.719  14.868  0.5129  1.6908 -2.3301
 2092SOL     OW17911   2.613   2.850   1.898  0.5261 -0.4432  0.3592
 2092SOL    HW117912   2.589   2.758   1.889  2.1003 -0.8087  0.0222
 2092SOL    HW217913   2.539   2.883   1.848  1.5548  1.0174 -0.1867
 2093SOL     OW17914   4.345   0.397  11.229 -0.1244  0.2584  0.1851
 2093SOL    HW117915   4.256   0.365  11.215  0.4042 -0.2279 -1.9521
 2093SOL    HW217916   4.365   0.338  11.302 -0.8208 -1.3096 -0.8943
 2094SOL     OW17917   3.562   4.138  11.473 -0.3424  0.1239  0.1093
 2094SOL    HW117918   3.473   4.102  11.484  0.3819 -1.7916 -0.2036
 2094SOL    HW217919   3.577   4.161  11.565  1.8995 -0.5933 -0.0740
 2095SOL     OW17920   1.540   3.080  14.882  0.1242  0.0240 -0.3404
 2095SOL    HW117921   1.556   3.001  14.830  1.3506  0.6905 -0.9603
 2095SOL    HW217922   1.450   3.069  14.913  0.7973 -0.0836  1.6138
 2096SOL     OW17923   3.420   1.350   2.004  0.0929  0.1939 -0.2129
 2096SOL    HW117924   3.461   1.263   2.013 -2.3798 -0.9544 -0.1566
 2096SOL    HW217925   3.484   1.411   2.041 -2.0562  0.1371  3.5863
 2097SOL     OW17926   0.143   2.170   3.855  0.2184 -0.0050 -0.2114
 2097SOL    HW117927   0.214   2.232   3.869 -0.3856  0.2834  1.5961
 2097SOL    HW217928   0.175   2.118   3.781 -0.0051 -1.4337  0.6806
 2098SOL     OW17929   4.267   3.094  15.339 -0.6508  0.1793 -0.0815
 2098SOL    HW117930   4.224   3.108  15.423  0.8452  0.2264  0.6807
 2098SOL    HW217931   4.354   3.136  15.336 -0.6945  0.2392 -0.6698
 2099SOL     OW17932   2.954   0.784  11.726 -0.0680  0.3052  0.2346
 2099SOL    HW117933   2.947   0.738  11.809 -0.5617  1.4413  0.8216
 2099SOL    HW217934   3.032   0.840  11.734 -0.0203  0.1862  0.6058
 2100SOL     OW17935   4.027   0.002   1.332  0.1956 -0.5437 -0.4392
 2100SOL    HW117936   3.991   0.046   1.255  1.6888  1.7656  0.1715
 2100SOL    HW217937   4.114   4.725   1.294  0.7079  1.6759 -0.0306
 2101SOL     OW17938   4.447   0.595   0.174  0.3540  0.4439 -0.1322
 2101SOL    HW117939   4.503   0.582   0.098  2.4105  0.0566  1.4584
 2101SOL    HW217940   4.481   0.675   0.214  0.2827  1.2303 -1.6615
 2102SOL     OW17941   4.111   2.851   9.216  0.2213 -0.1558 -0.0784
 2102SOL    HW117942   4.046   2.844   9.286 -1.7946  0.5047 -1.8680
 2102SOL    HW217943   4.162   2.773   9.237  0.8199  0.7045  1.6232
 2103SOL     OW17944   0.055   0.620  16.119  0.5583  0.0944 -0.2018
 2103SOL    HW117945   0.088   0.699  16.075 -0.1915  0.1348 -0.7014
 2103SOL    HW217946   0.126   0.587  16.173 -0.0217  0.7270  0.9559
 2104SOL     OW17947   0.070   1.113   3.004 -0.3790  0.4623  0.9821
 2104SOL    HW117948   0.150   1.068   3.032  0.5410 -0.0901 -2.5660
 2104SOL    HW217949   0.034   1.052   2.940  0.8783  1.1148 -0.3426
 2105SOL     OW17950   4.326   3.379   6.114 -0.0942  0.5447 -0.2727
 2105SOL    HW117951   4.352   3.448   6.054  0.8805 -0.2570 -0.7729
 2105SOL    HW217952   4.235   3.405   6.132  0.2845  1.6269  0.0761
 2106SOL     OW17953   0.969   2.043  12.398 -0.3145 -0.3013  0.2354
 2106SOL    HW117954   1.003   2.132  12.405  2.0348 -1.3950  2.8135
 2106SOL    HW217955   1.047   1.987  12.399 -0.5437 -0.6505 -1.0767
 2107SOL     OW17956   0.601   1.959   5.580 -0.1553 -0.2257  0.3815
 2107SOL    HW117957   0.646   1.883   5.542  1.1254  1.4928 -1.5151
 2107SOL    HW217958   0.677   2.017   5.585  0.1578 -0.5641 -0.3583
 2108SOL     OW17959   0.011   0.959   6.716 -0.2037 -0.1283  0.4946
 2108SOL    HW117960   0.089   1.015   6.712  0.7113 -1.2584  2.4558
 2108SOL    HW217961   0.053   0.904   6.782 -1.3274 -1.3503  0.1822
 2109SOL     OW17962   2.178   0.847  16.034  0.4804  0.0653  0.1238
 2109SOL    HW117963   2.129   0.915  15.989  0.1011  0.4030  1.0757
 2109SOL    HW217964   2.244   0.821  15.969 -1.4086  1.0245 -2.1889
 2110SOL     OW17965   2.902   4.099   7.152  0.2521  0.2545  0.0547
 2110SOL    HW117966   2.831   4.115   7.213 -1.5679 -0.6801 -1.8033
 2110SOL    HW217967   2.847   4.068   7.079 -0.0647  1.6372 -0.2794
 2111SOL     OW17968   0.528   0.070   6.591 -0.4078  0.3209 -0.4477
 2111SOL    HW117969   0.509   0.159   6.564  0.5300  0.6145 -0.1273
 2111SOL    HW217970   0.557   0.086   6.681  2.9730  0.8755 -1.6774
 2112SOL     OW17971   0.814   2.381  12.503 -0.0767  0.7328 -0.7694
 2112SOL    HW117972   0.888   2.370  12.563 -0.5995 -0.6099 -0.3851
 2112SOL    HW217973   0.855   2.412  12.422  0.1135  1.1098 -0.5305
 2113SOL     OW17974   2.701   2.444   3.636  0.3543  0.3067  0.8276
 2113SOL    HW117975   2.713   2.383   3.708 -1.5577 -1.0585 -0.0079
 2113SOL    HW217976   2.756   2.516   3.668 -0.8980  1.0273  1.3808
 2114SOL     OW17977   3.328   1.766  12.488  0.0633 -0.5352  0.0949
 2114SOL    HW117978   3.399   1.721  12.532  0.4252 -0.4309 -0.3865
 2114SOL    HW217979   3.280   1.808  12.560  0.9206  0.8875 -0.1651
 2115SOL     OW17980   0.441   3.204   2.626 -0.1269  0.6010 -0.1743
 2115SOL    HW117981   0.458   3.264   2.698  2.2228  1.9357 -1.8191
 2115SOL    HW217982   0.476   3.256   2.553 -0.1817  0.2250 -0.4721
 2116SOL     OW17983   4.122   4.070   7.499  0.0522 -0.0589 -0.5198
 2116SOL    HW117984   4.031   4.096   7.484  0.0832 -0.0708 -0.7195
 2116SOL    HW217985   4.161   4.155   7.520  3.0099 -1.4335 -0.4300
 2117SOL     OW17986   2.189   2.623   9.322  0.5619  0.0703 -0.4663
 2117SOL    HW117987   2.238   2.658   9.396 -3.1621  2.6735  0.7462
 2117SOL    HW217988   2.261   2.605   9.260  0.2343 -0.6422 -0.6421
 2118SOL     OW17989   1.909   4.354   8.206  0.6183  0.5340 -0.7959
 2118SOL    HW117990   1.838   4.291   8.218  0.4196  0.8215 -0.4506
 2118SOL    HW217991   1.979   4.306   8.161  1.1640  1.2117 -0.6712
 2119SOL     OW17992   3.703   3.139   4.692 -0.0748  0.0031 -0.2339
 2119SOL    HW117993   3.738   3.196   4.623 -0.2570 -0.2726 -0.5563
 2119SOL    HW217994   3.652   3.073   4.644 -0.9719  0.6984 -0.2363
 2120SOL     OW17995   1.536   1.453  13.569  0.6276  0.4159 -0.1238
 2120SOL    HW117996   1.607   1.502  13.526 -0.7357  1.8815 -0.6812
 2120SOL    HW217997   1.563   1.469  13.659 -0.5246  0.4608  0.2007
 2121SOL     OW17998   0.929   3.075  12.565  0.1990  0.6370  0.1066
 2121SOL    HW117999   1.000   3.134  12.588  0.5998  0.2984 -0.2604
 2121SOL    HW218000   0.922   3.022  12.644  0.1937 -0.1735 -0.4299
 2122SOL     OW18001   2.828   1.161   6.399  0.3666  0.1578  0.1977
 2122SOL    HW118002   2.870   1.127   6.320 -0.4942  0.1124 -0.2424
 2122SOL    HW218003   2.747   1.111   6.393  0.8892 -0.9352  2.1399
 2123SOL     OW18004   2.225   2.855   2.694  0.0264  0.0779 -0.5373
 2123SOL    HW118005   2.134   2.874   2.673 -0.1489 -0.0268  0.1127
 2123SOL    HW218006   2.237   2.921   2.763 -0.4121  0.0800 -0.4624
 2124SOL     OW18007   2.663   4.380  15.270  0.4501  1.0141  0.1359
 2124SOL    HW118008   2.670   4.382  15.366 -2.8782  1.7001  0.3587
 2124SOL    HW218009   2.575   4.417  15.269  1.1307  2.6447 -0.0344
 2125SOL     OW18010   4.677   0.071   7.246  0.2383 -0.0381  0.0102
 2125SOL    HW118011   4.676   0.161   7.214 -1.4000  0.6494  2.0459
 2125SOL    HW218012   4.583   0.057   7.235  0.5181  1.0971 -3.9607
 2126SOL     OW18013   0.103   3.299   9.268  0.1194 -0.5391 -0.0858
 2126SOL    HW118014   0.108   3.315   9.362 -0.3065  2.0392 -0.5082
 2126SOL    HW218015   0.078   3.386   9.237 -1.3410 -1.3079 -1.0499
 2127SOL     OW18016   2.541   4.138  17.049 -0.0591 -0.4006 -0.6031
 2127SOL    HW118017   2.553   4.049  17.016  0.2640 -0.8106  0.6032
 2127SOL    HW218018   2.508   4.170  16.966  1.2395  0.9190 -0.6069
 2128SOL     OW18019   1.242   1.709   1.140  0.2045 -0.5728 -0.4425
 2128SOL    HW118020   1.257   1.703   1.046  0.6881  0.3088 -0.4204
 2128SOL    HW218021   1.158   1.755   1.139 -0.9808 -2.7205  0.0559
 2129SOL     OW18022   3.602   0.682   2.938  0.7836 -0.1355 -0.0030
 2129SOL    HW118023   3.674   0.744   2.923 -0.8531  1.9556  0.8659
 2129SOL    HW218024   3.607   0.665   3.032 -2.2058 -1.9825 -0.1799
 2130SOL     OW18025   2.585   0.245   3.751  0.6738  0.5564  0.2360
 2130SOL    HW118026   2.569   0.249   3.656  0.7973  1.6268  0.2625
 2130SOL    HW218027   2.498   0.217   3.779  0.6594  1.6943  1.3123
 2131SOL     OW18028   0.115   3.928   4.612  0.0150  0.2978  0.4077
 2131SOL    HW118029   0.103   3.948   4.519  0.2059  1.0371  0.5483
 2131SOL    HW218030   0.097   3.834   4.615 -0.2550  0.2870 -1.3927
 2132SOL     OW18031   4.215   1.360  13.108 -0.3289  0.1697  0.0462
 2132SOL    HW118032   4.237   1.341  13.017  0.3531 -1.0644  0.4820
 2132SOL    HW218033   4.280   1.430  13.121  0.1872 -0.5886  1.5038
 2133SOL     OW18034   2.112   4.300   7.486 -0.0826 -0.1890  0.1974
 2133SOL    HW118035   2.137   4.225   7.432 -1.6853  0.1398 -1.0224
 2133SOL    HW218036   2.049   4.335   7.422  0.8886  0.8016 -0.2179
 2134SOL     OW18037   3.923   1.718   8.269  0.0885  0.1524  0.3262
 2134SOL    HW118038   3.893   1.628   8.284  0.3579  0.1285  0.7423
 2134SOL    HW218039   3.922   1.763   8.353  2.5053  1.5391 -0.3694
 2135SOL     OW18040   3.321   4.021  11.544 -0.0264 -0.6220  0.0488
 2135SOL    HW118041   3.243   4.068  11.574 -1.3796 -3.7854  1.4259
 2135SOL    HW218042   3.287   3.932  11.540  1.3023 -1.1122 -0.2957
 2136SOL     OW18043   1.498   1.816  10.682  0.3117  0.9609  0.1160
 2136SOL    HW118044   1.426   1.756  10.664 -0.1083  1.8649 -1.2124
 2136SOL    HW218045   1.499   1.814  10.778  1.0548 -0.1303  0.0716
 2137SOL     OW18046   2.355   4.654   2.382 -0.8811 -0.5637 -0.1966
 2137SOL    HW118047   2.352   4.560   2.363 -2.2926 -0.2179 -1.7292
 2137SOL    HW218048   2.262   4.666   2.364 -0.8407  0.1330  0.0393
 2138SOL     OW18049   0.302   4.091   3.325  0.0318 -0.1927  0.6244
 2138SOL    HW118050   0.392   4.123   3.336  1.1098 -2.7544 -0.7853
 2138SOL    HW218051   0.244   4.158   3.361 -1.9884 -2.2061  1.0649
 2139SOL     OW18052   4.057   3.444   6.182 -0.4052  0.1212  0.0933
 2139SOL    HW118053   4.015   3.445   6.268  3.2971 -1.1130  1.9086
 2139SOL    HW218054   3.983   3.449   6.121  0.3002  2.6313 -0.5577
 2140SOL     OW18055   1.593   2.851   4.053  0.1365 -0.4400 -0.1575
 2140SOL    HW118056   1.658   2.785   4.027  2.0436  1.2992  0.1704
 2140SOL    HW218057   1.609   2.920   3.989  0.2125  0.1710  0.5311
 2141SOL     OW18058   1.485   4.339  17.726  0.0416 -0.0664  0.0421
 2141SOL    HW118059   1.565   4.390  17.735  0.7784 -1.6555  2.5421
 2141SOL    HW218060   1.473   4.312   0.073  2.6934 -2.5303 -0.3733
 2142SOL     OW18061   3.301   1.911   6.506  0.6040 -0.1097 -0.0731
 2142SOL    HW118062   3.360   1.968   6.458 -1.1843  2.0463  0.2760
 2142SOL    HW218063   3.367   1.854   6.546  0.0796  0.1373  1.1389
 2143SOL     OW18064   3.564   3.954   1.665  0.2157  0.4304  0.2453
 2143SOL    HW118065   3.496   3.890   1.687  0.4449 -0.3319 -1.2650
 2143SOL    HW218066   3.635   3.896   1.637 -0.0083 -0.3259  1.2630
 2144SOL     OW18067   1.386   1.118   7.035 -0.1444  0.1298 -0.2042
 2144SOL    HW118068   1.335   1.192   7.000 -2.1071 -1.0212  0.2594
 2144SOL    HW218069   1.370   1.050   6.969  1.5857 -1.3592  0.9209
 2145SOL     OW18070   0.372   2.382   7.788 -0.2037  0.3333  0.5010
 2145SOL    HW118071   0.432   2.423   7.726 -2.4522  1.1995 -1.1110
 2145SOL    HW218072   0.431   2.326   7.838 -0.7665  0.1507  0.9581
 2146SOL     OW18073   0.750   4.114  11.547 -0.1713 -0.3008 -0.1443
 2146SOL    HW118074   0.674   4.059  11.563 -0.6523 -0.0244 -1.3949
 2146SOL    HW218075   0.705   4.198  11.543 -1.3035 -0.9590 -1.1264
 2147SOL     OW18076   1.317   0.051  11.251 -0.1983  0.0445 -0.5712
 2147SOL    HW118077   1.317   0.121  11.185 -0.0541  1.1454  0.6072
 2147SOL    HW218078   1.245   0.071  11.309  0.6223 -2.1833  1.2319
 2148SOL     OW18079   0.539   2.331   6.154  0.4721  0.6362 -0.1481
 2148SOL    HW118080   0.508   2.367   6.071 -0.7344  2.3543  1.0535
 2148SOL    HW218081   0.625   2.370   6.170  0.8166 -0.9436  1.8715
 2149SOL     OW18082   3.985   1.197   8.597 -0.0089 -0.3726  0.2470
 2149SOL    HW118083   3.947   1.187   8.684 -2.0674 -0.7702 -0.6900
 2149SOL    HW218084   3.906   1.190   8.543  0.2942 -1.3077 -0.0929
 2150SOL     OW18085   2.948   0.308  13.130 -0.0651 -0.4383 -0.0569
 2150SOL    HW118086   2.981   0.389  13.170  1.8726 -0.5249 -1.4800
 2150SOL    HW218087   3.011   0.253  13.176  0.5195 -0.7856 -1.2741
 2151SOL     OW18088   4.584   3.730   1.090  0.1091 -0.2757 -0.1334
 2151SOL    HW118089   4.550   3.761   1.174  2.9740  0.4359  0.7732
 2151SOL    HW218090   4.617   3.812   1.052 -1.0176  0.6247  0.8518
 2152SOL     OW18091   1.290   2.305   7.802  0.2347 -0.4342 -0.4897
 2152SOL    HW118092   1.303   2.273   7.713  0.2666 -0.6658 -0.4036
 2152SOL    HW218093   1.375   2.338   7.832  1.1593 -2.3349 -1.0131
 2153SOL     OW18094   2.940   1.223   6.936  0.3105 -0.2056 -0.5254
 2153SOL    HW118095   2.913   1.163   7.005  0.6216  0.2212 -0.0350
 2153SOL    HW218096   3.031   1.244   6.955 -0.0653  0.2988  0.7267
 2154SOL     OW18097   1.528   2.770   8.900 -0.0805 -0.5474 -0.1768
 2154SOL    HW118098   1.546   2.787   8.993 -1.6912  2.6778 -0.4478
 2154SOL    HW218099   1.591   2.700   8.881 -1.2967 -1.5559 -0.5705
 2155SOL     OW18100   4.022   3.984   3.203  0.2862 -0.2762  0.8009
 2155SOL    HW118101   4.003   4.028   3.120  1.0269  0.9084  1.2675
 2155SOL    HW218102   4.018   4.060   3.261  2.9645 -0.3599  1.1035
 2156SOL     OW18103   3.361   4.326   7.172  0.2352  0.0064 -0.1290
 2156SOL    HW118104   3.327   4.416   7.170 -0.0378 -0.1697 -2.5965
 2156SOL    HW218105   3.383   4.328   7.265 -2.4815 -0.8895  0.5411
 2157SOL     OW18106   1.860   0.069   8.346 -0.0134 -0.1459 -0.4121
 2157SOL    HW118107   1.841   4.721   8.303 -0.4628 -0.1424 -0.2266
 2157SOL    HW218108   1.875   0.044   8.437 -0.5946 -0.4390 -0.3972
 2158SOL     OW18109   1.507   1.447  11.962 -0.0420  0.3078 -0.0644
 2158SOL    HW118110   1.496   1.457  12.056 -1.1434  0.5404 -0.2122
 2158SOL    HW218111   1.565   1.371  11.962 -0.4642 -0.0191 -2.0239
 2159SOL     OW18112   3.238   0.004   2.913 -0.3892 -0.3103  0.2814
 2159SOL    HW118113   3.206   4.653   2.933 -1.7053 -0.5613 -2.8342
 2159SOL    HW218114   3.207   0.016   2.823  0.0808 -0.1123  0.1449
 2160SOL     OW18115   1.527   4.416  14.961  0.0618 -0.8599 -0.0938
 2160SOL    HW118116   1.500   4.406  14.869 -0.9238  0.8862 -0.0001
 2160SOL    HW218117   1.514   4.325  14.989  0.9266 -1.5592 -1.9731
 2161SOL     OW18118   4.219   4.288  14.272 -0.4856  0.0669 -0.7854
 2161SOL    HW118119   4.180   4.374  14.259 -0.5329  0.0930 -0.4679
 2161SOL    HW218120   4.312   4.309  14.277 -0.7776  0.7023  2.1420
 2162SOL     OW18121   2.036   3.814   9.503 -0.2145  0.0181  0.6256
 2162SOL    HW118122   2.004   3.778   9.585  2.1500  0.3693  1.6995
 2162SOL    HW218123   2.004   3.904   9.506 -0.1169  0.1432 -1.5607
 2163SOL     OW18124   0.603   2.921   7.313  0.1182 -0.0940  0.4305
 2163SOL    HW118125   0.584   2.829   7.293 -1.5212  0.5326 -0.9240
 2163SOL    HW218126   0.627   2.913   7.405 -3.2474  3.8210  1.6584
 2164SOL     OW18127   0.319   4.196   6.516 -0.1910  0.0976  0.4761
 2164SOL    HW118128   0.300   4.272   6.572  0.7411 -0.2166  1.2187
 2164SOL    HW218129   0.313   4.122   6.576 -0.6369  0.7730  1.2629
 2165SOL     OW18130   1.045   1.846   7.711 -0.1005  0.0910  0.2242
 2165SOL    HW118131   0.956   1.875   7.693  0.0521  1.0734  1.0460
 2165SOL    HW218132   1.082   1.911   7.770 -1.8014  1.3148 -0.0651
 2166SOL     OW18133   0.975   3.905  10.177 -0.1836 -0.3157  0.1995
 2166SOL    HW118134   1.021   3.846  10.237 -1.0483  0.1177  1.2874
 2166SOL    HW218135   0.882   3.905  10.199 -0.4970  0.8083 -1.0954
 2167SOL     OW18136   4.506   3.294   2.937  0.2623  0.4413  0.3244
 2167SOL    HW118137   4.529   3.213   2.890 -0.8667  1.6720 -2.3152
 2167SOL    HW218138   4.534   3.351   2.866  0.7394 -1.3543 -0.9394
 2168SOL     OW18139   1.598   3.815   7.735 -0.0706 -0.3055 -0.1085
 2168SOL    HW118140   1.517   3.834   7.689 -1.2635 -0.5168  1.9111
 2168SOL    HW218141   1.553   3.754   7.794 -0.4675 -0.2682 -0.3736
 2169SOL     OW18142   0.285   0.266  14.515  0.1348 -0.2188  1.0906
 2169SOL    HW118143   0.267   0.265  14.610 -2.6083 -1.0225  0.5783
 2169SOL    HW218144   0.330   0.351  14.521  3.1607 -1.7725  0.2026
 2170SOL     OW18145   4.245   4.611  12.738  0.1255 -0.4439  0.2538
 2170SOL    HW118146   4.213   4.652  12.658 -1.3773  2.3031  2.2390
 2170SOL    HW218147   4.334   4.646  12.743 -0.0204 -0.1864  1.0382
 2171SOL     OW18148   4.259   3.868   5.230  0.2605  0.3192 -0.1025
 2171SOL    HW118149   4.321   3.797   5.243  0.4132  0.6372  0.8891
 2171SOL    HW218150   4.277   3.921   5.308  1.1574 -0.5834  0.2865
 2172SOL     OW18151   0.663   1.736  15.188  0.2311  0.1287  0.6814
 2172SOL    HW118152   0.655   1.832  15.182 -0.8281  0.1099  1.6899
 2172SOL    HW218153   0.597   1.716  15.254  1.1480 -3.5798  0.4547
 2173SOL     OW18154   0.992   1.631   4.099 -0.3625  0.0844  0.5757
 2173SOL    HW118155   0.956   1.630   4.010 -1.4603 -0.9365  1.0316
 2173SOL    HW218156   0.978   1.539   4.122  0.9285  0.1174  1.4930
 2174SOL     OW18157   0.208   2.284   3.423 -0.1401 -0.1904  0.1706
 2174SOL    HW118158   0.227   2.257   3.332 -4.0914 -1.5563 -0.2516
 2174SOL    HW218159   0.234   2.216   3.485 -2.6153  0.4960  1.9334
 2175SOL     OW18160   2.751   3.428  12.825  0.0743  0.1002 -0.4102
 2175SOL    HW118161   2.780   3.472  12.745 -0.8916  0.0859 -0.7565
 2175SOL    HW218162   2.837   3.407  12.863  0.3543 -0.5872 -1.4270
 2176SOL     OW18163   1.172   3.030   7.195  0.3655  0.8484  0.1513
 2176SOL    HW118164   1.192   2.936   7.190  0.2763  0.7823  1.0212
 2176SOL    HW218165   1.083   3.039   7.229  0.7516 -0.6068  1.5407
 2177SOL     OW18166   2.335   1.831   7.201 -0.5528  0.5219  0.4098
 2177SOL    HW118167   2.304   1.821   7.291  0.6061  2.3703  1.0273
 2177SOL    HW218168   2.336   1.923   7.174 -1.0785  0.2777 -0.4467
 2178SOL     OW18169   0.861   0.599   5.381  0.4399  0.2740  0.7917
 2178SOL    HW118170   0.895   0.595   5.470  1.2172 -1.4800  0.4388
 2178SOL    HW218171   0.812   0.681   5.381  0.5758  0.3756 -1.6747
 2179SOL     OW18172   4.434   0.974   5.374 -0.3828  0.3223 -0.1998
 2179SOL    HW118173   4.404   0.883   5.373 -1.4115  0.6604  0.1514
 2179SOL    HW218174   4.527   0.969   5.397 -1.0413 -0.8264  2.2223
 2180SOL     OW18175   4.403   3.385   5.239 -0.2363  0.2113 -0.2832
 2180SOL    HW118176   4.429   3.339   5.159  0.4945 -1.1205  0.7294
 2180SOL    HW218177   4.452   3.331   5.301 -0.3773 -0.4152 -0.7199
 2181SOL     OW18178   3.320   3.440   4.224 -0.0375  0.1436 -0.0768
 2181SOL    HW118179   3.376   3.369   4.191  0.1958 -0.2553  1.1920
 2181SOL    HW218180   3.247   3.390   4.261 -0.5997 -0.5239 -2.0714
 2182SOL     OW18181   3.499   3.699   5.504  0.4090 -0.2514 -0.4695
 2182SOL    HW118182   3.481   3.615   5.547  0.1726 -0.6344 -1.3157
 2182SOL    HW218183   3.424   3.724   5.450 -0.4916 -2.3105 -0.1650
 2183SOL     OW18184   2.616   1.800  15.942  0.3957 -0.3235 -0.9680
 2183SOL    HW118185   2.587   1.826  15.855  2.0171 -0.6023 -1.5855
 2183SOL    HW218186   2.657   1.880  15.974 -1.2118  0.5106 -1.0089
 2184SOL     OW18187   3.643   1.780   6.263 -0.1998  0.4838 -0.6506
 2184SOL    HW118188   3.646   1.685   6.252 -0.8276  0.1890  1.6387
 2184SOL    HW218189   3.712   1.792   6.329 -0.9182 -1.0799  0.3739
 2185SOL     OW18190   0.060   4.657   3.402  0.1609  0.5329  0.1932
 2185SOL    HW118191   0.023   4.657   3.490 -0.8785  1.9937 -0.2381
 2185SOL    HW218192   4.726   4.678   3.341 -0.9652  0.0421  1.3444
 2186SOL     OW18193   0.965   4.361  14.651  0.3159  0.5968  0.0224
 2186SOL    HW118194   0.943   4.335  14.562  1.3700 -0.6707  0.1453
 2186SOL    HW218195   0.951   4.455  14.638 -0.9224  0.0316 -2.8360
 2187SOL     OW18196   4.662   0.425   1.612  0.4863  0.3650 -0.4499
 2187SOL    HW118197   4.637   0.429   1.705  2.4908 -0.6935  0.1188
 2187SOL    HW218198   4.614   0.491   1.561  0.7607  0.4743 -0.5650
 2188SOL     OW18199   4.097   0.144  15.609  0.4173  0.1267  0.2385
 2188SOL    HW118200   4.125   0.212  15.548  0.3227  1.6899  1.9403
 2188SOL    HW218201   4.176   0.128  15.660 -0.5992  0.7661  2.0355
 2189SOL     OW18202   4.697   3.955  14.583 -0.2416 -0.3464  0.1261
 2189SOL    HW118203   0.028   3.991  14.525  0.5041 -1.7353  0.1365
 2189SOL    HW218204   4.643   4.031  14.607  0.2267  0.5024 -1.5061
 2190SOL     OW18205   2.419   2.538  16.791  0.4624 -0.4804 -0.2426
 2190SOL    HW118206   2.437   2.545  16.885  0.1823 -1.3155 -0.1215
 2190SOL    HW218207   2.486   2.601  16.765  1.2767 -0.5854  1.5968
 2191SOL     OW18208   1.180   4.372   2.039  0.3339  0.0624 -0.2665
 2191SOL    HW118209   1.111   4.395   2.100  1.4604  0.7195  0.7599
 2191SOL    HW218210   1.173   4.276   2.036 -0.4157  0.0406  2.8065
 2192SOL     OW18211   2.162   0.385  12.556  0.2742  0.5067 -0.1816
 2192SOL    HW118212   2.152   0.339  12.472 -0.0515 -0.3018  0.3032
 2192SOL    HW218213   2.119   0.319  12.611  0.5889 -0.7207 -1.3900
 2193SOL     OW18214   0.445   1.545  16.436  0.4145  0.4555 -0.1210
 2193SOL    HW118215   0.512   1.577  16.496 -1.5436  0.1000  2.2510
 2193SOL    HW218216   0.376   1.543  16.503  0.4728 -0.6253 -0.0909
 2194SOL     OW18217   2.432   3.604   5.539 -0.8495  0.3573  0.1784
 2194SOL    HW118218   2.350   3.600   5.488 -1.0008 -0.6426  0.4927
 2194SOL    HW218219   2.490   3.610   5.463  0.6311  0.9686  1.3597
 2195SOL     OW18220   0.997   2.598   7.740 -0.4849 -0.0757  0.1394
 2195SOL    HW118221   0.904   2.606   7.719 -0.5921  1.2833  1.1352
 2195SOL    HW218222   1.038   2.668   7.688 -2.8253 -1.2666 -3.2935
 2196SOL     OW18223   3.573   0.828  12.866  0.5145  0.1842  0.3258
 2196SOL    HW118224   3.537   0.819  12.778  1.2977  1.9155 -0.1762
 2196SOL    HW218225   3.490   0.848  12.908  0.6588 -1.9800  1.6558
 2197SOL     OW18226   2.524   2.884   5.286 -0.1707  0.4579  0.4133
 2197SOL    HW118227   2.528   2.913   5.377  2.7207 -1.3138  0.8741
 2197SOL    HW218228   2.598   2.826   5.269 -2.4369 -2.6283  1.0335
 2198SOL     OW18229   2.179   0.933  11.229 -0.0383  0.0156  0.2586
 2198SOL    HW118230   2.159   0.880  11.152 -0.1774  1.0139 -0.3963
 2198SOL    HW218231   2.090   0.946  11.263  0.9716  1.8656  2.1521
 2199SOL     OW18232   2.930   3.908  17.215  0.2039  0.6067 -0.7668
 2199SOL    HW118233   2.993   3.913  17.143  2.1170 -1.3360  0.7670
 2199SOL    HW218234   2.974   3.961  17.281  1.3557 -0.0421 -1.0084
 2200SOL     OW18235   4.442   2.553   4.694 -0.1140  0.3710  0.3154
 2200SOL    HW118236   4.466   2.646   4.700 -1.7119  0.6497  2.3792
 2200SOL    HW218237   4.371   2.552   4.629  0.9940  0.6593 -0.9001
 2201SOL     OW18238   1.756   3.468   8.348  0.0140 -0.1106  0.0304
 2201SOL    HW118239   1.767   3.379   8.316  1.3600  0.2366 -0.5082
 2201SOL    HW218240   1.663   3.475   8.367 -0.1955  0.2077 -1.0897
 2202SOL     OW18241   3.234   4.126   8.889  0.0680  0.5325  0.2937
 2202SOL    HW118242   3.171   4.127   8.817  1.7273  0.6745 -1.1628
 2202SOL    HW218243   3.206   4.043   8.929 -0.7948  0.2745 -0.8208
 2203SOL     OW18244   4.160   1.712   5.748  0.6148 -0.0098 -0.5683
 2203SOL    HW118245   4.099   1.771   5.791  2.5327  0.1621  1.9153
 2203SOL    HW218246   4.098   1.684   5.681 -0.7531  2.0594 -0.1505
 2204SOL     OW18247   3.228   3.269   5.052  0.0041 -0.2218 -0.4404
 2204SOL    HW118248   3.257   3.329   5.120 -1.5177 -0.0551  0.0587
 2204SOL    HW218249   3.277   3.187   5.061  1.4326  0.6762 -0.2063
 2205SOL     OW18250   1.120   3.755   3.349 -0.4393 -0.2566 -0.0725
 2205SOL    HW118251   1.101   3.785   3.260 -0.2232  0.7131  0.2087
 2205SOL    HW218252   1.143   3.664   3.334 -0.5492  0.2149 -2.9772
 2206SOL     OW18253   0.376   0.291   7.189 -0.0893 -0.2711  0.0923
 2206SOL    HW118254   0.431   0.364   7.162 -0.4309  0.6336  1.8719
 2206SOL    HW218255   0.369   0.226   7.120 -1.4628  0.3749 -0.3748
 2207SOL     OW18256   1.337   3.212   9.462 -0.3731 -0.5214 -0.4559
 2207SOL    HW118257   1.424   3.249   9.445 -1.6883  2.2917 -1.0925
 2207SOL    HW218258   1.337   3.184   9.554  0.8241  0.9008 -0.0238
 2208SOL     OW18259   3.818   0.159   0.804  0.0911  0.3280  0.0595
 2208SOL    HW118260   3.742   0.155   0.746 -1.0255  0.7326  1.4794
 2208SOL    HW218261   3.877   0.209   0.748 -0.2312  2.2375  1.4241
 2209SOL     OW18262   0.873   0.737  15.185 -0.0847 -0.2616  0.2336
 2209SOL    HW118263   0.879   0.809  15.122  2.1527 -0.0678  0.6671
 2209SOL    HW218264   0.832   0.770  15.265 -0.2613 -1.0045  0.4470
 2210SOL     OW18265   4.233   1.599   7.151 -0.3317 -0.0970 -0.2271
 2210SOL    HW118266   4.196   1.652   7.081  2.1950  1.5773 -0.3094
 2210SOL    HW218267   4.210   1.650   7.228 -0.1836 -1.3069  0.6246
 2211SOL     OW18268   2.851   2.508  15.111 -0.1150 -0.1410  0.6032
 2211SOL    HW118269   2.792   2.555  15.170  0.7734 -0.7044  1.9388
 2211SOL    HW218270   2.787   2.437  15.107 -1.9641  1.4475  1.9141
 2212SOL     OW18271   4.620   3.196   8.733  0.2559  0.0639 -0.5684
 2212SOL    HW118272   4.612   3.102   8.716 -2.5474  0.2893 -0.5642
 2212SOL    HW218273   4.527   3.219   8.732  0.7581  2.1603  0.3555
 2213SOL     OW18274   3.304   3.718   4.550 -0.9217 -0.1912  0.2230
 2213SOL    HW118275   3.217   3.743   4.519 -2.2585 -2.7948  1.8584
 2213SOL    HW218276   3.288   3.624   4.552  0.9817 -0.5286 -0.3989
 2214SOL     OW18277   4.223   4.262   7.626 -0.4746 -0.2525 -0.0227
 2214SOL    HW118278   4.136   4.301   7.637  0.4164  1.8382 -0.3549
 2214SOL    HW218279   4.209   4.202   7.699  2.2955  0.2106  0.8613
 2215SOL     OW18280   0.062   1.838   1.080  0.3695 -0.3481  0.0834
 2215SOL    HW118281   0.112   1.794   1.149 -3.2493 -0.6687  2.4762
 2215SOL    HW218282   4.718   1.861   1.126  0.8531  1.7377 -0.1147
 2216SOL     OW18283   0.944   2.445  10.936  0.7659  0.1275 -0.3152
 2216SOL    HW118284   0.939   2.430  11.031  0.4547  1.2530 -0.1558
 2216SOL    HW218285   0.991   2.528  10.941  0.7454  0.0746  0.7788
 2217SOL     OW18286   0.107   1.189   1.746  0.1473 -0.3108 -0.1182
 2217SOL    HW118287   0.142   1.171   1.658  0.1282 -1.3793  0.0919
 2217SOL    HW218288   0.052   1.262   1.717  0.5999 -0.4017 -1.2248
 2218SOL     OW18289   2.905   1.432  13.578 -0.0999  0.3127 -0.2401
 2218SOL    HW118290   2.818   1.393  13.579  1.4376 -3.1568  0.6558
 2218SOL    HW218291   2.894   1.507  13.637 -1.6903 -0.1439  0.0335
 2219SOL     OW18292   2.783   3.703   4.205  0.9794  0.4355  0.8000
 2219SOL    HW118293   2.761   3.795   4.195  0.7550  0.3824  0.7945
 2219SOL    HW218294   2.877   3.714   4.197  0.6112  3.0230  0.1052
 2220SOL     OW18295   2.046   4.594   1.191  0.7740  0.0921  0.6520
 2220SOL    HW118296   1.980   4.662   1.203  0.4374 -0.0436 -0.3403
 2220SOL    HW218297   2.057   4.596   1.095 -1.8462 -4.3248  0.2604
 2221SOL     OW18298   0.243   1.428   2.095  0.1775 -0.0473  0.4432
 2221SOL    HW118299   0.259   1.340   2.061 -1.3680  0.1142 -0.6992
 2221SOL    HW218300   0.173   1.409   2.158 -1.7964  0.4516 -1.6032
 2222SOL     OW18301   1.019   3.814  16.370 -0.2823  0.1609 -0.2679
 2222SOL    HW118302   1.075   3.849  16.440 -0.0957 -0.2472 -0.2110
 2222SOL    HW218303   0.987   3.896  16.332 -1.0002  0.4065  0.8508
 2223SOL     OW18304   4.366   0.251   4.521 -0.0189 -0.2248  0.6370
 2223SOL    HW118305   4.272   0.264   4.524  0.2058  1.9306 -2.5320
 2223SOL    HW218306   4.392   0.343   4.528  0.9288 -0.4529  0.1958
 2224SOL     OW18307   2.896   0.729   4.517  0.1301 -0.5551 -0.0028
 2224SOL    HW118308   2.908   0.671   4.592 -2.7171 -0.8960  0.1845
 2224SOL    HW218309   2.899   0.815   4.559  0.4217 -1.2853  1.4587
 2225SOL     OW18310   1.350   2.483  12.394  0.0505  0.3390 -0.5794
 2225SOL    HW118311   1.386   2.551  12.338 -1.4493  1.7582  0.1606
 2225SOL    HW218312   1.425   2.460  12.449 -0.4428  2.0154  0.8055
 2226SOL     OW18313   3.041   0.354   3.326 -0.1631  0.6211 -0.6846
 2226SOL    HW118314   3.080   0.327   3.243  2.1921  0.1604  0.5778
 2226SOL    HW218315   3.097   0.425   3.355 -0.0201  0.5286 -0.7360
 2227SOL     OW18316   3.367   2.572  16.609 -0.6421 -0.0929  0.4877
 2227SOL    HW118317   3.394   2.486  16.577 -1.2910 -0.6009  1.3213
 2227SOL    HW218318   3.375   2.618  16.525  0.5642 -1.4952 -0.1668
 2228SOL     OW18319   2.597   2.360  10.919  0.0601 -0.0591 -0.6632
 2228SOL    HW118320   2.645   2.279  10.931  0.7224  0.4672  0.2381
 2228SOL    HW218321   2.571   2.371  11.011 -3.0888  2.9193 -1.9018
 2229SOL     OW18322   0.919   3.011   9.575  0.6198 -0.2415 -0.0522
 2229SOL    HW118323   0.836   2.967   9.556 -0.2150  0.4396  2.0131
 2229SOL    HW218324   0.966   2.942   9.621 -1.1446 -3.9031 -3.6405
 2230SOL     OW18325   2.737   0.008  12.123  0.2479  0.2597 -0.0488
 2230SOL    HW118326   2.709   0.096  12.097 -3.0343 -0.7428  0.1050
 2230SOL    HW218327   2.783   0.011  12.207 -0.3326  3.1281  0.1693
 2231SOL     OW18328   1.769   2.350   3.557 -0.4914  0.3400 -0.1173
 2231SOL    HW118329   1.750   2.424   3.500  1.1606  2.6488  2.2961
 2231SOL    HW218330   1.749   2.279   3.497  0.5207 -0.2220  0.1992
 2232SOL     OW18331   4.002   3.181   3.943 -0.9062  0.2235 -0.5186
 2232SOL    HW118332   4.031   3.112   3.882 -1.1872 -1.4352  1.2283
 2232SOL    HW218333   3.943   3.123   3.991  0.1503  0.0943  0.6299
 2233SOL     OW18334   1.454   2.060   3.127 -0.3349  0.0099 -0.0977
 2233SOL    HW118335   1.393   2.105   3.069 -2.2965  0.3596  2.2183
 2233SOL    HW218336   1.420   2.085   3.213  2.5844 -1.1589  1.3966
 2234SOL     OW18337   0.338   0.057  14.062  0.1040 -0.2682  0.2091
 2234SOL    HW118338   0.264   0.028  14.010 -0.1408  2.9423 -1.1852
 2234SOL    HW218339   0.351   4.718  14.121 -1.5543  0.4330  1.4865
 2235SOL     OW18340   0.773   4.556   4.358  0.1598 -0.1476  0.0229
 2235SOL    HW118341   0.686   4.576   4.394 -0.8838 -4.3407 -0.1398
 2235SOL    HW218342   0.782   4.464   4.383  0.6651 -0.3895 -1.0700
 2236SOL     OW18343   0.568   3.316   3.521  0.0681 -0.5450  0.1921
 2236SOL    HW118344   0.514   3.394   3.535 -1.2357 -1.0279 -2.2696
 2236SOL    HW218345   0.586   3.328   3.428  1.7653  0.6880  0.6604
 2237SOL     OW18346   1.052   3.721  10.341  0.2074  0.2646  0.4199
 2237SOL    HW118347   1.093   3.634  10.337 -0.7514 -0.0497 -2.3386
 2237SOL    HW218348   1.067   3.736  10.434 -1.0471 -2.1964  1.0111
 2238SOL     OW18349   1.019   1.383   8.997  0.6982  0.0986  0.5472
 2238SOL    HW118350   1.097   1.349   8.954  0.3673  1.1003 -0.8219
 2238SOL    HW218351   0.980   1.437   8.929  1.0660  0.6445  0.7766
 2239SOL     OW18352   0.675   2.622  12.237  0.5647 -0.4523 -0.0371
 2239SOL    HW118353   0.641   2.583  12.318 -1.0213 -0.8126 -0.8785
 2239SOL    HW218354   0.602   2.669  12.197  1.8226  1.0007 -0.5924
 2240SOL     OW18355   0.830   1.089  17.212  0.4362 -0.8209 -0.1688
 2240SOL    HW118356   0.827   1.143  17.290  0.4343  0.6473 -1.1795
 2240SOL    HW218357   0.766   1.128  17.152  0.2501  0.7382  1.0429
 2241SOL     OW18358   3.763   2.463   2.005 -0.2433  0.1274  0.8953
 2241SOL    HW118359   3.805   2.377   2.000  0.2585  0.4591 -0.8236
 2241SOL    HW218360   3.773   2.497   1.916  1.1273 -1.3472  0.4953
 2242SOL     OW18361   4.351   2.894  17.162  0.1502  0.2972 -0.4052
 2242SOL    HW118362   4.397   2.923  17.083  1.0917 -1.2370 -0.4204
 2242SOL    HW218363   4.294   2.968  17.181 -0.6923 -0.2838 -0.6725
 2243SOL     OW18364   1.845   3.876  16.887 -0.3019  0.0242  0.1735
 2243SOL    HW118365   1.894   3.796  16.901  1.5685  1.0980 -0.2552
 2243SOL    HW218366   1.767   3.848  16.935 -0.0625  2.6271  2.1251
 2244SOL     OW18367   2.190   3.142  12.045  0.0552 -0.3220 -0.2761
 2244SOL    HW118368   2.198   3.065  11.988  2.9033  0.3908 -0.8395
 2244SOL    HW218369   2.234   3.118  12.127 -0.6052  0.8204  0.4041
 2245SOL     OW18370   0.020   3.218   7.572 -0.0845  0.0405 -0.4199
 2245SOL    HW118371   0.073   3.284   7.618 -0.0482 -0.5572  0.3842
 2245SOL    HW218372   0.016   3.262   7.487  0.6906  0.3473 -0.3012
 2246SOL     OW18373   2.528   0.762   4.494  0.2791  0.2193  0.1965
 2246SOL    HW118374   2.469   0.721   4.430  0.5264  0.6958 -0.3399
 2246SOL    HW218375   2.504   0.716   4.574  3.5889 -2.1628 -0.1517
 2247SOL     OW18376   3.208   2.106   9.078 -0.0504 -0.7406 -0.0841
 2247SOL    HW118377   3.159   2.137   9.154  1.9915  1.4541  0.3560
 2247SOL    HW218378   3.129   2.111   9.023 -0.5045  0.2576  0.6516
 2248SOL     OW18379   2.315   4.483   3.420 -0.9305 -0.5164  0.0206
 2248SOL    HW118380   2.333   4.414   3.356 -1.5622 -2.4478  1.9299
 2248SOL    HW218381   2.383   4.543   3.389  0.9104 -2.2561  0.6741
 2249SOL     OW18382   0.086   1.954   1.579 -0.4504 -0.0323  0.1326
 2249SOL    HW118383   0.173   1.914   1.585 -0.8225 -1.3532 -3.1415
 2249SOL    HW218384   0.103   2.039   1.537 -2.2081  1.2328  1.9771
 2250SOL     OW18385   4.507   2.428   5.372  0.1473 -0.0715  0.1396
 2250SOL    HW118386   4.437   2.414   5.435  1.3284 -3.5813  0.6510
 2250SOL    HW218387   4.467   2.413   5.286 -0.6765  0.3590  0.4465
 2251SOL     OW18388   2.496   2.107  17.130 -0.5552  0.1536 -0.0863
 2251SOL    HW118389   2.579   2.135  17.168 -0.4377  0.3656 -0.5012
 2251SOL    HW218390   2.434   2.142  17.194  0.6290  1.7400  0.1959
 2252SOL     OW18391   3.299   0.189   7.766 -0.3169 -0.8341 -0.4310
 2252SOL    HW118392   3.281   0.096   7.778 -0.8764 -1.0083 -2.7921
 2252SOL    HW218393   3.285   0.219   7.856  1.6677 -2.0707  0.2920
 2253SOL     OW18394   2.434   2.067  15.562  0.0987 -0.5493  0.2059
 2253SOL    HW118395   2.435   2.141  15.501 -1.6681  0.3687  1.2771
 2253SOL    HW218396   2.340   2.048  15.566  0.1647 -0.9652 -0.3132
 2254SOL     OW18397   3.034   2.083   5.805 -0.3324  0.5490  0.2786
 2254SOL    HW118398   3.044   2.161   5.860 -2.9974  0.8109  0.3958
 2254SOL    HW218399   3.038   2.009   5.865 -2.2166  0.0756 -0.1724
 2255SOL     OW18400   3.862   2.957   2.345  0.1101  0.3664  0.8507
 2255SOL    HW118401   3.833   3.028   2.289 -1.0774 -0.7471  0.0563
 2255SOL    HW218402   3.905   2.897   2.284  1.0697 -0.1464  2.0324
 2256SOL     OW18403   0.414   1.714   2.559  0.1646  0.2830  0.4554
 2256SOL    HW118404   0.394   1.697   2.467 -2.7981  3.1363  0.5742
 2256SOL    HW218405   0.493   1.766   2.549  0.6079 -0.2954  0.9114
 2257SOL     OW18406   0.424   4.416   5.948 -0.0640  0.3397 -0.4629
 2257SOL    HW118407   0.393   4.505   5.966 -1.5316 -0.2141 -0.2699
 2257SOL    HW218408   0.403   4.397   5.857 -0.7298 -2.4609  0.2832
 2258SOL     OW18409   0.768   2.122  11.377 -0.3225 -0.0487 -1.1407
 2258SOL    HW118410   0.846   2.132  11.432 -1.5329 -0.7275  0.7031
 2258SOL    HW218411   0.789   2.033  11.347 -0.5367 -0.4117 -0.2416
 2259SOL     OW18412   2.799   1.787   3.554 -0.2916  0.2857  0.2879
 2259SOL    HW118413   2.862   1.814   3.621 -0.5958  1.0245  0.2724
 2259SOL    HW218414   2.749   1.869   3.554  0.9228  1.0243 -0.4860
 2260SOL     OW18415   2.196   1.814  15.917  0.3756  0.0487 -0.1920
 2260SOL    HW118416   2.130   1.800  15.985  0.1840 -1.6397 -0.7394
 2260SOL    HW218417   2.155   1.882  15.863 -0.2395  0.0056  0.2186
 2261SOL     OW18418   2.217   3.379   7.597 -0.8912  0.8461 -0.1794
 2261SOL    HW118419   2.219   3.459   7.544 -0.3947 -0.3878 -2.0235
 2261SOL    HW218420   2.122   3.385   7.590 -0.7853  1.7250 -0.8820
 2262SOL     OW18421   2.599   4.117   5.392 -0.6660 -0.5306  0.5262
 2262SOL    HW118422   2.531   4.098   5.457 -1.6005 -1.1769 -0.6196
 2262SOL    HW218423   2.675   4.114   5.449  0.0039 -0.3194 -0.3579
 2263SOL     OW18424   1.812   2.519  15.062 -0.3259  0.1773  0.2643
 2263SOL    HW118425   1.762   2.441  15.083 -3.0428  1.9831  0.5012
 2263SOL    HW218426   1.751   2.555  14.997 -1.0150 -2.0965 -0.3299
 2264SOL     OW18427   3.411   0.437   9.301 -0.3889 -0.2592  0.2087
 2264SOL    HW118428   3.368   0.353   9.311  1.4659 -1.1909  0.4399
 2264SOL    HW218429   3.479   0.422   9.367 -0.3139  2.0473  0.6505
 2265SOL     OW18430   3.084   4.614   9.605  0.6138 -0.0036  0.2164
 2265SOL    HW118431   3.117   4.634   9.693 -1.7876 -2.6314  1.7107
 2265SOL    HW218432   3.150   4.652   9.548 -0.9395  2.2827 -0.0867
 2266SOL     OW18433   0.745   3.498   9.151 -0.6651 -0.2331  0.1787
 2266SOL    HW118434   0.785   3.503   9.064 -1.3133 -1.3500 -0.1723
 2266SOL    HW218435   0.659   3.459   9.137 -0.3192 -0.8992 -0.0781
 2267SOL     OW18436   2.173   1.390   6.783 -0.2309  0.3681 -0.2618
 2267SOL    HW118437   2.139   1.478   6.799  0.9353  0.7805 -0.0185
 2267SOL    HW218438   2.201   1.397   6.692  0.6589  0.9076  0.0563
 2268SOL     OW18439   3.908   2.996   3.117  0.1825 -0.1480  0.3022
 2268SOL    HW118440   3.839   3.062   3.122  1.3010  0.9821  1.0213
 2268SOL    HW218441   3.843   2.927   3.108 -0.2898  0.5121 -1.4266
 2269SOL     OW18442   3.594   2.730   6.365  0.0805  0.0415  0.0192
 2269SOL    HW118443   3.515   2.677   6.378 -0.4250  0.9493  0.6611
 2269SOL    HW218444   3.653   2.677   6.418  1.6476  0.0149 -1.7322
 2270SOL     OW18445   3.912   0.338  17.660  0.4747 -0.2941  0.4464
 2270SOL    HW118446   3.922   0.432  17.669  1.0421 -0.2147 -1.0180
 2270SOL    HW218447   4.002   0.308  17.666  0.3256 -0.9511 -0.4927
 2271SOL     OW18448   0.632   0.996   6.394 -0.0761 -0.8750  0.0294
 2271SOL    HW118449   0.598   0.911   6.367 -2.0332  0.2375 -0.9452
 2271SOL    HW218450   0.598   1.060   6.332 -2.9703 -1.0989  1.4121
 2272SOL     OW18451   4.442   1.888   9.354 -0.5164 -0.4476  0.4308
 2272SOL    HW118452   4.497   1.841   9.417 -0.1310  0.8370  1.0435
 2272SOL    HW218453   4.465   1.847   9.271 -0.6989 -1.8615  1.0820
 2273SOL     OW18454   3.469   2.909   3.762  0.0711 -0.0216  0.0519
 2273SOL    HW118455   3.419   2.844   3.712  2.1306 -0.2393 -1.7347
 2273SOL    HW218456   3.560   2.889   3.741  0.5859  1.0790  1.1947
 2274SOL     OW18457   0.742   2.817   8.164  0.6218 -0.4480 -0.0477
 2274SOL    HW118458   0.775   2.830   8.075 -0.0559 -1.2941 -0.4161
 2274SOL    HW218459   0.822   2.779   8.200  0.4939 -0.4090  0.2814
 2275SOL     OW18460   0.492   4.649  16.807  0.3335  0.3148 -0.2133
 2275SOL    HW118461   0.519   4.562  16.779  2.2829  0.9735 -0.4010
 2275SOL    HW218462   0.487   4.641  16.902  1.0924  1.2688 -0.0911
 2276SOL     OW18463   2.213   3.643   5.147 -0.0823  0.4749 -0.1134
 2276SOL    HW118464   2.263   3.718   5.180  0.1134  0.4243 -0.2945
 2276SOL    HW218465   2.133   3.646   5.200  0.2243 -1.2181  0.4357
 2277SOL     OW18466   3.467   0.672   9.096 -0.1672 -0.2909 -0.1232
 2277SOL    HW118467   3.515   0.597   9.132 -0.0391 -0.9061 -1.5475
 2277SOL    HW218468   3.522   0.750   9.104 -0.9376  0.2951 -0.6156
 2278SOL     OW18469   3.784   2.570   1.760 -0.1700 -0.2378 -0.6977
 2278SOL    HW118470   3.784   2.518   1.679 -2.6980 -0.9406 -0.2593
 2278SOL    HW218471   3.741   2.650   1.731 -1.1827 -0.9308 -1.1539
 2279SOL     OW18472   1.412   1.847   3.347  0.1135 -0.8689  0.6961
 2279SOL    HW118473   1.327   1.841   3.392  0.3025 -0.4029  1.1108
 2279SOL    HW218474   1.380   1.823   3.260 -1.0151 -1.1308  1.1839
 2280SOL     OW18475   1.804   0.194   3.525  0.0618 -0.2189 -0.1562
 2280SOL    HW118476   1.843   0.135   3.589 -0.3596 -2.4228 -1.9276
 2280SOL    HW218477   1.758   0.255   3.583  1.2529 -0.8022  1.3707
 2281SOL     OW18478   4.600   0.507  11.238  0.0654  0.3850  0.1144
 2281SOL    HW118479   4.591   0.537  11.329 -1.0651 -0.7052  0.3616
 2281SOL    HW218480   4.511   0.474  11.224  0.4359 -1.0012  1.0209
 2282SOL     OW18481   4.304   1.416  16.731  0.7511 -0.1796 -0.8842
 2282SOL    HW118482   4.334   1.385  16.816  2.1934 -0.1419 -1.3799
 2282SOL    HW218483   4.231   1.361  16.703 -1.7381  2.7315 -0.1800
 2283SOL     OW18484   1.206   3.794  17.615  0.0723  0.6025  0.6283
 2283SOL    HW118485   1.233   3.885  17.600  2.3180 -0.4008 -1.3273
 2283SOL    HW218486   1.163   3.774  17.532  1.4012  0.2220  0.0461
 2284SOL     OW18487   0.732   4.696   3.917  0.0604 -0.2441  0.5960
 2284SOL    HW118488   0.652   4.644   3.918 -0.4386  0.5085 -0.2606
 2284SOL    HW218489   0.702   0.050   3.928 -1.2703 -0.9464  2.8138
 2285SOL     OW18490   1.567   3.648   3.633  0.2270  0.1341  0.7317
 2285SOL    HW118491   1.589   3.671   3.723 -1.1459  1.7081  0.6626
 2285SOL    HW218492   1.630   3.707   3.592  1.3772 -0.7792  1.1649
 2286SOL     OW18493   0.679   3.849   9.825  0.0506 -0.1490 -0.3636
 2286SOL    HW118494   0.731   3.769   9.820  0.4897  0.0539  0.9817
 2286SOL    HW218495   0.621   3.818   9.894  1.1327 -1.2139  0.0548
 2287SOL     OW18496   2.678   0.873  12.544 -0.0781  0.0482  0.1571
 2287SOL    HW118497   2.611   0.819  12.502  2.1401 -3.3305  0.9324
 2287SOL    HW218498   2.759   0.831  12.516 -0.8784 -0.9235 -0.7207
 2288SOL     OW18499   1.562   0.161   4.243 -0.3297 -0.5042  0.0177
 2288SOL    HW118500   1.517   0.224   4.186  2.1831 -0.8567 -2.3771
 2288SOL    HW218501   1.493   0.118   4.293 -1.8351  3.2209  1.1437
 2289SOL     OW18502   1.473   3.310   6.927  0.5495  0.0411  0.1315
 2289SOL    HW118503   1.563   3.341   6.932  0.6591 -0.2656  0.0854
 2289SOL    HW218504   1.472   3.255   7.005  0.1944 -2.0572 -1.3352
 2290SOL     OW18505   3.727   1.201   7.079  0.0102  0.0237 -0.0237
 2290SOL    HW118506   3.669   1.128   7.057 -0.5204 -0.4960  2.9974
 2290SOL    HW218507   3.721   1.250   6.998  0.4037  1.8032  1.0328
 2291SOL     OW18508   2.698   3.627   4.492  0.2772 -0.0550 -0.0918
 2291SOL    HW118509   2.728   3.658   4.407 -0.7853 -3.2494 -1.6481
 2291SOL    HW218510   2.639   3.556   4.466  2.3088 -2.3033  1.3823
 2292SOL     OW18511   4.356   3.891   3.350 -0.2538 -0.0379 -0.3521
 2292SOL    HW118512   4.385   3.800   3.351 -2.3548 -0.7248 -1.2105
 2292SOL    HW218513   4.421   3.935   3.405 -0.7057 -1.1214  1.0586
 2293SOL     OW18514   2.011   3.170   7.953 -0.1942 -0.0426  0.1930
 2293SOL    HW118515   2.102   3.146   7.968  0.3187  3.1202  2.0899
 2293SOL    HW218516   1.959   3.098   7.989  1.5225 -1.6148 -0.4882
 2294SOL     OW18517   0.145   3.438  15.687 -0.2862 -0.1896 -0.3239
 2294SOL    HW118518   0.231   3.399  15.669 -0.1491 -0.0600  0.0501
 2294SOL    HW218519   0.110   3.350  15.699 -1.4754  0.2100 -0.8667
 2295SOL     OW18520   4.595   3.764  11.081  0.2384 -0.8270 -0.0042
 2295SOL    HW118521   4.656   3.709  11.129  1.7637  1.9265  1.2040
 2295SOL    HW218522   4.660   3.828  11.053 -1.0170  0.7516  0.6715
 2296SOL     OW18523   1.787   2.602  16.485 -0.4419  0.2012 -0.0072
 2296SOL    HW118524   1.708   2.651  16.463 -0.2388  1.2339  1.5607
 2296SOL    HW218525   1.843   2.629  16.412 -0.3424  1.6768  0.6311
 2297SOL     OW18526   1.648   1.182   3.096  0.5099  0.6184 -0.6900
 2297SOL    HW118527   1.725   1.159   3.149 -0.1672 -0.9277 -0.3943
 2297SOL    HW218528   1.579   1.127   3.131  0.3040 -0.2101 -2.3947
 2298SOL     OW18529   3.271   1.394   9.108 -0.2576 -0.6626 -0.0584
 2298SOL    HW118530   3.315   1.475   9.135 -2.2729  0.2250  0.5869
 2298SOL    HW218531   3.239   1.417   9.021 -0.9817  1.8020  0.8492
 2299SOL     OW18532   2.401   2.944  13.359 -0.3818  0.2711 -0.3305
 2299SOL    HW118533   2.421   2.873  13.420 -0.9734 -0.2432 -0.7292
 2299SOL    HW218534   2.482   2.993  13.354 -1.6023  2.2463 -0.6183
 2300SOL     OW18535   0.438   3.084  12.023 -0.6991 -0.0670 -0.8143
 2300SOL    HW118536   0.507   3.101  11.960 -1.7040  1.3147 -1.5494
 2300SOL    HW218537   0.394   3.170  12.022  1.1110  0.8678  0.4237
 2301SOL     OW18538   1.854   1.772  15.711  0.0122 -0.4813 -0.0657
 2301SOL    HW118539   1.815   1.811  15.788 -1.5468 -0.5213 -0.8391
 2301SOL    HW218540   1.903   1.849  15.680  0.4694 -0.5434  0.5058
 2302SOL     OW18541   3.617   4.074   5.250  0.4935  0.1643 -0.5063
 2302SOL    HW118542   3.661   4.097   5.169  2.1109 -1.3879 -0.0622
 2302SOL    HW218543   3.650   4.142   5.308 -0.3114 -0.4287  0.6521
 2303SOL     OW18544   2.716   3.237   7.236  0.1842  0.0455 -0.3462
 2303SOL    HW118545   2.703   3.188   7.317 -0.8548  0.7805 -0.0722
 2303SOL    HW218546   2.682   3.172   7.174 -0.7207 -0.0068  0.2142
 2304SOL     OW18547   3.253   3.754   8.837  0.3605 -0.0014 -0.4065
 2304SOL    HW118548   3.313   3.794   8.900  0.5059 -2.4719  1.0194
 2304SOL    HW218549   3.181   3.726   8.892  0.7977 -0.5339 -0.1042
 2305SOL     OW18550   3.760   0.845   2.323 -0.2041  0.2198  0.1038
 2305SOL    HW118551   3.667   0.855   2.343 -0.0949 -1.8099  1.7019
 2305SOL    HW218552   3.751   0.838   2.228  2.0059 -1.2915 -0.0206
 2306SOL     OW18553   2.666   2.769   3.566  0.6018 -0.1600 -0.2790
 2306SOL    HW118554   2.740   2.745   3.509  0.3316 -0.1629 -0.6306
 2306SOL    HW218555   2.611   2.800   3.494  1.3765  1.7943 -0.0371
 2307SOL     OW18556   0.699   2.959   5.282  0.2121  0.0411  0.2819
 2307SOL    HW118557   0.610   2.927   5.263  0.2472  0.1842 -0.1197
 2307SOL    HW218558   0.725   2.988   5.195 -1.3143 -0.7831 -0.4460
 2308SOL     OW18559   3.258   1.867   4.127  0.2714  0.5260 -0.3337
 2308SOL    HW118560   3.222   1.908   4.048 -1.6504  0.2497  0.4098
 2308SOL    HW218561   3.226   1.924   4.197  1.3538 -0.9287  1.3157
 2309SOL     OW18562   1.250   1.012   2.745 -0.4189 -0.1199  0.0430
 2309SOL    HW118563   1.290   0.925   2.744 -1.7844 -0.7680  1.1295
 2309SOL    HW218564   1.331   1.057   2.723 -0.4614 -0.8563 -1.6232
 2310SOL     OW18565   4.159   1.556   8.921 -0.1059  0.1607  0.2252
 2310SOL    HW118566   4.144   1.504   8.842  1.1565  0.6250 -0.3307
 2310SOL    HW218567   4.210   1.627   8.882  1.6200 -0.5531  1.1419
 2311SOL     OW18568   2.952   1.626   4.771  0.2228 -0.2773 -0.3779
 2311SOL    HW118569   2.908   1.547   4.741 -0.0368 -0.5299  0.6761
 2311SOL    HW218570   3.042   1.614   4.742  0.4619  0.4107  0.0640
 2312SOL     OW18571   4.535   3.894   3.709 -0.1429  0.1642  0.1166
 2312SOL    HW118572   4.560   3.903   3.617 -0.4990 -3.0034 -0.2861
 2312SOL    HW218573   4.562   3.979   3.746  0.2482  0.0520  0.0864
 2313SOL     OW18574   1.961   3.971  16.036  0.2651  0.3360 -0.6144
 2313SOL    HW118575   1.903   3.948  15.963  0.2280 -0.2170 -0.4088
 2313SOL    HW218576   2.000   4.052  16.003  0.8969 -0.4273 -1.7272
 2314SOL     OW18577   3.156   2.786   9.827 -0.1387 -0.1906 -0.5170
 2314SOL    HW118578   3.069   2.778   9.786 -0.3356  1.6415 -0.4748
 2314SOL    HW218579   3.181   2.874   9.798 -1.5421 -0.0568 -1.3349
 2315SOL     OW18580   2.306   4.583   3.838 -0.1994 -0.2655 -0.5068
 2315SOL    HW118581   2.230   4.623   3.797  1.0076  1.7355 -0.7665
 2315SOL    HW218582   2.263   4.497   3.843 -0.6312  0.2001  3.7124
 2316SOL     OW18583   2.871   0.485   8.255  0.4418 -0.1193  0.0331
 2316SOL    HW118584   2.918   0.415   8.300 -1.6508 -0.6244  1.4504
 2316SOL    HW218585   2.815   0.433   8.198 -1.0409  0.7160  0.7478
 2317SOL     OW18586   4.191   1.251   1.776 -0.4937 -0.1462 -0.0480
 2317SOL    HW118587   4.187   1.156   1.776 -0.0949 -0.1595 -0.3552
 2317SOL    HW218588   4.247   1.273   1.702  0.0490  0.7942  0.6336
 2318SOL     OW18589   0.879   4.432  15.397  0.0884  0.0195 -0.3971
 2318SOL    HW118590   0.952   4.376  15.369 -0.2371 -0.5725 -0.0489
 2318SOL    HW218591   0.867   4.395  15.485  1.1136 -3.0696 -1.5416
 2319SOL     OW18592   1.105   4.493   7.092 -0.4639  0.3151  0.3132
 2319SOL    HW118593   1.143   4.580   7.102 -0.0533  0.0583  0.9958
 2319SOL    HW218594   1.026   4.511   7.042 -0.0170 -1.6075 -1.1187
 2320SOL     OW18595   4.109   0.474   5.931  0.3874  0.1718 -0.2316
 2320SOL    HW118596   4.071   0.523   6.004 -0.1997 -0.3348 -0.1914
 2320SOL    HW218597   4.053   0.398   5.945 -0.3446  0.7754  0.1351
 2321SOL     OW18598   0.964   1.025   3.044 -0.4401  0.0968 -0.3514
 2321SOL    HW118599   0.935   1.057   3.130  0.6741 -1.0615  0.4525
 2321SOL    HW218600   0.886   0.976   3.019  0.5413 -1.3448 -0.5750
 2322SOL     OW18601   0.499   3.881   0.105 -0.3407 -0.2642 -0.0980
 2322SOL    HW118602   0.559   3.810   0.127 -0.6426 -0.4166  0.2266
 2322SOL    HW218603   0.444   3.844   0.036  0.9646  1.7950 -2.2893
 2323SOL     OW18604   0.144   1.460   2.538  0.2113  0.1138 -0.1568
 2323SOL    HW118605   0.151   1.554   2.520 -0.4255  0.3376  0.7658
 2323SOL    HW218606   0.109   1.435   2.452 -0.5467 -1.5226  0.6331
 2324SOL     OW18607   0.282   0.029   8.829  0.0582  0.4173 -0.5116
 2324SOL    HW118608   0.204   0.012   8.778  1.6985 -0.3129 -2.7599
 2324SOL    HW218609   0.328   4.683   8.811 -2.2161 -1.2444  1.2218
 2325SOL     OW18610   1.296   1.966   6.275  0.7643 -0.1933 -0.0210
 2325SOL    HW118611   1.336   2.009   6.350 -0.4541  0.5084  0.2247
 2325SOL    HW218612   1.301   2.031   6.205  2.6168 -1.6938 -1.2870
 2326SOL     OW18613   1.412   3.858  15.029  0.2250 -0.2803  0.0858
 2326SOL    HW118614   1.324   3.896  15.028 -0.2337 -1.3573 -0.2716
 2326SOL    HW218615   1.430   3.829  15.118  0.6541 -0.7058 -0.1413
 2327SOL     OW18616   3.444   2.476   5.881  0.2337 -0.0097  0.2330
 2327SOL    HW118617   3.491   2.393   5.877  1.0751  0.3592  2.5600
 2327SOL    HW218618   3.519   2.534   5.895  0.8856 -0.2265 -2.2470
 2328SOL     OW18619   1.306   4.722  10.091  0.8352 -0.1793 -0.5626
 2328SOL    HW118620   1.271   0.007  10.005  0.2456 -0.4156 -0.3821
 2328SOL    HW218621   1.270   4.633  10.099  4.0272 -1.4459 -0.2212
 2329SOL     OW18622   0.456   2.285  12.466  0.0921 -0.0509 -0.4535
 2329SOL    HW118623   0.404   2.328  12.398  1.2197  0.4924 -0.9714
 2329SOL    HW218624   0.393   2.215  12.482  1.2963 -1.0010  0.1583
 2330SOL     OW18625   4.280   1.603   2.892  0.2066 -0.3298  0.2988
 2330SOL    HW118626   4.368   1.636   2.875  0.1954 -0.7788 -0.6245
 2330SOL    HW218627   4.233   1.679   2.926  2.7702  0.2802  2.5360
 2331SOL     OW18628   4.658   2.681   5.399  0.0985  0.3460 -0.0363
 2331SOL    HW118629   4.587   2.616   5.399  0.2136  0.2091 -2.9594
 2331SOL    HW218630   4.663   2.708   5.491 -0.9088  0.0165  0.1232
 2332SOL     OW18631   3.391   0.823   5.548  0.4758  0.1593  0.1300
 2332SOL    HW118632   3.442   0.890   5.501  1.1500  0.2010  0.9127
 2332SOL    HW218633   3.425   0.739   5.518  0.7400  0.0991  0.5833
 2333SOL     OW18634   1.204   1.481   2.749 -0.7840 -0.9844 -0.5367
 2333SOL    HW118635   1.153   1.555   2.781 -2.1021 -2.2879  0.3718
 2333SOL    HW218636   1.128   1.438   2.710  0.0190 -1.2086 -1.8474
 2334SOL     OW18637   1.046   0.094   9.531 -0.0408 -0.0911 -0.3029
 2334SOL    HW118638   0.964   0.086   9.482  0.6610 -0.1091 -1.4773
 2334SOL    HW218639   1.099   0.027   9.488 -0.5376 -1.1210  0.7076
 2335SOL     OW18640   4.681   0.669   7.083  0.5905  0.2257 -0.4592
 2335SOL    HW118641   4.664   0.740   7.145  0.5356  1.0742 -1.4511
 2335SOL    HW218642   4.612   0.608   7.112  0.6582  0.6333  0.5577
 2336SOL     OW18643   1.751   1.337   3.830  0.1458 -0.6084 -0.2526
 2336SOL    HW118644   1.707   1.421   3.846  3.2242  0.9150  0.4025
 2336SOL    HW218645   1.690   1.305   3.764 -0.4641  1.5978 -0.7621
 2337SOL     OW18646   4.175   4.197   2.158  0.1660  0.1387  0.0887
 2337SOL    HW118647   4.080   4.197   2.161  0.1681 -0.7769  0.1437
 2337SOL    HW218648   4.199   4.290   2.165  0.3435  0.1505 -0.7319
 2338SOL     OW18649   0.885   2.509   4.436 -0.6910 -0.2794 -0.1470
 2338SOL    HW118650   0.948   2.526   4.507 -1.8171  2.3828  0.2080
 2338SOL    HW218651   0.800   2.533   4.473  0.4002  0.5044  1.8332
 2339SOL     OW18652   4.641   3.981   7.696 -0.2961 -0.1792 -0.4096
 2339SOL    HW118653   4.641   3.960   7.602  0.5194  0.0728 -0.4618
 2339SOL    HW218654   4.550   4.011   7.705 -0.3227 -0.5885  0.6330
 2340SOL     OW18655   3.934   2.673   6.918  0.1400 -0.1322  0.5459
 2340SOL    HW118656   3.971   2.714   6.840  0.4130  0.3148  0.9110
 2340SOL    HW218657   3.888   2.597   6.882 -0.2831  0.5573 -0.3575
 2341SOL     OW18658   0.933   0.646   5.651  0.6810 -0.2700 -0.6154
 2341SOL    HW118659   0.990   0.645   5.728  0.9811 -2.0590 -0.8684
 2341SOL    HW218660   0.918   0.741   5.653  0.7962 -0.2859  1.4313
 2342SOL     OW18661   2.910   2.383   9.580  0.3777 -0.4440 -0.2586
 2342SOL    HW118662   2.985   2.352   9.631 -0.3195  0.2040  1.1687
 2342SOL    HW218663   2.867   2.435   9.648  3.4032  2.2514 -0.3845
 2343SOL     OW18664   2.347   0.638  13.449 -0.0737  0.1234  0.2851
 2343SOL    HW118665   2.326   0.586  13.527 -0.4575 -0.3219 -0.1166
 2343SOL    HW218666   2.304   0.579  13.387  2.2394 -1.5832  0.3083
 2344SOL     OW18667   0.855   2.262  10.491  0.3283 -0.0282 -0.3981
 2344SOL    HW118668   0.819   2.326  10.430  0.9927  0.2193 -0.5333
 2344SOL    HW218669   0.903   2.316  10.554  0.6667  0.4307 -1.0498
 2345SOL     OW18670   0.654   2.381   2.862 -0.3429  0.1619 -0.5792
 2345SOL    HW118671   0.655   2.286   2.857 -2.1342  0.1408 -0.3858
 2345SOL    HW218672   0.623   2.398   2.773  0.6757 -2.0661 -1.3551
 2346SOL     OW18673   4.473   2.203   6.718 -0.1482  0.4359 -0.3975
 2346SOL    HW118674   4.562   2.189   6.683  0.2610  2.2257 -0.0434
 2346SOL    HW218675   4.467   2.297   6.702  0.0211  0.2857 -1.3631
 2347SOL     OW18676   4.039   0.185   5.607  0.1265 -0.4098  0.1426
 2347SOL    HW118677   3.948   0.212   5.591 -0.2258 -2.3778 -1.2968
 2347SOL    HW218678   4.028   0.090   5.615 -0.7723 -0.4866 -1.9494
 2348SOL     OW18679   3.391   2.764   4.050 -1.0789 -0.5112  0.2163
 2348SOL    HW118680   3.428   2.721   4.127  0.8070 -0.9268 -0.9398
 2348SOL    HW218681   3.455   2.738   3.984 -0.8311  3.1888 -0.9890
 2349SOL     OW18682   1.150   1.322   2.059 -0.0578 -0.1501 -0.0547
 2349SOL    HW118683   1.153   1.396   1.998  1.1940 -0.3553 -0.2541
 2349SOL    HW218684   1.067   1.277   2.042  0.7242 -2.4168  2.0488
 2350SOL     OW18685   4.470   3.161   6.810 -0.6695  0.1713  0.8444
 2350SOL    HW118686   4.388   3.124   6.779  0.0649 -0.9783  0.2924
 2350SOL    HW218687   4.453   3.255   6.811  3.0108  0.8503  3.1128
 2351SOL     OW18688   2.320   1.758   7.975  0.1115  0.1627 -0.5273
 2351SOL    HW118689   2.340   1.683   7.920 -2.1838 -0.3876 -0.6261
 2351SOL    HW218690   2.409   1.793   7.984  0.0503 -0.1036  1.1979
 2352SOL     OW18691   2.846   1.266   7.853  0.5742 -0.2057  0.3844
 2352SOL    HW118692   2.770   1.270   7.795  1.1294  1.5164 -0.2032
 2352SOL    HW218693   2.903   1.309   7.790 -1.1798  0.1406 -0.9498
 2353SOL     OW18694   2.232   1.431   8.527  0.1259 -0.7085  0.0267
 2353SOL    HW118695   2.301   1.493   8.552  0.1324 -0.1925 -1.2323
 2353SOL    HW218696   2.173   1.439   8.602  1.6117 -0.9275  1.2224
 2354SOL     OW18697   0.016   3.006   5.287 -0.3639  0.0402  0.0661
 2354SOL    HW118698   4.682   2.953   5.325 -1.1816  0.2309 -1.1593
 2354SOL    HW218699   4.696   3.064   5.236 -1.9659 -2.4344 -0.9738
 2355SOL     OW18700   1.947   0.453   8.659 -0.3039  0.0981 -0.1752
 2355SOL    HW118701   1.882   0.521   8.642 -2.6931 -2.1586 -0.1651
 2355SOL    HW218702   1.888   0.384   8.690 -0.6640  0.1920 -0.6509
 2356SOL     OW18703   0.317   2.485   7.473  0.2384 -0.7384 -0.5775
 2356SOL    HW118704   0.316   2.539   7.394  0.3601  0.4024  0.2017
 2356SOL    HW218705   0.251   2.418   7.452 -1.4779  0.2251  1.7459
 2357SOL     OW18706   1.256   0.384  10.528  0.2885 -0.4694  0.1775
 2357SOL    HW118707   1.291   0.467  10.495 -0.2150 -0.7828 -1.1436
 2357SOL    HW218708   1.186   0.364  10.466 -0.8461  0.9532  0.9878
 2358SOL     OW18709   2.977   1.636   8.507 -1.1325  0.4826  0.7060
 2358SOL    HW118710   2.907   1.695   8.480 -1.5811  1.7682  4.7195
 2358SOL    HW218711   2.983   1.579   8.430 -1.1214  0.6936  0.5494
 2359SOL     OW18712   2.672   1.312  15.732 -0.0975  0.2189  0.0198
 2359SOL    HW118713   2.745   1.323  15.793 -0.2897  0.7899  0.1464
 2359SOL    HW218714   2.606   1.377  15.756 -1.0906 -0.6974 -0.2236
 2360SOL     OW18715   3.333   3.394   5.247 -0.4453 -0.2559  0.2508
 2360SOL    HW118716   3.346   3.344   5.328  1.1235 -1.2030 -0.5870
 2360SOL    HW218717   3.418   3.383   5.205 -1.1126 -2.8640 -0.4315
 2361SOL     OW18718   3.261   3.678   8.008  0.4361 -0.2767  0.2491
 2361SOL    HW118719   3.330   3.739   7.982 -0.7811  1.0028  0.0191
 2361SOL    HW218720   3.257   3.670   8.103 -1.0293  1.6106  0.3518
 2362SOL     OW18721   1.168   0.690   2.388  0.0572 -0.8767 -0.0616
 2362SOL    HW118722   1.097   0.739   2.345  1.0677  1.3017  0.7381
 2362SOL    HW218723   1.216   0.753   2.441 -0.3131 -0.9762  0.3955
 2363SOL     OW18724   1.331   2.288   8.907  0.1421  0.0175  0.8691
 2363SOL    HW118725   1.361   2.376   8.933  0.5461 -0.3362  1.6057
 2363SOL    HW218726   1.414   2.243   8.919  0.6952  1.0534  0.9726
 2364SOL     OW18727   1.717   1.559   5.996  0.5274 -0.1457 -0.1891
 2364SOL    HW118728   1.668   1.626   5.948  0.6073  1.4018  1.8805
 2364SOL    HW218729   1.648   1.494   6.002  0.0319  0.3155 -0.9262
 2365SOL     OW18730   2.920   4.602   4.046  0.1429  0.3277 -0.0990
 2365SOL    HW118731   2.940   4.628   3.956 -2.3015  0.8734 -0.5027
 2365SOL    HW218732   2.930   4.680   4.101  0.4739  0.8139 -0.8443
 2366SOL     OW18733   4.636   2.643   7.761  0.2058 -0.0498 -0.6606
 2366SOL    HW118734   4.670   2.678   7.678  2.7535 -2.3725 -0.5899
 2366SOL    HW218735   4.700   2.665   7.828  0.6626 -2.5022 -0.2903
 2367SOL     OW18736   3.310   0.601   4.723 -0.5244  0.0312 -0.4930
 2367SOL    HW118737   3.313   0.609   4.818 -2.7013  0.2722 -0.4341
 2367SOL    HW218738   3.251   0.525   4.724 -0.2596 -0.1652  0.0326
 2368SOL     OW18739   3.012   4.241   2.483  0.3727  0.0344 -0.1868
 2368SOL    HW118740   2.976   4.256   2.571  0.3640 -0.5905 -0.0818
 2368SOL    HW218741   3.083   4.179   2.500 -0.5022 -0.7134  0.7516
 2369SOL     OW18742   2.969   3.005   6.279  0.0220 -0.4495  0.2338
 2369SOL    HW118743   2.899   3.027   6.217 -0.6941 -0.3351  1.0837
 2369SOL    HW218744   2.991   2.916   6.254  0.9405 -0.3557  0.7262
 2370SOL     OW18745   1.048   2.032   7.920 -0.1290 -0.6003 -0.1667
 2370SOL    HW118746   0.999   2.033   8.002  0.7906 -1.8086  0.4034
 2370SOL    HW218747   0.995   2.089   7.864  0.7968 -0.1729 -0.6173
 2371SOL     OW18748   4.134   2.546   3.150  0.1538 -0.1301  0.1231
 2371SOL    HW118749   4.086   2.606   3.093  2.3167  2.0078  0.5357
 2371SOL    HW218750   4.062   2.523   3.208 -1.9820 -0.1427 -2.5159
 2372SOL     OW18751   4.464   1.629   6.291  0.0678 -0.8941 -0.5508
 2372SOL    HW118752   4.416   1.697   6.338 -0.2786 -0.2729 -1.8027
 2372SOL    HW218753   4.555   1.656   6.303 -0.5361  0.3653  1.0788
 2373SOL     OW18754   1.079   1.762  10.574 -0.2796 -0.0708  0.0255
 2373SOL    HW118755   0.990   1.781  10.544 -0.3773 -1.3093 -0.4369
 2373SOL    HW218756   1.124   1.828  10.520  1.1305 -0.8346  0.2809
 2374SOL     OW18757   3.086   4.095   5.523 -0.1778  0.7291 -0.5180
 2374SOL    HW118758   3.125   4.022   5.572  1.2238  0.6641 -1.7645
 2374SOL    HW218759   3.023   4.043   5.472  0.6200 -0.5623 -0.2010
 2375SOL     OW18760   2.722   0.051   4.858  0.0226  0.0389 -0.1264
 2375SOL    HW118761   2.705   4.724   4.788 -0.8081  1.0083 -0.7875
 2375SOL    HW218762   2.726   0.130   4.804  2.0794  0.9359  1.3433
 2376SOL     OW18763   2.494   0.970   2.472  0.3054  0.4510  0.2321
 2376SOL    HW118764   2.487   1.058   2.435 -1.4286  0.4480  0.5064
 2376SOL    HW218765   2.556   0.974   2.544  0.0504  2.6737  0.3118
 2377SOL     OW18766   0.066   0.560  10.675  0.2216  0.3688 -0.1319
 2377SOL    HW118767   0.006   0.544  10.748  1.4644 -0.1993  0.7637
 2377SOL    HW218768   0.097   0.643  10.711 -1.3930  0.6034  0.6929
 2378SOL     OW18769   1.188   1.013  11.097 -0.3810  0.3075 -0.4888
 2378SOL    HW118770   1.258   0.949  11.092 -1.5150 -0.9815  0.2633
 2378SOL    HW218771   1.233   1.097  11.108  1.4432 -0.5465 -1.4155
 2379SOL     OW18772   3.961   1.490   6.794  0.0931 -0.5667 -0.4271
 2379SOL    HW118773   4.012   1.410   6.807  0.3649 -0.3873 -0.3875
 2379SOL    HW218774   4.003   1.548   6.857 -1.7338 -1.0929  1.3011
 2380SOL     OW18775   3.519   2.608   3.871  0.1913  0.4300  0.0133
 2380SOL    HW118776   3.542   2.592   3.779 -0.6756 -0.6431 -0.0315
 2380SOL    HW218777   3.518   2.520   3.909  1.4444 -0.2981 -1.6280
 2381SOL     OW18778   1.924   3.972  11.481 -0.5751 -0.0092  0.1778
 2381SOL    HW118779   2.014   3.949  11.458 -1.3707 -1.4527 -1.5381
 2381SOL    HW218780   1.905   4.060  11.447 -1.5030 -0.9334 -1.7279
 2382SOL     OW18781   4.429   4.471   9.045 -0.0879 -0.2136  0.2225
 2382SOL    HW118782   4.424   4.480   9.141  1.3496  3.1435 -0.0019
 2382SOL    HW218783   4.440   4.377   9.030 -3.3257  0.2860 -5.2552
 2383SOL     OW18784   2.220   0.383   7.982 -0.4136 -0.0745 -0.0738
 2383SOL    HW118785   2.188   0.361   7.895 -2.1935 -2.5672  1.1803
 2383SOL    HW218786   2.302   0.427   7.962 -0.4353 -0.0198 -0.0412
 2384SOL     OW18787   2.696   1.676   8.728  0.4148 -0.0300  0.4352
 2384SOL    HW118788   2.770   1.656   8.786 -0.0503  0.0441  1.0603
 2384SOL    HW218789   2.660   1.759   8.759  0.6803  0.0487  0.5359
 2385SOL     OW18790   3.816   1.728   1.668 -0.0129  0.6388  0.3742
 2385SOL    HW118791   3.792   1.701   1.756 -2.5506  0.5325 -0.3304
 2385SOL    HW218792   3.896   1.678   1.653  0.5588  0.7514  3.1574
 2386SOL     OW18793   1.429   4.402   4.802 -0.2123  0.6394  0.5190
 2386SOL    HW118794   1.385   4.395   4.717 -0.7216  0.6395  0.7815
 2386SOL    HW218795   1.349   4.402   4.855  0.1085 -0.2426  0.9999
 2387SOL     OW18796   2.605   0.750   5.930 -0.1781  0.7065 -0.3535
 2387SOL    HW118797   2.552   0.744   6.010 -0.0217 -0.3500 -0.3312
 2387SOL    HW218798   2.606   0.845   5.926 -2.1813  0.6691 -1.6427
 2388SOL     OW18799   0.160   4.628   4.822  0.3237 -0.5667 -0.1017
 2388SOL    HW118800   0.255   4.619   4.814  0.1539 -1.3675 -1.2501
 2388SOL    HW218801   0.136   4.536   4.832 -1.7851  0.1519  1.3217
 2389SOL     OW18802   2.281   4.235   6.438  0.4381  0.2738  0.1480
 2389SOL    HW118803   2.307   4.183   6.362 -0.2764  1.1668 -0.7137
 2389SOL    HW218804   2.309   4.183   6.514 -1.6018 -1.4174 -0.2880
 2390SOL     OW18805   2.403   2.373   7.337  0.1709  0.0656  0.2673
 2390SOL    HW118806   2.414   2.297   7.279 -0.4819 -1.1793  1.7793
 2390SOL    HW218807   2.313   2.391   7.310  0.3431 -1.2187 -1.1910
 2391SOL     OW18808   1.471   3.755   4.665 -0.1669 -0.2195 -0.2875
 2391SOL    HW118809   1.555   3.753   4.710 -0.9946  1.7642  1.3433
 2391SOL    HW218810   1.447   3.662   4.667  0.4676 -0.3816 -0.1811
 2392SOL     OW18811   2.526   4.242   1.324 -0.1240 -0.2892  0.2665
 2392SOL    HW118812   2.511   4.292   1.244 -2.2311  1.1272  1.5456
 2392SOL    HW218813   2.619   4.255   1.342  0.5558 -3.6452 -0.7986
 2393SOL     OW18814   0.122   2.704   1.645  0.4441 -0.1057  0.4811
 2393SOL    HW118815   0.216   2.703   1.624  0.4429 -2.4074  0.5577
 2393SOL    HW218816   0.132   2.660   1.730 -1.8653 -0.8813  0.3369
 2394SOL     OW18817   4.465   2.819   2.680  0.1587  0.6648 -0.0168
 2394SOL    HW118818   4.457   2.852   2.769  0.9766 -0.3861  0.4515
 2394SOL    HW218819   4.561   2.824   2.670  0.0672 -1.8992 -2.1726
 2395SOL     OW18820   0.265   1.619  13.426 -0.0870 -0.1336 -0.1473
 2395SOL    HW118821   0.322   1.557  13.380 -1.2265 -1.3553  0.0852
 2395SOL    HW218822   0.276   1.589  13.516 -0.4485  2.8964  0.9334
 2396SOL     OW18823   0.413   2.889   4.999 -0.0078  0.0109 -0.1952
 2396SOL    HW118824   0.403   2.873   4.905 -1.2041  1.7072 -0.3603
 2396SOL    HW218825   0.457   2.806   5.019  1.1531  0.4528 -0.8994
 2397SOL     OW18826   0.937   4.614  12.662 -0.3110 -0.0341 -0.0991
 2397SOL    HW118827   0.978   4.531  12.688 -1.1746 -0.5952 -0.5132
 2397SOL    HW218828   1.007   4.677  12.676 -1.3979  1.4217 -1.2304
 2398SOL     OW18829   2.507   0.438  10.076  0.5179  0.0578  0.8075
 2398SOL    HW118830   2.513   0.494  10.153 -0.8086 -1.0148  1.6827
 2398SOL    HW218831   2.600   0.422  10.058  0.3222 -0.6181  0.3658
 2399SOL     OW18832   2.115   3.113  11.558  0.2490 -0.2579 -0.2148
 2399SOL    HW118833   2.081   3.176  11.622 -0.2982 -2.1084  1.3046
 2399SOL    HW218834   2.117   3.173  11.484  2.3628  1.0256  0.8821
 2400SOL     OW18835   2.585   2.766  12.110  0.2089  0.2704 -0.3509
 2400SOL    HW118836   2.621   2.813  12.035 -0.3889 -1.5898 -1.7999
 2400SOL    HW218837   2.615   2.678  12.092 -0.1379  0.4298 -1.6833
 2401SOL     OW18838   3.076   0.489   8.555 -0.4525 -0.1442  0.8099
 2401SOL    HW118839   3.122   0.558   8.601 -0.5758 -0.4788  1.4324
 2401SOL    HW218840   3.000   0.492   8.612 -1.3389 -0.7580 -0.3365
 2402SOL     OW18841   1.078   2.867  14.507 -0.1575 -0.8267 -0.2775
 2402SOL    HW118842   1.164   2.875  14.549 -0.3164  0.2552 -0.1442
 2402SOL    HW218843   1.036   2.818  14.577 -2.7106 -0.8505 -1.8186
 2403SOL     OW18844   3.056   0.912   4.072  0.2568 -0.3155 -0.0746
 2403SOL    HW118845   3.133   0.961   4.102  1.4928 -2.7617  0.7474
 2403SOL    HW218846   3.019   0.874   4.151  1.3868  0.2802  0.7436
 2404SOL     OW18847   3.523   4.164   3.487  0.5023  0.3335  0.1335
 2404SOL    HW118848   3.522   4.206   3.401  0.8739  1.6851  0.7814
 2404SOL    HW218849   3.487   4.078   3.465  1.3012 -0.2913  1.3046
 2405SOL     OW18850   0.014   2.124   1.949 -0.2252  0.0714  0.9047
 2405SOL    HW118851   0.055   2.082   1.873  0.2456  0.3148  1.0268
 2405SOL    HW218852   4.690   2.178   1.898 -0.6678 -1.0940  0.1782
 2406SOL     OW18853   4.709   1.696   8.776  0.2226  0.1672 -0.3277
 2406SOL    HW118854   4.691   1.656   8.862  1.2342  1.8083  0.6355
 2406SOL    HW218855   4.689   1.629   8.711 -0.4345  1.2849 -1.2720
 2407SOL     OW18856   1.285   3.816  16.020 -0.3825  0.3361  0.2109
 2407SOL    HW118857   1.256   3.907  16.015  0.6674  0.5642 -1.5662
 2407SOL    HW218858   1.333   3.809  15.937  0.0360  1.5232  0.3569
 2408SOL     OW18859   1.913   4.685   6.479  0.2926  0.3644 -0.5839
 2408SOL    HW118860   1.852   4.666   6.407 -1.6998 -1.3084  1.5194
 2408SOL    HW218861   1.909   4.601   6.525 -0.1778  0.2678 -0.7991
 2409SOL     OW18862   2.513   2.877   3.395 -0.3897 -0.4020 -0.3107
 2409SOL    HW118863   2.455   2.838   3.329  1.5134 -2.0176 -1.0380
 2409SOL    HW218864   2.456   2.945   3.431 -1.1275 -0.5972 -1.1098
 2410SOL     OW18865   0.120   4.024   6.676 -0.1139  0.1821 -0.3662
 2410SOL    HW118866   0.118   3.958   6.606 -0.4064 -0.6682  0.4472
 2410SOL    HW218867   0.141   3.978   6.757 -0.1154  0.6499 -0.1016
 2411SOL     OW18868   1.860   1.510   8.545 -0.0452  0.2593 -0.3376
 2411SOL    HW118869   1.933   1.464   8.504  0.6754  3.0919 -2.1595
 2411SOL    HW218870   1.907   1.539   8.624 -0.4305  1.1846 -0.4530
 2412SOL     OW18871   1.049   2.301   4.360 -0.1694 -0.5209 -0.1265
 2412SOL    HW118872   0.973   2.351   4.390 -1.5871 -1.3139 -2.4461
 2412SOL    HW218873   1.118   2.327   4.421 -0.6575 -0.9478  0.6121
 2413SOL     OW18874   0.720   3.095   2.390 -0.6300  0.1324  0.2693
 2413SOL    HW118875   0.677   3.140   2.316  0.2307 -0.4623 -0.5926
 2413SOL    HW218876   0.748   3.172   2.438  1.4725 -0.3671 -0.1511
 2414SOL     OW18877   2.953   2.441   6.700 -0.1737  0.5670 -0.3445
 2414SOL    HW118878   2.924   2.510   6.641  0.3155  0.1882 -1.0186
 2414SOL    HW218879   2.968   2.362   6.649 -0.6275  0.0224  0.3602
 2415SOL     OW18880   4.686   1.314   3.992 -0.2464 -0.1702 -0.0837
 2415SOL    HW118881   4.729   1.323   4.077  0.8443  1.6366 -0.8304
 2415SOL    HW218882   4.643   1.229   4.006  0.6664 -0.5540  0.4153
 2416SOL     OW18883   0.563   3.597   3.151  0.1579  0.3426  0.0517
 2416SOL    HW118884   0.545   3.654   3.077 -0.0531 -0.4213 -0.4933
 2416SOL    HW218885   0.619   3.656   3.201 -0.3413  1.1084 -0.3101
 2417SOL     OW18886   3.982   4.367  10.035 -0.1624  0.1558  0.2869
 2417SOL    HW118887   4.064   4.333  10.000  0.6282  1.1173  1.1754
 2417SOL    HW218888   3.979   4.322  10.120 -2.7687 -1.9325 -0.9295
 2418SOL     OW18889   1.373   0.005  17.144 -0.1678  0.2591  0.0298
 2418SOL    HW118890   1.294   0.036  17.188 -0.9452  2.1267 -2.6531
 2418SOL    HW218891   1.404   4.694  17.221  0.4765  1.7178  0.6562
 2419SOL     OW18892   3.637   3.314   8.670  0.0896  0.3854  0.5554
 2419SOL    HW118893   3.588   3.395   8.682  0.6605  0.4275  2.6618
 2419SOL    HW218894   3.588   3.268   8.602  0.6902 -1.5168  1.4259
 2420SOL     OW18895   3.359   0.567   4.442 -0.3196  0.1410 -0.3504
 2420SOL    HW118896   3.272   0.570   4.403 -0.2321 -1.4925 -0.6649
 2420SOL    HW218897   3.341   0.597   4.531  1.8492 -0.7586  0.3849
 2421SOL     OW18898   3.744   0.653   5.404  0.0446 -0.1617  0.2441
 2421SOL    HW118899   3.825   0.646   5.454  1.5810  0.7812 -2.1585
 2421SOL    HW218900   3.682   0.659   5.477  0.8705  0.7108  0.8701
 2422SOL     OW18901   0.078   0.603  13.699 -0.0104 -0.0718  0.1538
 2422SOL    HW118902   0.042   0.689  13.722  2.6021  0.5579  1.8642
 2422SOL    HW218903   0.019   0.551  13.753 -0.3295 -1.0765 -1.1777
 2423SOL     OW18904   4.089   0.093   2.063  0.5663 -0.1344  0.1347
 2423SOL    HW118905   4.038   0.074   2.141  0.7156 -1.0263  0.0121
 2423SOL    HW218906   4.169   0.041   2.069  0.6966  0.2787  1.8381
 2424SOL     OW18907   0.607   1.936   1.275 -0.1101  0.6642 -0.7882
 2424SOL    HW118908   0.568   1.992   1.207  2.5545  2.2501 -1.0014
 2424SOL    HW218909   0.671   1.999   1.309 -0.6407  1.2040 -0.7814
 2425SOL     OW18910   4.111   2.555   9.058 -0.0300 -0.4591 -0.0070
 2425SOL    HW118911   4.080   2.557   9.148  1.9746 -2.0852  0.7241
 2425SOL    HW218912   4.038   2.506   9.020  0.0533 -1.1455  0.7325
 2426SOL     OW18913   2.637   2.044  13.683 -0.3119  0.0036  0.4258
 2426SOL    HW118914   2.678   1.964  13.650 -0.8324  0.7672 -2.1260
 2426SOL    HW218915   2.638   2.096  13.603  1.6589  1.2188  1.2574
 2427SOL     OW18916   1.549   0.062   8.511  0.0879  0.0328 -0.1518
 2427SOL    HW118917   1.489   0.059   8.437  0.5751 -0.0560 -0.5471
 2427SOL    HW218918   1.603   4.729   8.474  0.8885 -0.1763  1.4141
 2428SOL     OW18919   3.167   4.110   3.318  0.1924 -0.3143 -0.3689
 2428SOL    HW118920   3.081   4.099   3.357  0.0933  0.8318 -0.2550
 2428SOL    HW218921   3.172   4.204   3.299 -0.7793 -0.0980  0.4776
 2429SOL     OW18922   2.791   0.246   8.717 -0.0243 -0.4347 -0.3003
 2429SOL    HW118923   2.802   0.245   8.622 -1.5235 -3.2704 -0.4235
 2429SOL    HW218924   2.696   0.254   8.725  0.1881  0.2377  1.6520
 2430SOL     OW18925   4.212   0.492   0.182  0.1284 -0.0535  0.4443
 2430SOL    HW118926   4.213   0.463   0.273 -0.9906  0.0367  0.4839
 2430SOL    HW218927   4.304   0.521   0.184  0.0267  0.3548 -0.9990
 2431SOL     OW18928   3.701   3.738   1.743 -0.0160 -0.4720  0.5619
 2431SOL    HW118929   3.619   3.705   1.779 -0.8325  0.6388 -0.2498
 2431SOL    HW218930   3.750   3.661   1.770 -0.4019 -0.2955  1.7464
 2432SOL     OW18931   1.562   0.898   7.447  0.1234 -0.1017 -0.0371
 2432SOL    HW118932   1.565   0.975   7.504 -0.9908 -0.1500  0.0869
 2432SOL    HW218933   1.518   0.939   7.372  2.2393 -1.3779 -1.9650
 2433SOL     OW18934   3.356   2.978  11.962  0.3984  0.2037 -0.0411
 2433SOL    HW118935   3.431   3.036  11.973  0.4357  0.2576 -0.5582
 2433SOL    HW218936   3.351   2.928  12.043 -2.4496  0.3020 -0.1618
 2434SOL     OW18937   1.668   2.214  17.621  0.6312 -0.4815 -0.0821
 2434SOL    HW118938   1.740   2.255  17.572  0.6959  2.1017  2.1438
 2434SOL    HW218939   1.695   2.124  17.641  0.1952 -1.0380 -2.0467
 2435SOL     OW18940   1.776   0.175  14.274 -0.1026 -0.3499  0.0340
 2435SOL    HW118941   1.836   0.151  14.203 -0.2042  0.5565 -0.3597
 2435SOL    HW218942   1.715   0.101  14.280  1.5073 -1.6801 -0.0719
 2436SOL     OW18943   3.756   0.830   5.699 -0.0597 -0.1498  0.1261
 2436SOL    HW118944   3.685   0.779   5.737  0.5729 -0.8444  0.3749
 2436SOL    HW218945   3.755   0.902   5.762 -1.7663 -2.3416  2.5744
 2437SOL     OW18946   3.853   2.044   8.517  0.1448  0.3835  0.5966
 2437SOL    HW118947   3.787   2.046   8.448  0.2228 -2.8310  0.4615
 2437SOL    HW218948   3.844   2.137   8.538  1.5735  0.6383  0.1227
 2438SOL     OW18949   3.662   3.753  11.718 -0.0885 -0.4962 -0.2544
 2438SOL    HW118950   3.653   3.837  11.763  0.7489 -1.2789  1.3949
 2438SOL    HW218951   3.597   3.705  11.769 -0.2909  0.2062  0.1402
 2439SOL     OW18952   3.313   0.074   8.622  0.0594 -0.1525  0.2865
 2439SOL    HW118953   3.313   0.164   8.653 -0.4515  0.2397 -0.8791
 2439SOL    HW218954   3.379   0.088   8.554 -0.8104 -2.1951 -0.9751
 2440SOL     OW18955   3.781   4.512   8.650  0.0308 -0.1200  0.3176
 2440SOL    HW118956   3.746   4.463   8.576  3.5767  1.4643 -2.3882
 2440SOL    HW218957   3.731   4.482   8.726 -0.2548 -0.3648  0.0329
 2441SOL     OW18958   4.033   0.000   2.885 -0.5519  0.6880  0.6099
 2441SOL    HW118959   4.041   4.644   2.908 -1.3773 -0.2307 -2.7441
 2441SOL    HW218960   3.975   0.003   2.809 -0.7051  0.0825  0.6993
 2442SOL     OW18961   0.287   3.660   5.108  0.4594  0.5200 -0.0844
 2442SOL    HW118962   0.238   3.583   5.137 -2.0390  1.3972 -1.9830
 2442SOL    HW218963   0.363   3.606   5.090 -0.4325 -0.2766 -1.4071
 2443SOL     OW18964   2.457   3.195   5.012  0.3321 -0.5242 -0.2294
 2443SOL    HW118965   2.412   3.123   4.968  0.1552  0.6928 -2.0614
 2443SOL    HW218966   2.388   3.226   5.071  1.4575 -0.0211  0.8130
 2444SOL     OW18967   0.603   2.079   2.944  0.4158  0.3840 -0.4548
 2444SOL    HW118968   0.513   2.091   2.914  0.7070  3.2269 -0.1732
 2444SOL    HW218969   0.604   2.124   3.029  1.2165  1.4594 -1.0426
 2445SOL     OW18970   0.808   1.248  16.691  0.7534  0.1066  0.1501
 2445SOL    HW118971   0.740   1.313  16.707  0.1977 -0.8130  1.5257
 2445SOL    HW218972   0.811   1.257  16.596 -1.8627 -0.3611  0.0385
 2446SOL     OW18973   4.202   1.106  12.201 -0.0455  0.1552 -0.3134
 2446SOL    HW118974   4.119   1.088  12.245  0.1695  3.0404  1.2837
 2446SOL    HW218975   4.167   1.128  12.115  0.7640  1.0912 -0.4072
 2447SOL     OW18976   3.956   2.800   5.557 -0.1517 -0.2475  0.5961
 2447SOL    HW118977   3.923   2.885   5.585 -2.7314 -0.9651 -0.2269
 2447SOL    HW218978   3.925   2.743   5.627 -0.4285 -2.7411 -1.5275
 2448SOL     OW18979   0.462   1.005   7.627 -0.4119  0.2150 -0.1409
 2448SOL    HW118980   0.373   0.977   7.649 -0.6391 -1.6728 -3.4184
 2448SOL    HW218981   0.477   1.096   7.654  0.9148  0.4048 -1.4886
 2449SOL     OW18982   0.679   0.845  13.775  0.3816  0.3275 -0.1671
 2449SOL    HW118983   0.604   0.829  13.717  0.6471 -1.4666 -0.0372
 2449SOL    HW218984   0.634   0.913  13.824 -0.2858  0.8117 -1.4327
 2450SOL     OW18985   1.129   3.825  11.032 -0.0969 -0.3319  0.2309
 2450SOL    HW118986   1.036   3.841  11.017  0.2620  1.5543  0.0782
 2450SOL    HW218987   1.154   3.872  11.111 -0.3762  0.1036  0.0562
 2451SOL     OW18988   4.323   3.006   9.283 -0.0610 -0.0448 -0.2668
 2451SOL    HW118989   4.248   2.950   9.261  1.7022 -2.2517 -0.6119
 2451SOL    HW218990   4.319   3.057   9.202  4.0025 -0.8471 -0.9783
 2452SOL     OW18991   1.399   1.282  17.202 -0.8586  0.2630 -0.3641
 2452SOL    HW118992   1.390   1.200  17.251  0.4981 -0.3684 -1.1509
 2452SOL    HW218993   1.364   1.343  17.266 -0.0427  2.6498 -2.1800
 2453SOL     OW18994   4.466   0.655   0.905 -0.0827 -0.0550  0.0779
 2453SOL    HW118995   4.464   0.748   0.927  0.3706  0.2493 -1.1766
 2453SOL    HW218996   4.544   0.660   0.851  1.2770  1.9122  2.2437
 2454SOL     OW18997   2.293   1.134   9.907 -0.6951  0.3167 -0.2209
 2454SOL    HW118998   2.336   1.094   9.983 -0.5903 -0.5317 -0.7287
 2454SOL    HW218999   2.267   1.215   9.951  3.8100  1.4070  0.3538
 2455SOL     OW19000   1.996   3.832   2.324 -0.4798 -0.6208  0.5250
 2455SOL    HW119001   2.079   3.853   2.282 -1.0750  0.8392  0.0654
 2455SOL    HW219002   1.940   3.907   2.307  1.4839  0.6443 -0.3157
 2456SOL     OW19003   3.928   2.512  12.082  0.1563  0.3892 -0.3334
 2456SOL    HW119004   3.859   2.566  12.120  0.2369  0.7723 -0.7304
 2456SOL    HW219005   3.936   2.548  11.993 -0.7518 -2.5505 -1.5974
 2457SOL     OW19006   1.477   1.820  16.909  0.6141  0.4297 -0.3181
 2457SOL    HW119007   1.475   1.728  16.882  1.2801  0.0179  1.0275
 2457SOL    HW219008   1.439   1.860  16.831  2.6612  1.1426 -0.9274
 2458SOL     OW19009   2.120   1.649   9.141  0.1189 -0.0212  0.2734
 2458SOL    HW119010   2.167   1.574   9.104 -0.3004 -0.3433  0.3940
 2458SOL    HW219011   2.163   1.649   9.227  2.3261  1.5029 -0.8124
 2459SOL     OW19012   1.022   3.330   7.195 -0.3787 -0.1898  0.5210
 2459SOL    HW119013   1.017   3.371   7.281  0.2213  1.5416 -0.2593
 2459SOL    HW219014   1.101   3.374   7.163 -1.3103  0.8502 -0.3321
 2460SOL     OW19015   3.977   1.109   4.171 -0.0856 -0.2338  0.4994
 2460SOL    HW119016   3.964   1.160   4.092  2.5802  0.8950  0.7690
 2460SOL    HW219017   3.916   1.040   4.145 -1.9397  1.7252 -0.3091
 2461SOL     OW19018   0.773   1.469  17.653 -0.0655  0.7813  0.1771
 2461SOL    HW119019   0.818   1.525  17.590  0.4188  0.9460  0.6700
 2461SOL    HW219020   0.781   1.524  17.731 -1.2512  1.1452  0.0348
 2462SOL     OW19021   1.968   2.781   5.625 -0.0130  0.6148 -0.5956
 2462SOL    HW119022   1.992   2.692   5.599 -1.4536  0.0800 -0.0758
 2462SOL    HW219023   1.910   2.768   5.699  0.6896 -0.2289 -0.1880
 2463SOL     OW19024   2.537   2.350  16.606 -0.1442 -0.2435 -0.9564
 2463SOL    HW119025   2.484   2.407  16.663 -0.2420  0.0502 -1.3381
 2463SOL    HW219026   2.578   2.294  16.672 -1.5954 -0.9443 -0.6581
 2464SOL     OW19027   4.101   3.986   1.711  0.2038 -0.0709  0.1614
 2464SOL    HW119028   4.011   3.997   1.742  0.1963 -2.4791  0.9618
 2464SOL    HW219029   4.150   4.061   1.743 -1.7494  1.9682 -1.5901
 2465SOL     OW19030   3.772   4.029   2.785 -0.5037  0.5328  0.6460
 2465SOL    HW119031   3.846   3.971   2.805 -1.6607 -1.5876 -1.2392
 2465SOL    HW219032   3.795   4.104   2.839 -2.3296  0.1544  1.9485
 2466SOL     OW19033   0.432   2.085   2.207  0.0586  0.5315 -0.1189
 2466SOL    HW119034   0.441   2.075   2.302  1.8889  0.4508 -0.2990
 2466SOL    HW219035   0.449   1.995   2.179 -1.6224  0.8218 -2.0598
 2467SOL     OW19036   4.635   0.442   5.983  0.2371 -0.0987 -0.3131
 2467SOL    HW119037   4.543   0.446   5.958  0.6758 -0.9239 -2.0763
 2467SOL    HW219038   4.644   0.348   5.998 -3.6888 -0.2379  1.0615
 2468SOL     OW19039   2.703   4.016   4.449 -0.5921 -0.0287 -0.2789
 2468SOL    HW119040   2.689   4.020   4.544 -1.5419  1.5214 -0.4748
 2468SOL    HW219041   2.780   4.072   4.442 -1.2668  0.7002 -1.8081
 2469SOL     OW19042   2.344   0.008   1.933 -0.3540  0.2092 -0.2214
 2469SOL    HW119043   2.267   0.012   1.991 -1.4365 -0.4440 -1.6241
 2469SOL    HW219044   2.368   0.101   1.931 -2.5469  0.8084  0.8084
 2470SOL     OW19045   2.193   0.652  10.477  0.8767  0.1142 -0.5022
 2470SOL    HW119046   2.220   0.566  10.510 -0.6220  0.3385  1.3151
 2470SOL    HW219047   2.264   0.709  10.507  1.4695 -1.0686  0.3868
 2471SOL     OW19048   1.876   1.010   7.585  0.0146  0.8506  0.5350
 2471SOL    HW119049   1.870   0.917   7.607  0.3484  0.5303 -0.7640
 2471SOL    HW219050   1.947   1.004   7.521 -1.3059  1.7598 -0.9974
 2472SOL     OW19051   3.801   0.198   9.969 -0.1482 -0.1248 -0.6017
 2472SOL    HW119052   3.867   0.138   9.933 -0.5552  0.1457 -1.8219
 2472SOL    HW219053   3.776   0.158  10.052 -0.1657 -1.0747 -1.0554
 2473SOL     OW19054   1.991   4.087   4.238 -0.1392  0.3626 -0.1366
 2473SOL    HW119055   1.967   4.014   4.181 -1.7486 -0.0305  1.0311
 2473SOL    HW219056   1.928   4.074   4.310 -0.5991  0.6288 -0.4911
 2474SOL     OW19057   0.432   4.073   8.077 -0.0658 -0.7328 -0.1312
 2474SOL    HW119058   0.389   4.158   8.088  1.2685 -0.2051  0.9443
 2474SOL    HW219059   0.515   4.107   8.044 -0.1417 -2.1430 -1.8314
 2475SOL     OW19060   2.243   0.540  15.613 -0.1776  0.0015 -0.1604
 2475SOL    HW119061   2.195   0.576  15.688  1.1204 -1.2146  1.2536
 2475SOL    HW219062   2.169   0.548  15.553  2.2698  0.7409 -3.0343
 2476SOL     OW19063   0.318   2.855   2.777  0.0916 -0.1788  0.1440
 2476SOL    HW119064   0.403   2.872   2.737  0.5935 -1.2870  0.7347
 2476SOL    HW219065   0.333   2.869   2.870  0.3791  0.5467 -0.0108
 2477SOL     OW19066   0.873   1.793  16.431  0.2500  0.3635  0.5652
 2477SOL    HW119067   0.940   1.765  16.368  0.1670  1.3928  0.0185
 2477SOL    HW219068   0.913   1.768  16.514 -0.9381 -1.1601  0.6923
 2478SOL     OW19069   1.584   1.659   4.864 -0.0325 -0.5480 -0.2742
 2478SOL    HW119070   1.621   1.578   4.828 -0.4436 -0.4359 -0.9482
 2478SOL    HW219071   1.508   1.671   4.808  1.5229  3.6964 -1.4462
 2479SOL     OW19072   0.293   2.090   7.926 -0.0254 -1.2113 -0.3601
 2479SOL    HW119073   0.338   2.021   7.878 -0.0361 -0.6595 -1.1631
 2479SOL    HW219074   0.239   2.135   7.861 -0.5708  1.2861  1.8169
 2480SOL     OW19075   4.710   0.757   1.773  0.6668 -0.4685  0.2021
 2480SOL    HW119076   0.028   0.810   1.833  0.1984 -1.1516  1.2335
 2480SOL    HW219077   4.677   0.827   1.717  0.8811  1.0700  1.9671
 2481SOL     OW19078   1.388   4.212  16.513  0.5512  0.3498  0.9187
 2481SOL    HW119079   1.309   4.163  16.534  0.6435  0.9764  2.7109
 2481SOL    HW219080   1.422   4.213  16.602  1.7445  0.0358  0.4707
 2482SOL     OW19081   2.118   0.286   2.224 -0.0528 -0.1042 -0.5430
 2482SOL    HW119082   2.070   0.272   2.306  1.1235 -0.4094  0.0892
 2482SOL    HW219083   2.195   0.233   2.245  1.1728  1.9845  0.2358
 2483SOL     OW19084   3.570   4.717   8.770  0.4228  0.0448  0.5108
 2483SOL    HW119085   3.527   4.649   8.822 -0.9762  1.2667  0.9708
 2483SOL    HW219086   3.505   4.736   8.702 -0.3560 -1.0160  0.9644
 2484SOL     OW19087   2.652   0.519   5.337 -0.2812 -0.0600 -0.0592
 2484SOL    HW119088   2.624   0.429   5.318  0.5613  0.0839 -1.9094
 2484SOL    HW219089   2.662   0.512   5.432 -0.3484  1.6268  0.0608
 2485SOL     OW19090   4.621   1.959   2.919 -0.0663  0.0839 -0.0225
 2485SOL    HW119091   4.604   1.977   2.827  0.8872 -1.0271 -0.4134
 2485SOL    HW219092   4.576   2.029   2.967  1.0278 -0.6261  2.0243
 2486SOL     OW19093   0.144   1.687   1.929  0.6073 -0.2062 -0.6156
 2486SOL    HW119094   0.179   1.769   1.896  0.9647  0.5225  1.5342
 2486SOL    HW219095   0.193   1.667   2.010 -1.4357 -0.8076  0.4619
 2487SOL     OW19096   2.083   4.655   2.353 -0.0787 -0.1992 -0.5528
 2487SOL    HW119097   2.032   4.579   2.325  1.3129 -1.7444  1.1282
 2487SOL    HW219098   2.018   4.704   2.402  2.1873  4.3841 -2.1004
 2488SOL     OW19099   0.435   1.166   3.099  0.2650  0.1106 -0.3346
 2488SOL    HW119100   0.369   1.098   3.081  1.6308 -0.4809 -3.1484
 2488SOL    HW219101   0.385   1.217   3.163 -0.3454 -0.7397 -0.1297
 2489SOL     OW19102   1.810   3.531   6.542  0.3418 -0.0898  0.0157
 2489SOL    HW119103   1.804   3.538   6.637 -0.7298 -1.3870  0.0345
 2489SOL    HW219104   1.834   3.623   6.532  1.1188 -0.1871  0.9245
 2490SOL     OW19105   4.153   2.699   4.511 -0.1777 -0.5747 -0.4906
 2490SOL    HW119106   4.126   2.702   4.603  1.6349  2.0616 -0.0591
 2490SOL    HW219107   4.190   2.611   4.509  0.8641 -0.1286 -1.2261
 2491SOL     OW19108   0.359   3.237   4.417  0.6627  0.5354 -0.2017
 2491SOL    HW119109   0.451   3.221   4.439  0.6766  0.3281 -0.4159
 2491SOL    HW219110   0.330   3.151   4.449  0.7901  0.7151  0.4013
 2492SOL     OW19111   1.110   1.045  16.587  0.0166  0.6922 -0.2634
 2492SOL    HW119112   1.052   1.079  16.520 -0.3740 -0.6782 -0.6063
 2492SOL    HW219113   1.076   0.956  16.585  0.1633  0.6717 -1.6026
 2493SOL     OW19114   3.131   0.509  11.764  0.2389 -0.0251 -0.2011
 2493SOL    HW119115   3.151   0.600  11.784  1.3671 -0.8036  2.2189
 2493SOL    HW219116   3.213   0.470  11.794 -0.5951 -1.5751  0.0759
 2494SOL     OW19117   3.615   0.383  15.072 -0.3774 -0.3131 -0.3580
 2494SOL    HW119118   3.664   0.458  15.040 -0.6735  0.0943  0.1425
 2494SOL    HW219119   3.659   0.357  15.153  3.5981  0.4353 -2.2985
 2495SOL     OW19120   4.325   3.334   3.523  0.7567  0.1652  0.4875
 2495SOL    HW119121   4.402   3.320   3.578  0.1867  2.0353  1.7735
 2495SOL    HW219122   4.317   3.429   3.520  1.3601  0.2094  0.3849
 2496SOL     OW19123   2.873   4.329   6.209 -0.3460  0.1901  0.0365
 2496SOL    HW119124   2.791   4.294   6.244 -0.2391 -0.0470  0.0516
 2496SOL    HW219125   2.907   4.258   6.154  0.0465  2.3002 -2.4429
 2497SOL     OW19126   2.348   0.149   2.274  0.2562 -0.1808 -0.1361
 2497SOL    HW119127   2.393   0.199   2.343 -1.5829 -0.5306  1.2997
 2497SOL    HW219128   2.353   0.064   2.317  2.1634  0.4490  0.9220
 2498SOL     OW19129   1.905   0.966   3.586 -0.2349 -0.2669 -0.3015
 2498SOL    HW119130   1.843   0.929   3.649 -1.2384  0.4768 -0.8444
 2498SOL    HW219131   1.971   0.897   3.591 -0.4704 -0.4965 -0.3790
 2499SOL     OW19132   2.147   4.260  10.833 -0.1637  0.0518  0.3055
 2499SOL    HW119133   2.234   4.298  10.818 -0.6394  0.8601 -0.4283
 2499SOL    HW219134   2.156   4.179  10.783  1.1072 -0.1672  0.8812
 2500SOL     OW19135   2.758   1.450  11.233 -0.1901 -0.0309  0.0180
 2500SOL    HW119136   2.816   1.526  11.227  1.2766 -1.2423 -1.1402
 2500SOL    HW219137   2.769   1.404  11.150 -0.7240 -0.2942  0.0897
 2501SOL     OW19138   2.176   4.137  12.017  0.3664 -0.3441 -0.1782
 2501SOL    HW119139   2.212   4.086  11.945  0.1053 -1.0303  0.1766
 2501SOL    HW219140   2.089   4.099  12.014  1.6161 -3.0615 -1.4522
 2502SOL     OW19141   2.924   2.833   9.423  0.1954  0.7714  0.5777
 2502SOL    HW119142   2.882   2.917   9.406  1.4193  1.3773  0.4942
 2502SOL    HW219143   2.998   2.836   9.361 -0.7125 -1.8632 -0.5928
 2503SOL     OW19144   0.964   2.604   7.065 -0.3638 -0.1862 -0.0102
 2503SOL    HW119145   0.917   2.663   7.125 -1.2154 -0.1649 -0.6895
 2503SOL    HW219146   0.895   2.585   7.001 -0.6990  0.9372  0.0038
 2504SOL     OW19147   3.124   0.538  16.466 -0.1480  0.0423 -0.5520
 2504SOL    HW119148   3.218   0.547  16.449 -0.1693 -0.3211 -0.8689
 2504SOL    HW219149   3.129   0.494  16.551  1.9449  2.2011  0.4403
 2505SOL     OW19150   2.321   1.563   0.426 -0.0610 -0.0392  0.0069
 2505SOL    HW119151   2.362   1.589   0.344  2.1431 -0.9146  0.8100
 2505SOL    HW219152   2.230   1.555   0.398  1.2860 -1.4659 -3.9539
 2506SOL     OW19153   1.756   0.944   8.599 -0.1850  0.9038  0.6883
 2506SOL    HW119154   1.762   0.859   8.555  2.0254  1.1840  0.4315
 2506SOL    HW219155   1.829   0.998   8.571 -0.0193  0.4166  0.1793
 2507SOL     OW19156   2.770   0.210   3.289  0.4728 -0.2834 -0.4484
 2507SOL    HW119157   2.761   0.116   3.272  0.4566 -0.1268 -1.2688
 2507SOL    HW219158   2.864   0.213   3.306 -0.3570  2.2666  3.7118
 2508SOL     OW19159   3.210   1.863   4.691 -0.4994 -0.4382 -0.8638
 2508SOL    HW119160   3.142   1.907   4.641  0.7421  1.8348 -0.5291
 2508SOL    HW219161   3.277   1.931   4.685 -1.1137  0.4331  2.2285
 2509SOL     OW19162   3.431   2.114   4.989 -0.1106 -0.2026  0.1201
 2509SOL    HW119163   3.501   2.168   5.026  1.2736 -0.7474 -1.7386
 2509SOL    HW219164   3.356   2.131   5.047 -0.3036  0.1721 -0.2405
 2510SOL     OW19165   2.017   1.374   8.372  0.1448  0.5186 -0.5266
 2510SOL    HW119166   2.109   1.392   8.389  0.6622 -2.5168 -0.0149
 2510SOL    HW219167   1.996   1.404   8.283  0.5070 -2.9266 -1.7875
 2511SOL     OW19168   3.037   1.999   7.364  0.1675  0.3213 -0.0662
 2511SOL    HW119169   3.115   2.054   7.353 -0.0165  0.4486 -0.7305
 2511SOL    HW219170   2.983   2.058   7.311 -0.5175 -1.7364 -1.6560
 2512SOL     OW19171   1.477   1.635  11.756 -0.3230  0.1175 -0.2983
 2512SOL    HW119172   1.479   1.592  11.841  0.8467  2.3874  0.8364
 2512SOL    HW219173   1.454   1.557  11.707 -1.5741  0.5541 -0.3956
 2513SOL     OW19174   2.025   4.493  15.787  0.7343 -0.0652 -0.3403
 2513SOL    HW119175   2.064   4.580  15.786 -0.5640  0.4937 -0.9212
 2513SOL    HW219176   2.086   4.443  15.733 -0.1039  0.2929 -1.6119
 2514SOL     OW19177   2.235   4.388  16.605 -0.0224  0.2283  0.4153
 2514SOL    HW119178   2.321   4.368  16.643 -0.5562 -1.5341  0.7335
 2514SOL    HW219179   2.195   4.301  16.598 -0.2356  0.1703  2.3346
 2515SOL     OW19180   0.211   4.666  15.184 -0.8152 -0.0316  0.4184
 2515SOL    HW119181   0.202   4.708  15.099 -0.7138 -0.8512 -0.0026
 2515SOL    HW219182   0.276   4.596  15.170  1.1792  1.9169 -0.1295
 2516SOL     OW19183   1.308   2.101   0.855  0.2490 -0.0917  0.1688
 2516SOL    HW119184   1.274   2.158   0.786  1.5896 -0.9798 -1.2067
 2516SOL    HW219185   1.242   2.033   0.867  0.8974 -0.4998  1.4547
 2517SOL     OW19186   2.781   0.626   7.009  0.3493  0.0038  0.5132
 2517SOL    HW119187   2.693   0.604   6.979  1.0580  0.8774 -2.1839
 2517SOL    HW219188   2.766   0.674   7.090  1.4775  0.2393  0.5928
 2518SOL     OW19189   0.082   2.583   4.746  0.0583  0.2613  0.2430
 2518SOL    HW119190   0.167   2.570   4.705  0.2316  1.2996  0.2810
 2518SOL    HW219191   0.090   2.513   4.811 -2.2283  1.6499  2.0373
 2519SOL     OW19192   1.780   4.486  14.326 -0.6751  1.1420 -0.4178
 2519SOL    HW119193   1.785   4.531  14.411  2.1625  0.0679 -0.0054
 2519SOL    HW219194   1.800   4.396  14.352 -1.5215  1.1134  0.1702
 2520SOL     OW19195   3.103   2.908   3.713 -0.2981  0.4522 -0.4266
 2520SOL    HW119196   3.152   2.830   3.738  2.6169  2.5156  0.3164
 2520SOL    HW219197   3.015   2.893   3.747 -0.0697 -2.1095 -0.9506
 2521SOL     OW19198   0.168   1.659  12.563  0.1818 -0.3824 -0.1090
 2521SOL    HW119199   0.161   1.609  12.482  0.3747  0.1469 -0.4571
 2521SOL    HW219200   0.245   1.615  12.600 -0.8304 -2.0918 -0.0447
 2522SOL     OW19201   2.346   3.379  15.050 -0.0938 -0.2213 -0.9784
 2522SOL    HW119202   2.340   3.415  14.961 -0.8194  0.1826 -0.7618
 2522SOL    HW219203   2.264   3.336  15.073 -0.8131  1.8085  0.1774
 2523SOL     OW19204   4.522   4.668   4.994  0.4765 -0.4593 -0.3250
 2523SOL    HW119205   4.524   4.609   4.918 -1.0666  0.1924 -0.8934
 2523SOL    HW219206   4.473   0.009   4.965 -0.5032 -1.0148 -0.1490
 2524SOL     OW19207   1.207   1.060   0.216 -0.0752 -0.2475  0.0955
 2524SOL    HW119208   1.214   1.013   0.299  1.2785 -0.9253 -0.3984
 2524SOL    HW219209   1.140   1.012   0.168 -1.1745  0.9365  0.4480
 2525SOL     OW19210   2.523   1.146   2.052  0.4447 -0.2463 -0.1830
 2525SOL    HW119211   2.617   1.146   2.035  0.6216  0.2961  0.8348
 2525SOL    HW219212   2.515   1.050   2.049  0.5612 -0.2184 -1.4433
 2526SOL     OW19213   2.734   4.535   5.026 -0.2987  0.0448 -0.1152
 2526SOL    HW119214   2.750   4.597   4.955 -1.1425  0.5580  0.1408
 2526SOL    HW219215   2.788   4.580   5.090 -0.2479  0.0143 -0.1370
 2527SOL     OW19216   4.317   1.030   2.881 -0.5377 -0.7601 -0.3188
 2527SOL    HW119217   4.291   1.037   2.973 -1.4037  0.9541 -0.6834
 2527SOL    HW219218   4.383   1.099   2.871 -2.1171  0.8925  0.5248
 2528SOL     OW19219   0.075   3.772   4.333  0.0113 -0.3004  0.4800
 2528SOL    HW119220   0.142   3.709   4.358 -0.6337 -1.5076 -0.8422
 2528SOL    HW219221   0.117   3.854   4.359 -1.7069  0.9806 -0.7830
 2529SOL     OW19222   4.724   0.678   8.432  0.2730  0.2593 -0.3199
 2529SOL    HW119223   4.703   0.686   8.339  0.7131 -0.7432 -0.5074
 2529SOL    HW219224   0.080   0.703   8.440  0.3034 -0.6172  1.9533
 2530SOL     OW19225   2.983   0.545   2.870  0.2494  0.5210  0.3551
 2530SOL    HW119226   2.932   0.490   2.930  1.0245  0.1074  0.6270
 2530SOL    HW219227   3.039   0.484   2.823  0.0633  0.1546  0.6138
 2531SOL     OW19228   3.956   1.720   2.647 -0.1222  0.2044  0.1088
 2531SOL    HW119229   3.928   1.811   2.632 -1.0565  0.1730  1.5990
 2531SOL    HW219230   4.047   1.723   2.618  0.0027 -2.3367  0.3147
 2532SOL     OW19231   1.806   0.024   4.247 -0.2334  0.3716 -0.1855
 2532SOL    HW119232   1.737   0.090   4.261 -0.6205 -0.1976  0.6116
 2532SOL    HW219233   1.757   4.687   4.211 -0.2924 -0.5757  1.8146
 2533SOL     OW19234   4.702   2.349   9.502  0.0535 -0.3257  0.5817
 2533SOL    HW119235   4.645   2.273   9.493 -2.0660  1.3359 -0.0082
 2533SOL    HW219236   0.043   2.314   9.459  1.6322  2.2967  1.2180
 2534SOL     OW19237   0.684   0.067   5.888  0.1523 -0.2077 -0.0996
 2534SOL    HW119238   0.605   0.032   5.928  1.7662 -2.6684  0.9618
 2534SOL    HW219239   0.647   0.092   5.804 -0.0887 -0.4287 -0.0603
 2535SOL     OW19240   4.264   4.489   8.116  0.1228 -0.0236 -0.5959
 2535SOL    HW119241   4.227   4.572   8.146  1.4792 -0.2282  1.6363
 2535SOL    HW219242   4.251   4.484   8.021  3.2921  1.7304 -1.1280
 2536SOL     OW19243   2.814   0.832  12.153  0.1417  0.5861 -0.5877
 2536SOL    HW119244   2.785   0.911  12.198 -1.2709 -0.7614  0.9107
 2536SOL    HW219245   2.770   0.757  12.194  0.6501  0.2021 -0.7426
 2537SOL     OW19246   0.299   4.526  11.850  0.0458 -0.1437 -0.3038
 2537SOL    HW119247   0.227   4.521  11.913 -1.0967 -2.3557 -1.7801
 2537SOL    HW219248   0.266   4.598  11.796 -0.3693  0.3702  0.6384
 2538SOL     OW19249   4.626   3.114   7.864  0.3595  0.4258 -0.2082
 2538SOL    HW119250   4.608   3.062   7.785  2.1242 -0.8497  0.2141
 2538SOL    HW219251   4.676   3.050   7.916  0.0660  1.4761  1.3586
 2539SOL     OW19252   1.663   3.627   6.312 -0.0974 -0.3431  0.0309
 2539SOL    HW119253   1.666   3.549   6.366  0.7389  0.0269  0.5233
 2539SOL    HW219254   1.606   3.681   6.367 -0.5210 -0.9324  0.1641
 2540SOL     OW19255   1.191   0.428   2.314  0.7585  0.3620  1.0366
 2540SOL    HW119256   1.120   0.398   2.371  0.2884 -0.1989  0.1685
 2540SOL    HW219257   1.193   0.516   2.351 -1.5391 -0.2614  2.5988
 2541SOL     OW19258   0.781   1.391   2.979 -0.2721  0.4292  0.0948
 2541SOL    HW119259   0.749   1.481   2.977  3.1019  1.6225  0.2345
 2541SOL    HW219260   0.803   1.382   3.071 -3.4041  1.4797  0.9416
 2542SOL     OW19261   2.040   1.003   5.244 -0.2092 -0.1485 -0.3713
 2542SOL    HW119262   2.047   1.088   5.287 -1.8693 -1.1601  1.8968
 2542SOL    HW219263   1.987   1.016   5.166  0.2210 -0.7820 -0.7684
 2543SOL     OW19264   4.000   0.544   3.332 -0.9215 -0.0288 -0.2692
 2543SOL    HW119265   4.032   0.485   3.263 -0.6663 -0.6410  0.3743
 2543SOL    HW219266   3.940   0.481   3.373  0.9734 -1.2729  0.5489
 2544SOL     OW19267   1.924   0.280   3.312  0.1013  0.0895  0.1405
 2544SOL    HW119268   1.997   0.275   3.373 -0.1339 -0.0478  0.4134
 2544SOL    HW219269   1.859   0.239   3.369  0.4445  0.7325  0.9935
 2545SOL     OW19270   2.379   1.989   2.164 -0.0182  0.1501  0.1043
 2545SOL    HW119271   2.352   2.004   2.073  0.6582 -0.5535 -0.2101
 2545SOL    HW219272   2.469   2.021   2.166  0.4719 -1.1303 -1.4133
 2546SOL     OW19273   3.539   0.799   9.357 -0.7559 -0.2731 -0.1653
 2546SOL    HW119274   3.522   0.708   9.380 -0.8844  0.6237  3.1611
 2546SOL    HW219275   3.518   0.836   9.443  1.2086  1.9281 -0.6211
 2547SOL     OW19276   2.486   3.776   7.375  1.1448  0.3032 -0.0558
 2547SOL    HW119277   2.560   3.809   7.427  0.9485 -1.1666  1.1573
 2547SOL    HW219278   2.421   3.772   7.445  0.9877 -1.5430 -0.3188
 2548SOL     OW19279   2.565   1.728  12.245  0.3942  0.1748 -0.4305
 2548SOL    HW119280   2.501   1.723  12.175  0.9607  3.2257 -1.1510
 2548SOL    HW219281   2.589   1.638  12.267 -1.5432  0.0458  1.1245
 2549SOL     OW19282   1.187   3.788   0.766 -0.2920 -0.1029  0.3002
 2549SOL    HW119283   1.187   3.832   0.681  1.6440 -1.2807 -0.3058
 2549SOL    HW219284   1.216   3.698   0.750 -1.9610 -0.1988 -2.2398
 2550SOL     OW19285   0.041   2.837   1.949  0.2081  0.3011 -0.1556
 2550SOL    HW119286   0.017   2.838   2.041 -1.4171  1.0246 -0.5759
 2550SOL    HW219287   0.133   2.812   1.949 -0.3533 -1.8110 -0.7304
 2551SOL     OW19288   1.390   2.457   5.622 -0.3237 -0.4943 -0.0381
 2551SOL    HW119289   1.440   2.471   5.542  0.3681 -0.3078  0.4269
 2551SOL    HW219290   1.315   2.514   5.606 -0.6013 -1.2192 -1.3466
 2552SOL     OW19291   4.593   3.436   9.368 -0.1731 -0.0680  0.0232
 2552SOL    HW119292   4.637   3.458   9.286 -0.3040 -1.0462 -0.3113
 2552SOL    HW219293   4.600   3.516   9.419 -2.4757  0.5483 -0.6178
 2553SOL     OW19294   3.482   0.523   5.537  0.1564  0.7315 -0.7618
 2553SOL    HW119295   3.433   0.443   5.555  0.2212  0.9749  0.5022
 2553SOL    HW219296   3.487   0.563   5.624 -1.3531  0.2098 -0.4375
 2554SOL     OW19297   0.970   3.760   2.067 -0.6719 -0.0869  0.1133
 2554SOL    HW119298   0.977   3.820   2.141  2.2832 -0.5653  0.2285
 2554SOL    HW219299   0.890   3.793   2.028 -1.5261 -0.6165  1.4106
 2555SOL     OW19300   3.428   2.803   4.776 -0.3494  0.2621 -0.3256
 2555SOL    HW119301   3.520   2.783   4.757 -0.6087 -1.3119  0.0731
 2555SOL    HW219302   3.414   2.892   4.746  1.4953  0.1124 -1.6346
 2556SOL     OW19303   2.738   4.385   8.635  1.0679  0.2362 -0.5460
 2556SOL    HW119304   2.653   4.347   8.655  0.2456  2.5216  0.2725
 2556SOL    HW219305   2.712   4.454   8.574  1.1590  0.0461 -0.7991
 2557SOL     OW19306   1.375   3.966  17.118 -0.0717 -0.5634 -0.4603
 2557SOL    HW119307   1.298   4.002  17.162  0.3000  1.0181 -1.0945
 2557SOL    HW219308   1.400   4.031  17.052 -1.2304 -1.2515 -1.5654
 2558SOL     OW19309   1.539   0.287   3.656 -0.4185  0.7234 -0.6194
 2558SOL    HW119310   1.444   0.296   3.663 -0.4946 -1.3992  1.0303
 2558SOL    HW219311   1.564   0.360   3.713  1.1991  0.4171 -0.9323
 2559SOL     OW19312   2.719   4.720   8.213  0.6835  0.2091 -0.6012
 2559SOL    HW119313   2.763   0.053   8.164 -0.6335  1.6667  0.2763
 2559SOL    HW219314   2.784   4.650   8.218 -0.1163 -0.5599 -0.9177
 2560SOL     OW19315   4.376   1.422   7.403 -0.2864 -0.0073  0.4871
 2560SOL    HW119316   4.447   1.468   7.358 -0.5207 -0.1973 -0.0782
 2560SOL    HW219317   4.421   1.338   7.417  0.0041 -0.3336 -2.4221
 2561SOL     OW19318   0.046   3.422  12.295  0.4216  0.1028 -0.6565
 2561SOL    HW119319   0.135   3.404  12.325 -0.4143  0.3579  2.0052
 2561SOL    HW219320   4.735   3.349  12.336 -0.0051  1.1263  0.6723
 2562SOL     OW19321   0.486   3.801   1.450 -0.1964  0.3432 -0.2821
 2562SOL    HW119322   0.566   3.845   1.422  1.2721 -1.3266  1.2820
 2562SOL    HW219323   0.506   3.805   1.544  1.9168 -0.6291 -0.6862
 2563SOL     OW19324   0.466   2.286   6.955 -0.2770  0.7195  0.3341
 2563SOL    HW119325   0.411   2.237   7.016  2.9539 -1.0425  1.7845
 2563SOL    HW219326   0.403   2.349   6.919 -0.6880 -0.2988 -0.7160
 2564SOL     OW19327   0.237   3.153   2.787 -0.0728  0.7789 -0.6950
 2564SOL    HW119328   0.248   3.104   2.868  0.7231  0.9083 -0.7205
 2564SOL    HW219329   0.317   3.134   2.738  0.9308  0.6513  0.9992
 2565SOL     OW19330   4.403   3.562   7.365  0.0769 -0.0062  0.4063
 2565SOL    HW119331   4.309   3.583   7.366  0.4312  1.4416  1.6385
 2565SOL    HW219332   4.402   3.466   7.361 -1.6006  0.0844 -1.6972
 2566SOL     OW19333   3.904   1.878  12.414 -0.0717 -0.2600 -0.4793
 2566SOL    HW119334   3.888   1.797  12.462 -2.9314 -0.5813 -1.9752
 2566SOL    HW219335   3.824   1.921  12.443  0.7550  1.4597 -0.7666
 2567SOL     OW19336   4.695   1.229   8.102 -0.0987 -0.2018 -0.2383
 2567SOL    HW119337   0.005   1.247   8.020  1.2077 -0.0750  0.5398
 2567SOL    HW219338   4.608   1.219   8.063 -0.8924  1.8613  1.0226
 2568SOL     OW19339   3.377   0.121   1.577  0.3671 -0.2086  0.5200
 2568SOL    HW119340   3.414   0.195   1.529 -0.2422 -1.3176 -1.6681
 2568SOL    HW219341   3.376   0.156   1.666  1.9728 -0.1345  0.5123
 2569SOL     OW19342   2.487   2.600   1.886 -0.0930 -0.4297  0.0864
 2569SOL    HW119343   2.408   2.553   1.859 -0.6564  1.3821 -1.4249
 2569SOL    HW219344   2.528   2.536   1.943  0.2728 -2.1393 -2.1074
 2570SOL     OW19345   2.592   1.244   6.780  0.2773  0.5679 -0.0350
 2570SOL    HW119346   2.684   1.243   6.751  0.3598  1.6968  0.1811
 2570SOL    HW219347   2.591   1.306   6.853 -2.9443 -0.9566  1.1865
 2571SOL     OW19348   4.237   1.686   9.797 -0.2647 -0.0784  0.0283
 2571SOL    HW119349   4.174   1.756   9.818 -0.9296 -0.1366 -1.7609
 2571SOL    HW219350   4.180   1.617   9.830  0.3375  0.6100  2.5157
 2572SOL     OW19351   4.343   4.202  10.260 -0.3328  0.0587  0.3503
 2572SOL    HW119352   4.435   4.200  10.286 -0.7890 -0.0012  1.9487
 2572SOL    HW219353   4.299   4.195  10.344 -1.8987  0.8953 -0.3890
 2573SOL     OW19354   0.192   2.319   2.074  0.3315 -0.4279  0.0010
 2573SOL    HW119355   0.156   2.296   2.160 -1.6105  1.3741 -0.3301
 2573SOL    HW219356   0.158   2.248   2.019  0.6479  1.0796 -2.1214
 2574SOL     OW19357   0.109   3.955   7.126 -0.3586  0.2472  0.6428
 2574SOL    HW119358   0.167   4.029   7.141 -0.7478  0.8845 -0.9988
 2574SOL    HW219359   0.022   3.991   7.145  0.3785  1.4395  1.6915
 2575SOL     OW19360   2.066   3.657  12.918  0.0928  0.2662  0.3906
 2575SOL    HW119361   2.015   3.612  12.851 -2.6383  2.1570  1.1982
 2575SOL    HW219362   2.055   3.749  12.894 -1.8031 -0.9761 -3.5630
 2576SOL     OW19363   3.655   2.778   9.240 -0.5871 -0.8710 -0.3611
 2576SOL    HW119364   3.613   2.863   9.249  1.5427  0.0873  0.3521
 2576SOL    HW219365   3.661   2.761   9.146  3.4765  0.5208 -0.3267
 2577SOL     OW19366   2.281   2.393  15.590 -0.3610 -0.1296 -0.5771
 2577SOL    HW119367   2.261   2.319  15.647 -2.0435  0.2167 -0.7310
 2577SOL    HW219368   2.343   2.428  15.654 -0.4444 -2.0462  0.5603
 2578SOL     OW19369   2.872   1.055  13.725 -0.5757  0.3675  0.1810
 2578SOL    HW119370   2.814   0.979  13.722  1.4692 -1.1602  0.2222
 2578SOL    HW219371   2.886   1.079  13.817 -0.8809  3.1523 -0.4853
 2579SOL     OW19372   2.682   0.913   5.132 -0.0718  0.1445 -0.5619
 2579SOL    HW119373   2.708   1.006   5.130 -2.7604  0.9564  1.6057
 2579SOL    HW219374   2.709   0.876   5.048  3.8424  0.2908  0.6351
 2580SOL     OW19375   1.514   2.235   4.891 -0.2649 -0.2069  0.1011
 2580SOL    HW119376   1.423   2.223   4.919  0.0852 -0.7062  1.0314
 2580SOL    HW219377   1.519   2.331   4.882 -1.4603 -0.3183 -1.7914
 2581SOL     OW19378   3.985   1.612   9.724 -0.2979 -0.2717  0.0973
 2581SOL    HW119379   4.032   1.544   9.676  0.0039 -0.1701  0.2485
 2581SOL    HW219380   3.896   1.581   9.710 -0.5876  1.0447 -0.9888
 2582SOL     OW19381   3.083   3.005   9.008 -0.1074  0.1064 -0.0056
 2582SOL    HW119382   3.129   2.991   8.926  1.0914  0.3381  0.6285
 2582SOL    HW219383   3.106   2.924   9.055  1.5589 -0.4249 -1.7560
 2583SOL     OW19384   1.640   0.389  16.888 -0.0723 -0.0628  0.4734
 2583SOL    HW119385   1.672   0.300  16.895 -0.0968 -0.0237  1.1157
 2583SOL    HW219386   1.654   0.422  16.977 -0.7527  0.3849  0.4157
 2584SOL     OW19387   1.364   2.274   9.383  0.3535  0.0443 -0.2702
 2584SOL    HW119388   1.333   2.232   9.302  3.1829 -1.0361 -0.8093
 2584SOL    HW219389   1.459   2.273   9.370  0.3213 -1.1377 -0.4518
 2585SOL     OW19390   0.737   0.508   5.810 -0.1683  0.3569 -0.3986
 2585SOL    HW119391   0.816   0.542   5.768  1.4555 -1.6652  1.0143
 2585SOL    HW219392   0.776   0.430   5.848 -0.0014  0.6133 -0.0367
 2586SOL     OW19393   3.941   1.134  14.395 -0.1718  0.1100 -0.1834
 2586SOL    HW119394   4.013   1.133  14.458  0.1312 -0.5322 -0.5468
 2586SOL    HW219395   3.984   1.136  14.310  0.2709  0.4186  0.0548
 2587SOL     OW19396   4.421   2.117   8.716  0.5279 -0.0625 -0.2734
 2587SOL    HW119397   4.358   2.178   8.677  0.7516  0.9274  0.9282
 2587SOL    HW219398   4.447   2.072   8.636 -0.6966 -1.5458  0.1764
 2588SOL     OW19399   0.862   0.456  11.047 -0.3183 -0.2480  0.2537
 2588SOL    HW119400   0.880   0.503  10.966  0.6821  1.6216  1.5412
 2588SOL    HW219401   0.768   0.446  11.059 -0.1739 -2.7496 -0.8645
 2589SOL     OW19402   3.493   2.371  11.468 -0.1004 -0.0824  0.4687
 2589SOL    HW119403   3.483   2.412  11.383 -0.5539  0.5613  0.8281
 2589SOL    HW219404   3.499   2.449  11.522  3.1321  1.0753 -1.5764
 2590SOL     OW19405   4.477   1.138   8.764 -0.8374 -0.0947 -0.3513
 2590SOL    HW119406   4.443   1.195   8.833  3.6308 -0.7563  2.3999
 2590SOL    HW219407   4.517   1.073   8.822  1.3408 -0.8447 -2.7010
 2591SOL     OW19408   0.432   3.536   3.548  0.2978 -0.1801 -0.0867
 2591SOL    HW119409   0.431   3.602   3.479 -0.6812 -1.3147 -1.1885
 2591SOL    HW219410   0.345   3.547   3.587 -0.2312 -1.6117 -0.8198
 2592SOL     OW19411   1.125   2.706  12.286 -0.3515  0.5731 -0.0404
 2592SOL    HW119412   1.201   2.705  12.229  0.5190  0.1831  1.1118
 2592SOL    HW219413   1.110   2.799  12.305 -0.9100  0.5942 -0.6191
 2593SOL     OW19414   0.516   0.493  11.473  0.2261 -0.4373  0.7023
 2593SOL    HW119415   0.459   0.479  11.549  0.7915  3.2878  1.7828
 2593SOL    HW219416   0.464   0.451  11.404 -1.0446  0.1329  1.3208
 2594SOL     OW19417   3.193   0.016  17.576 -0.2310 -0.1733 -0.2079
 2594SOL    HW119418   3.150   0.021  17.661 -0.0513 -1.5436 -0.0386
 2594SOL    HW219419   3.129   4.715  17.516 -0.0776  1.3736 -1.3664
 2595SOL     OW19420   3.210   1.389  14.239 -0.1971  0.0037 -0.6113
 2595SOL    HW119421   3.281   1.350  14.188  1.0644  0.6867  0.6087
 2595SOL    HW219422   3.170   1.451  14.179 -2.5673  0.2870  1.2802
 2596SOL     OW19423   2.099   1.075   9.221 -0.4433  0.1426 -0.4533
 2596SOL    HW119424   2.193   1.091   9.212 -0.4533  1.6938  2.2107
 2596SOL    HW219425   2.089   0.980   9.215  0.3959  0.1111 -1.5020
 2597SOL     OW19426   0.885   4.155  17.710  0.1733  0.0550 -0.6594
 2597SOL    HW119427   0.820   4.112   0.022 -1.4254  0.6108 -2.0855
 2597SOL    HW219428   0.965   4.157   0.018 -0.2499 -2.7064  0.0805
 2598SOL     OW19429   3.448   4.434   1.704  0.6812 -0.1864 -0.1942
 2598SOL    HW119430   3.470   4.496   1.635 -2.4395 -1.2777 -2.1862
 2598SOL    HW219431   3.361   4.459   1.737  0.1461 -1.7904 -0.3981
 2599SOL     OW19432   0.140   4.237   8.682  0.0873  0.3026 -0.2140
 2599SOL    HW119433   0.055   4.204   8.712  0.4384 -1.3302 -1.0037
 2599SOL    HW219434   0.168   4.158   8.637 -1.1150 -0.6133  0.6446
 2600SOL     OW19435   3.562   2.592  10.730 -0.5050 -0.2286  0.4226
 2600SOL    HW119436   3.485   2.649  10.727  0.3443  1.0081  1.7668
 2600SOL    HW219437   3.618   2.635  10.795 -1.1875  0.0571  0.8252
 2601SOL     OW19438   2.998   1.917   1.339  0.3511 -0.3117 -0.1647
 2601SOL    HW119439   2.979   1.941   1.430  3.1975 -1.2973  0.6742
 2601SOL    HW219440   2.983   1.994   1.285  1.5466  0.9889  1.3836
 2602SOL     OW19441   1.090   4.652  13.096 -0.2930  0.3601 -0.2222
 2602SOL    HW119442   1.001   4.621  13.116  0.1120  0.0809  1.1418
 2602SOL    HW219443   1.136   4.581  13.052 -1.0459  0.3997 -1.0717
 2603SOL     OW19444   3.138   3.958   8.341  0.8293  0.1495  0.1257
 2603SOL    HW119445   3.187   3.908   8.406  2.3222  0.7911 -0.5105
 2603SOL    HW219446   3.075   3.892   8.312 -0.7549  2.4659 -1.6392
 2604SOL     OW19447   2.062   1.068  15.932  0.3206  0.0516 -0.7184
 2604SOL    HW119448   2.110   1.143  15.896 -1.6438  1.5526 -0.2294
 2604SOL    HW219449   2.009   1.104  16.004  1.1551  1.2268 -0.6806
 2605SOL     OW19450   2.898   2.617   2.689  0.7766 -0.0908 -0.1531
 2605SOL    HW119451   2.896   2.712   2.693 -2.4540 -0.1072 -1.2170
 2605SOL    HW219452   2.853   2.604   2.605  0.3507  3.8008 -0.5355
 2606SOL     OW19453   2.918   0.118   7.461  0.1363 -0.5773 -0.0648
 2606SOL    HW119454   2.914   0.207   7.426 -1.3897  0.2920  2.3126
 2606SOL    HW219455   2.829   0.107   7.496  0.4575 -1.2393  0.5474
 2607SOL     OW19456   0.906   2.923   2.061 -0.4081 -0.0424 -0.0287
 2607SOL    HW119457   0.815   2.896   2.056 -0.3922 -0.2434  0.8575
 2607SOL    HW219458   0.953   2.846   2.095 -0.6569  1.4036  3.5691
 2608SOL     OW19459   0.252   1.495  13.157  0.8162  0.3182  0.0161
 2608SOL    HW119460   0.220   1.585  13.156 -1.7113 -0.6386 -2.7637
 2608SOL    HW219461   0.331   1.516  13.107 -0.5926  0.2022 -2.2524
 2609SOL     OW19462   4.242   0.197   3.294 -0.9411 -0.7309 -0.4432
 2609SOL    HW119463   4.160   0.221   3.251 -1.7971 -1.1889  0.9621
 2609SOL    HW219464   4.223   0.104   3.303  0.2606 -0.8105  1.2424
 2610SOL     OW19465   1.450   0.316   1.570 -0.1996  0.1257  0.4938
 2610SOL    HW119466   1.538   0.322   1.607 -0.6019  0.4240  1.3967
 2610SOL    HW219467   1.410   0.291   1.654  0.6123 -3.9359 -0.3225
 2611SOL     OW19468   1.422   0.792  13.149 -0.6015  0.2141 -0.4981
 2611SOL    HW119469   1.362   0.754  13.084  2.8688 -3.3775 -1.6031
 2611SOL    HW219470   1.489   0.838  13.097  0.6697 -0.2221  0.7624
 2612SOL     OW19471   2.624   2.009   5.195  0.0874  0.1563  0.5152
 2612SOL    HW119472   2.615   2.092   5.241 -1.3184  1.6267 -2.3910
 2612SOL    HW219473   2.567   1.956   5.252 -1.7542  0.1605 -1.3239
 2613SOL     OW19474   2.130   3.590   4.184  0.7321  0.1669 -0.0360
 2613SOL    HW119475   2.225   3.586   4.173  0.7911  0.5812  0.3351
 2613SOL    HW219476   2.111   3.682   4.165 -0.9208  0.6145  3.7376
 2614SOL     OW19477   4.479   4.411   4.556  0.1594  0.6584 -0.0488
 2614SOL    HW119478   4.419   4.366   4.497 -1.5059  0.3233  1.8746
 2614SOL    HW219479   4.540   4.453   4.497  0.6877 -0.7018 -0.4660
 2615SOL     OW19480   4.205   0.614   9.744  0.2419 -0.1101 -0.5553
 2615SOL    HW119481   4.194   0.641   9.835 -0.8768 -1.6727 -0.2226
 2615SOL    HW219482   4.250   0.692   9.712 -0.2831  0.0515 -0.8980
 2616SOL     OW19483   3.229   1.436   3.125  0.0161 -0.1969  0.6976
 2616SOL    HW119484   3.144   1.445   3.083  0.2498 -1.3893 -0.0390
 2616SOL    HW219485   3.213   1.359   3.180  1.1647 -1.2544 -0.4559
 2617SOL     OW19486   1.661   0.744  12.604  0.4734 -0.2455  0.0067
 2617SOL    HW119487   1.728   0.811  12.589  0.7568 -0.8431 -1.3980
 2617SOL    HW219488   1.685   0.702  12.686  0.6636  0.0638  0.1091
 2618SOL     OW19489   1.983   3.382   9.978 -0.0227  0.3117  0.4231
 2618SOL    HW119490   1.958   3.290   9.992  1.9865  0.0037  1.9674
 2618SOL    HW219491   2.074   3.371  10.006 -1.6669 -3.2757  4.4237
 2619SOL     OW19492   1.467   1.059  14.024 -0.3512  0.2999  0.4283
 2619SOL    HW119493   1.534   1.008  13.979  0.5667  1.4447  0.5031
 2619SOL    HW219494   1.524   1.096  14.092  0.6210 -0.2053 -0.1176
 2620SOL     OW19495   1.169   0.812   7.124 -0.3451 -0.2657  0.5673
 2620SOL    HW119496   1.134   0.860   7.049  0.2257 -1.8816 -0.7512
 2620SOL    HW219497   1.090   0.785   7.171 -1.1098  1.0864  0.0734
 2621SOL     OW19498   1.252   0.771   5.239 -0.3319 -0.3190  0.7472
 2621SOL    HW119499   1.222   0.806   5.155 -1.0347  0.0325  1.1481
 2621SOL    HW219500   1.205   0.833   5.294 -0.1235  0.3806  0.1372
 2622SOL     OW19501   3.445   3.422   6.473  0.2004 -0.5728  0.3399
 2622SOL    HW119502   3.417   3.337   6.508 -1.4455 -0.8467 -1.6208
 2622SOL    HW219503   3.372   3.479   6.498  1.7147  1.3532  0.3853
 2623SOL     OW19504   2.568   1.367   9.282 -0.1627  0.2609  0.2559
 2623SOL    HW119505   2.614   1.409   9.210  0.0444  1.7084  1.2261
 2623SOL    HW219506   2.591   1.426   9.354  0.4299  0.3247  0.0067
 2624SOL     OW19507   0.282   4.490  14.186 -0.1632  0.3985  0.4262
 2624SOL    HW119508   0.284   4.498  14.090  0.1158 -0.8211  0.3347
 2624SOL    HW219509   0.209   4.428  14.191  0.6129 -0.6183 -0.8736
 2625SOL     OW19510   4.018   3.036   0.821  0.4039 -0.8729  0.3523
 2625SOL    HW119511   3.963   3.020   0.745 -0.1999  3.7275 -0.2039
 2625SOL    HW219512   4.048   3.125   0.801  0.1301 -0.9550 -0.4028
 2626SOL     OW19513   3.007   0.169   8.265  0.7424 -0.2871  0.0361
 2626SOL    HW119514   3.082   0.200   8.215 -0.8314  2.0948 -0.8999
 2626SOL    HW219515   3.026   0.076   8.263 -0.5540 -0.5540  0.2334
 2627SOL     OW19516   3.126   1.887  10.022 -0.0400  0.3358  0.3494
 2627SOL    HW119517   3.085   1.816   9.973  0.2085  0.0844  0.5068
 2627SOL    HW219518   3.077   1.963   9.991 -0.1899  0.2084  0.2739
 2628SOL     OW19519   3.859   4.062   4.650  0.4627  0.5458 -0.0586
 2628SOL    HW119520   3.917   3.988   4.631 -1.8262 -1.5862  1.2361
 2628SOL    HW219521   3.783   4.018   4.613  1.0496 -1.9082  1.6940
 2629SOL     OW19522   4.339   2.838   5.903 -0.7271  0.4194  0.1464
 2629SOL    HW119523   4.253   2.873   5.881 -0.6950 -0.4538 -1.3927
 2629SOL    HW219524   4.401   2.909   5.887  1.1188 -1.5050 -1.2287
 2630SOL     OW19525   4.004   0.292   4.995  0.3527  0.1815  0.0682
 2630SOL    HW119526   4.056   0.219   5.029 -1.6885  0.1269  3.1332
 2630SOL    HW219527   3.943   0.321   5.063 -0.5986 -0.0063 -0.7097
 2631SOL     OW19528   4.115   0.969   2.312  0.2825  0.1473  0.5767
 2631SOL    HW119529   4.021   0.978   2.328  0.1412  0.9237 -0.6436
 2631SOL    HW219530   4.143   0.908   2.380 -0.1370  0.0655  0.6751
 2632SOL     OW19531   1.170   3.557   4.842  0.0494  0.3661 -0.0260
 2632SOL    HW119532   1.167   3.501   4.919 -1.5984  0.1203 -0.2712
 2632SOL    HW219533   1.079   3.585   4.836 -0.7196 -1.7216  2.3719
 2633SOL     OW19534   1.331   4.374   9.289  0.4933  0.4130  0.2142
 2633SOL    HW119535   1.324   4.289   9.245 -0.1498 -0.3616  1.7910
 2633SOL    HW219536   1.367   4.356   9.376 -1.5790 -1.3915  0.7134
 2634SOL     OW19537   2.238   2.977   8.032 -0.3239 -0.1802 -0.7224
 2634SOL    HW119538   2.244   2.885   8.056 -0.8880  0.1532  0.7032
 2634SOL    HW219539   2.314   2.986   7.975 -0.0235 -1.2479 -0.4810
 2635SOL     OW19540   3.658   1.170   3.525  0.2773 -0.1128  0.0774
 2635SOL    HW119541   3.741   1.175   3.478 -0.4323 -2.0831 -1.3960
 2635SOL    HW219542   3.598   1.168   3.450 -1.8664 -1.6929  1.8098
 2636SOL     OW19543   0.111   0.172   4.867 -0.3674 -0.1189  0.6874
 2636SOL    HW119544   0.116   0.084   4.829 -0.6173 -0.2756  1.0187
 2636SOL    HW219545   0.119   0.136   4.955  1.9410  1.2885  1.0352
 2637SOL     OW19546   3.681   3.224   7.328 -0.4906 -0.4195 -0.2235
 2637SOL    HW119547   3.769   3.209   7.293  0.4812  2.4627  0.9918
 2637SOL    HW219548   3.645   3.181   7.251 -1.2857 -1.0029  0.4764
 2638SOL     OW19549   4.559   3.441  16.961 -0.4583  0.0981  0.4680
 2638SOL    HW119550   4.559   3.405  17.050  2.3452  0.0076  0.4138
 2638SOL    HW219551   4.564   3.367  16.902 -1.2408 -0.9009  1.6415
 2639SOL     OW19552   0.668   4.046  15.072 -0.8543 -0.0960 -1.1353
 2639SOL    HW119553   0.752   4.042  15.117 -1.4459  0.2724  0.0013
 2639SOL    HW219554   0.619   4.114  15.119  1.7010  1.0450 -0.1297
 2640SOL     OW19555   0.079   0.447   6.477  0.3302 -0.4156 -0.1412
 2640SOL    HW119556   0.110   0.460   6.388 -1.1226  1.6781 -0.3307
 2640SOL    HW219557   4.731   0.492   6.477  0.4810 -0.1405 -2.0511
 2641SOL     OW19558   2.856   1.743   2.220 -0.7163  0.3741  0.0068
 2641SOL    HW119559   2.917   1.750   2.147 -1.9258 -0.8090 -1.1223
 2641SOL    HW219560   2.770   1.744   2.177 -1.1972  0.6447  0.9754
 2642SOL     OW19561   0.489   3.428   3.916 -0.1071  0.5488 -0.6673
 2642SOL    HW119562   0.431   3.370   3.866  0.2888  0.1408 -0.6540
 2642SOL    HW219563   0.444   3.445   3.999 -0.7931 -2.0118 -0.5199
 2643SOL     OW19564   0.449   0.904   5.842  0.3356 -0.0924 -0.4874
 2643SOL    HW119565   0.417   0.869   5.759 -2.7506  2.4012 -0.3266
 2643SOL    HW219566   0.409   0.990   5.846  0.3656 -0.0934 -0.2104
 2644SOL     OW19567   2.174   0.083   6.551 -0.2134  0.5092 -0.7519
 2644SOL    HW119568   2.213   0.118   6.471  0.8477  0.0851 -0.4230
 2644SOL    HW219569   2.093   0.040   6.525 -0.6103  1.2832 -0.7917
 2645SOL     OW19570   2.596   4.662   1.524 -0.8000  0.4820 -0.4016
 2645SOL    HW119571   2.647   4.587   1.556  0.8098  2.0889  0.7590
 2645SOL    HW219572   2.675   4.706   1.493  0.3444  0.2900  2.2757
 2646SOL     OW19573   4.161   2.528   6.513 -0.5937  0.5885  0.2773
 2646SOL    HW119574   4.226   2.473   6.469  0.0965  0.6877  1.1870
 2646SOL    HW219575   4.139   2.597   6.451 -3.1586 -0.8267 -0.4195
 2647SOL     OW19576   3.836   2.557   4.827  0.2122  0.6324  0.2401
 2647SOL    HW119577   3.891   2.492   4.783 -0.4325 -0.1709  0.6249
 2647SOL    HW219578   3.860   2.540   4.919 -1.0110  1.2887  0.6863
 2648SOL     OW19579   4.483   3.989   4.862  0.3517  0.0448 -0.2913
 2648SOL    HW119580   4.487   4.004   4.768  1.5628  0.5751 -0.1624
 2648SOL    HW219581   4.428   3.912   4.877  2.5795 -1.8948 -2.1758
 2649SOL     OW19582   4.440   2.030   3.607 -0.5206  0.1379  0.3593
 2649SOL    HW119583   4.507   2.090   3.640  0.7475 -0.5098 -1.0673
 2649SOL    HW219584   4.403   2.088   3.541 -0.0591  0.0788  0.0465
 2650SOL     OW19585   1.737   0.638   5.185  0.3292 -0.2567  0.0609
 2650SOL    HW119586   1.692   0.716   5.218  1.2114  0.5645 -0.6884
 2650SOL    HW219587   1.780   0.672   5.106  2.8740  0.0735  1.5959
 2651SOL     OW19588   2.916   3.543   2.391  0.2313  0.3175  0.1000
 2651SOL    HW119589   2.912   3.510   2.481 -0.5342  2.3460  0.8184
 2651SOL    HW219590   2.864   3.474   2.349 -0.1688  0.8941 -0.3562
 2652SOL     OW19591   3.542   4.373   3.949 -0.0982  0.1369 -0.4974
 2652SOL    HW119592   3.483   4.441   3.916  0.4932  1.6367  1.5158
 2652SOL    HW219593   3.489   4.343   4.024 -1.0361  1.0770 -0.7787
 2653SOL     OW19594   2.629   1.767   2.085 -0.4583 -0.6654  0.3380
 2653SOL    HW119595   2.549   1.722   2.112 -1.3411  0.3189 -0.6696
 2653SOL    HW219596   2.624   1.739   1.994  0.1364  0.3273  0.0035
 2654SOL     OW19597   0.270   2.945   8.791 -0.0140  0.1391  0.2380
 2654SOL    HW119598   0.334   3.008   8.759 -1.7529  0.8212 -1.9239
 2654SOL    HW219599   0.205   2.995   8.840  0.2941 -0.3349  1.1293
 2655SOL     OW19600   1.290   0.773   6.315  0.8318 -0.1473  0.1296
 2655SOL    HW119601   1.376   0.794   6.280  1.2219 -1.2128  0.4533
 2655SOL    HW219602   1.280   0.681   6.292  2.3284 -0.6291  1.4873
 2656SOL     OW19603   3.431   0.544   6.487  0.3892  0.1149 -0.0593
 2656SOL    HW119604   3.387   0.479   6.542 -0.1533  1.0662  0.6345
 2656SOL    HW219605   3.513   0.563   6.532  0.8837 -0.3576 -0.7583
 2657SOL     OW19606   3.638   4.118  15.567  0.2357 -0.4038  0.2472
 2657SOL    HW119607   3.648   4.058  15.493 -1.2852 -1.4571  0.8886
 2657SOL    HW219608   3.546   4.105  15.591  0.4734 -0.9201  0.8666
 2658SOL     OW19609   1.925   0.875  12.569  0.1338 -0.3047  0.5304
 2658SOL    HW119610   1.998   0.937  12.569 -0.3366  0.2450  1.1468
 2658SOL    HW219611   1.959   0.789  12.544  1.2449  0.8678 -2.0938
 2659SOL     OW19612   3.798   1.999   5.164 -1.0730  0.0495 -0.1630
 2659SOL    HW119613   3.809   1.910   5.132 -1.6015  0.3916 -1.2774
 2659SOL    HW219614   3.735   1.980   5.234 -1.2240  0.6805 -0.1299
 2660SOL     OW19615   1.163   0.328   3.260 -0.4876  0.5152  0.1938
 2660SOL    HW119616   1.091   0.391   3.259 -0.6797  0.3158  1.6944
 2660SOL    HW219617   1.201   0.345   3.346 -0.7141  1.7103  0.0504
 2661SOL     OW19618   4.599   2.886  14.516  0.0832  0.4636 -0.7353
 2661SOL    HW119619   4.520   2.926  14.478 -0.7399 -1.3045 -0.8919
 2661SOL    HW219620   4.614   2.817  14.451 -0.2234 -0.0034 -0.3143
 2662SOL     OW19621   1.608   2.362  15.911 -0.2327  0.3594 -0.1680
 2662SOL    HW119622   1.656   2.365  15.829 -0.8864 -0.3827 -0.5829
 2662SOL    HW219623   1.605   2.457  15.913  0.2748  0.3636  0.5664
 2663SOL     OW19624   3.508   1.010   6.991 -0.3289  0.1620  0.9578
 2663SOL    HW119625   3.481   1.071   6.922 -0.1056 -1.2453 -0.3668
 2663SOL    HW219626   3.471   0.928   6.959  0.5884  0.4095 -0.7538
 2664SOL     OW19627   1.462   1.161   4.843  0.1383  0.5321  0.2904
 2664SOL    HW119628   1.404   1.165   4.766 -1.6443  0.4213  1.6191
 2664SOL    HW219629   1.508   1.080   4.824  0.5572  0.8714 -0.1362
 2665SOL     OW19630   1.514   3.919   7.267 -0.3968 -0.0965 -0.1851
 2665SOL    HW119631   1.540   3.984   7.202  0.2473  0.0074  0.1739
 2665SOL    HW219632   1.568   3.952   7.339  1.3596 -0.1239 -1.4826
 2666SOL     OW19633   3.843   1.107  13.061  0.3781  0.2419  0.2226
 2666SOL    HW119634   3.930   1.067  13.061  0.2587 -0.0264  1.2039
 2666SOL    HW219635   3.801   1.042  13.117 -0.6641 -1.2993 -2.3815
 2667SOL     OW19636   2.959   0.968  12.688 -0.1676 -0.1834  0.3900
 2667SOL    HW119637   2.916   1.039  12.640  1.0207 -0.6657 -1.3766
 2667SOL    HW219638   2.944   0.989  12.780  0.5559 -0.5949  0.5984
 2668SOL     OW19639   2.719   2.933   6.844  0.4245  0.0975 -0.1923
 2668SOL    HW119640   2.700   2.840   6.857 -0.0766  0.4399  1.5057
 2668SOL    HW219641   2.766   2.924   6.761 -0.0747  0.3773 -0.5084
 2669SOL     OW19642   3.579   1.138   2.392  0.1302 -0.3475  0.5221
 2669SOL    HW119643   3.561   1.230   2.373 -0.6495 -1.0833 -2.3331
 2669SOL    HW219644   3.543   1.129   2.480  3.3051  0.7104  1.9141
 2670SOL     OW19645   1.848   0.797   6.992  0.3309  0.0103  0.3109
 2670SOL    HW119646   1.805   0.796   7.077  1.9435  0.2563  1.1321
 2670SOL    HW219647   1.783   0.749   6.940 -1.4065  0.7314  1.8105
 2671SOL     OW19648   2.730   0.215  11.719 -0.5026  0.6451  0.1007
 2671SOL    HW119649   2.752   0.245  11.807  0.2996  1.7973 -0.4914
 2671SOL    HW219650   2.812   0.240  11.676 -1.0318  0.8270 -0.8141
 2672SOL     OW19651   1.214   2.188   2.710  0.3948 -0.3360 -0.0399
 2672SOL    HW119652   1.162   2.233   2.643 -0.8870 -0.9915  0.5115
 2672SOL    HW219653   1.288   2.248   2.704  1.5540 -2.0149 -2.8170
 2673SOL     OW19654   3.963   0.529   8.310 -0.0124  0.6376 -0.0149
 2673SOL    HW119655   3.963   0.455   8.249 -1.2089  1.2318 -0.7439
 2673SOL    HW219656   4.046   0.567   8.283 -0.0475  0.1129 -0.8514
 2674SOL     OW19657   4.705   2.051   4.713  0.6960 -0.2267 -0.3442
 2674SOL    HW119658   0.031   2.018   4.778 -1.5764 -1.4064  1.2275
 2674SOL    HW219659   4.674   2.124   4.767 -2.0204 -2.0202  0.4856
 2675SOL     OW19660   1.224   0.858   1.278 -0.3907  0.1524  0.0654
 2675SOL    HW119661   1.317   0.863   1.300 -0.1026 -0.7263 -0.9713
 2675SOL    HW219662   1.235   0.880   1.185  1.0001  0.5107  0.3166
 2676SOL     OW19663   2.316   4.362   5.039  0.1006 -0.4048  0.2295
 2676SOL    HW119664   2.340   4.400   5.124  0.5864  1.5797 -0.8143
 2676SOL    HW219665   2.228   4.330   5.061 -0.6711 -0.7149 -3.3959
 2677SOL     OW19666   2.098   4.205   2.348 -0.4656 -0.2770  0.1229
 2677SOL    HW119667   2.131   4.166   2.428  0.6233 -1.1919 -0.7704
 2677SOL    HW219668   2.028   4.143   2.326 -1.1462  0.2599  0.7520
 2678SOL     OW19669   3.857   0.535   7.448 -0.3640 -0.1285  0.1683
 2678SOL    HW119670   3.935   0.566   7.401  1.4530  0.2132  3.4539
 2678SOL    HW219671   3.837   0.607   7.508 -0.9471  0.5209 -0.8084
 2679SOL     OW19672   1.667   2.259   5.579 -0.1247  0.4690 -0.4430
 2679SOL    HW119673   1.581   2.219   5.567 -1.2439  2.2383  1.8129
 2679SOL    HW219674   1.671   2.333   5.518  2.5518  2.2656  1.9257
 2680SOL     OW19675   0.890   2.627   8.349  0.0788 -0.4837  0.5738
 2680SOL    HW119676   0.795   2.620   8.347  0.1285 -1.2628  0.8369
 2680SOL    HW219677   0.919   2.536   8.357  1.2913 -0.2951 -1.5979
 2681SOL     OW19678   0.983   4.726   4.337 -0.0077  0.3937 -0.3350
 2681SOL    HW119679   0.952   0.015   4.250  0.0387 -1.7504 -0.9709
 2681SOL    HW219680   0.904   4.681   4.369 -0.3701 -1.2432 -3.5355
 2682SOL     OW19681   3.775   0.252  12.546 -0.3683 -0.4448 -0.3768
 2682SOL    HW119682   3.847   0.215  12.494  0.0305  0.4720 -0.4673
 2682SOL    HW219683   3.745   0.305  12.473 -1.3557 -0.0638  0.3157
 2683SOL     OW19684   4.006   1.801   1.127 -0.0432  0.3738  0.1838
 2683SOL    HW119685   3.942   1.732   1.109  0.0827 -0.2032  1.8519
 2683SOL    HW219686   4.036   1.785   1.217  1.2259 -0.8275 -0.4684
 2684SOL     OW19687   1.397   0.876   3.663 -1.0038  0.4879  0.5217
 2684SOL    HW119688   1.478   0.868   3.714  1.0327  1.1863 -2.5715
 2684SOL    HW219689   1.347   0.797   3.683 -0.9677  0.4853  0.6021
 2685SOL     OW19690   4.534   1.240  13.138 -0.5644 -0.4593 -0.2051
 2685SOL    HW119691   4.613   1.275  13.095  0.4309 -1.9437  0.4292
 2685SOL    HW219692   4.468   1.299  13.101  0.9031  0.8109 -0.8018
 2686SOL     OW19693   3.812   0.862   4.125  0.7421 -0.5631 -0.3239
 2686SOL    HW119694   3.895   0.839   4.167  1.2425 -1.3651 -1.7665
 2686SOL    HW219695   3.760   0.800   4.175 -0.4332  2.0618  1.7419
 2687SOL     OW19696   2.251   0.508   4.121  0.4375 -0.3045 -0.5363
 2687SOL    HW119697   2.266   0.416   4.101 -0.3558 -0.8964  1.6006
 2687SOL    HW219698   2.283   0.552   4.042  3.0632 -0.5528  0.3758
 2688SOL     OW19699   0.749   0.808   4.365  0.2700  0.2336  0.0860
 2688SOL    HW119700   0.714   0.754   4.435  0.8821  0.2878  0.4277
 2688SOL    HW219701   0.689   0.884   4.368  0.7352  0.7192 -2.7575
 2689SOL     OW19702   2.093   2.166  12.659 -0.1959  0.4954  0.1395
 2689SOL    HW119703   2.114   2.241  12.603 -1.0195  0.5969 -0.0331
 2689SOL    HW219704   2.003   2.150  12.630 -0.2278 -0.3979  0.7593
 2690SOL     OW19705   1.487   3.505   4.012  0.0568 -0.4401  0.6259
 2690SOL    HW119706   1.397   3.514   3.981 -0.4709  2.1617  2.9575
 2690SOL    HW219707   1.526   3.573   3.957 -2.3628  0.2191 -0.2707
 2691SOL     OW19708   1.342   4.577   3.617  0.2640  0.3810 -0.1460
 2691SOL    HW119709   1.406   4.552   3.550 -1.1514 -1.0061 -0.9871
 2691SOL    HW219710   1.260   4.538   3.585  0.2246 -0.3036  0.7826
 2692SOL     OW19711   3.903   3.097   5.721 -0.4987  0.0326 -0.5680
 2692SOL    HW119712   3.940   3.183   5.701 -0.4470  0.4631  1.3770
 2692SOL    HW219713   3.828   3.090   5.662 -0.5305 -1.4372 -0.3362
 2693SOL     OW19714   2.362   1.435   3.649  0.4507 -0.2825 -0.3806
 2693SOL    HW119715   2.332   1.345   3.652  0.8861 -0.3779  1.2159
 2693SOL    HW219716   2.410   1.436   3.566 -0.0783 -0.3960 -0.6877
 2694SOL     OW19717   2.099   2.388   2.434 -0.3895 -0.3263  0.6073
 2694SOL    HW119718   2.024   2.446   2.424 -1.1020 -1.4142 -0.4087
 2694SOL    HW219719   2.150   2.447   2.490 -0.9193  0.8466 -0.1472
 2695SOL     OW19720   1.546   2.205  11.619 -0.6831 -0.3911 -0.3921
 2695SOL    HW119721   1.530   2.117  11.653  1.2299 -0.6765 -0.2408
 2695SOL    HW219722   1.603   2.191  11.543  0.7059  0.9042  0.4071
 2696SOL     OW19723   0.640   2.281   6.733  0.2041  0.3167  0.1465
 2696SOL    HW119724   0.596   2.231   6.665  1.7165 -1.1071  0.2208
 2696SOL    HW219725   0.566   2.277   6.794  1.2960  0.5501  1.5082
 2697SOL     OW19726   3.020   3.579   6.815  0.2744 -0.3158 -0.1709
 2697SOL    HW119727   3.102   3.577   6.766  0.9399  0.4564  0.9052
 2697SOL    HW219728   3.051   3.541   6.898 -0.3641  1.2632  0.7930
 2698SOL     OW19729   2.320   0.488   5.268 -0.5548 -0.3959 -0.4603
 2698SOL    HW119730   2.336   0.508   5.176  3.1638  1.0227  0.4841
 2698SOL    HW219731   2.384   0.420   5.288 -1.0566  0.2839  3.6103
 2699SOL     OW19732   0.861   3.505   8.886  0.2138  0.3056 -0.0381
 2699SOL    HW119733   0.817   3.432   8.841  0.8672 -0.1097  0.0022
 2699SOL    HW219734   0.946   3.463   8.875  0.8442  1.9933 -1.6585
 2700SOL     OW19735   0.834   1.026   8.372  0.5844 -0.3403  0.5925
 2700SOL    HW119736   0.759   0.989   8.326 -1.8638  1.9781  2.7192
 2700SOL    HW219737   0.795   1.089   8.433  0.9280 -0.4722  0.9501
 2701SOL     OW19738   3.889   3.254  11.528 -0.0105  0.1429 -0.1331
 2701SOL    HW119739   3.934   3.318  11.583 -2.2655  0.8301  0.9048
 2701SOL    HW219740   3.819   3.304  11.488 -2.0370 -1.9363  0.8068
 2702SOL     OW19741   1.260   0.810  14.645 -0.1177  0.0796  0.1406
 2702SOL    HW119742   1.166   0.815  14.663 -0.6097 -2.7695 -1.6317
 2702SOL    HW219743   1.298   0.753  14.712 -0.5784 -2.7392 -2.0026
 2703SOL     OW19744   1.956   4.711  16.992  0.3885  0.1059  0.4764
 2703SOL    HW119745   2.012   4.646  16.950  0.2317  0.2172  0.0919
 2703SOL    HW219746   2.025   0.016  17.045 -1.9137  1.8795  2.0523
 2704SOL     OW19747   4.284   1.456   2.131 -0.3732 -0.5110  0.1255
 2704SOL    HW119748   4.284   1.478   2.037 -0.0381  2.2347  0.7690
 2704SOL    HW219749   4.243   1.534   2.170 -1.7778 -2.1762  1.9731
 2705SOL     OW19750   2.257   3.593   3.048 -0.0052 -0.0571  0.6623
 2705SOL    HW119751   2.245   3.686   3.027 -3.5958 -0.7352 -0.2914
 2705SOL    HW219752   2.352   3.587   3.038  0.4470  3.4686  2.5584
 2706SOL     OW19753   0.656   1.016   3.128  0.3417 -0.2246 -0.0210
 2706SOL    HW119754   0.565   1.044   3.116  0.0843 -1.0598  0.0133
 2706SOL    HW219755   0.689   1.096   3.171  2.8190 -0.7042 -1.0419
 2707SOL     OW19756   0.534   0.685   1.887 -0.7923  0.1365  0.1690
 2707SOL    HW119757   0.556   0.639   1.968  1.4689  0.3721 -0.3104
 2707SOL    HW219758   0.440   0.673   1.873 -0.3710 -0.3205 -2.3066
 2708SOL     OW19759   0.160   2.457   2.368  0.4346  0.0409  0.6573
 2708SOL    HW119760   0.227   2.413   2.420  1.2954 -0.2141 -0.6756
 2708SOL    HW219761   0.080   2.437   2.417 -0.2778 -0.2836 -0.6600
 2709SOL     OW19762   4.141   1.195   2.131 -0.2668 -0.6864  0.0127
 2709SOL    HW119763   4.174   1.140   2.202  0.6269 -0.6966 -0.4085
 2709SOL    HW219764   4.192   1.272   2.158 -1.8714 -0.0965  1.3824
 2710SOL     OW19765   4.735   1.108   4.583 -0.4686  0.1905 -0.5327
 2710SOL    HW119766   4.692   1.192   4.568 -1.8077 -0.2244  0.8846
 2710SOL    HW219767   4.690   1.051   4.521 -0.4854 -0.5620  0.1645
 2711SOL     OW19768   0.465   4.361   4.301 -0.0122 -0.6129  0.0673
 2711SOL    HW119769   0.389   4.390   4.249  0.3797 -2.1506 -1.3610
 2711SOL    HW219770   0.502   4.449   4.307 -0.3189 -0.4710 -0.0947
 2712SOL     OW19771   0.250   0.607  17.282  0.9268 -0.0757  0.1144
 2712SOL    HW119772   0.158   0.606  17.310  1.2566  1.3496  1.2754
 2712SOL    HW219773   0.257   0.512  17.276  1.0142 -0.0335 -0.4587
 2713SOL     OW19774   4.063   4.351   6.563 -0.0041  0.6479  0.5423
 2713SOL    HW119775   3.980   4.312   6.534  0.4454 -0.0497  0.1834
 2713SOL    HW219776   4.134   4.314   6.510  0.5262 -1.2405  2.5874
 2714SOL     OW19777   0.829   0.969   5.205 -0.2580  0.3389 -0.1074
 2714SOL    HW119778   0.875   1.012   5.276 -2.0227 -0.1747  1.3382
 2714SOL    HW219779   0.742   0.975   5.242 -0.2902  2.9829 -0.5996
 2715SOL     OW19780   3.504   0.179   7.296 -0.2247  0.7140  0.4574
 2715SOL    HW119781   3.420   0.225   7.288 -0.8096 -0.3247  0.4859
 2715SOL    HW219782   3.533   0.209   7.382 -0.6281 -0.2936  0.9551
 2716SOL     OW19783   2.701   1.888   8.969  0.0053 -0.2253 -0.8940
 2716SOL    HW119784   2.649   1.963   8.999 -0.3678 -0.6739 -0.4262
 2716SOL    HW219785   2.785   1.905   9.012  0.1260  1.9462 -1.9441
 2717SOL     OW19786   1.720   2.925  12.627 -0.1962  0.1740  0.2182
 2717SOL    HW119787   1.751   2.928  12.717  1.3571 -0.2827 -0.2920
 2717SOL    HW219788   1.660   2.850  12.624  0.7329 -0.5354 -0.7497
 2718SOL     OW19789   0.646   3.297   9.666 -0.2861  0.1886 -0.7638
 2718SOL    HW119790   0.741   3.303   9.675 -0.4663 -0.2633  1.3435
 2718SOL    HW219791   0.620   3.384   9.698 -0.7612 -0.6908  1.2446
 2719SOL     OW19792   1.488   1.316   1.837  0.2182  0.3682 -0.3319
 2719SOL    HW119793   1.463   1.390   1.893 -0.3340  0.5059 -0.7531
 2719SOL    HW219794   1.449   1.342   1.753  0.0899 -2.7369 -1.2314
 2720SOL     OW19795   1.194   1.380   3.044  0.4940 -0.3334  0.7888
 2720SOL    HW119796   1.167   1.321   2.973  0.8090  0.3225  0.1338
 2720SOL    HW219797   1.111   1.379   3.092  0.0552  0.4296  0.0354
 2721SOL     OW19798   0.012   3.261   5.075 -0.0632 -0.4085 -0.2354
 2721SOL    HW119799   0.027   3.196   5.007 -1.0914 -1.0300  0.1362
 2721SOL    HW219800   4.655   3.274   5.059 -0.4018 -0.3158  1.8195
 2722SOL     OW19801   0.825   1.478  16.444  0.1124  0.0071  0.0851
 2722SOL    HW119802   0.803   1.387  16.425  2.0849 -0.0881 -1.7147
 2722SOL    HW219803   0.918   1.466  16.463  0.0343 -1.3330 -0.4237
 2723SOL     OW19804   2.659   0.333   5.744  0.1119  0.5890 -0.3114
 2723SOL    HW119805   2.703   0.386   5.810  0.0174 -0.3414  0.5013
 2723SOL    HW219806   2.660   0.389   5.667 -3.3154  0.8825 -0.1263
 2724SOL     OW19807   4.378   3.809  12.460 -0.5158  0.4730 -0.3527
 2724SOL    HW119808   4.461   3.850  12.485  0.6305 -0.2870 -2.9039
 2724SOL    HW219809   4.393   3.724  12.500 -2.7016  0.0159 -0.5019
 2725SOL     OW19810   3.660   4.090   2.494 -0.6731 -0.2162  0.3633
 2725SOL    HW119811   3.601   4.015   2.484 -1.7159  0.6357  0.0851
 2725SOL    HW219812   3.686   4.069   2.583 -2.2542  2.1085  1.3763
 2726SOL     OW19813   2.530   0.333   2.432 -0.2694  0.3270 -0.0168
 2726SOL    HW119814   2.536   0.381   2.349  0.1886  0.0779 -0.1299
 2726SOL    HW219815   2.482   0.401   2.480 -0.5253  1.9036 -2.5232
 2727SOL     OW19816   0.148   1.686  13.807  0.0498 -0.3377 -0.4752
 2727SOL    HW119817   0.208   1.616  13.781  0.1642  0.3942 -2.1033
 2727SOL    HW219818   0.143   1.666  13.901 -0.7973 -1.3922 -0.7404
 2728SOL     OW19819   4.248   3.057   9.584 -0.2550 -0.9638  0.5811
 2728SOL    HW119820   4.185   3.066   9.513  1.9622  1.0241 -1.1024
 2728SOL    HW219821   4.327   3.100   9.552 -1.8058  1.6320  0.2218
 2729SOL     OW19822   3.586   2.321  11.794  0.3087 -0.7649 -0.1435
 2729SOL    HW119823   3.551   2.407  11.770  1.3782  0.1367  1.5859
 2729SOL    HW219824   3.625   2.288  11.713  1.6238  0.4777  0.0059
 2730SOL     OW19825   0.199   0.239  14.225 -0.3100 -0.4843  0.6239
 2730SOL    HW119826   0.252   0.186  14.165 -0.1430 -2.5993  2.6723
 2730SOL    HW219827   0.256   0.244  14.301 -1.2270 -0.3255  1.2951
 2731SOL     OW19828   3.410   0.743   8.832  0.3108  0.4362  0.1263
 2731SOL    HW119829   3.430   0.659   8.791 -0.6224  0.6748 -0.8240
 2731SOL    HW219830   3.435   0.720   8.922  0.4876 -0.9379 -0.2885
 2732SOL     OW19831   3.777   2.353   6.101  0.2550 -0.0304  0.1409
 2732SOL    HW119832   3.747   2.288   6.037  3.4754  0.0492 -1.4510
 2732SOL    HW219833   3.721   2.429   6.083  0.1354  0.0832  0.9934
 2733SOL     OW19834   1.868   4.069  16.309  0.8662 -0.4027 -0.0882
 2733SOL    HW119835   1.844   4.062  16.216  2.0900 -1.6869 -0.3109
 2733SOL    HW219836   1.963   4.057  16.316  1.0158  0.3504 -0.8052
 2734SOL     OW19837   1.305   1.279   3.994 -0.1138  0.0176  0.0267
 2734SOL    HW119838   1.377   1.249   4.050 -0.0153 -2.8111 -1.6015
 2734SOL    HW219839   1.268   1.206   3.944 -0.9246  0.5519 -0.1547
 2735SOL     OW19840   1.235   1.530   1.349 -0.1799  0.3791  0.0421
 2735SOL    HW119841   1.246   1.599   1.284  0.7986  0.4641  0.2933
 2735SOL    HW219842   1.322   1.520   1.387 -0.4034 -2.3073 -0.1571
 2736SOL     OW19843   3.006   1.206   9.764 -0.2947  0.0758  0.3981
 2736SOL    HW119844   2.930   1.192   9.708 -0.3776 -1.1083  0.8120
 2736SOL    HW219845   3.066   1.164   9.703 -1.3492 -1.9139  0.7468
 2737SOL     OW19846   3.967   2.510   6.227  0.3582  0.1220 -0.3158
 2737SOL    HW119847   3.909   2.586   6.231 -0.3172 -0.4016 -0.0636
 2737SOL    HW219848   3.899   2.444   6.213  0.1592  0.2540  0.0163
 2738SOL     OW19849   1.314   4.053   5.757 -0.3126  0.4162  0.1990
 2738SOL    HW119850   1.385   4.116   5.763 -1.9671  2.2052  1.0222
 2738SOL    HW219851   1.338   4.008   5.676  1.4085 -0.2246  1.0798
 2739SOL     OW19852   2.801   1.199  17.520  0.1368 -0.0348 -1.1744
 2739SOL    HW119853   2.707   1.200  17.500 -1.0510  1.0812  4.4984
 2739SOL    HW219854   2.785   1.165  17.608  1.3757  0.3038 -0.8246
 2740SOL     OW19855   2.333   4.510   2.779  0.3921 -0.4195 -0.0712
 2740SOL    HW119856   2.274   4.523   2.853  2.4107 -1.4899  1.7038
 2740SOL    HW219857   2.348   4.596   2.739 -0.6593 -0.4313 -0.4941
 2741SOL     OW19858   3.192   1.696   4.394 -0.1921  0.3425 -0.1732
 2741SOL    HW119859   3.188   1.789   4.419 -2.8377  1.0557 -3.2541
 2741SOL    HW219860   3.099   1.683   4.379 -0.5405 -0.1705  2.5122
 2742SOL     OW19861   0.441   0.774   6.623 -0.6168  0.1705  0.4106
 2742SOL    HW119862   0.454   0.713   6.550  0.2415  1.5105 -0.5728
 2742SOL    HW219863   0.371   0.826   6.584 -1.2835 -1.4389 -0.5229
 2743SOL     OW19864   4.105   1.805   5.249  0.1598 -0.2067 -0.0789
 2743SOL    HW119865   4.178   1.777   5.194  0.4590  0.2646  0.0756
 2743SOL    HW219866   4.134   1.781   5.337 -1.4184 -0.2545  0.4324
 2744SOL     OW19867   3.028   2.669  16.340 -0.2452  0.2650  0.1289
 2744SOL    HW119868   3.061   2.605  16.277  0.9088 -0.6674  1.7162
 2744SOL    HW219869   2.937   2.684  16.313  0.4139 -0.9192 -2.7129
 2745SOL     OW19870   0.587   0.875  13.335 -0.0163 -0.3776  0.2224
 2745SOL    HW119871   0.579   0.802  13.273  2.2299  0.7233 -1.3557
 2745SOL    HW219872   0.561   0.831  13.416 -1.1873  1.3631  0.7856
 2746SOL     OW19873   4.120   1.463   0.646 -0.3400  0.0623  0.3442
 2746SOL    HW119874   4.150   1.554   0.652  1.7641 -0.6513  0.6453
 2746SOL    HW219875   4.161   1.446   0.560 -0.4921  0.5630  0.1701
 2747SOL     OW19876   0.105   4.724   8.235 -0.2044  0.2343 -0.3648
 2747SOL    HW119877   0.081   4.664   8.165 -2.8242 -0.5294  1.1489
 2747SOL    HW219878   0.198   4.724   8.212 -0.1754 -1.1207 -0.2296
 2748SOL     OW19879   3.683   4.541   6.315 -0.3719  0.1899 -0.0343
 2748SOL    HW119880   3.660   4.448   6.308  1.2864 -0.1837 -0.7434
 2748SOL    HW219881   3.606   4.572   6.362 -0.3561  2.2992 -1.4271
 2749SOL     OW19882   2.808   1.232   8.545  0.3927 -0.3731 -0.5102
 2749SOL    HW119883   2.784   1.177   8.619 -1.9022  2.3149  0.7864
 2749SOL    HW219884   2.728   1.284   8.531  2.8725  3.2556 -1.0959
 2750SOL     OW19885   1.911   2.565   2.376 -0.0059 -0.6088  0.3088
 2750SOL    HW119886   1.891   2.538   2.287  2.5195 -2.2811  0.2528
 2750SOL    HW219887   1.856   2.642   2.392 -1.5096 -1.7303  0.5527
 2751SOL     OW19888   1.414   4.253  13.226  0.2281 -0.1728  0.0694
 2751SOL    HW119889   1.434   4.204  13.306 -1.0362  0.7238  0.9330
 2751SOL    HW219890   1.474   4.324  13.250  0.7588 -0.9154  0.9430
 2752SOL     OW19891   0.647   2.200  10.675  0.8282  0.2092  0.6187
 2752SOL    HW119892   0.710   2.195  10.603  0.7655  0.2045  0.5643
 2752SOL    HW219893   0.565   2.169  10.636  1.1065  0.5937 -0.2758
 2753SOL     OW19894   2.943   1.905   3.030 -0.3131  0.0279 -0.1122
 2753SOL    HW119895   2.912   1.955   3.105 -1.1736 -1.2283  0.3678
 2753SOL    HW219896   2.941   1.814   3.059  0.3676 -0.5785 -1.9935
 2754SOL     OW19897   0.811   0.762  15.706 -0.0465  0.4678 -0.1646
 2754SOL    HW119898   0.793   0.690  15.766 -0.8818  2.4219  1.9083
 2754SOL    HW219899   0.733   0.813  15.724  0.2980  1.1326 -0.5393
 2755SOL     OW19900   3.349   1.070   2.854  0.2330  0.0618  0.1588
 2755SOL    HW119901   3.280   1.058   2.919  0.1223 -3.6615 -0.6774
 2755SOL    HW219902   3.331   1.154   2.811 -2.9360 -0.2366  0.9438
 2756SOL     OW19903   2.355   3.886   5.181  0.1313 -0.1265  0.1578
 2756SOL    HW119904   2.387   3.960   5.129  0.7314  0.6971  1.7034
 2756SOL    HW219905   2.440   3.862   5.216 -0.1970 -0.8013  0.4807
 2757SOL     OW19906   2.352   2.768   5.553 -0.4847  0.1827  0.2170
 2757SOL    HW119907   2.340   2.694   5.613  0.0821 -1.3150 -1.4839
 2757SOL    HW219908   2.377   2.829   5.622 -1.1779  0.1774  0.4729
 2758SOL     OW19909   0.898   0.038   4.769  0.1518  0.4609 -0.4948
 2758SOL    HW119910   0.843   0.114   4.750  2.9503  2.0416 -2.2870
 2758SOL    HW219911   0.968   0.040   4.704 -1.7015  2.5324 -2.4332
 2759SOL     OW19912   1.066   1.075   6.967 -0.3386 -0.2313  0.0400
 2759SOL    HW119913   1.151   1.070   6.925  0.1817  4.8271  0.5672
 2759SOL    HW219914   1.011   1.096   6.891  1.0508  1.6890 -0.4137
 2760SOL     OW19915   2.089   0.709   4.244 -0.3845 -0.0104 -0.3253
 2760SOL    HW119916   2.013   0.653   4.254  1.7388 -2.4294  2.0512
 2760SOL    HW219917   2.142   0.641   4.202  1.0824  0.4311  0.8252
 2761SOL     OW19918   1.164   2.255  12.432 -0.0150  0.3434  0.1665
 2761SOL    HW119919   1.187   2.234  12.522 -1.4264 -3.1856 -0.2988
 2761SOL    HW219920   1.227   2.206  12.380  0.4452 -0.8296  1.8292
 2762SOL     OW19921   2.646   3.152   6.613 -0.0064  0.3223 -0.6472
 2762SOL    HW119922   2.588   3.079   6.593 -1.2569  0.9222  0.7427
 2762SOL    HW219923   2.599   3.175   6.694  1.2938  2.0328 -0.3653
 2763SOL     OW19924   0.304   4.033   3.042 -0.6181  0.1045 -0.7856
 2763SOL    HW119925   0.218   3.994   3.024 -0.8640 -0.8616  2.3671
 2763SOL    HW219926   0.283   4.072   3.127 -0.1598  0.2538 -0.7413
 2764SOL     OW19927   4.099   0.223   4.479 -0.4558  0.5404 -0.2902
 2764SOL    HW119928   4.066   0.273   4.554  1.7591  0.2851  0.8600
 2764SOL    HW219929   4.017   0.222   4.429 -1.1930  1.7277  0.8994
 2765SOL     OW19930   3.456   4.545   5.552  0.6032 -0.0076  0.2015
 2765SOL    HW119931   3.515   4.606   5.509  1.6248 -1.5434 -0.5872
 2765SOL    HW219932   3.505   4.540   5.634  1.3883  0.0167 -0.2642
 2766SOL     OW19933   2.451   0.329  12.354  0.2015  0.1972  0.3717
 2766SOL    HW119934   2.386   0.379  12.306 -0.6237  0.1522  1.4478
 2766SOL    HW219935   2.407   0.246  12.373  0.5086  0.0743  0.5494
 2767SOL     OW19936   4.542   0.434   3.489 -0.4464  0.3071  0.0966
 2767SOL    HW119937   4.540   0.399   3.400  0.8035  2.7088 -0.8783
 2767SOL    HW219938   4.448   0.438   3.506 -0.6478  1.1008 -1.1676
 2768SOL     OW19939   3.088   2.761   4.108  0.2590  0.6840  0.3312
 2768SOL    HW119940   3.053   2.837   4.061  0.7881  0.5360 -0.3015
 2768SOL    HW219941   3.178   2.792   4.118  1.4231 -2.5442  0.0542
 2769SOL     OW19942   2.455   0.712   8.049 -0.3608 -0.6556  0.4454
 2769SOL    HW119943   2.436   0.691   7.958 -1.5678  3.9651 -0.3904
 2769SOL    HW219944   2.530   0.771   8.056 -1.6562  1.1475 -0.9553
 2770SOL     OW19945   4.613   3.231   7.142 -0.0061 -0.1215 -0.3164
 2770SOL    HW119946   4.545   3.165   7.133 -0.7114  0.9203 -2.5363
 2770SOL    HW219947   4.596   3.281   7.062  0.0390  1.6045  0.7524
 2771SOL     OW19948   4.113   3.961   6.304 -0.5053  0.4303  0.1261
 2771SOL    HW119949   4.187   3.918   6.261 -1.2475  0.5224 -1.2485
 2771SOL    HW219950   4.049   3.934   6.238 -0.9365  1.9203 -0.0458
 2772SOL     OW19951   3.618   4.454   2.407 -0.6128 -0.0772  0.0689
 2772SOL    HW119952   3.608   4.538   2.363  1.4367 -0.1078 -0.4259
 2772SOL    HW219953   3.537   4.415   2.373 -0.3686  1.0994 -1.8138
 2773SOL     OW19954   4.621   2.032   2.345  0.2826  0.2863  0.0589
 2773SOL    HW119955   4.708   2.056   2.314 -0.4251  1.8456 -0.7493
 2773SOL    HW219956   4.598   1.995   2.259 -0.4605  1.6187 -0.3131
 2774SOL     OW19957   0.398   3.170   6.119  0.3329 -0.4660  0.0788
 2774SOL    HW119958   0.316   3.184   6.164  0.1890 -0.8431 -0.0656
 2774SOL    HW219959   0.392   3.075   6.105  0.4748 -0.3757 -0.6119
 2775SOL     OW19960   3.850   4.610   3.126 -0.3289  0.0627 -0.1032
 2775SOL    HW119961   3.912   4.537   3.117 -0.4714  0.0271 -0.7822
 2775SOL    HW219962   3.825   4.631   3.036  2.1971  1.2290 -0.5362
 2776SOL     OW19963   3.521   2.219   3.324 -0.0456  0.0723  0.7378
 2776SOL    HW119964   3.577   2.142   3.323 -0.7975 -0.4577 -1.4533
 2776SOL    HW219965   3.442   2.172   3.352  0.2457 -2.6124 -2.8295
 2777SOL     OW19966   0.558   0.556   0.562 -0.4361  0.0951 -0.3158
 2777SOL    HW119967   0.505   0.569   0.641  0.1064 -2.6654  0.4735
 2777SOL    HW219968   0.494   0.553   0.490 -0.2677 -0.6797 -0.4331
 2778SOL     OW19969   1.915   2.034   4.870 -0.0659 -0.1076 -0.1514
 2778SOL    HW119970   2.001   2.075   4.860  0.6521 -0.9622  2.4992
 2778SOL    HW219971   1.915   1.993   4.956 -1.1116  0.9710  0.3680
 2779SOL     OW19972   3.800   2.393  10.715  0.1274  0.3959 -0.0339
 2779SOL    HW119973   3.707   2.402  10.697 -0.4242 -0.4399  2.4652
 2779SOL    HW219974   3.817   2.454  10.786  0.2486  0.2699  0.0471
 2780SOL     OW19975   2.748   3.259   8.507  0.1553 -0.0407 -0.3826
 2780SOL    HW119976   2.779   3.169   8.516  1.2390  0.5709  2.0820
 2780SOL    HW219977   2.809   3.288   8.439 -1.2900  0.2062 -1.5700
 2781SOL     OW19978   0.901   1.385  10.138  0.0576  0.0258  0.4090
 2781SOL    HW119979   0.905   1.289  10.142  0.5387  0.0420  0.2856
 2781SOL    HW219980   0.863   1.407  10.223  0.5929  1.8468  0.1696
 2782SOL     OW19981   1.689   1.316  17.276  0.4186 -0.3965  0.2234
 2782SOL    HW119982   1.615   1.283  17.327 -1.2168  0.4064 -1.6166
 2782SOL    HW219983   1.657   1.405  17.288 -0.2314 -0.4150 -1.4273
 2783SOL     OW19984   2.759   0.263   4.683  0.2354  0.0677 -0.0098
 2783SOL    HW119985   2.706   0.333   4.721 -3.1840 -2.4808 -0.1688
 2783SOL    HW219986   2.787   0.315   4.607  2.0470  0.3059  0.8149
 2784SOL     OW19987   2.796   0.616   8.506 -0.0149  0.2585  0.0267
 2784SOL    HW119988   2.807   0.572   8.422 -1.1200 -0.2062  0.1346
 2784SOL    HW219989   2.705   0.642   8.490  0.1508  1.7495  1.4779
 2785SOL     OW19990   0.744   3.967   3.664 -0.8337 -0.3499 -0.2122
 2785SOL    HW119991   0.815   3.906   3.679 -2.0155 -1.0215  2.5282
 2785SOL    HW219992   0.796   4.047   3.668 -1.7268  0.1915  0.7704
 2786SOL     OW19993   2.319   3.123  12.948  0.1828  0.2039 -0.1252
 2786SOL    HW119994   2.293   3.083  13.031  1.3049  0.1350  0.2042
 2786SOL    HW219995   2.299   3.216  12.954 -1.1633 -0.0139 -1.1094
 2787SOL     OW19996   0.897   4.325   9.847 -0.2741 -0.0382  0.2956
 2787SOL    HW119997   0.902   4.383   9.771  0.6870  0.2751  0.6025
 2787SOL    HW219998   0.814   4.278   9.840 -1.9552  2.6314  2.1932
 2788SOL     OW19999   0.476   2.698   8.081 -0.1150 -0.7001  0.0775
 2788SOL    HW120000   0.550   2.747   8.117  1.3878 -1.3640 -2.0757
 2788SOL    HW220001   0.516   2.615   8.053 -0.8137 -0.2319 -2.3169
 2789SOL     OW20002   1.505   3.298   8.672  0.0859 -0.2324 -0.2591
 2789SOL    HW120003   1.577   3.263   8.723  0.5421  0.2644 -0.5630
 2789SOL    HW220004   1.430   3.269   8.725 -1.1275  2.5324 -0.4812
 2790SOL     OW20005   3.068   0.904   3.811 -0.4944 -0.2959  0.0007
 2790SOL    HW120006   3.062   0.905   3.907 -2.0507  2.0733 -0.1136
 2790SOL    HW220007   3.092   0.994   3.788 -1.9727  1.2941  4.6594
 2791SOL     OW20008   0.612   0.452   7.122  0.0218 -0.3031  0.0406
 2791SOL    HW120009   0.700   0.430   7.151  0.2582 -0.3362 -0.6965
 2791SOL    HW220010   0.619   0.548   7.122 -1.1755 -0.1987 -1.7655
 2792SOL     OW20011   4.047   1.170   2.848  0.3643  0.2543  0.3805
 2792SOL    HW120012   4.036   1.211   2.762  1.7951  1.0551  0.5755
 2792SOL    HW220013   4.142   1.170   2.847  0.3224 -0.3357 -1.8522
 2793SOL     OW20014   4.543   2.124   9.476  0.4322 -0.5578 -0.0237
 2793SOL    HW120015   4.484   2.093   9.545  1.6593  0.9089  1.6986
 2793SOL    HW220016   4.524   2.066   9.402 -1.0301  0.7842 -0.6906
 2794SOL     OW20017   2.841   0.777   5.607  0.2841 -0.4650 -0.7420
 2794SOL    HW120018   2.916   0.795   5.663 -0.5879  0.3593  0.1617
 2794SOL    HW220019   2.808   0.867   5.610 -0.4980 -0.8612  2.1115
 2795SOL     OW20020   1.029   4.454   7.645  0.1228 -0.3842  0.2118
 2795SOL    HW120021   1.026   4.532   7.700  1.0547 -1.2088  1.4477
 2795SOL    HW220022   1.007   4.492   7.560  0.0568 -0.9452 -0.0275
 2796SOL     OW20023   1.190   2.356   9.588 -0.0861 -0.1407 -0.6392
 2796SOL    HW120024   1.189   2.261   9.603  1.7630 -0.3298 -1.7296
 2796SOL    HW220025   1.256   2.353   9.519 -0.6026 -0.5124 -1.1153
 2797SOL     OW20026   4.105   0.687   3.752  0.4408 -0.1430  0.4571
 2797SOL    HW120027   4.140   0.701   3.664  1.5803 -2.5128  0.5314
 2797SOL    HW220028   4.009   0.689   3.752  0.4216 -1.0683  0.7217
 2798SOL     OW20029   4.236   2.330  16.139 -0.3722 -0.2153  0.5225
 2798SOL    HW120030   4.280   2.308  16.222 -0.0958  1.5931  0.8573
 2798SOL    HW220031   4.178   2.255  16.131 -0.7409  0.1036  0.2188
 2799SOL     OW20032   1.925   3.219   4.728  0.1987 -0.3461  1.0680
 2799SOL    HW120033   1.933   3.251   4.638  0.4505 -2.9566  0.1686
 2799SOL    HW220034   2.017   3.220   4.756  0.1335  0.5711  1.2751
 2800SOL     OW20035   3.937   1.582   9.325 -0.0912  0.5708 -0.5429
 2800SOL    HW120036   3.900   1.605   9.240 -1.9023  1.1427  0.3921
 2800SOL    HW220037   3.861   1.602   9.381  1.0551 -3.2113  2.3179
 2801SOL     OW20038   1.254   1.651   0.345 -0.1688 -0.6738 -0.3145
 2801SOL    HW120039   1.289   1.565   0.369 -1.0841 -0.4328  1.9068
 2801SOL    HW220040   1.183   1.625   0.285 -0.2978 -0.1140 -0.4079
 2802SOL     OW20041   0.499   4.128  13.144 -0.4704 -0.4820 -0.3887
 2802SOL    HW120042   0.542   4.048  13.173 -2.0299 -0.5496  1.7261
 2802SOL    HW220043   0.485   4.094  13.055 -3.0123  0.2920 -0.2978
 2803SOL     OW20044   1.012   4.104   5.677 -0.2029  0.5962 -0.6038
 2803SOL    HW120045   1.101   4.106   5.713 -0.6155 -1.2488  0.5092
 2803SOL    HW220046   0.995   4.012   5.658 -1.9593  0.6088  0.8693
 2804SOL     OW20047   3.052   4.341  17.445  0.2193  0.1750 -0.5840
 2804SOL    HW120048   2.974   4.355  17.497  0.3120 -2.2555  0.1769
 2804SOL    HW220049   3.080   4.430  17.421 -0.5407  0.7504  0.6522
 2805SOL     OW20050   2.447   2.543   2.437  0.1319 -0.1525  0.0457
 2805SOL    HW120051   2.439   2.460   2.389  0.4371  0.2649 -0.7125
 2805SOL    HW220052   2.454   2.604   2.365  2.4647 -0.6299 -0.1391
 2806SOL     OW20053   0.543   1.503  14.177 -0.0238 -0.1861  0.3845
 2806SOL    HW120054   0.520   1.438  14.244  0.7144 -1.9114 -1.0212
 2806SOL    HW220055   0.625   1.465  14.147 -0.1151 -0.6818  0.7555
 2807SOL     OW20056   1.790   0.541   1.475  0.1879  0.0478  0.1143
 2807SOL    HW120057   1.786   0.505   1.387 -0.9296  2.1154 -0.6845
 2807SOL    HW220058   1.884   0.529   1.485  0.3549  2.4577  1.4791
 2808SOL     OW20059   2.822   4.581   6.906 -0.4477  0.4998 -0.1774
 2808SOL    HW120060   2.741   4.630   6.888 -1.0763 -0.2884  0.5072
 2808SOL    HW220061   2.790   4.495   6.879 -1.1559  0.3368  1.2226
 2809SOL     OW20062   2.730   1.732   2.489  0.1609  0.2666 -0.5860
 2809SOL    HW120063   2.775   1.651   2.510 -1.7446 -0.7917 -0.6182
 2809SOL    HW220064   2.721   1.716   2.395 -3.3170  3.3403 -0.7999
 2810SOL     OW20065   0.440   2.305   4.948  0.0867  0.0467  0.8014
 2810SOL    HW120066   0.499   2.306   4.872  0.5480 -0.1813  1.1621
 2810SOL    HW220067   0.455   2.219   4.985 -1.1066  0.2203  1.6824
 2811SOL     OW20068   1.109   3.857   2.546  0.1002  0.0791  0.1486
 2811SOL    HW120069   1.062   3.938   2.525  0.2938  0.1792  0.1010
 2811SOL    HW220070   1.087   3.788   2.483  1.7672 -1.4735  1.2769
 2812SOL     OW20071   1.573   0.008   3.615 -0.2993  0.0625 -0.4540
 2812SOL    HW120072   1.577   0.100   3.643  0.7087  0.0393 -0.5311
 2812SOL    HW220073   1.479   4.727   3.626  0.0661 -0.4480  2.0737
 2813SOL     OW20074   1.060   2.942   6.260 -0.2669  0.5655  0.0135
 2813SOL    HW120075   1.105   2.970   6.340  0.3224  0.1886 -0.1912
 2813SOL    HW220076   1.083   2.849   6.262  0.2639  0.6431 -2.7647
 2814SOL     OW20077   4.022   2.408  15.812 -0.4063 -0.1019 -0.5620
 2814SOL    HW120078   4.036   2.375  15.723 -0.3488  1.5839 -1.1752
 2814SOL    HW220079   4.109   2.429  15.846 -0.5834 -1.1056  0.5384
 2815SOL     OW20080   0.305   4.594   6.102 -0.5776  0.3214  0.0527
 2815SOL    HW120081   0.239   4.633   6.161 -2.0031 -0.9024 -0.7327
 2815SOL    HW220082   0.365   4.668   6.112  0.4290 -0.1769 -2.4814
 2816SOL     OW20083   0.550   1.701   8.450 -0.6571 -0.2990  0.1459
 2816SOL    HW120084   0.559   1.796   8.449  2.6573 -0.6434 -1.1159
 2816SOL    HW220085   0.456   1.694   8.433 -0.0269 -0.1455 -3.3357
 2817SOL     OW20086   4.495   4.507   1.956  0.1615 -0.3944 -0.1192
 2817SOL    HW120087   4.584   4.475   1.966  0.4275 -0.0111 -1.2444
 2817SOL    HW220088   4.458   4.436   1.903 -0.2405 -0.8474  0.7669
 2818SOL     OW20089   3.715   2.142  13.107 -0.0576 -0.3492 -0.3330
 2818SOL    HW120090   3.677   2.227  13.084  2.8961  1.2475  0.6749
 2818SOL    HW220091   3.787   2.134  13.044  1.0141 -1.1443  1.0063
 2819SOL     OW20092   4.292   3.216   5.587  0.0477  0.0322  0.3385
 2819SOL    HW120093   4.265   3.133   5.547 -0.3699 -1.0077  2.7729
 2819SOL    HW220094   4.374   3.221   5.537 -0.0206  0.5308  0.2779
 2820SOL     OW20095   1.470   0.020  16.890  0.5290 -0.3618  0.0084
 2820SOL    HW120096   1.414   4.735  16.965 -0.4578 -1.8293 -1.1355
 2820SOL    HW220097   1.465   4.674  16.841 -2.1108 -0.3552  0.2267
 2821SOL     OW20098   3.033   4.393   5.491  0.5283  0.0931  0.0570
 2821SOL    HW120099   2.947   4.408   5.530 -0.2561  1.8969 -2.3794
 2821SOL    HW220100   3.038   4.298   5.481  0.2908  0.0738  0.1423
 2822SOL     OW20101   3.931   1.723  15.227  0.3213 -0.2841 -0.2378
 2822SOL    HW120102   3.996   1.724  15.298  0.9809  2.0356 -0.8798
 2822SOL    HW220103   3.936   1.817  15.210  0.8271 -0.6645 -2.1763
 2823SOL     OW20104   3.232   3.221   6.730 -0.4778 -0.1405 -0.1505
 2823SOL    HW120105   3.143   3.250   6.752 -0.4518 -0.3543  0.2330
 2823SOL    HW220106   3.216   3.185   6.642 -1.7701  0.2759 -0.0936
 2824SOL     OW20107   2.915   4.247   6.634 -0.2435  0.4826 -0.3099
 2824SOL    HW120108   2.953   4.204   6.558  2.5588  0.4017  1.1438
 2824SOL    HW220109   2.924   4.186   6.708 -0.9018  1.7796  0.8412
 2825SOL     OW20110   0.146   4.591   7.737  0.0528 -0.9711  0.0280
 2825SOL    HW120111   0.078   4.658   7.728 -0.1030 -1.0791  0.3664
 2825SOL    HW220112   0.221   4.641   7.770  0.6164 -1.7712 -0.0377
 2826SOL     OW20113   1.370   3.743  15.288  0.3148  0.0917 -0.3611
 2826SOL    HW120114   1.378   3.648  15.281 -0.8846  0.0459 -1.0960
 2826SOL    HW220115   1.321   3.749  15.370  2.1844 -1.4066  0.8859
 2827SOL     OW20116   3.562   2.648  16.792 -0.3834 -0.0801  0.0913
 2827SOL    HW120117   3.498   2.608  16.732 -2.5560  0.5173  2.0148
 2827SOL    HW220118   3.645   2.628  16.750 -1.3401 -0.3624 -1.6733
 2828SOL     OW20119   2.728   3.678   7.551  0.7551  0.3338  0.4441
 2828SOL    HW120120   2.785   3.635   7.615  0.9083  0.9124  0.6942
 2828SOL    HW220121   2.760   3.764   7.578 -0.0595  0.8574 -0.2614
 2829SOL     OW20122   0.034   3.342   7.806  0.0937  0.0796  0.0997
 2829SOL    HW120123   4.701   3.400   7.839  0.1369  0.7948 -1.0542
 2829SOL    HW220124   4.713   3.269   7.786 -0.0004  1.2012 -3.6584
 2830SOL     OW20125   1.849   0.740   4.960 -0.6376 -0.1061  0.4766
 2830SOL    HW120126   1.815   0.829   4.950 -2.3270 -0.7511  0.4000
 2830SOL    HW220127   1.943   0.755   4.962 -0.6995  0.7017 -3.0640
 2831SOL     OW20128   1.589   3.347   6.423 -0.0921 -0.9867 -0.0586
 2831SOL    HW120129   1.505   3.378   6.390 -0.8483 -2.4479  0.4924
 2831SOL    HW220130   1.577   3.367   6.516 -0.2540 -1.1882 -0.0366
 2832SOL     OW20131   2.987   0.677  11.241  0.6498 -0.8308  0.2254
 2832SOL    HW120132   2.928   0.736  11.288 -0.0340 -0.5871 -0.9421
 2832SOL    HW220133   3.073   0.720  11.238 -0.3824  1.3070  1.4142
 2833SOL     OW20134   2.306   2.235  17.280 -0.4210 -0.5374  0.7520
 2833SOL    HW120135   2.267   2.272  17.359 -1.5693  0.5224 -0.3117
 2833SOL    HW220136   2.241   2.256  17.213  0.5141 -0.2136 -0.0490
 2834SOL     OW20137   3.102   0.183  12.856 -0.2201 -0.6497 -0.0227
 2834SOL    HW120138   3.020   0.204  12.811  0.2560  0.8723 -0.1792
 2834SOL    HW220139   3.063   0.165  12.941 -1.3598  1.0724 -0.1938
 2835SOL     OW20140   3.405   2.028  12.185  0.3621  0.2014  0.1943
 2835SOL    HW120141   3.393   2.105  12.129 -0.5348  0.0162  0.1297
 2835SOL    HW220142   3.361   2.061  12.264  0.4896 -2.2458  1.2945
 2836SOL     OW20143   1.570   2.743  16.395 -0.3260  0.2186 -0.0479
 2836SOL    HW120144   1.486   2.699  16.401  0.0813 -0.4991  0.3600
 2836SOL    HW220145   1.544   2.817  16.340 -4.3744  0.8655  2.7291
 2837SOL     OW20146   2.901   2.273   3.504  0.1770 -0.5722  0.3879
 2837SOL    HW120147   2.895   2.272   3.408 -1.3050 -0.0253  0.4871
 2837SOL    HW220148   2.873   2.359   3.535  0.9542  0.7443 -2.5846
 2838SOL     OW20149   1.596   3.071   6.531 -1.0673  0.2709 -0.4152
 2838SOL    HW120150   1.631   3.065   6.442 -3.9457  1.6564 -1.6485
 2838SOL    HW220151   1.583   3.163   6.553 -0.6020  0.8700 -2.6946
 2839SOL     OW20152   2.855   2.945   8.098 -0.0386  0.6192  0.0726
 2839SOL    HW120153   2.934   2.908   8.137  0.7824 -2.8258 -4.7686
 2839SOL    HW220154   2.790   2.889   8.139 -0.8508  0.9131 -0.8099
 2840SOL     OW20155   0.142   1.927   7.738  0.0106  0.5011  0.1208
 2840SOL    HW120156   0.056   1.886   7.751  0.8308 -2.0491 -2.5198
 2840SOL    HW220157   0.197   1.874   7.796 -1.1900 -1.0707 -0.1837
 2841SOL     OW20158   0.355   0.005   3.607  0.0094  0.1796 -0.5726
 2841SOL    HW120159   0.441   0.017   3.649 -1.3599  0.1731  2.2054
 2841SOL    HW220160   0.358   0.054   3.525  0.9854  0.4087 -0.3975
 2842SOL     OW20161   0.092   0.444  11.449  0.4522 -0.0452 -0.1569
 2842SOL    HW120162   0.144   0.401  11.381  0.0215 -0.9122  0.0624
 2842SOL    HW220163   0.000   0.431  11.423  0.6170 -0.4767 -0.5158
 2843SOL     OW20164   2.242   1.531   4.520  0.3177 -0.4977 -0.5896
 2843SOL    HW120165   2.172   1.586   4.555 -0.6997 -1.2203 -1.4692
 2843SOL    HW220166   2.205   1.454   4.477 -3.1102  0.4889  0.5636
 2844SOL     OW20167   2.701   0.777   7.240  0.2156  0.2632  0.2018
 2844SOL    HW120168   2.656   0.847   7.288 -2.6150  0.3379 -2.5713
 2844SOL    HW220169   2.775   0.751   7.294 -0.1468  1.0645  1.0877
 2845SOL     OW20170   2.868   2.254  10.625 -0.1671 -0.3813  0.2937
 2845SOL    HW120171   2.848   2.324  10.563 -0.5709  0.7489  1.7240
 2845SOL    HW220172   2.781   2.215  10.622 -0.0800 -0.5828  0.3439
 2846SOL     OW20173   0.309   4.178  11.990  0.5849  0.2649 -0.3684
 2846SOL    HW120174   0.228   4.164  12.040  0.4747  0.3481 -0.5271
 2846SOL    HW220175   0.368   4.227  12.047  1.9231  0.3324 -1.8099
 2847SOL     OW20176   1.996   2.494   3.922  0.3396  0.3964 -0.6668
 2847SOL    HW120177   1.999   2.428   3.992  0.9803 -0.9737 -2.0009
 2847SOL    HW220178   2.076   2.545   3.936  2.0067 -2.1036 -1.0464
 2848SOL     OW20179   2.361   0.125   3.874  0.0777 -0.0538  0.7390
 2848SOL    HW120180   2.372   0.037   3.911 -0.6795  0.4429  2.1398
 2848SOL    HW220181   2.324   0.102   3.789  0.5208 -0.4094  0.6455
 2849SOL     OW20182   1.408   0.622   4.932  0.1282 -0.5460 -0.5909
 2849SOL    HW120183   1.488   0.656   4.892  0.8824  0.0954  1.4675
 2849SOL    HW220184   1.437   0.531   4.927 -0.1762 -0.7094  0.7252
 2850SOL     OW20185   0.346   1.999  14.131  0.0123  0.2118 -0.6279
 2850SOL    HW120186   0.366   1.911  14.102 -0.1888 -0.3166  0.8034
 2850SOL    HW220187   0.281   2.032  14.068 -0.2059 -1.0359 -1.0504
 2851SOL     OW20188   4.132   1.388  12.751  0.5742 -0.3319 -0.0168
 2851SOL    HW120189   4.047   1.346  12.740  0.9140 -1.4047  1.4124
 2851SOL    HW220190   4.117   1.455  12.817  2.5915 -2.8339  2.9720
 2852SOL     OW20191   4.005   2.694   2.221  0.2398 -0.3031 -0.2737
 2852SOL    HW120192   4.080   2.643   2.253 -1.3382 -2.2910  0.2829
 2852SOL    HW220193   3.939   2.625   2.212 -0.6737  0.2965  1.7857
 2853SOL     OW20194   4.160   4.298  14.805 -0.2120 -0.1892  0.0164
 2853SOL    HW120195   4.135   4.389  14.821 -2.2228 -1.0126  1.5425
 2853SOL    HW220196   4.236   4.302  14.746 -0.4818 -2.1356 -0.4480
 2854SOL     OW20197   1.631   4.143   5.667 -1.1288 -0.1319 -0.3657
 2854SOL    HW120198   1.625   4.102   5.581  2.0997 -0.8343 -0.2647
 2854SOL    HW220199   1.658   4.232   5.642  2.0159 -0.8419  0.5236
 2855SOL     OW20200   0.301   2.915  13.768  0.0842  0.0214 -0.1885
 2855SOL    HW120201   0.348   2.894  13.849 -2.4979 -0.8095  1.0751
 2855SOL    HW220202   0.316   2.842  13.708 -0.2320 -0.4964  0.3713
 2856SOL     OW20203   2.101   1.416  11.331 -0.0197  0.3074  0.3947
 2856SOL    HW120204   2.151   1.339  11.357  0.3224  0.2368 -0.4548
 2856SOL    HW220205   2.165   1.481  11.302  2.3355 -2.1770  0.0419
 2857SOL     OW20206   2.481   2.988   5.693  0.2526  1.1765  0.5162
 2857SOL    HW120207   2.409   3.036   5.733 -0.6747 -0.0130  0.2824
 2857SOL    HW220208   2.488   3.048   5.619  0.5506 -0.8011 -1.0705
 2858SOL     OW20209   0.160   1.406  12.814 -0.9665 -0.1548 -0.0911
 2858SOL    HW120210   0.173   1.357  12.733 -1.1992 -2.6860  1.4225
 2858SOL    HW220211   0.214   1.483  12.799  0.6985 -1.4549 -0.7514
 2859SOL     OW20212   3.430   3.968   7.733 -0.4661  0.0081 -0.2401
 2859SOL    HW120213   3.523   3.990   7.737 -0.3883 -0.1252 -1.2255
 2859SOL    HW220214   3.410   4.038   7.671  2.2112  0.1041 -0.9876
 2860SOL     OW20215   3.063   4.379  14.097  0.9691  0.3855 -0.0852
 2860SOL    HW120216   3.109   4.373  14.013  0.5402 -0.5170 -0.2610
 2860SOL    HW220217   2.974   4.403  14.070  0.8393 -0.0176 -0.0109
 2861SOL     OW20218   1.023   4.055   3.524  0.1490  0.4440 -0.1916
 2861SOL    HW120219   1.107   4.071   3.569  0.8629 -0.7046 -1.1190
 2861SOL    HW220220   1.007   3.960   3.526 -0.3291  0.4933 -2.2907
 2862SOL     OW20221   4.397   1.453   6.526 -0.2421  0.2894  0.4251
 2862SOL    HW120222   4.476   1.472   6.577 -0.4208 -0.5127  1.0035
 2862SOL    HW220223   4.432   1.478   6.441  2.6795  0.1895  1.5926
 2863SOL     OW20224   1.621   0.335   7.024  0.7338 -0.5273  0.2601
 2863SOL    HW120225   1.618   0.363   7.115 -0.1597 -0.3400  0.1745
 2863SOL    HW220226   1.712   0.307   7.015  0.4535 -1.5233  0.5376
 2864SOL     OW20227   1.309   4.507  17.372 -0.2600  0.3729 -0.1718
 2864SOL    HW120228   1.301   4.517  17.467 -0.2012 -2.8595  0.1535
 2864SOL    HW220229   1.304   4.412  17.370  1.6563  0.2724 -0.3664
 2865SOL     OW20230   3.936   4.223   5.740 -0.2238 -0.2399 -0.5222
 2865SOL    HW120231   3.865   4.242   5.802  0.1565 -2.5889  0.6477
 2865SOL    HW220232   3.904   4.176   5.663 -1.2225 -1.2759  0.5245
 2866SOL     OW20233   3.496   2.739  11.325 -0.6893  0.3771  0.5363
 2866SOL    HW120234   3.534   2.710  11.407 -0.3129  0.2294  0.3087
 2866SOL    HW220235   3.573   2.743  11.269  0.0400 -0.5102  1.4901
 2867SOL     OW20236   2.755   4.063   3.574  0.4024 -0.1675 -0.2661
 2867SOL    HW120237   2.747   4.125   3.647 -2.2935 -0.1399 -0.6139
 2867SOL    HW220238   2.825   4.005   3.605  0.4808 -0.2929 -0.6844
 2868SOL     OW20239   3.977   0.365   4.690 -0.1046 -0.3553 -0.1079
 2868SOL    HW120240   4.015   0.373   4.777 -1.1947 -2.2645  0.5479
 2868SOL    HW220241   3.892   0.406   4.705 -0.7966 -1.5057 -0.8777
 2869SOL     OW20242   3.039   3.071   7.496  0.1858  0.4351  0.3576
 2869SOL    HW120243   3.034   2.986   7.453 -0.7763 -0.0632  1.4355
 2869SOL    HW220244   2.966   3.061   7.556  0.7681 -2.0644  0.6487
 2870SOL     OW20245   0.390   4.602  15.901  0.1617  0.2867 -0.0113
 2870SOL    HW120246   0.397   4.689  15.940  0.0012  0.2534  0.0933
 2870SOL    HW220247   0.320   4.611  15.835 -0.0630  0.7574  0.2909
 2871SOL     OW20248   1.256   0.339  12.692  0.2776 -0.1746 -0.0894
 2871SOL    HW120249   1.278   0.380  12.609 -0.4162 -0.2876 -0.3298
 2871SOL    HW220250   1.299   0.398  12.754  1.3548 -1.4528  0.3767
 2872SOL     OW20251   1.969   0.271   4.138  0.3335 -0.1713 -0.0221
 2872SOL    HW120252   1.968   0.190   4.088  0.0081  0.7820 -1.5574
 2872SOL    HW220253   1.924   0.247   4.220  1.2379  1.4864  0.9549
 2873SOL     OW20254   4.479   2.424   8.812  0.6787 -0.3156 -0.1420
 2873SOL    HW120255   4.510   2.503   8.857  1.1504  0.2705 -1.5041
 2873SOL    HW220256   4.540   2.425   8.739 -0.4438 -2.6284 -1.1341
 2874SOL     OW20257   1.089   4.194   9.465 -0.3954 -0.3297 -0.9340
 2874SOL    HW120258   1.171   4.235   9.491 -0.4356 -1.2324  0.6195
 2874SOL    HW220259   1.090   4.110   9.510  0.3140  0.0868 -0.1873
 2875SOL     OW20260   1.442   3.670  17.742 -0.3110 -0.0118  0.0109
 2875SOL    HW120261   1.364   3.712  17.705 -0.8259  0.3236  1.4758
 2875SOL    HW220262   1.415   3.655   0.089  0.8191 -1.9206  0.0276
 2876SOL     OW20263   3.313   1.583  13.300 -0.0697 -0.4320  0.3453
 2876SOL    HW120264   3.224   1.593  13.332 -1.2027  1.9339 -3.4804
 2876SOL    HW220265   3.364   1.659  13.328  0.7715 -1.2052  0.8900
 2877SOL     OW20266   0.343   0.825   9.848 -0.0616 -0.0638  0.1845
 2877SOL    HW120267   0.433   0.796   9.832  0.1660 -0.1827  1.6605
 2877SOL    HW220268   0.302   0.750   9.805  0.4361 -0.5219  0.5158
 2878SOL     OW20269   0.546   3.138   4.652  0.1589 -0.3772 -0.7134
 2878SOL    HW120270   0.477   3.165   4.713 -0.8716 -1.2414 -1.5025
 2878SOL    HW220271   0.588   3.221   4.631 -2.1219  0.7141 -0.9693
 2879SOL     OW20272   1.956   3.414  15.472  0.5601  0.0094 -0.4607
 2879SOL    HW120273   2.023   3.385  15.411  0.3683  0.1449 -0.7355
 2879SOL    HW220274   1.899   3.336  15.477  1.8390 -0.8629  0.6857
 2880SOL     OW20275   4.191   3.433   4.114  0.0292  0.0958  0.4660
 2880SOL    HW120276   4.239   3.376   4.053 -0.9124 -0.2939  0.0820
 2880SOL    HW220277   4.118   3.377   4.141  0.4393  0.0191  1.4076
 2881SOL     OW20278   1.888   2.644   8.548  0.1035  0.0335  0.4687
 2881SOL    HW120279   1.878   2.709   8.617 -0.2608  0.3901  0.0777
 2881SOL    HW220280   1.820   2.667   8.485 -0.0355 -2.1449 -0.1850
 2882SOL     OW20281   4.039   4.517   7.669 -0.2235 -0.6683  0.3917
 2882SOL    HW120282   3.967   4.454   7.677 -0.0384 -0.7548  1.3634
 2882SOL    HW220283   3.996   4.580   7.610 -0.8238  0.3402  1.9035
 2883SOL     OW20284   1.059   2.730   2.198 -0.4023 -0.1443  0.1319
 2883SOL    HW120285   0.981   2.704   2.246 -1.3882 -0.1698 -1.4835
 2883SOL    HW220286   1.110   2.669   2.252  2.1097  0.6511 -1.3103
 2884SOL     OW20287   2.074   3.432   1.884 -0.1450 -0.6796  0.1536
 2884SOL    HW120288   2.113   3.380   1.953  0.8619 -0.0182  0.0776
 2884SOL    HW220289   2.142   3.498   1.872 -0.3272 -0.6874 -0.9285
 2885SOL     OW20290   0.475   0.060   1.955  0.1791  0.2860  0.1208
 2885SOL    HW120291   0.555   0.008   1.946  0.3291  0.7515 -1.2763
 2885SOL    HW220292   0.412   4.733   1.920  0.2822  0.8082 -1.0216
 2886SOL     OW20293   0.418   3.245  14.403 -0.0423  0.0787  0.8693
 2886SOL    HW120294   0.497   3.191  14.396  1.2802  1.9590  1.1620
 2886SOL    HW220295   0.446   3.337  14.393 -0.2074 -0.0246 -0.5862
 2887SOL     OW20296   2.533   0.565   3.216 -0.2713  0.2296 -0.2849
 2887SOL    HW120297   2.511   0.500   3.283  1.9516 -0.2032  0.0469
 2887SOL    HW220298   2.612   0.603   3.255 -1.3608  0.7110  1.4312
 2888SOL     OW20299   4.057   2.559   1.838  0.0972  0.4483  0.4831
 2888SOL    HW120300   3.988   2.625   1.850 -1.3192 -1.3805  2.3859
 2888SOL    HW220301   4.043   2.540   1.745 -0.0233 -0.2135  0.6331
 2889SOL     OW20302   4.099   0.470   7.880  0.5223  0.1056  0.4650
 2889SOL    HW120303   4.158   0.413   7.930 -0.0001 -1.5065 -0.7565
 2889SOL    HW220304   4.151   0.539   7.839  0.3156  1.0388  1.7906
 2890SOL     OW20305   3.886   2.197   7.697  0.2953 -0.3838 -0.9479
 2890SOL    HW120306   3.974   2.191   7.735 -0.7392 -1.2496  1.3216
 2890SOL    HW220307   3.854   2.108   7.710 -1.0437  0.4576  1.5252
 2891SOL     OW20308   1.837   4.081   3.592 -0.0995  0.5532 -0.0925
 2891SOL    HW120309   1.889   4.024   3.534  0.6058  0.9650  0.1363
 2891SOL    HW220310   1.874   4.161   3.554 -1.0123  1.5777  1.1853
 2892SOL     OW20311   3.354   4.188   3.024  0.0058 -0.3026  0.1171
 2892SOL    HW120312   3.273   4.194   3.075 -1.6419 -0.6023 -2.4643
 2892SOL    HW220313   3.360   4.094   3.004  2.5822 -0.2860  0.7529
 2893SOL     OW20314   4.560   2.182   5.788  0.0626 -0.2148  0.0918
 2893SOL    HW120315   4.549   2.140   5.703  0.9707 -0.9460  0.3431
 2893SOL    HW220316   4.497   2.130   5.839 -1.4866  0.4034 -1.1826
 2894SOL     OW20317   0.752   0.604   6.622  0.1438  0.1454  0.4663
 2894SOL    HW120318   0.727   0.574   6.709 -1.8135  2.3609  0.6618
 2894SOL    HW220319   0.680   0.574   6.568  0.2776 -0.5668  0.6929
 2895SOL     OW20320   2.946   3.471  17.012 -0.3750 -0.1668 -0.3576
 2895SOL    HW120321   2.905   3.553  17.041  1.6358  0.5171  0.5538
 2895SOL    HW220322   3.004   3.448  17.085 -1.1509 -0.2886  0.2190
 2896SOL     OW20323   1.613   1.082  12.940 -0.3134  0.1820  0.7599
 2896SOL    HW120324   1.695   1.130  12.939  0.0971 -0.5152  1.7763
 2896SOL    HW220325   1.647   0.994  12.951 -1.3500 -0.7233 -3.0858
 2897SOL     OW20326   4.101   3.934  10.789  0.3341 -0.2714  0.3878
 2897SOL    HW120327   4.175   3.989  10.762  0.9322 -1.5595 -0.6044
 2897SOL    HW220328   4.050   3.978  10.856 -1.2862 -0.4567 -0.7167
 2898SOL     OW20329   2.368   3.005   4.819 -0.3416  0.1613  0.2365
 2898SOL    HW120330   2.458   2.984   4.794 -1.1201  0.1098 -2.4611
 2898SOL    HW220331   2.362   2.942   4.890  0.4030 -2.2517 -1.8631
 2899SOL     OW20332   3.516   1.080  11.793 -0.2234  0.0196  0.4661
 2899SOL    HW120333   3.572   1.152  11.764  0.4855 -0.4429  0.6915
 2899SOL    HW220334   3.521   1.089  11.888  2.7166 -0.1512  0.3224
 2900SOL     OW20335   1.035   1.736  16.672 -0.2035  0.4125 -0.1086
 2900SOL    HW120336   1.126   1.766  16.668  0.2173 -0.6326  1.5676
 2900SOL    HW220337   1.056   1.652  16.713 -1.0325 -0.6996 -1.9711
 2901SOL     OW20338   2.663   0.287   6.074  0.2445 -0.2168 -0.0810
 2901SOL    HW120339   2.630   0.243   5.995 -0.4040 -0.6416  0.4302
 2901SOL    HW220340   2.687   0.372   6.038 -0.6407  0.7213  1.5658
 2902SOL     OW20341   0.537   1.112   7.105  0.0540  0.1821 -0.1723
 2902SOL    HW120342   0.606   1.065   7.151  0.1058  0.1272 -0.3042
 2902SOL    HW220343   0.588   1.162   7.042 -0.1161 -1.1021 -1.3388
 2903SOL     OW20344   0.983   4.253  10.443  0.2172  0.3094 -0.2616
 2903SOL    HW120345   1.056   4.221  10.495 -1.6323 -0.7573  1.7118
 2903SOL    HW220346   1.004   4.222  10.355  4.2321 -0.1921  0.9031
 2904SOL     OW20347   1.419   3.661   7.387 -0.6122 -0.2240 -0.3119
 2904SOL    HW120348   1.347   3.698   7.336 -0.6254  0.2301  0.0255
 2904SOL    HW220349   1.477   3.737   7.379  0.1087 -0.8469 -0.9177
 2905SOL     OW20350   0.545   3.451   6.532  0.3981 -0.1152 -0.4315
 2905SOL    HW120351   0.498   3.532   6.511 -0.2736 -0.2670  0.4802
 2905SOL    HW220352   0.573   3.473   6.621  0.5635 -0.0015 -0.5138
 2906SOL     OW20353   4.446   1.324   8.969 -0.4973 -0.3180 -0.2969
 2906SOL    HW120354   4.358   1.360   8.971 -0.2360  0.3247 -0.5746
 2906SOL    HW220355   4.460   1.307   9.062  2.1016 -1.5421 -0.8956
 2907SOL     OW20356   0.447   0.166   3.386  0.1011  0.0035 -0.1841
 2907SOL    HW120357   0.446   0.240   3.326 -0.2113  0.2318  0.1017
 2907SOL    HW220358   0.502   0.102   3.341  0.0382  1.2555 -2.0459
 2908SOL     OW20359   3.873   3.719  11.107  0.8572  0.0098 -0.2193
 2908SOL    HW120360   3.873   3.810  11.079  0.7408  0.5885  1.6914
 2908SOL    HW220361   3.933   3.715  11.181 -1.5234 -0.9904  1.6661
 2909SOL     OW20362   3.488   1.131   0.048 -0.2810 -0.1406 -0.1716
 2909SOL    HW120363   3.478   1.084  17.709 -1.8759 -1.5162  0.7998
 2909SOL    HW220364   3.398   1.157   0.064 -0.0807  0.7288 -0.4552
 2910SOL     OW20365   0.758   3.369  17.604 -0.0496  0.5595  0.0646
 2910SOL    HW120366   0.756   3.465  17.610  0.2272  0.5193  0.8009
 2910SOL    HW220367   0.837   3.355  17.552  0.3044  0.1039  0.7325
 2911SOL     OW20368   1.039   2.534   1.763 -0.0835  0.0711 -0.5999
 2911SOL    HW120369   1.066   2.608   1.817 -0.5922  0.8779 -1.4518
 2911SOL    HW220370   1.111   2.473   1.778 -0.7762 -0.1736  1.7117
 2912SOL     OW20371   2.453   3.621   0.574  0.0381  0.3749 -0.2213
 2912SOL    HW120372   2.419   3.708   0.553  0.4455  0.5067 -0.3315
 2912SOL    HW220373   2.500   3.603   0.493 -0.5959  0.2244 -0.5522
 2913SOL     OW20374   0.135   1.847  16.788  0.3706 -0.5805 -0.4746
 2913SOL    HW120375   0.228   1.864  16.796  0.8429 -2.2816 -2.3978
 2913SOL    HW220376   0.145   1.846  16.693 -1.2811 -2.5991 -0.6230
 2914SOL     OW20377   3.077   4.479   6.978  0.2011  0.0161 -0.0511
 2914SOL    HW120378   3.132   4.507   6.905 -1.3116  3.3049  0.0815
 2914SOL    HW220379   2.992   4.518   6.959  0.5593  1.6315  1.5865
 2915SOL     OW20380   3.461   3.778   4.329  0.1640  0.1847  0.1712
 2915SOL    HW120381   3.421   3.823   4.254  0.6985 -1.4867 -1.1164
 2915SOL    HW220382   3.388   3.768   4.390 -0.2387  1.2180 -0.1327
 2916SOL     OW20383   0.240   0.268   8.237  1.3087 -0.0243  0.8635
 2916SOL    HW120384   0.215   0.202   8.302  1.6056 -0.7790  0.2056
 2916SOL    HW220385   0.282   0.221   8.166 -0.6456 -1.5854  0.7508
 2917SOL     OW20386   0.214   1.476   9.022  0.4347  0.4164 -0.0598
 2917SOL    HW120387   0.119   1.481   9.009  0.3702  0.8123  0.5645
 2917SOL    HW220388   0.230   1.414   9.094 -0.8067 -1.6791 -1.5739
 2918SOL     OW20389   1.313   2.909  14.642 -0.3338 -0.7442 -0.0884
 2918SOL    HW120390   1.310   2.864  14.727  1.0894  2.2383  1.5438
 2918SOL    HW220391   1.305   2.999  14.674 -1.8250 -0.4363 -1.3534
 2919SOL     OW20392   2.942   0.004   3.511 -0.5058 -0.2364 -0.1820
 2919SOL    HW120393   2.932   0.091   3.550  1.3492 -0.3235  0.5023
 2919SOL    HW220394   3.019   0.015   3.455  0.1809  1.3511  1.0462
 2920SOL     OW20395   3.296   2.823   2.262 -0.4971  0.5003  0.8541
 2920SOL    HW120396   3.245   2.859   2.190  1.0755 -0.6440 -0.8183
 2920SOL    HW220397   3.380   2.859   2.234  0.4143 -1.6913  0.7972
 2921SOL     OW20398   1.369   1.197   7.810 -0.2470  0.1248  0.1766
 2921SOL    HW120399   1.419   1.275   7.835  0.7706 -0.5383  0.2032
 2921SOL    HW220400   1.396   1.125   7.868 -0.6950  0.1801  0.4517
 2922SOL     OW20401   1.700   3.288   5.140  0.1380  0.3538  0.2593
 2922SOL    HW120402   1.720   3.335   5.059  0.5006  0.4873  0.4256
 2922SOL    HW220403   1.780   3.310   5.189  0.6899 -0.0627 -0.4609
 2923SOL     OW20404   1.853   2.462   8.836  1.0504  0.0687  0.2280
 2923SOL    HW120405   1.759   2.481   8.838  0.8259 -1.0753  0.5505
 2923SOL    HW220406   1.899   2.546   8.841 -0.8733  1.1929 -0.7869
 2924SOL     OW20407   4.326   4.269   4.331 -0.1660  0.2890 -0.5449
 2924SOL    HW120408   4.308   4.273   4.237 -0.4256  0.4328 -0.4893
 2924SOL    HW220409   4.260   4.201   4.348  3.0761 -2.9283 -0.8954
 2925SOL     OW20410   0.989   4.175   5.232  0.1820  0.5672  0.2657
 2925SOL    HW120411   1.062   4.189   5.171 -0.6312  0.9451 -0.6279
 2925SOL    HW220412   1.029   4.202   5.314 -0.1696 -0.4236  0.7617
 2926SOL     OW20413   1.095   2.155   6.750  0.5580  0.3763 -0.5711
 2926SOL    HW120414   1.157   2.147   6.677 -1.3629 -1.7258 -1.9965
 2926SOL    HW220415   1.031   2.086   6.733 -1.3587  2.4211 -1.6083
 2927SOL     OW20416   1.530   4.081   8.681 -0.2349 -0.1015  0.0672
 2927SOL    HW120417   1.504   4.168   8.712 -3.5500 -0.3047 -2.1094
 2927SOL    HW220418   1.575   4.116   8.603  1.0450 -1.8304  0.0294
 2928SOL     OW20419   0.624   4.402  14.910 -0.2118 -0.5200  0.1400
 2928SOL    HW120420   0.715   4.379  14.929  0.2727  0.6706 -0.7434
 2928SOL    HW220421   0.627   4.385  14.816  0.4425 -0.2458  0.1135
 2929SOL     OW20422   1.124   3.822   3.083 -0.0065 -0.4420  0.1941
 2929SOL    HW120423   1.036   3.833   3.047  0.6412  2.9260 -0.4012
 2929SOL    HW220424   1.176   3.872   3.020 -0.3829  0.1115  0.3185
 2930SOL     OW20425   2.301   2.386   1.847 -0.6156  0.2146 -0.4672
 2930SOL    HW120426   2.233   2.368   1.912  0.3135 -3.4159 -0.4592
 2930SOL    HW220427   2.259   2.373   1.762  2.0690 -2.8280 -1.3433
 2931SOL     OW20428   3.012   0.059   2.677 -0.2750  0.1962  0.1790
 2931SOL    HW120429   2.964   0.095   2.603  1.1258 -0.6264 -1.1100
 2931SOL    HW220430   2.943   0.052   2.744 -2.4965  0.3667 -2.0906
 2932SOL     OW20431   0.055   4.310   6.678 -0.0421  0.2624  0.4984
 2932SOL    HW120432   0.058   4.215   6.667 -0.6028  0.3688 -0.5586
 2932SOL    HW220433   4.698   4.323   6.661  0.1553 -2.0715 -2.2623
 2933SOL     OW20434   4.705   3.066   3.284 -0.3167  0.3600  0.0306
 2933SOL    HW120435   0.011   3.151   3.293 -0.4588  0.3235  1.0617
 2933SOL    HW220436   4.620   3.092   3.249  0.3670  0.5406 -1.4732
 2934SOL     OW20437   0.891   2.577   0.671  0.1942  0.4095 -0.0733
 2934SOL    HW120438   0.941   2.606   0.595  0.8019  0.6824  0.4238
 2934SOL    HW220439   0.959   2.600   0.735  1.2737 -2.0881 -0.3484
 2935SOL     OW20440   2.131   4.501  11.679 -0.3969 -0.2181 -0.1255
 2935SOL    HW120441   2.206   4.509  11.620  1.2018  2.7585  2.3171
 2935SOL    HW220442   2.161   4.537  11.762 -2.2467  0.8914  0.0743
 2936SOL     OW20443   2.001   4.279   4.023  0.4167 -0.1088 -1.0444
 2936SOL    HW120444   1.952   4.218   3.968 -0.9110 -0.8120  0.9157
 2936SOL    HW220445   2.016   4.229   4.104  1.5561  1.4548 -0.2959
 2937SOL     OW20446   4.253   2.927   2.294  0.1234  0.0604  0.3979
 2937SOL    HW120447   4.294   3.007   2.326 -0.3248 -0.1080  1.3801
 2937SOL    HW220448   4.313   2.870   2.343 -0.4828  0.1620  1.2637
 2938SOL     OW20449   4.577   3.754   9.330  0.1982 -0.0921  0.4276
 2938SOL    HW120450   4.515   3.750   9.402 -0.4137 -0.1451 -0.0961
 2938SOL    HW220451   4.660   3.736   9.375  0.1122  0.0364  0.6357
 2939SOL     OW20452   1.927   0.449   1.744 -0.6769 -0.3764 -0.6026
 2939SOL    HW120453   1.990   0.468   1.675  2.5060 -0.9466  2.1720
 2939SOL    HW220454   1.870   0.387   1.698 -0.9160 -0.6682  0.0847
 2940SOL     OW20455   0.179   1.685   0.671 -0.0029  0.2386 -0.3190
 2940SOL    HW120456   0.250   1.744   0.693  0.7668 -1.3030  1.3398
 2940SOL    HW220457   0.100   1.736   0.689 -0.9737 -1.6044  0.6143
 2941SOL     OW20458   1.559   2.646   2.585  0.3884 -0.5775  0.0874
 2941SOL    HW120459   1.514   2.729   2.573  2.7673  0.4917 -1.4552
 2941SOL    HW220460   1.545   2.602   2.502 -0.9829  0.2295 -0.1103
 2942SOL     OW20461   3.624   3.327   4.907  0.4703  0.1280 -0.8618
 2942SOL    HW120462   3.634   3.256   4.844  0.5313 -0.3841 -0.2745
 2942SOL    HW220463   3.714   3.334   4.939 -0.2011  1.0910  0.8181
 2943SOL     OW20464   3.536   2.531   7.365 -0.3976 -0.1089  0.0182
 2943SOL    HW120465   3.539   2.619   7.327  1.6340 -0.2283 -0.1350
 2943SOL    HW220466   3.572   2.552   7.451  1.4457  1.1099 -1.0303
 2944SOL     OW20467   4.629   1.046   8.399  0.3175  0.1673 -0.2144
 2944SOL    HW120468   4.571   0.973   8.416 -0.1723  0.5976 -0.0379
 2944SOL    HW220469   4.662   1.014   8.316  0.0075  1.8607 -0.9974
 2945SOL     OW20470   1.281   3.210   8.218  1.0420 -0.4371  0.1327
 2945SOL    HW120471   1.299   3.302   8.234  0.5329  0.0073 -1.8051
 2945SOL    HW220472   1.369   3.173   8.221  0.7007 -1.2779 -0.0999
 2946SOL     OW20473   1.895   4.250   1.924  0.2626 -0.2605  0.2616
 2946SOL    HW120474   1.840   4.198   1.865  0.4439  0.6751 -0.7402
 2946SOL    HW220475   1.950   4.181   1.963 -1.9780 -1.1477  1.8138
 2947SOL     OW20476   1.249   2.486   9.205  0.5733 -0.1429 -0.6074
 2947SOL    HW120477   1.317   2.471   9.140  1.1353 -0.1439 -0.0231
 2947SOL    HW220478   1.309   2.489   9.279 -1.1367 -0.6382  0.8028
 2948SOL     OW20479   0.806   2.145   5.611  0.0088  0.6193 -0.2563
 2948SOL    HW120480   0.894   2.109   5.600 -0.3756 -0.2571 -0.4583
 2948SOL    HW220481   0.819   2.148   5.706  0.7638  0.5187 -0.3543
 2949SOL     OW20482   4.255   2.364   2.985 -0.1229 -0.1900 -0.3795
 2949SOL    HW120483   4.262   2.424   2.910 -0.1791 -0.4398 -0.5843
 2949SOL    HW220484   4.200   2.417   3.044  1.5176  0.4527  0.5740
 2950SOL     OW20485   2.579   1.053   9.321  0.2591  0.5717  0.0830
 2950SOL    HW120486   2.554   1.144   9.334 -0.1459  0.1076  2.6585
 2950SOL    HW220487   2.581   1.008   9.406  3.2153 -2.8063 -1.7483
 2951SOL     OW20488   2.325   2.777   5.961 -0.3521 -0.1178 -0.3576
 2951SOL    HW120489   2.345   2.703   5.904  2.3036  2.3004 -2.6207
 2951SOL    HW220490   2.411   2.820   5.964 -1.0158  1.0832  1.3823
 2952SOL     OW20491   2.374   2.524   8.710  0.6959 -0.4138  0.0853
 2952SOL    HW120492   2.321   2.481   8.777 -0.8931  2.3831  0.6487
 2952SOL    HW220493   2.301   2.548   8.653  0.3525 -1.1301  0.2254
 2953SOL     OW20494   1.488   4.213   7.576 -0.1949  0.3766  0.0100
 2953SOL    HW120495   1.401   4.236   7.544 -0.3297 -1.2319 -0.7812
 2953SOL    HW220496   1.497   4.280   7.644 -1.3348 -0.4544  0.9803
 2954SOL     OW20497   1.015   0.804   2.185 -0.7186  0.7186 -0.2129
 2954SOL    HW120498   1.016   0.882   2.130 -2.2907  1.3250  0.6224
 2954SOL    HW220499   1.054   0.735   2.132 -0.1934  1.1295 -0.3583
 2955SOL     OW20500   1.433   0.249   2.324  0.1194 -0.1201  0.2613
 2955SOL    HW120501   1.473   0.325   2.282 -1.3940 -0.3538 -1.5733
 2955SOL    HW220502   1.353   0.298   2.342 -0.0265  0.2459 -1.4393
 2956SOL     OW20503   4.472   2.933  14.913  0.5199 -0.3774 -0.1243
 2956SOL    HW120504   4.546   2.948  14.854  1.0406  0.3626  0.7083
 2956SOL    HW220505   4.422   2.995  14.859 -1.5131 -3.3764 -1.6684
 2957SOL     OW20506   1.458   4.370  14.647  0.8552 -0.1462  0.3333
 2957SOL    HW120507   1.472   4.336  14.558 -0.3642  2.5650 -0.8788
 2957SOL    HW220508   1.371   4.342  14.674 -0.0501  0.1126 -2.3146
 2958SOL     OW20509   3.332   4.736   9.173  0.0181 -0.7597  0.4927
 2958SOL    HW120510   3.300   0.059   9.242 -1.9736 -0.7152 -0.4584
 2958SOL    HW220511   3.341   0.056   9.096 -0.8349 -1.1098  0.1275
 2959SOL     OW20512   4.591   3.170  17.068 -0.0334  0.4677 -0.2169
 2959SOL    HW120513   4.617   3.187  17.158 -0.7556  2.5114 -0.3794
 2959SOL    HW220514   4.658   3.112  17.033  0.4466  0.3222  0.9487
 2960SOL     OW20515   1.421   4.337   5.966  0.1509  0.2586 -0.2696
 2960SOL    HW120516   1.448   4.392   5.893  1.0264  0.8857  0.5202
 2960SOL    HW220517   1.461   4.253   5.944 -3.3268 -0.9683 -1.9235
 2961SOL     OW20518   2.510   3.843  16.953  0.3210  0.3743 -0.2730
 2961SOL    HW120519   2.514   3.843  17.048  1.6917 -0.5680 -0.3288
 2961SOL    HW220520   2.597   3.812  16.927  0.4425  0.2826  0.2452
 2962SOL     OW20521   1.371   3.599   9.395  0.5817  0.3718  0.2402
 2962SOL    HW120522   1.449   3.653   9.405  1.9844 -1.2720 -1.8620
 2962SOL    HW220523   1.420   3.517   9.391 -0.3308 -0.2364  1.3080
 2963SOL     OW20524   0.660   1.284   3.261 -0.2956 -0.1359  0.7505
 2963SOL    HW120525   0.566   1.299   3.253 -0.0493  0.7532 -0.5607
 2963SOL    HW220526   0.668   1.212   3.324 -0.3568 -0.2261  0.6556
 2964SOL     OW20527   1.763   2.825   8.700 -0.7130 -0.4635 -0.6317
 2964SOL    HW120528   1.742   2.881   8.625  0.1355  0.2713 -0.3168
 2964SOL    HW220529   1.696   2.855   8.761 -1.7675 -2.8687 -0.6054
 2965SOL     OW20530   3.517   0.290   1.964 -0.6580  0.5342  0.1299
 2965SOL    HW120531   3.577   0.279   1.890 -1.7180 -0.2506 -0.6206
 2965SOL    HW220532   3.431   0.317   1.932 -0.1929  0.3155 -1.3245
 2966SOL     OW20533   0.424   4.382   6.959  0.0370  0.0869 -0.0963
 2966SOL    HW120534   0.332   4.391   6.935 -1.0979 -0.0855  4.0860
 2966SOL    HW220535   0.456   4.467   6.930  0.0219  0.6022  1.3783
 2967SOL     OW20536   2.974   0.682   8.955  0.2853 -0.1061  0.4880
 2967SOL    HW120537   2.962   0.618   8.885 -1.5928 -0.9788  1.6167
 2967SOL    HW220538   2.963   0.769   8.915  1.3561 -0.1218  0.1600
 2968SOL     OW20539   1.364   2.571   4.588 -0.4861 -0.2283  0.8733
 2968SOL    HW120540   1.388   2.499   4.530  1.2314  1.9310 -1.1263
 2968SOL    HW220541   1.417   2.557   4.667 -0.6083  3.7475  1.6648
 2969SOL     OW20542   0.500   1.360  10.809  0.3323  0.1428 -1.0171
 2969SOL    HW120543   0.425   1.366  10.868  2.4685  2.2609  1.4870
 2969SOL    HW220544   0.565   1.303  10.848 -1.5415 -1.5759 -0.4043
 2970SOL     OW20545   1.078   1.569   6.253  0.5176  0.1143  0.3685
 2970SOL    HW120546   1.042   1.657   6.244 -0.8595 -0.5280 -0.3149
 2970SOL    HW220547   1.003   1.510   6.259  1.1833 -0.5216  2.4391
 2971SOL     OW20548   1.719   1.144  10.534  0.3295  0.2153 -0.6154
 2971SOL    HW120549   1.636   1.101  10.512  1.2875 -0.8061 -2.2321
 2971SOL    HW220550   1.686   1.224  10.493  0.7812  1.3235  1.2253
 2972SOL     OW20551   0.173   2.064  13.914 -0.3149  0.2537  0.0276
 2972SOL    HW120552   0.181   2.011  13.835  0.2680 -0.0180  0.2646
 2972SOL    HW220553   0.163   2.147  13.867  2.4057  1.3890  1.4369
 2973SOL     OW20554   0.290   1.805  17.466 -0.6884  0.3564 -0.0359
 2973SOL    HW120555   0.307   1.797  17.373 -4.7567  2.5718 -0.9771
 2973SOL    HW220556   0.255   1.894  17.473  1.3767  0.9420  2.8351
 2974SOL     OW20557   0.267   1.240  17.448 -0.1132  0.0909  0.1111
 2974SOL    HW120558   0.308   1.165  17.492  1.0210  0.5255 -0.2229
 2974SOL    HW220559   0.296   1.314  17.500  1.8735 -0.7226  0.1463
 2975SOL     OW20560   0.172   4.019   4.338 -0.3638  0.0188  0.3325
 2975SOL    HW120561   0.148   4.098   4.385  0.7264  0.8499 -0.5023
 2975SOL    HW220562   0.246   4.045   4.283 -2.0306  0.9635 -1.4600
 2976SOL     OW20563   0.681   2.325  16.800  0.0455 -0.6930  0.5243
 2976SOL    HW120564   0.701   2.358  16.713 -0.7922 -1.9905 -0.1633
 2976SOL    HW220565   0.772   2.317  16.831  0.0432  0.5715  0.8414
 2977SOL     OW20566   3.556   2.748  13.878  0.4706 -0.1844 -0.6199
 2977SOL    HW120567   3.623   2.719  13.816  0.1865 -0.6153 -0.7219
 2977SOL    HW220568   3.500   2.807  13.827 -1.2015 -2.4968 -1.4653
 2978SOL     OW20569   1.406   4.568   3.897  0.4153  0.1309 -0.1784
 2978SOL    HW120570   1.479   4.506   3.898  0.7286  0.5430  2.1353
 2978SOL    HW220571   1.360   4.551   3.814 -1.8119  1.5537  0.7628
 2979SOL     OW20572   3.729   1.985   7.805 -0.8013  0.2601  0.2214
 2979SOL    HW120573   3.749   2.059   7.861  0.8718  0.6661 -0.9004
 2979SOL    HW220574   3.640   1.965   7.832 -0.3280 -1.4073  0.5474
 2980SOL     OW20575   1.371   1.369   9.776  0.3520 -0.1307 -0.0059
 2980SOL    HW120576   1.377   1.400   9.866  0.8522 -0.3674  0.0386
 2980SOL    HW220577   1.379   1.449   9.723  0.4530 -1.5661 -2.1342
 2981SOL     OW20578   1.200   2.803   3.976 -0.2423  0.3314  0.1189
 2981SOL    HW120579   1.178   2.814   4.068  3.6579 -1.8925  1.2990
 2981SOL    HW220580   1.254   2.724   3.976 -1.4855 -0.5238 -0.0420
 2982SOL     OW20581   3.193   4.373   3.237  0.1798  0.1169 -0.1564
 2982SOL    HW120582   3.251   4.448   3.252 -1.7460  1.7244 -0.6194
 2982SOL    HW220583   3.133   4.383   3.311  0.2659  0.9102 -0.1915
 2983SOL     OW20584   1.576   2.241   8.506 -0.3801 -0.1202 -0.1564
 2983SOL    HW120585   1.621   2.241   8.591 -1.0553  0.1675  0.2032
 2983SOL    HW220586   1.558   2.147   8.508  0.5957 -0.2995  0.5236
 2984SOL     OW20587   2.584   2.803  14.988  0.7793  0.6538  0.1796
 2984SOL    HW120588   2.644   2.821  14.916 -0.1641  0.1639 -0.7272
 2984SOL    HW220589   2.637   2.757  15.053  2.1853  0.9540 -0.7450
 2985SOL     OW20590   2.324   3.792   3.594 -0.4438  0.1523  0.2709
 2985SOL    HW120591   2.378   3.725   3.636 -0.5990  0.0256  0.2680
 2985SOL    HW220592   2.369   3.870   3.626  0.7079 -0.0453 -0.8440
 2986SOL     OW20593   1.408   3.287   5.783  0.1292 -0.0746 -0.2277
 2986SOL    HW120594   1.385   3.347   5.712 -1.9898 -0.6242 -0.0034
 2986SOL    HW220595   1.367   3.325   5.860  1.2257  0.6291  0.0126
 2987SOL     OW20596   3.904   2.439   7.526 -0.0288  0.0992  0.2763
 2987SOL    HW120597   3.886   2.499   7.598 -3.2718 -1.8869  1.1351
 2987SOL    HW220598   3.927   2.361   7.577  2.6388  0.4917 -0.3451
 2988SOL     OW20599   4.228   2.245   3.528 -0.6151 -0.2669 -0.0343
 2988SOL    HW120600   4.233   2.311   3.459 -0.1608 -0.6994 -0.4086
 2988SOL    HW220601   4.199   2.294   3.606  0.4778  2.6176 -1.4401
 2989SOL     OW20602   4.274   4.334   1.264  0.3090 -0.0121  0.6386
 2989SOL    HW120603   4.307   4.290   1.186  0.3588 -0.7974  1.1120
 2989SOL    HW220604   4.180   4.330   1.246  0.4367 -0.2218  0.0298
 2990SOL     OW20605   2.259   4.414   9.433 -0.7077 -0.2430  0.1853
 2990SOL    HW120606   2.278   4.392   9.524 -0.9493 -1.6065 -0.0901
 2990SOL    HW220607   2.328   4.471   9.401 -1.9502  0.1070 -1.9370
 2991SOL     OW20608   1.144   0.948   8.246  0.0661 -0.0896 -0.4088
 2991SOL    HW120609   1.217   0.953   8.184  0.4315 -1.6169 -0.1046
 2991SOL    HW220610   1.192   0.932   8.327 -0.2734 -3.6252 -0.8852
 2992SOL     OW20611   0.842   1.848   5.452  0.2440  0.5563  0.5953
 2992SOL    HW120612   0.824   1.770   5.505 -1.0882 -0.8848 -2.0169
 2992SOL    HW220613   0.929   1.870   5.486  0.1771  0.0132  1.1213
 2993SOL     OW20614   3.867   0.762   2.057  0.0720 -0.4183  0.3608
 2993SOL    HW120615   3.945   0.787   2.008 -0.5939  1.6308  0.3423
 2993SOL    HW220616   3.895   0.681   2.098  0.1426 -1.8531 -2.4995
 2994SOL     OW20617   2.393   0.702   4.259 -0.1343  0.7321 -0.2440
 2994SOL    HW120618   2.323   0.638   4.248 -0.9616  1.8248 -1.3990
 2994SOL    HW220619   2.381   0.757   4.182  1.7618  0.4005 -0.7689
 2995SOL     OW20620   1.886   0.024   2.505  0.2249  0.5246 -0.0177
 2995SOL    HW120621   1.792   0.011   2.520  0.8202 -0.0947  3.1547
 2995SOL    HW220622   1.916   0.064   2.587  0.0364  0.1661  0.2265
 2996SOL     OW20623   0.903   0.756   5.980 -0.5695 -0.2803  0.1698
 2996SOL    HW120624   0.920   0.748   6.074 -1.3856 -0.7632  0.2808
 2996SOL    HW220625   0.982   0.728   5.934 -0.2113 -0.8218  1.1194
 2997SOL     OW20626   3.718   3.068  11.361 -0.4042 -0.5766  0.0476
 2997SOL    HW120627   3.748   3.029  11.443  0.7863 -1.0010 -0.5970
 2997SOL    HW220628   3.660   3.132  11.402  2.0242  1.6521 -0.0024
 2998SOL     OW20629   3.984   4.474  12.551  0.5181  0.3065  0.3208
 2998SOL    HW120630   3.978   4.478  12.646  0.3971  0.1579  0.3196
 2998SOL    HW220631   3.971   4.382  12.526  1.1621  0.6140 -1.0906
 2999SOL     OW20632   0.878   4.573  14.306  0.4476 -0.0156 -0.3760
 2999SOL    HW120633   0.837   4.541  14.225 -0.6950  0.2543  0.0982
 2999SOL    HW220634   0.901   4.487  14.341  2.4553  0.6712  0.0015
 3000SOL     OW20635   0.058   3.368   6.641 -0.1002  0.1330 -0.0032
 3000SOL    HW120636   0.105   3.380   6.559 -0.3057 -0.6931 -0.2386
 3000SOL    HW220637   4.719   3.427   6.639  1.0443  1.5751 -0.0989
 3001SOL     OW20638   3.897   1.506   2.787 -0.0467  0.1090 -0.0455
 3001SOL    HW120639   3.910   1.582   2.730 -1.7821  1.0147  0.7743
 3001SOL    HW220640   3.894   1.544   2.875 -0.4683 -0.4157  0.1621
 3002SOL     OW20641   1.424   1.885  16.066  0.0711 -0.1141 -0.0568
 3002SOL    HW120642   1.414   1.963  16.011 -1.1524 -0.3392 -0.1501
 3002SOL    HW220643   1.398   1.920  16.151  0.0216 -0.4863  0.0776
 3003SOL     OW20644   3.236   4.098   6.982 -0.5718  0.0670  0.3537
 3003SOL    HW120645   3.269   4.175   7.028  1.5778 -0.1715 -0.8156
 3003SOL    HW220646   3.315   4.045   6.970 -1.0169  0.2173 -3.0744
 3004SOL     OW20647   3.350   4.364   2.354  0.2168  0.4788 -0.1969
 3004SOL    HW120648   3.351   4.279   2.396  1.0363  0.1819 -0.8064
 3004SOL    HW220649   3.260   4.393   2.372 -0.7801 -3.2576  0.7134
 3005SOL     OW20650   1.550   2.822   9.224  0.8185 -0.0523 -0.0885
 3005SOL    HW120651   1.643   2.825   9.247  1.0410  1.3657 -1.2240
 3005SOL    HW220652   1.509   2.806   9.309  1.8079 -3.9882 -0.3436
 3006SOL     OW20653   2.770   4.422   1.591 -0.6650  0.3226  0.1215
 3006SOL    HW120654   2.773   4.359   1.519 -2.8027 -1.4581  1.5935
 3006SOL    HW220655   2.817   4.368   1.655 -0.7730  1.0485  0.8106
 3007SOL     OW20656   4.529   4.092  10.474 -0.8081  0.1946 -0.4394
 3007SOL    HW120657   4.519   4.058  10.563  3.1943  0.9211  0.2768
 3007SOL    HW220658   4.571   4.176  10.492  0.3819 -0.1078 -1.7805
 3008SOL     OW20659   2.767   3.315   2.319 -0.1050 -0.5901  0.3483
 3008SOL    HW120660   2.729   3.227   2.326 -4.1685  1.2625  1.5651
 3008SOL    HW220661   2.858   3.291   2.299  0.4511  1.0092  1.0016
 3009SOL     OW20662   4.393   2.659   7.881  0.1155  0.4839 -0.3334
 3009SOL    HW120663   4.481   2.647   7.845  0.4404  0.3497  0.5141
 3009SOL    HW220664   4.395   2.743   7.925 -1.2683 -0.3428  1.3226
 3010SOL     OW20665   3.352   0.922  11.014  0.5604  0.8034  0.1782
 3010SOL    HW120666   3.394   0.952  10.933 -0.1620  1.2029 -0.0479
 3010SOL    HW220667   3.345   1.000  11.069  2.6050  0.5945  0.7344
 3011SOL     OW20668   4.098   4.131   0.420 -0.1851  0.0496 -0.3661
 3011SOL    HW120669   4.101   4.189   0.344 -1.0459  0.8436  0.2142
 3011SOL    HW220670   4.157   4.059   0.397 -1.1648 -0.6431 -0.7363
 3012SOL     OW20671   1.224   3.705   8.866 -0.2086  0.3424 -0.7181
 3012SOL    HW120672   1.268   3.734   8.946  1.4217 -1.2766 -1.0068
 3012SOL    HW220673   1.282   3.754   8.807 -0.4166  2.6927  1.0341
 3013SOL     OW20674   2.213   0.049   0.477 -0.2923  0.3964 -0.4978
 3013SOL    HW120675   2.256   0.121   0.432 -3.2547  3.6409  1.8270
 3013SOL    HW220676   2.296   0.008   0.499  0.3898  1.4653 -1.1048
 3014SOL     OW20677   0.420   2.674   3.004  0.0317 -0.6026 -0.1680
 3014SOL    HW120678   0.391   2.635   2.922  2.0194  2.4546 -2.3158
 3014SOL    HW220679   0.333   2.671   3.044  0.0044 -0.8688 -0.2474
 3015SOL     OW20680   2.443   2.210   4.852  0.5786 -0.4975  0.1151
 3015SOL    HW120681   2.466   2.133   4.903  1.0496 -0.0086  0.6522
 3015SOL    HW220682   2.528   2.251   4.874  1.6579 -2.1492 -1.0342
 3016SOL     OW20683   0.354   2.906   6.084 -0.5397  0.1679 -0.2019
 3016SOL    HW120684   0.425   2.842   6.082  0.6680  1.5444 -0.9802
 3016SOL    HW220685   0.284   2.847   6.112  0.5431 -1.2954 -0.6494
 3017SOL     OW20686   2.891   0.625   5.388 -0.2099 -0.2194 -0.2056
 3017SOL    HW120687   2.877   0.671   5.471  0.8167 -0.8057  0.2933
 3017SOL    HW220688   2.802   0.595   5.369 -0.2498 -0.4269  0.3077
 3018SOL     OW20689   1.549   4.567  11.987 -0.6531  0.2167 -0.5415
 3018SOL    HW120690   1.629   4.619  12.003 -0.4986  0.0238 -0.6837
 3018SOL    HW220691   1.490   4.639  12.009 -0.1119  0.3766  0.3865
 3019SOL     OW20692   0.131   3.790   3.670  0.2949 -0.5845 -0.2084
 3019SOL    HW120693   0.141   3.837   3.587  0.8518  0.4006  0.4138
 3019SOL    HW220694   0.096   3.712   3.629 -0.9601 -0.2233  0.1752
 3020SOL     OW20695   1.199   3.991  15.238  0.3317 -0.4724 -0.0497
 3020SOL    HW120696   1.193   3.981  15.143  2.2906  0.7360 -0.2959
 3020SOL    HW220697   1.207   3.900  15.266 -1.0084 -0.3445  0.7285
 3021SOL     OW20698   0.251   1.833   9.356  0.3733  0.2295 -0.2589
 3021SOL    HW120699   0.251   1.924   9.328 -0.8789 -0.4165 -2.3814
 3021SOL    HW220700   0.329   1.809   9.306  0.2705 -0.5733 -0.0369
 3022SOL     OW20701   4.307   0.131   7.627 -0.4488  0.0586  0.7601
 3022SOL    HW120702   4.385   0.103   7.674  0.7021  2.1103  0.0887
 3022SOL    HW220703   4.287   0.049   7.581  1.8335 -1.9175  3.3020
 3023SOL     OW20704   3.091   3.905  16.400  1.1611 -0.2133  0.1873
 3023SOL    HW120705   3.155   3.944  16.341  2.3134 -0.6287  1.1664
 3023SOL    HW220706   3.136   3.822  16.414  0.0905 -0.6917  0.8278
 3024SOL     OW20707   3.998   1.052  11.685 -0.6817 -0.2102 -0.0230
 3024SOL    HW120708   3.980   0.960  11.702 -0.1468 -0.3416 -0.1744
 3024SOL    HW220709   4.051   1.032  11.608 -1.8599 -0.5043 -0.7683
 3025SOL     OW20710   3.851   3.964  16.980 -0.1237  0.0303 -0.1276
 3025SOL    HW120711   3.817   3.953  16.891  1.4430  0.5314 -0.7953
 3025SOL    HW220712   3.930   3.913  16.961  0.8831  0.3778  3.1491
 3026SOL     OW20713   2.990   1.490   9.280 -0.2801  0.3923  0.6047
 3026SOL    HW120714   3.084   1.482   9.261 -0.2851  0.4736  0.5497
 3026SOL    HW220715   2.990   1.410   9.334 -1.2433 -0.5968 -0.8786
 3027SOL     OW20716   0.133   1.211   8.315 -0.7942 -0.0373  0.5343
 3027SOL    HW120717   0.063   1.219   8.250 -1.7205 -0.4951  1.4900
 3027SOL    HW220718   0.089   1.152   8.376 -1.9577 -3.1916 -3.4076
 3028SOL     OW20719   1.053   0.669   1.117  0.0929 -0.4697 -0.3887
 3028SOL    HW120720   1.027   0.758   1.096 -1.1940 -0.2657  2.0980
 3028SOL    HW220721   1.128   0.686   1.174 -0.4298  0.4187  0.0397
 3029SOL     OW20722   2.098   1.216  12.368  0.0587  0.6715  0.3610
 3029SOL    HW120723   2.184   1.235  12.332  0.6972  0.3715  1.7166
 3029SOL    HW220724   2.038   1.200  12.295  1.6324 -0.9689 -0.5786
 3030SOL     OW20725   2.365   3.841   1.666  0.2622 -0.1870  0.1479
 3030SOL    HW120726   2.390   3.930   1.642  0.4251  0.1853  1.7153
 3030SOL    HW220727   2.270   3.846   1.671  0.1570  0.9260 -2.5023
 3031SOL     OW20728   2.637   4.312   8.056  0.2149 -0.0832  0.0125
 3031SOL    HW120729   2.570   4.266   8.106 -0.0883  0.6147  0.2634
 3031SOL    HW220730   2.577   4.385   8.041  0.3707 -0.1895 -1.1074
 3032SOL     OW20731   3.656   2.226   2.271  0.7551 -0.3369  0.1861
 3032SOL    HW120732   3.693   2.143   2.239 -1.4652 -0.9721 -0.7347
 3032SOL    HW220733   3.570   2.219   2.230  0.1391 -2.8671  1.8827
 3033SOL     OW20734   2.215   0.811   2.817  0.5978 -0.3424  0.3402
 3033SOL    HW120735   2.280   0.756   2.860  0.9537 -2.0119 -2.3183
 3033SOL    HW220736   2.151   0.749   2.783  0.5696 -0.4181  0.5322
 3034SOL     OW20737   2.820   1.515   5.217  0.1168 -0.6390 -0.3710
 3034SOL    HW120738   2.725   1.522   5.212  0.0868  0.1077  1.2622
 3034SOL    HW220739   2.839   1.578   5.148  4.1265 -0.8658  0.4999
 3035SOL     OW20740   1.895   1.268   6.365 -0.5627 -0.3744  0.2646
 3035SOL    HW120741   1.860   1.349   6.329 -1.6867 -1.1051 -0.2981
 3035SOL    HW220742   1.906   1.292   6.457  1.0000  2.0939 -0.5794
 3036SOL     OW20743   0.661   4.393   6.074 -0.1412  0.1921 -0.1614
 3036SOL    HW120744   0.586   4.403   6.016  0.3432  2.3485 -0.3861
 3036SOL    HW220745   0.718   4.354   6.008 -1.0693  2.6540 -2.3571
 3037SOL     OW20746   2.591   0.317   6.342 -0.1249  0.2083 -0.6408
 3037SOL    HW120747   2.510   0.275   6.370 -1.4189  2.0498 -1.6028
 3037SOL    HW220748   2.591   0.315   6.246 -1.3784  1.1556 -0.6610
 3038SOL     OW20749   3.534   3.581   8.789 -0.1108  0.0333  0.0853
 3038SOL    HW120750   3.454   3.539   8.755 -1.2056  3.3827 -1.5175
 3038SOL    HW220751   3.487   3.628   8.858 -0.0138 -1.3709  1.0948
 3039SOL     OW20752   0.837   4.679  11.160 -0.0714  0.2021  0.4982
 3039SOL    HW120753   0.768   4.736  11.125 -0.9939 -0.6729  0.8617
 3039SOL    HW220754   0.795   4.597  11.187  0.8166 -0.6710 -0.7581
 3040SOL     OW20755   0.165   0.848   6.233  0.4727 -0.7304  0.2860
 3040SOL    HW120756   0.139   0.756   6.235 -0.2691 -0.5587 -1.2211
 3040SOL    HW220757   0.098   0.884   6.175  1.4961  0.3040 -0.2608
 3041SOL     OW20758   3.258   0.443   9.011  0.2526  0.0680 -0.1979
 3041SOL    HW120759   3.217   0.516   8.964 -0.8765 -0.6773 -0.3824
 3041SOL    HW220760   3.293   0.489   9.087  0.9624 -1.9334  0.6705
 3042SOL     OW20761   4.259   4.073   1.908  1.2274 -0.0392 -0.4142
 3042SOL    HW120762   4.236   4.068   2.000 -1.4020  2.3356 -0.9129
 3042SOL    HW220763   4.245   3.980   1.891  0.7443 -0.1021  0.3213
 3043SOL     OW20764   4.303   1.757  10.401 -0.0195  0.2619 -0.1669
 3043SOL    HW120765   4.263   1.831  10.447  1.7241  1.2957 -0.3344
 3043SOL    HW220766   4.393   1.789  10.399 -0.8327  2.6102  0.8013
 3044SOL     OW20767   1.084   3.114   5.584  0.6380  0.2294  0.4379
 3044SOL    HW120768   1.143   3.174   5.539  0.5889  1.4805  2.0679
 3044SOL    HW220769   1.064   3.172   5.657  1.0650  0.4835  0.3468
 3045SOL     OW20770   0.573   3.036   6.685  0.2871 -0.0269 -0.1508
 3045SOL    HW120771   0.515   3.101   6.726  1.7370 -1.0098  3.4569
 3045SOL    HW220772   0.521   3.005   6.611  0.4800  1.1628 -0.8031
 3046SOL     OW20773   3.107   1.455   6.595  0.1167 -0.1213 -0.1592
 3046SOL    HW120774   3.118   1.368   6.557 -2.5041 -0.0829 -1.0578
 3046SOL    HW220775   3.020   1.450   6.636 -1.3035  1.0695 -2.9792
 3047SOL     OW20776   2.288   4.712   1.252 -0.1091  0.7823 -0.1890
 3047SOL    HW120777   2.198   4.678   1.249 -0.6631  2.0403  2.1190
 3047SOL    HW220778   2.332   4.647   1.307  0.2108  0.7277 -0.5099
 3048SOL     OW20779   3.549   4.130   3.849 -0.4102 -0.3016  0.5264
 3048SOL    HW120780   3.552   4.216   3.891 -0.6456  0.9488 -2.0093
 3048SOL    HW220781   3.639   4.103   3.832 -1.0427 -3.0013  1.4751
 3049SOL     OW20782   0.812   1.940   5.204  0.0755  0.1274  0.3770
 3049SOL    HW120783   0.905   1.945   5.184  0.1323  1.2110  0.8969
 3049SOL    HW220784   0.812   1.903   5.292 -1.9991 -0.6427  0.0491
 3050SOL     OW20785   4.633   4.334   0.784  0.0406 -0.2006  0.6931
 3050SOL    HW120786   4.684   4.411   0.759 -1.6029  0.3912 -0.9269
 3050SOL    HW220787   4.692   4.259   0.779 -1.4880 -1.4249  0.7679
 3051SOL     OW20788   0.606   4.670   4.592  0.6937  0.0931  0.0596
 3051SOL    HW120789   0.638   0.014   4.549 -2.6283  1.2680 -0.1981
 3051SOL    HW220790   0.533   4.689   4.651  0.1018 -0.2974 -0.5515
 3052SOL     OW20791   3.162   0.105  13.150 -0.4602  0.1944 -0.0854
 3052SOL    HW120792   3.164   0.091  13.245  0.1245 -0.1852 -0.1547
 3052SOL    HW220793   3.180   0.018  13.115 -0.0505  0.6931 -1.1282
 3053SOL     OW20794   1.712   1.498   4.383 -0.4196  0.1291 -0.1025
 3053SOL    HW120795   1.785   1.492   4.322 -0.6945 -0.6173 -0.3513
 3053SOL    HW220796   1.646   1.551   4.339 -0.9573 -0.6311 -0.1992
 3054SOL     OW20797   2.148   3.881   8.923  0.3441  0.0666  0.5093
 3054SOL    HW120798   2.104   3.853   8.843  2.0130 -2.3864  0.4598
 3054SOL    HW220799   2.181   3.793   8.940 -0.3363 -0.6384 -1.8615
 3055SOL     OW20800   3.581   0.841   6.097 -0.0252 -0.0687  0.0824
 3055SOL    HW120801   3.537   0.884   6.170 -1.1392  0.7782 -1.0647
 3055SOL    HW220802   3.653   0.806   6.148 -0.9460  0.2480  1.5949
 3056SOL     OW20803   2.901   0.020   5.141 -0.2226 -0.7436  0.4466
 3056SOL    HW120804   2.964   0.058   5.080 -0.2941 -0.4193  0.5749
 3056SOL    HW220805   2.948   4.697   5.199  0.0942  1.4578  2.4135
 3057SOL     OW20806   4.492   2.101   1.343 -0.7297  0.0706 -0.0129
 3057SOL    HW120807   4.544   2.181   1.336 -0.8039 -0.0216 -1.7142
 3057SOL    HW220808   4.405   2.137   1.329 -0.6338  0.5203  0.5750
 3058SOL     OW20809   0.693   4.358  11.500 -0.2797  0.5662 -0.4371
 3058SOL    HW120810   0.614   4.329  11.454 -0.5467 -0.1350  0.4726
 3058SOL    HW220811   0.692   4.450  11.473  0.2864  0.0696 -2.1626
 3059SOL     OW20812   0.619   0.780   7.646  0.0417  0.3007  0.4309
 3059SOL    HW120813   0.563   0.710   7.614  0.5685 -0.1420  0.4844
 3059SOL    HW220814   0.568   0.860   7.659  0.6283  0.5127  1.4468
 3060SOL     OW20815   3.998   2.667  11.862  0.0778  0.1237 -0.4690
 3060SOL    HW120816   4.088   2.637  11.848  0.1454 -0.4912  1.2147
 3060SOL    HW220817   3.994   2.759  11.835  4.0406  0.0684 -1.2023
 3061SOL     OW20818   1.654   2.652   7.544  0.3153 -0.6863  0.3707
 3061SOL    HW120819   1.632   2.740   7.576 -0.5080 -0.0487 -1.9223
 3061SOL    HW220820   1.667   2.678   7.453 -1.0952  0.2231  0.4256
 3062SOL     OW20821   0.353   2.926   3.782  0.4837  0.2892  0.1378
 3062SOL    HW120822   0.423   2.975   3.825  0.5325 -1.5457  2.1505
 3062SOL    HW220823   0.279   2.986   3.794  0.4191  0.1339  0.5238
 3063SOL     OW20824   4.407   1.639   8.801  0.6167 -0.6847  0.4514
 3063SOL    HW120825   4.433   1.715   8.749 -0.9391  1.3766  2.7211
 3063SOL    HW220826   4.419   1.567   8.738  1.4993  0.0236 -0.1887
 3064SOL     OW20827   1.457   2.424   3.365 -0.0831  0.2400  0.1994
 3064SOL    HW120828   1.388   2.485   3.340  1.6708  0.9721 -2.8486
 3064SOL    HW220829   1.406   2.347   3.339 -2.6342  1.5197  1.3639
 3065SOL     OW20830   4.325   2.780   5.382  0.0727  0.0747 -0.8489
 3065SOL    HW120831   4.353   2.722   5.452 -1.0101  1.9251  1.1263
 3065SOL    HW220832   4.346   2.730   5.303  0.3556  0.6031 -1.1080
 3066SOL     OW20833   0.816   2.357   8.581  0.1394  0.2951  0.6667
 3066SOL    HW120834   0.814   2.428   8.646 -0.2560 -0.1379  1.1295
 3066SOL    HW220835   0.785   2.284   8.635  2.0636 -1.7068 -0.9905
 3067SOL     OW20836   3.573   0.931  17.341 -0.4037 -0.2858  0.5822
 3067SOL    HW120837   3.571   0.922  17.246  1.1795 -3.8952  0.8864
 3067SOL    HW220838   3.628   1.009  17.345 -3.2690  1.8701 -2.5583
 3068SOL     OW20839   1.818   3.186   8.268  0.4172 -0.0747  0.3080
 3068SOL    HW120840   1.902   3.203   8.310 -0.7161  1.6155  1.8800
 3068SOL    HW220841   1.845   3.123   8.201  0.1003 -1.4067  1.4324
 3069SOL     OW20842   1.339   3.761   9.108 -0.3027 -0.1676 -0.2158
 3069SOL    HW120843   1.333   3.708   9.187  1.1061  0.3227  0.2173
 3069SOL    HW220844   1.424   3.805   9.115 -1.0682  1.1991  0.4859
 3070SOL     OW20845   3.889   0.086   1.091  0.0388  0.1941  0.3826
 3070SOL    HW120846   3.821   0.025   1.063  0.2076 -0.8109  2.1732
 3070SOL    HW220847   3.881   0.143   1.015  0.9226  0.5764  0.5778
 3071SOL     OW20848   3.237   1.082   4.195  0.2119 -0.1186 -0.1656
 3071SOL    HW120849   3.187   1.153   4.156 -1.3181 -1.1676 -0.1231
 3071SOL    HW220850   3.215   1.092   4.287  1.9415 -1.7905  0.4346
 3072SOL     OW20851   3.374   1.876   5.930  0.2913  0.2700 -0.2623
 3072SOL    HW120852   3.337   1.820   5.998 -0.1536 -0.8707 -1.4439
 3072SOL    HW220853   3.314   1.951   5.921 -1.7036 -1.3405 -0.3321
 3073SOL     OW20854   1.507   3.168   1.689 -0.5979 -0.4878 -0.2783
 3073SOL    HW120855   1.526   3.256   1.656 -2.4159  0.6700  1.7351
 3073SOL    HW220856   1.469   3.184   1.775  0.2031  1.6770 -0.3099
 3074SOL     OW20857   2.070   3.877   1.601 -0.5748  0.1863 -0.1887
 3074SOL    HW120858   1.992   3.845   1.556 -0.9978  0.7955  0.1137
 3074SOL    HW220859   2.046   3.838   1.685 -0.7410  1.4406  0.3342
 3075SOL     OW20860   1.365   0.101   3.829 -0.7166 -0.1584  0.8793
 3075SOL    HW120861   1.383   0.010   3.854 -2.6141 -0.4479  1.2192
 3075SOL    HW220862   1.441   0.148   3.862  0.1226 -1.1350  0.3198
 3076SOL     OW20863   1.132   0.710   5.838  1.2476  0.3807  0.3202
 3076SOL    HW120864   1.186   0.656   5.895  0.3092 -2.0481 -1.0960
 3076SOL    HW220865   1.166   0.797   5.859  1.1530 -0.1714  2.7445
 3077SOL     OW20866   3.290   3.527   7.777  0.3372  0.1241 -0.0211
 3077SOL    HW120867   3.301   3.434   7.795 -2.3918 -0.0183  0.8798
 3077SOL    HW220868   3.261   3.549   7.865  1.0906 -0.2365  0.3112
 3078SOL     OW20869   4.123   1.477   8.276  0.4242 -0.0800 -0.3478
 3078SOL    HW120870   4.033   1.460   8.306  1.1019 -2.0511  0.5976
 3078SOL    HW220871   4.163   1.392   8.293 -1.4107 -0.9655 -0.3853
 3079SOL     OW20872   2.783   0.547   7.885 -0.2065 -0.0897  0.4588
 3079SOL    HW120873   2.814   0.596   7.808 -2.9952 -0.2672 -0.7972
 3079SOL    HW220874   2.865   0.502   7.907  0.0602  0.1174 -0.0872
 3080SOL     OW20875   3.887   1.971  15.183 -0.1525 -0.4191  0.0112
 3080SOL    HW120876   3.878   2.018  15.100 -1.0324  1.2674  1.0589
 3080SOL    HW220877   3.809   1.993  15.233 -1.0928 -2.4275 -0.5784
 3081SOL     OW20878   2.612   1.930   7.580 -0.5821  0.7535 -0.0700
 3081SOL    HW120879   2.602   2.025   7.582  3.5897  1.1659  2.5794
 3081SOL    HW220880   2.615   1.917   7.675 -0.5531  0.2178 -0.1420
 3082SOL     OW20881   2.508   3.172   1.915  0.1591  0.2465 -0.2828
 3082SOL    HW120882   2.522   3.113   1.841  0.7878  1.5237 -1.2037
 3082SOL    HW220883   2.421   3.197   1.884 -0.7727 -2.3744  0.3258
 3083SOL     OW20884   3.364   1.118   1.760  0.4765 -0.0072  1.3371
 3083SOL    HW120885   3.395   1.162   1.681  0.2963 -3.1845 -0.5122
 3083SOL    HW220886   3.277   1.158   1.761 -0.3924 -1.8670  0.2710
 3084SOL     OW20887   3.831   1.843  14.820 -0.1181 -0.2284  0.3908
 3084SOL    HW120888   3.816   1.903  14.892 -1.9258 -1.1744  0.7989
 3084SOL    HW220889   3.900   1.888  14.770 -0.1590 -0.8620 -0.2502
 3085SOL     OW20890   1.229   4.544   9.530 -0.1034  0.1193 -0.0581
 3085SOL    HW120891   1.286   4.603   9.481  2.2701 -1.1272  1.1938
 3085SOL    HW220892   1.281   4.464   9.517  0.3093  0.0522  2.0136
 3086SOL     OW20893   1.510   2.212  12.721 -0.2231 -0.2156 -0.9732
 3086SOL    HW120894   1.424   2.196  12.682 -0.6987 -1.4606  0.6267
 3086SOL    HW220895   1.535   2.129  12.761 -0.1224  0.3254  0.0893
 3087SOL     OW20896   4.662   1.196  17.004 -0.1992  0.1016  0.2927
 3087SOL    HW120897   4.721   1.260  16.966  0.2164  0.2575  1.2106
 3087SOL    HW220898   4.717   1.121  17.026  1.3026  0.7318 -1.3540
 3088SOL     OW20899   4.138   0.753   3.051 -0.6316 -0.0546  0.1052
 3088SOL    HW120900   4.234   0.756   3.060 -0.6527 -3.2403  1.4003
 3088SOL    HW220901   4.115   0.661   3.067  0.3981 -0.5168 -1.0796
 3089SOL     OW20902   1.312   1.747   5.441 -0.0456  0.2110 -0.3426
 3089SOL    HW120903   1.259   1.674   5.473  0.7752  1.7453  4.5486
 3089SOL    HW220904   1.268   1.760   5.357  0.6169  1.6482 -0.4706
 3090SOL     OW20905   3.821   0.909   8.053  0.2561 -0.3969  0.3744
 3090SOL    HW120906   3.882   0.835   8.049 -1.9369 -2.1178 -1.4795
 3090SOL    HW220907   3.878   0.985   8.041 -0.3700 -0.1557 -1.0750
 3091SOL     OW20908   0.088   2.793   8.274 -0.3111 -0.3150 -0.1733
 3091SOL    HW120909   0.089   2.771   8.367  0.2691 -0.9699 -0.3353
 3091SOL    HW220910   0.084   2.702   8.245  1.1425 -0.3349 -0.3063
 3092SOL     OW20911   0.760   1.599  10.003 -0.2468 -0.2024  0.4115
 3092SOL    HW120912   0.690   1.589  10.069 -1.8209 -1.1983 -1.4110
 3092SOL    HW220913   0.797   1.512   9.993  0.5513 -0.0617  2.0245
 3093SOL     OW20914   1.163   4.725  12.423 -0.2289  0.3093 -0.5015
 3093SOL    HW120915   1.076   0.025  12.438 -0.4149  0.1664 -1.2146
 3093SOL    HW220916   1.161   4.639  12.464 -1.0846  1.5659  2.0612
 3094SOL     OW20917   0.911   2.635  10.530 -0.3362  0.2226  0.6255
 3094SOL    HW120918   0.944   2.567  10.588 -0.4549  1.0380  1.6585
 3094SOL    HW220919   0.831   2.663  10.575  0.1738 -0.9493  2.2738
 3095SOL     OW20920   0.418   3.864   4.502  0.2369  0.3458  0.1135
 3095SOL    HW120921   0.478   3.843   4.431 -0.9218  0.2876 -0.8511
 3095SOL    HW220922   0.405   3.957   4.486 -1.8327 -0.0336 -0.3945
 3096SOL     OW20923   0.530   3.835   3.732  0.1201 -0.0023 -0.5613
 3096SOL    HW120924   0.574   3.776   3.671  0.4953  1.3259 -1.5861
 3096SOL    HW220925   0.597   3.904   3.729 -0.2537  0.4121  0.5590
 3097SOL     OW20926   0.569   3.459   5.393  0.2716  0.2713 -0.2745
 3097SOL    HW120927   0.526   3.432   5.474  1.4132 -3.6561 -1.0223
 3097SOL    HW220928   0.624   3.525   5.436 -2.3346  1.4913  1.1518
 3098SOL     OW20929   1.963   3.413   1.181 -0.6454  0.4449 -0.2423
 3098SOL    HW120930   2.030   3.429   1.114  1.0241 -2.2640  0.7520
 3098SOL    HW220931   1.941   3.504   1.200  1.7882  0.9540  0.2711
 3099SOL     OW20932   2.279   1.959   9.347 -0.5283 -0.1534  0.3486
 3099SOL    HW120933   2.306   1.868   9.343 -0.9210 -0.1842 -1.5929
 3099SOL    HW220934   2.184   1.953   9.338 -0.5653  1.0297 -0.0760
 3100SOL     OW20935   4.480   3.308  12.941 -0.3573  0.3848 -0.0765
 3100SOL    HW120936   4.439   3.327  12.857 -0.0903  0.5188 -0.1742
 3100SOL    HW220937   4.530   3.388  12.957  0.4827 -0.2217  0.3314
 3101SOL     OW20938   2.763   1.615   3.351 -0.1886 -0.4703 -0.5476
 3101SOL    HW120939   2.831   1.548   3.360  0.2653  0.0120 -0.3370
 3101SOL    HW220940   2.800   1.678   3.414 -1.2032  1.0741 -1.4987
 3102SOL     OW20941   3.860   1.587   2.452 -0.2109 -0.4573 -0.2204
 3102SOL    HW120942   3.909   1.617   2.530  1.4048  0.0266 -1.4197
 3102SOL    HW220943   3.927   1.534   2.408 -0.3720  0.9980 -2.2256
 3103SOL     OW20944   2.085   0.245   1.059  0.2375  1.5195 -0.3684
 3103SOL    HW120945   2.024   0.175   1.079  0.1047  0.7505 -3.3857
 3103SOL    HW220946   2.028   0.305   1.010 -1.6092 -0.7619 -0.9719
 3104SOL     OW20947   0.824   1.542  14.294  0.2788  0.0779  0.6292
 3104SOL    HW120948   0.769   1.477  14.339 -1.0833  0.0385 -1.1288
 3104SOL    HW220949   0.867   1.476  14.239  2.3431  0.4024  1.8223
 3105SOL     OW20950   0.271   1.458   7.909 -0.6768 -0.6809 -0.6051
 3105SOL    HW120951   0.355   1.457   7.956 -0.3742  1.7568 -1.0782
 3105SOL    HW220952   0.210   1.510   7.961  0.1491  0.6102 -0.9365
 3106SOL     OW20953   0.420   0.745  10.772  0.3730 -0.5598  0.4449
 3106SOL    HW120954   0.336   0.780  10.744  0.0936 -2.1200 -0.6940
 3106SOL    HW220955   0.473   0.813  10.731 -1.3023 -1.0740 -2.5464
 3107SOL     OW20956   3.267   3.698   8.315 -0.4022  0.0810 -0.1435
 3107SOL    HW120957   3.357   3.714   8.285 -0.4874 -0.1227 -0.5044
 3107SOL    HW220958   3.271   3.715   8.409 -2.1410 -1.9899  0.2983
 3108SOL     OW20959   2.644   1.963  12.149 -0.2690 -0.4890  0.2135
 3108SOL    HW120960   2.630   1.877  12.190  0.2000 -0.2469  0.8920
 3108SOL    HW220961   2.732   1.971  12.185  0.2935 -1.4142 -0.9729
 3109SOL     OW20962   0.664   3.553   3.666  0.2755  0.8060 -0.4206
 3109SOL    HW120963   0.632   3.539   3.755 -0.0523  0.2110 -0.6299
 3109SOL    HW220964   0.578   3.558   3.623  0.0180 -0.1777 -0.0100
 3110SOL     OW20965   1.014   1.563   2.192 -0.5381 -0.1037 -0.8286
 3110SOL    HW120966   1.053   1.538   2.109 -1.2598 -1.1101 -0.8685
 3110SOL    HW220967   0.933   1.512   2.194 -2.2408  2.6398  0.7631
 3111SOL     OW20968   0.605   2.967  11.259 -0.6409  0.2725  0.4322
 3111SOL    HW120969   0.599   2.888  11.204 -0.1282 -1.2924  2.5922
 3111SOL    HW220970   0.691   2.955  11.299  0.6002  1.7426 -1.8813
 3112SOL     OW20971   0.507   0.111   5.685 -0.4981 -0.1489  0.0046
 3112SOL    HW120972   0.476   0.197   5.716  0.2691  0.7388 -1.7112
 3112SOL    HW220973   0.491   0.107   5.591  1.8480  1.7042 -0.4901
 3113SOL     OW20974   3.326   0.189  14.721 -0.0679 -0.4207 -0.2736
 3113SOL    HW120975   3.350   0.109  14.675 -0.4455  1.0944 -3.1115
 3113SOL    HW220976   3.388   0.182  14.794 -0.0418  0.4599 -0.2060
 3114SOL     OW20977   1.750   0.602   8.224 -0.4917  0.1109  0.3353
 3114SOL    HW120978   1.757   0.666   8.153 -3.6369 -1.8304 -1.6997
 3114SOL    HW220979   1.702   0.533   8.178 -0.7580  1.6208 -1.6530
 3115SOL     OW20980   2.292   3.129   5.799 -0.4052  0.7808  0.0481
 3115SOL    HW120981   2.305   3.216   5.836  0.9395 -0.8757  3.3988
 3115SOL    HW220982   2.241   3.092   5.870  1.2400 -1.2871  0.1740
 3116SOL     OW20983   3.986   3.777   0.563 -0.2171 -0.2960  0.0683
 3116SOL    HW120984   4.063   3.773   0.620 -0.0711 -0.4794 -0.1416
 3116SOL    HW220985   3.953   3.866   0.575 -0.1829 -0.3645  0.6932
 3117SOL     OW20986   3.020   4.352   8.595  0.0796 -0.1912  0.2649
 3117SOL    HW120987   2.930   4.369   8.622 -1.0229 -0.2848 -3.3499
 3117SOL    HW220988   3.058   4.432   8.632  0.4081  0.2485 -1.0162
 3118SOL     OW20989   0.214   3.418   5.197  0.3864 -0.1887 -0.1341
 3118SOL    HW120990   0.276   3.349   5.219  1.1162 -0.4818 -3.0889
 3118SOL    HW220991   0.138   3.368   5.166 -0.5870  1.8926 -1.1082
 3119SOL     OW20992   3.185   1.020   7.098  0.6281  0.0204  0.0866
 3119SOL    HW120993   3.235   0.965   7.159  2.0710  1.7672  0.4879
 3119SOL    HW220994   3.095   1.000   7.121  0.5459  1.1955  0.7616
 3120SOL     OW20995   1.217   2.530   5.301 -0.3637  0.2863 -0.0131
 3120SOL    HW120996   1.136   2.570   5.268 -1.4647  0.2723  2.7036
 3120SOL    HW220997   1.222   2.565   5.390  0.2355  0.0316  0.0564
 3121SOL     OW20998   1.317   3.533   0.805  0.2041  0.2975  0.1015
 3121SOL    HW120999   1.293   3.446   0.772 -0.2428  0.6437 -0.4995
 3121SOL    HW221000   1.330   3.579   0.722  0.8244  1.8633  1.0754
 3122SOL     OW21001   0.146   0.443   2.291 -0.3963  0.2313  0.0563
 3122SOL    HW121002   0.059   0.483   2.295 -0.3526  0.2368  1.1270
 3122SOL    HW221003   0.214   0.509   2.302  1.4260 -1.7348  0.6542
 3123SOL     OW21004   2.736   3.196   7.983  0.6117  0.1355 -0.0569
 3123SOL    HW121005   2.793   3.144   8.039 -0.2690  0.4611  1.1453
 3123SOL    HW221006   2.796   3.265   7.955  1.2239 -0.1622  0.5259
 3124SOL     OW21007   0.379   1.162   6.486 -0.1390  0.3532  0.2678
 3124SOL    HW121008   0.381   1.189   6.394  0.8842  1.0977  0.5185
 3124SOL    HW221009   0.380   1.066   6.481 -2.0274  0.3301  0.2518
 3125SOL     OW21010   2.393   1.224   4.496 -0.1165  0.1505 -0.0034
 3125SOL    HW121011   2.315   1.269   4.463 -0.5315 -0.3486  0.2982
 3125SOL    HW221012   2.459   1.245   4.430  0.0479  0.9967  0.4196
 3126SOL     OW21013   4.087   3.859   2.598  0.5028 -0.4742  0.3654
 3126SOL    HW121014   4.097   3.776   2.644  3.6588 -1.0451 -1.3503
 3126SOL    HW221015   4.085   3.834   2.505 -0.4086 -0.2264  0.3231
 3127SOL     OW21016   4.515   0.846  11.201 -0.0456 -0.2939  0.2796
 3127SOL    HW121017   4.560   0.804  11.275  2.6227  0.1833 -1.0584
 3127SOL    HW221018   4.461   0.774  11.168 -0.1527  0.7763 -1.8582
 3128SOL     OW21019   0.247   1.943   1.944  0.1947 -0.3349  0.1266
 3128SOL    HW121020   0.304   1.955   1.868  0.6749  1.0407  0.7120
 3128SOL    HW221021   0.220   2.033   1.964 -0.6636 -0.3636 -0.8572
 3129SOL     OW21022   2.326   2.312   2.288 -0.0281  0.1666 -0.0440
 3129SOL    HW121023   2.354   2.237   2.340  1.0121 -0.5241 -1.5837
 3129SOL    HW221024   2.232   2.316   2.304  0.0325  3.3710 -0.5914
 3130SOL     OW21025   0.378   2.653   6.356  0.0792 -0.0094  0.1746
 3130SOL    HW121026   0.328   2.688   6.430  0.3826 -0.5443  0.6272
 3130SOL    HW221027   0.463   2.695   6.369  0.3625 -0.5849  0.1303
 3131SOL     OW21028   4.185   3.377  11.258  0.8155  0.6984 -0.5410
 3131SOL    HW121029   4.212   3.467  11.275  0.6690  0.3909  1.2844
 3131SOL    HW221030   4.102   3.389  11.211 -0.1900  0.6382  1.2384
 3132SOL     OW21031   0.213   4.490  13.877  0.4022  0.3476  0.3745
 3132SOL    HW121032   0.272   4.439  13.822 -0.6165 -1.4433  0.9354
 3132SOL    HW221033   0.137   4.431  13.869  1.0641  0.0155 -3.4769
 3133SOL     OW21034   3.883   3.046   8.660 -0.5173  0.3062 -0.3296
 3133SOL    HW121035   3.968   3.089   8.665 -0.6876  0.4435  1.4385
 3133SOL    HW221036   3.837   3.058   8.743  1.6149 -1.5948  1.1096
 3134SOL     OW21037   1.603   4.014   2.868  0.0129  0.2374  0.1945
 3134SOL    HW121038   1.544   4.059   2.808 -1.9806  1.4262  3.0011
 3134SOL    HW221039   1.661   4.085   2.897 -3.6181  3.3040 -0.0232
 3135SOL     OW21040   1.575   0.336  14.872 -0.3423  0.3943 -0.6816
 3135SOL    HW121041   1.520   0.257  14.880  1.1536 -0.4707  1.1618
 3135SOL    HW221042   1.563   0.386  14.953 -1.2888  0.5832 -0.9361
 3136SOL     OW21043   3.388   3.996   4.645  0.2431  0.4767 -0.3089
 3136SOL    HW121044   3.371   3.965   4.734  1.6175 -2.1131 -0.9607
 3136SOL    HW221045   3.302   3.981   4.606  0.3220 -1.5901  0.3427
 3137SOL     OW21046   0.095   1.479   4.686 -0.0290  0.0237  0.3847
 3137SOL    HW121047   0.128   1.553   4.738 -1.2690  0.6167  0.3156
 3137SOL    HW221048   0.070   1.430   4.764  1.3055 -1.7957 -0.3075
 3138SOL     OW21049   1.146   1.240  11.389  0.1586  0.1801 -0.6307
 3138SOL    HW121050   1.158   1.332  11.413  0.8991  0.2463 -1.2577
 3138SOL    HW221051   1.217   1.225  11.326 -0.9259 -1.5566 -1.4609
 3139SOL     OW21052   3.402   3.453   7.383 -0.6079 -0.0824  0.6320
 3139SOL    HW121053   3.456   3.405   7.446  0.5294  1.7118  1.0291
 3139SOL    HW221054   3.349   3.505   7.444  0.6700 -0.0631  1.7209
 3140SOL     OW21055   1.612   2.886   1.568  0.1211  0.4566  0.3233
 3140SOL    HW121056   1.697   2.841   1.570  0.0587  0.1742 -3.3105
 3140SOL    HW221057   1.634   2.969   1.525 -0.0333  0.8173  0.9453
 3141SOL     OW21058   0.907   4.076   1.156  0.4060  0.0095 -0.2349
 3141SOL    HW121059   0.964   4.000   1.140 -0.3266 -0.7320  0.7098
 3141SOL    HW221060   0.924   4.103   1.246 -1.2425  0.9060 -0.1941
 3142SOL     OW21061   0.930   3.200   8.712 -0.2271  0.0956 -0.3023
 3142SOL    HW121062   0.983   3.137   8.760 -0.3479 -0.4671 -0.8968
 3142SOL    HW221063   1.000   3.253   8.672 -0.4954  0.6576 -0.0196
 3143SOL     OW21064   1.190   0.659   8.880 -0.0564  0.3090  0.3235
 3143SOL    HW121065   1.151   0.740   8.913 -0.8960 -0.6210  1.5957
 3143SOL    HW221066   1.208   0.607   8.958  0.5180 -1.2414 -0.8369
 3144SOL     OW21067   2.348   3.536   8.843  0.1984 -0.2152  0.1990
 3144SOL    HW121068   2.282   3.488   8.793 -2.2746  0.7611  2.5345
 3144SOL    HW221069   2.297   3.549   8.923 -2.3218 -2.6157 -1.0242
 3145SOL     OW21070   1.936   2.808   3.241  0.0447  0.6114 -0.5519
 3145SOL    HW121071   1.886   2.759   3.176  0.0582  2.7491 -2.1665
 3145SOL    HW221072   1.954   2.735   3.300  0.2647  0.2795 -1.0364
 3146SOL     OW21073   1.565   3.491  11.590 -0.5216  0.2043  0.0483
 3146SOL    HW121074   1.510   3.552  11.541  1.4579  3.0976  1.5160
 3146SOL    HW221075   1.609   3.443  11.519 -0.2873  1.0413 -0.3702
 3147SOL     OW21076   1.045   3.501   6.334  0.0431 -0.0932  0.4470
 3147SOL    HW121077   1.118   3.439   6.339  1.0117  0.9974 -0.2785
 3147SOL    HW221078   1.041   3.535   6.423 -0.2323 -0.3270  0.5260
 3148SOL     OW21079   1.301   4.034   0.871 -0.7685  0.2963  0.4749
 3148SOL    HW121080   1.376   4.046   0.929  0.3604  3.2778 -1.5994
 3148SOL    HW221081   1.311   3.939   0.858  2.2281  0.8740 -1.3297
 3149SOL     OW21082   3.898   1.407  16.938  0.4329  0.6259 -0.1309
 3149SOL    HW121083   3.906   1.432  17.030  0.3716  1.9144 -0.4824
 3149SOL    HW221084   3.879   1.313  16.948  0.2766  0.8615  1.7451
 3150SOL     OW21085   0.678   0.207  12.330 -0.1381 -0.3667 -0.4435
 3150SOL    HW121086   0.630   0.265  12.272  0.7566 -0.3129 -1.1348
 3150SOL    HW221087   0.616   0.185  12.399 -0.9496 -0.8084 -1.3188
 3151SOL     OW21088   0.028   4.285  13.821 -0.1547  0.1476  0.1287
 3151SOL    HW121089   4.696   4.311  13.759  0.8339  0.8096 -0.6846
 3151SOL    HW221090   4.710   4.250  13.892 -1.8966  0.3264 -1.1095
 3152SOL     OW21091   0.187   1.883   4.462  0.0745  0.4846 -0.5595
 3152SOL    HW121092   0.115   1.938   4.494 -0.8142  0.1556 -1.9889
 3152SOL    HW221093   0.262   1.939   4.481  0.0448 -0.7090  2.9951
 3153SOL     OW21094   4.390   0.621   2.186  0.2840 -0.2692  0.0788
 3153SOL    HW121095   4.439   0.643   2.107 -0.4284  0.0250 -0.2753
 3153SOL    HW221096   4.307   0.586   2.156 -0.1798  0.0008  1.0534
 3154SOL     OW21097   3.778   3.036   9.720 -0.4442  0.1067  0.1090
 3154SOL    HW121098   3.792   2.948   9.755  1.7695  1.2563  2.0724
 3154SOL    HW221099   3.868   3.068   9.715 -0.2341 -0.2755  1.5358
 3155SOL     OW21100   4.384   1.949   1.534 -0.0371  0.7232  0.1466
 3155SOL    HW121101   4.423   1.998   1.462 -0.4965  0.5307 -0.2342
 3155SOL    HW221102   4.457   1.957   1.596 -1.3861  1.3413  1.6617
 3156SOL     OW21103   1.593   0.210  17.730 -0.3318  0.0324  0.0344
 3156SOL    HW121104   1.623   0.249  17.648  2.2989  1.6033  1.7352
 3156SOL    HW221105   1.507   0.175  17.707  0.2139 -1.5647  0.4876
 3157SOL     OW21106   3.592   2.569   5.459 -0.1356 -0.1186  0.2670
 3157SOL    HW121107   3.501   2.597   5.475 -1.1652 -2.5641 -1.3561
 3157SOL    HW221108   3.592   2.490   5.406  1.1235 -1.0394  1.6460
 3158SOL     OW21109   1.005   4.048   9.768 -0.4973  0.1578  0.7545
 3158SOL    HW121110   1.086   4.096   9.786  1.0117 -1.3466 -1.9629
 3158SOL    HW221111   0.949   4.117   9.804 -0.4980  0.3780  0.3317
 3159SOL     OW21112   2.863   3.277   2.786 -0.3996 -0.1960  0.0760
 3159SOL    HW121113   2.787   3.224   2.762 -0.6263  1.0565 -1.9675
 3159SOL    HW221114   2.934   3.215   2.804 -0.4194 -0.7325 -1.6891
 3160SOL     OW21115   4.305   3.623   7.987  0.1759  0.2738 -0.2945
 3160SOL    HW121116   4.383   3.579   7.955 -1.4859 -2.1567 -1.0142
 3160SOL    HW221117   4.352   3.676   8.051  0.3077  0.0432 -0.2037
 3161SOL     OW21118   2.701   0.267   9.336  0.7425 -0.2105  0.2731
 3161SOL    HW121119   2.788   0.304   9.319 -0.4054  2.3183 -0.1512
 3161SOL    HW221120   2.700   0.189   9.281  1.3356 -0.2734  0.3496
 3162SOL     OW21121   2.948   1.053   1.865 -0.2251  0.9204  0.6242
 3162SOL    HW121122   2.958   1.109   1.942 -0.3666  1.5952  0.1547
 3162SOL    HW221123   2.855   1.050   1.843 -0.7321  0.8806  2.7678
 3163SOL     OW21124   0.328   4.210  13.423  0.3278  0.4094  0.3147
 3163SOL    HW121125   0.233   4.222  13.430  0.2317 -1.0503  1.6921
 3163SOL    HW221126   0.343   4.145  13.355  0.5882  0.9198 -0.1172
 3164SOL     OW21127   1.772   0.457   2.679  0.4762  0.2612 -0.2321
 3164SOL    HW121128   1.724   0.397   2.622  1.9194  0.0951 -1.2727
 3164SOL    HW221129   1.792   0.401   2.753  2.9963  0.2577 -0.9148
 3165SOL     OW21130   3.061   2.663   5.471 -0.1258  0.2211  0.4274
 3165SOL    HW121131   3.022   2.576   5.463 -1.0340  0.8009 -1.3524
 3165SOL    HW221132   2.997   2.702   5.531  0.6822  1.3304  0.5662
 3166SOL     OW21133   4.577   3.490   2.756 -0.0742 -0.0516  0.2211
 3166SOL    HW121134   4.583   3.574   2.800  0.3177  0.1156 -0.1481
 3166SOL    HW221135   4.672   3.475   2.761 -0.1214 -0.2934  0.3830
 3167SOL     OW21136   3.440   4.395  10.736  0.0314 -0.1532 -0.4456
 3167SOL    HW121137   3.489   4.472  10.764 -0.1510 -0.2666  0.1755
 3167SOL    HW221138   3.408   4.426  10.651  1.2116  0.1930 -0.7660
 3168SOL     OW21139   1.216   0.660   8.007  0.1398 -0.0709 -0.1752
 3168SOL    HW121140   1.295   0.699   8.044 -0.3072  1.4462 -0.8059
 3168SOL    HW221141   1.183   0.608   8.081  2.2438 -3.1549 -1.3985
 3169SOL     OW21142   1.735   3.613   5.406 -0.2329 -0.9165  0.2110
 3169SOL    HW121143   1.725   3.664   5.486 -0.4157 -0.6683  0.0324
 3169SOL    HW221144   1.650   3.570   5.391 -0.9076  0.6845 -0.6629
 3170SOL     OW21145   2.581   0.536   8.950 -0.1571 -0.8832 -0.3038
 3170SOL    HW121146   2.574   0.481   8.872 -3.9676  0.2063 -0.7024
 3170SOL    HW221147   2.489   0.548   8.971  0.1933  0.5951  0.4289
 3171SOL     OW21148   2.359   2.178   5.174  0.1600 -0.4189  0.3829
 3171SOL    HW121149   2.346   2.102   5.116 -1.3437 -0.4489  0.7720
 3171SOL    HW221150   2.300   2.232   5.122 -0.2675 -2.0399 -0.8084
 3172SOL     OW21151   1.518   4.431   2.579  0.1279  0.1605 -0.0158
 3172SOL    HW121152   1.478   4.411   2.664  0.8842 -0.2179  0.2482
 3172SOL    HW221153   1.478   4.514   2.553  1.1731  1.2275  1.7614
 3173SOL     OW21154   3.042   0.042   6.839 -0.2047  0.3281  0.7803
 3173SOL    HW121155   3.002   0.111   6.786  1.4819  1.0620  0.4603
 3173SOL    HW221156   2.963   4.725   6.832  0.0035 -0.2392  2.6942
 3174SOL     OW21157   1.710   4.735   6.791  0.1015 -0.3611 -0.4455
 3174SOL    HW121158   1.659   4.658   6.816  0.6534 -0.8423 -0.8103
 3174SOL    HW221159   1.770   4.700   6.725 -0.9027 -0.6601 -1.1990
 3175SOL     OW21160   3.563   2.610   2.118  0.0209  0.2719  0.2509
 3175SOL    HW121161   3.622   2.550   2.073  0.3874 -0.0922  1.2145
 3175SOL    HW221162   3.527   2.665   2.050 -1.1310 -1.1339 -0.2863
 3176SOL     OW21163   3.170   4.321   9.728  0.2007  0.0290 -0.3407
 3176SOL    HW121164   3.090   4.321   9.676  0.4353  1.2843 -0.6786
 3176SOL    HW221165   3.115   4.304   9.805 -0.0972 -1.6690 -0.9284
 3177SOL     OW21166   1.711   2.366   9.237  0.3203 -0.0326  0.0752
 3177SOL    HW121167   1.685   2.449   9.277  1.0366 -0.0832  0.6546
 3177SOL    HW221168   1.805   2.379   9.226  0.0576  2.0817  0.3651
 3178SOL     OW21169   3.568   1.843   4.824  0.2830  0.2734 -0.1395
 3178SOL    HW121170   3.584   1.921   4.877 -3.2946  1.2788 -0.5237
 3178SOL    HW221171   3.490   1.821   4.875  0.6801  1.8746  1.1756
 3179SOL     OW21172   3.394   0.574   7.740 -0.0340  0.0342 -0.1735
 3179SOL    HW121173   3.437   0.565   7.825 -2.1044 -2.3570  0.6129
 3179SOL    HW221174   3.435   0.657   7.713  1.4730  0.3898  3.1634
 3180SOL     OW21175   1.162   0.121  11.913  0.3583 -0.7890  0.1226
 3180SOL    HW121176   1.108   0.066  11.856 -1.6741  0.6038  0.6975
 3180SOL    HW221177   1.120   0.105  11.997 -0.5119 -0.1655 -0.1847
 3181SOL     OW21178   4.354   4.458   5.998  0.7348 -0.2547  0.2837
 3181SOL    HW121179   4.434   4.459   6.051 -0.2218  0.2737  1.7003
 3181SOL    HW221180   4.302   4.529   6.034  0.0674  0.0137 -1.2146
 3182SOL     OW21181   4.277   0.671   1.281 -0.1050 -0.7909 -0.1793
 3182SOL    HW121182   4.250   0.683   1.372 -0.8078 -1.1827 -0.3400
 3182SOL    HW221183   4.324   0.752   1.260  0.7902 -0.6353  2.3927
 3183SOL     OW21184   1.041   0.760  16.594  0.4069  0.8755  0.1366
 3183SOL    HW121185   1.116   0.701  16.605  0.6366  1.1817  0.2180
 3183SOL    HW221186   0.986   0.739  16.670 -0.7064  0.3096 -0.8327
 3184SOL     OW21187   1.134   2.470   7.483 -0.0980 -0.1675  0.2660
 3184SOL    HW121188   1.120   2.557   7.522 -0.6710 -0.3628  0.4966
 3184SOL    HW221189   1.045   2.448   7.456 -0.2112 -1.4839  1.7507
 3185SOL     OW21190   1.774   1.219   4.340  0.3578 -0.1807 -0.0038
 3185SOL    HW121191   1.764   1.308   4.373  0.9555  0.1703 -0.7999
 3185SOL    HW221192   1.837   1.184   4.403 -0.7393 -0.2127  1.0719
 3186SOL     OW21193   3.291   0.550  11.364 -0.1159  0.0260 -0.2500
 3186SOL    HW121194   3.284   0.636  11.323 -0.0240  0.3845  0.4785
 3186SOL    HW221195   3.350   0.575  11.436 -1.8202  1.4458  0.6376
 3187SOL     OW21196   0.664   2.480   5.047 -0.0572 -0.2414  0.2125
 3187SOL    HW121197   0.590   2.422   5.062  1.7880 -3.0158 -1.4392
 3187SOL    HW221198   0.734   2.415   5.055  0.4095  0.0542 -1.3970
 3188SOL     OW21199   2.973   3.302   7.877 -0.4023 -0.0769  0.7513
 3188SOL    HW121200   3.027   3.376   7.904 -1.9522  0.4893  2.2742
 3188SOL    HW221201   3.038   3.234   7.858 -1.6033 -0.7455 -0.9073
 3189SOL     OW21202   1.928   3.390  10.910  0.0786 -0.6608 -0.1054
 3189SOL    HW121203   1.975   3.320  10.865  2.4177  0.5056  0.5360
 3189SOL    HW221204   1.997   3.420  10.969 -0.0316 -0.4768 -0.0708
 3190SOL     OW21205   1.732   2.054   6.282  0.2964  0.0203 -0.1545
 3190SOL    HW121206   1.746   2.121   6.214  0.0990  0.7787  0.5519
 3190SOL    HW221207   1.821   2.020   6.295  0.0520 -0.8450 -0.7244
 3191SOL     OW21208   1.627   2.103   1.831 -0.2380 -0.0905 -0.3767
 3191SOL    HW121209   1.575   2.163   1.778 -1.8653 -0.5157  0.7330
 3191SOL    HW221210   1.580   2.022   1.812  0.3899 -0.4540 -0.3636
 3192SOL     OW21211   3.926   3.538  14.191  0.4512  0.2378 -0.3478
 3192SOL    HW121212   3.895   3.452  14.163 -0.3699  1.1125 -2.0966
 3192SOL    HW221213   3.875   3.602  14.141  0.4722 -1.1092 -2.0959
 3193SOL     OW21214   2.038   2.455   5.883  0.0018 -0.0684 -1.2628
 3193SOL    HW121215   2.028   2.549   5.894  2.3887  0.0384 -0.0212
 3193SOL    HW221216   2.011   2.450   5.791  0.0338 -0.3472 -1.2581
 3194SOL     OW21217   1.912   3.232  14.493  0.4007  0.3509  0.0908
 3194SOL    HW121218   1.952   3.198  14.574 -1.8632  2.3968  2.0588
 3194SOL    HW221219   1.977   3.204  14.428  0.6573 -0.0461  0.5179
 3195SOL     OW21220   4.697   0.385   6.863 -0.7132 -0.7800  0.1049
 3195SOL    HW121221   4.626   0.399   6.925 -0.1037  1.3765  0.3014
 3195SOL    HW221222   4.701   0.292   6.842 -0.7200 -0.3738 -1.7013
 3196SOL     OW21223   2.135   0.833   3.324  0.1301 -0.0520  0.0328
 3196SOL    HW121224   2.229   0.844   3.338 -0.2231  1.8334  0.9098
 3196SOL    HW221225   2.130   0.876   3.239 -0.3312 -0.4003 -0.1180
 3197SOL     OW21226   4.348   0.562   3.302 -0.7744  0.3527 -0.1647
 3197SOL    HW121227   4.308   0.521   3.379 -0.4586  1.3652  0.5434
 3197SOL    HW221228   4.369   0.489   3.244 -1.5261  0.9533 -1.1874
 3198SOL     OW21229   2.639   2.432   4.696  0.2731 -0.6925 -0.0160
 3198SOL    HW121230   2.667   2.380   4.620 -0.8025 -1.8166  0.3679
 3198SOL    HW221231   2.625   2.518   4.656  2.4030 -0.3816 -0.1165
 3199SOL     OW21232   2.554   4.296   9.318 -0.3609 -0.4441  0.4101
 3199SOL    HW121233   2.648   4.299   9.299 -0.3030 -1.7019  0.4886
 3199SOL    HW221234   2.515   4.307   9.231  1.0230  4.5397  0.4497
 3200SOL     OW21235   4.334   2.074   9.624  0.2475 -0.1774 -0.6195
 3200SOL    HW121236   4.283   2.148   9.591  0.3667  0.4620  0.6142
 3200SOL    HW221237   4.263   2.012   9.641 -0.3158  0.4879 -0.5452
 3201SOL     OW21238   3.085   4.403   7.712 -0.2944 -0.4436 -0.3973
 3201SOL    HW121239   3.119   4.411   7.623 -1.1686  2.8435 -0.4726
 3201SOL    HW221240   2.990   4.411   7.699 -0.4889 -2.4696 -0.1489
 3202SOL     OW21241   0.420   2.899  12.247  0.3996 -0.3968 -0.5930
 3202SOL    HW121242   0.493   2.945  12.289  0.1026 -0.4644 -0.0070
 3202SOL    HW221243   0.420   2.942  12.161 -1.4751  0.1597 -0.3053
 3203SOL     OW21244   1.280   2.470   2.989 -0.0805  0.8460  0.0765
 3203SOL    HW121245   1.200   2.494   3.035 -1.7150 -0.3180 -2.1494
 3203SOL    HW221246   1.344   2.519   3.040  0.2456  1.8096 -1.2360
 3204SOL     OW21247   3.204   2.385   1.677  0.0752 -0.1572 -0.0484
 3204SOL    HW121248   3.155   2.467   1.673  0.9585  0.3435 -0.7248
 3204SOL    HW221249   3.189   2.378   1.771  0.1975  0.0270 -0.0161
 3205SOL     OW21250   3.604   4.171  10.821 -0.7837  0.1731  0.1279
 3205SOL    HW121251   3.544   4.240  10.791 -2.4306 -1.7881 -1.1093
 3205SOL    HW221252   3.553   4.134  10.893 -0.9872  0.4704  0.1373
 3206SOL     OW21253   4.230   3.520  14.973 -0.7500 -0.4639 -0.0067
 3206SOL    HW121254   4.157   3.493  14.916 -0.8708  0.3759 -0.2499
 3206SOL    HW221255   4.235   3.447  15.035  2.5466  0.5046  0.8352
 3207SOL     OW21256   3.554   1.937  12.633  0.7151  0.2018  0.1306
 3207SOL    HW121257   3.502   1.877  12.686 -1.8776  2.7645  0.4684
 3207SOL    HW221258   3.645   1.907  12.644  0.2182 -1.7337 -0.8721
 3208SOL     OW21259   1.104   4.483   0.614  0.6096  0.0161 -0.1928
 3208SOL    HW121260   1.127   4.396   0.648  0.1630 -1.2544 -3.1402
 3208SOL    HW221261   1.119   4.469   0.520 -0.5454  0.8224 -0.4932
 3209SOL     OW21262   3.842   0.445  12.973 -0.1991 -0.3673  0.3018
 3209SOL    HW121263   3.823   0.407  13.059 -2.9759 -0.5532 -0.3869
 3209SOL    HW221264   3.937   0.453  12.981 -0.3686  0.6955  1.3397
 3210SOL     OW21265   0.213   3.661   6.260  0.3881 -0.1961  0.2550
 3210SOL    HW121266   0.162   3.589   6.223 -1.6567  0.5420  1.6779
 3210SOL    HW221267   0.215   3.715   6.180 -1.3496  3.6991  2.8147
 3211SOL     OW21268   2.660   4.594  13.777 -0.0533 -0.2262  0.3325
 3211SOL    HW121269   2.652   4.640  13.694 -1.8312  1.5231  1.4815
 3211SOL    HW221270   2.584   4.634  13.818  0.4608  1.4558 -0.3934
 3212SOL     OW21271   0.804   3.596  10.830  0.3521 -0.3760  0.2649
 3212SOL    HW121272   0.771   3.526  10.886 -1.1339  0.8687  0.9374
 3212SOL    HW221273   0.887   3.554  10.808  0.0570 -0.2590 -1.0521
 3213SOL     OW21274   3.584   1.704   3.202  0.1206 -1.0414 -0.1738
 3213SOL    HW121275   3.509   1.698   3.143 -0.2780 -2.1727  0.4585
 3213SOL    HW221276   3.567   1.790   3.241  0.5405 -2.0205  2.1453
 3214SOL     OW21277   3.354   1.921   6.844 -0.6421  0.3675  0.7336
 3214SOL    HW121278   3.396   1.962   6.768 -0.3640 -1.1947  0.0429
 3214SOL    HW221279   3.409   1.843   6.858  0.0183  0.5921 -0.6014
 3215SOL     OW21280   0.575   1.083   5.268  0.6900 -1.0225  0.4726
 3215SOL    HW121281   0.591   1.113   5.178 -0.7253  1.3849  0.9937
 3215SOL    HW221282   0.596   1.163   5.317 -0.7557 -0.4527  0.1735
 3216SOL     OW21283   2.216   2.983   0.479 -0.4733 -0.9694 -0.0940
 3216SOL    HW121284   2.169   2.964   0.398 -1.6677  0.2125  0.3282
 3216SOL    HW221285   2.134   3.002   0.523  0.5238  1.3821  0.7335
 3217SOL     OW21286   4.503   4.636   8.490 -0.0042 -0.0184  0.1385
 3217SOL    HW121287   4.528   4.545   8.503 -1.5090 -0.2218  1.5504
 3217SOL    HW221288   4.496   4.673   8.578  0.1328  0.6797 -0.1385
 3218SOL     OW21289   4.189   4.424   1.557  0.4068 -0.6813  0.4566
 3218SOL    HW121290   4.203   4.391   1.468 -0.4013 -2.3100  0.9211
 3218SOL    HW221291   4.104   4.464   1.543  1.0556  1.2925  2.2482
 3219SOL     OW21292   0.490   3.787  17.443 -0.0593  0.3616 -0.7601
 3219SOL    HW121293   0.567   3.755  17.397 -0.9284 -1.5389 -0.8832
 3219SOL    HW221294   0.493   3.882  17.429 -0.5007  0.7181  1.4901
 3220SOL     OW21295   3.355   1.193  13.504  0.1788  0.0939  0.4585
 3220SOL    HW121296   3.281   1.201  13.565 -2.2640  0.3229 -2.5047
 3220SOL    HW221297   3.409   1.269  13.523 -0.0378  0.2482  0.4488
 3221SOL     OW21298   2.038   0.071   3.955  0.1800 -0.0807 -0.0665
 3221SOL    HW121299   2.038   0.034   3.866 -0.5392  0.5712 -0.3416
 3221SOL    HW221300   2.066   4.730   4.004 -0.5600 -1.0017 -1.0864
 3222SOL     OW21301   0.683   1.666   2.998 -0.1936  0.6319  0.1656
 3222SOL    HW121302   0.746   1.701   3.061 -0.4959 -3.1959  2.6059
 3222SOL    HW221303   0.693   1.723   2.921  1.0098  0.6894  0.3595
 3223SOL     OW21304   0.554   3.452   1.790  0.0883  0.2876  0.5592
 3223SOL    HW121305   0.580   3.472   1.700  0.6969 -0.6227  0.5315
 3223SOL    HW221306   0.610   3.375   1.804  2.3148  1.7914 -0.0448
 3224SOL     OW21307   1.849   4.607   9.706 -0.1043 -0.0742  0.0806
 3224SOL    HW121308   1.755   4.622   9.708  0.0453  0.7543  0.8002
 3224SOL    HW221309   1.893   4.678   9.753  0.0335  0.7425 -1.2771
 3225SOL     OW21310   3.836   3.503   5.317 -0.4486 -0.3145 -0.2118
 3225SOL    HW121311   3.889   3.490   5.238 -0.0800  2.6537 -0.4612
 3225SOL    HW221312   3.895   3.559   5.367  0.5237 -1.1636 -0.3943
 3226SOL     OW21313   0.435   4.538  17.061 -0.3304  0.0253  0.3576
 3226SOL    HW121314   0.390   4.457  17.086 -2.3270  0.4885 -1.7433
 3226SOL    HW221315   0.442   4.587  17.143  0.4660 -0.1135  0.3763
 3227SOL     OW21316   1.143   0.055   3.279 -0.4983  0.1900 -0.4371
 3227SOL    HW121317   1.153   0.151   3.276 -0.8218  0.2226 -0.5225
 3227SOL    HW221318   1.218   0.034   3.224 -0.2914  0.3525 -0.2172
 3228SOL     OW21319   3.046   1.836   5.934  0.2854 -0.0500  0.6969
 3228SOL    HW121320   3.016   1.767   5.875 -1.9220  0.6899  0.9344
 3228SOL    HW221321   3.095   1.789   6.002 -0.9145  0.1792  1.7432
 3229SOL     OW21322   0.006   1.463   8.609  0.2938  0.1170 -0.0575
 3229SOL    HW121323   0.057   1.440   8.686 -1.0789  0.6672  1.0280
 3229SOL    HW221324   4.689   1.384   8.601  0.7328  0.0512 -2.3791
 3230SOL     OW21325   2.219   3.569   6.592  0.0363  0.2578 -0.2269
 3230SOL    HW121326   2.307   3.556   6.556 -0.8508 -1.6113 -1.7158
 3230SOL    HW221327   2.225   3.661   6.618 -0.3357  0.3403 -0.4381
 3231SOL     OW21328   0.933   3.089   7.725 -0.4524  0.0202 -0.4850
 3231SOL    HW121329   0.869   3.019   7.707  1.3611 -1.6226 -0.4982
 3231SOL    HW221330   0.928   3.134   7.641  0.7710 -0.4665 -0.8179
 3232SOL     OW21331   1.993   0.246  15.795 -0.4566  0.5223  0.3323
 3232SOL    HW121332   2.023   0.310  15.860  3.8986 -2.5158  1.3209
 3232SOL    HW221333   1.930   0.302  15.751 -0.6438 -0.5805 -0.8023
 3233SOL     OW21334   3.803   1.508  15.153 -0.0832 -0.7314 -0.5824
 3233SOL    HW121335   3.838   1.594  15.178 -1.6658 -0.1301 -0.4121
 3233SOL    HW221336   3.792   1.475  15.242 -2.1735  0.3496 -0.4206
 3234SOL     OW21337   0.078   4.303   3.959  0.5203  0.3782 -0.0033
 3234SOL    HW121338   0.038   4.241   3.899 -1.7405  1.7183  0.1312
 3234SOL    HW221339   0.045   4.276   4.045 -0.5073 -0.1527 -0.5716
 3235SOL     OW21340   0.900   1.474   8.116  0.5152  0.1809 -0.3274
 3235SOL    HW121341   0.892   1.561   8.155 -0.7799 -0.7736  1.5746
 3235SOL    HW221342   0.917   1.416   8.191  0.7009 -1.0575 -1.3287
 3236SOL     OW21343   1.290   3.932   7.868 -0.0894  0.1888 -0.3625
 3236SOL    HW121344   1.335   3.967   7.791 -2.2289  0.6698 -1.3780
 3236SOL    HW221345   1.204   3.955   7.833 -0.5612 -0.8029  0.1662
 3237SOL     OW21346   2.669   3.776  14.678  0.1275 -0.7784  0.3644
 3237SOL    HW121347   2.633   3.810  14.597 -0.7633 -0.0295  1.0684
 3237SOL    HW221348   2.726   3.706  14.646  1.3711 -0.0159  0.9386
 3238SOL     OW21349   0.069   3.019  13.261  0.0959 -0.4227 -0.5691
 3238SOL    HW121350   0.107   2.978  13.338  1.2689  0.5405 -0.6265
 3238SOL    HW221351   0.089   3.113  13.266 -0.0809 -0.4634  0.7969
 3239SOL     OW21352   2.951   4.075   6.851  0.1942 -0.1639 -0.5128
 3239SOL    HW121353   2.926   3.983   6.849 -0.0172 -0.1252  0.3144
 3239SOL    HW221354   3.039   4.068   6.890 -0.0301  0.3425  0.0906
 3240SOL     OW21355   0.079   1.725   2.452  0.1644 -0.2926 -0.4759
 3240SOL    HW121356   0.170   1.752   2.440 -0.6787  2.8465  0.2789
 3240SOL    HW221357   0.041   1.796   2.503 -1.6465 -0.7936 -1.1452
 3241SOL     OW21358   0.438   4.036   2.580 -0.5742  0.1009  0.0382
 3241SOL    HW121359   0.399   4.025   2.493  0.7715  1.8054 -0.7827
 3241SOL    HW221360   0.365   4.065   2.634 -1.4537  1.2350 -1.7419
 3242SOL     OW21361   1.267   0.256   8.328  0.3523  0.4604  1.0022
 3242SOL    HW121362   1.284   0.172   8.286 -0.5167  1.6141 -1.6527
 3242SOL    HW221363   1.336   0.310   8.289  0.2757  0.6902  1.1846
 3243SOL     OW21364   3.965   2.192   2.514  0.4999  0.7602  0.3105
 3243SOL    HW121365   4.013   2.221   2.437 -1.0439 -0.9080 -1.3092
 3243SOL    HW221366   3.929   2.273   2.550  0.4155  0.6766  0.4131
 3244SOL     OW21367   0.152   3.610   2.063  0.0575  0.1239  0.3218
 3244SOL    HW121368   0.121   3.677   2.002  2.7115  0.1532 -1.0231
 3244SOL    HW221369   0.204   3.550   2.009  0.1936 -0.2407  0.8609
 3245SOL     OW21370   1.822   3.710   2.048 -0.1536 -0.2461  0.4178
 3245SOL    HW121371   1.841   3.757   2.129 -0.8674  1.2909 -0.3130
 3245SOL    HW221372   1.746   3.762   2.023  2.2717  2.1366 -1.9184
 3246SOL     OW21373   0.738   2.094   2.431  0.5096 -0.1482 -0.3598
 3246SOL    HW121374   0.726   1.999   2.435 -0.1322 -0.0942 -0.9574
 3246SOL    HW221375   0.822   2.100   2.475  0.6826 -2.6587 -0.3682
 3247SOL     OW21376   2.128   4.539   5.362 -0.3718  0.1731 -0.1976
 3247SOL    HW121377   2.126   4.629   5.330 -2.1019  0.8962  1.9479
 3247SOL    HW221378   2.219   4.518   5.383  0.0705  2.2766 -0.1064
 3248SOL     OW21379   4.274   3.833   0.011 -0.2348 -0.1175 -0.0238
 3248SOL    HW121380   4.216   3.784   0.069 -0.0520  1.2030  1.2593
 3248SOL    HW221381   4.231   3.803  17.674 -1.1134 -1.6691  1.0157
 3249SOL     OW21382   0.479   3.530  11.701 -0.1780  0.2251  0.1464
 3249SOL    HW121383   0.565   3.512  11.738  0.2658 -0.7799 -1.3680
 3249SOL    HW221384   0.429   3.455  11.732 -0.7681 -0.2015 -1.8551
 3250SOL     OW21385   0.246   1.627   4.873  0.2166 -0.0037 -0.7166
 3250SOL    HW121386   0.299   1.606   4.950 -0.2865 -0.1068 -0.3987
 3250SOL    HW221387   0.194   1.699   4.908 -0.7911 -1.3044  0.4282
 3251SOL     OW21388   3.507   2.126   2.048  0.2882  0.2402  0.2788
 3251SOL    HW121389   3.457   2.044   2.041 -1.1324  1.2284 -1.2300
 3251SOL    HW221390   3.442   2.194   2.029  2.8075  2.5646  0.0637
 3252SOL     OW21391   1.740   0.688   2.418 -0.3458 -0.8297  0.4915
 3252SOL    HW121392   1.813   0.749   2.424 -0.6695 -0.7685  3.9644
 3252SOL    HW221393   1.710   0.712   2.331  0.9252 -1.6066 -0.1684
 3253SOL     OW21394   3.595   2.259   2.527 -0.0776 -0.0508  0.6915
 3253SOL    HW121395   3.516   2.312   2.517  0.1621  0.2790  0.5291
 3253SOL    HW221396   3.642   2.273   2.445  0.6988 -0.1220  1.1255
 3254SOL     OW21397   4.674   0.911   2.821 -0.3129 -0.6776 -0.2402
 3254SOL    HW121398   4.592   0.886   2.778  0.0312 -1.9806 -0.1267
 3254SOL    HW221399   0.002   0.929   2.752 -0.1402  0.1246  0.1253
 3255SOL     OW21400   2.524   1.186   6.311 -0.2813 -0.6394 -0.8044
 3255SOL    HW121401   2.428   1.187   6.311 -0.2662  0.1559 -2.0949
 3255SOL    HW221402   2.548   1.278   6.304  1.5169 -1.1749 -1.6399
 3256SOL     OW21403   2.334   4.326   4.747  0.1037 -0.1707 -0.2606
 3256SOL    HW121404   2.287   4.248   4.776 -0.5270 -0.4328 -1.9901
 3256SOL    HW221405   2.307   4.393   4.809  1.1411 -0.9855  1.0632
 3257SOL     OW21406   2.276   2.132   7.168  0.4899  0.6100  0.1045
 3257SOL    HW121407   2.199   2.104   7.216  0.3589  0.6153 -0.1039
 3257SOL    HW221408   2.231   2.189   7.106 -0.5553  2.1821  2.3083
 3258SOL     OW21409   4.585   3.625   4.283 -0.6643  0.1335 -0.3976
 3258SOL    HW121410   4.643   3.553   4.260 -3.1686 -1.3362 -2.1936
 3258SOL    HW221411   4.650   3.692   4.302  2.3626 -3.4450  1.8026
 3259SOL     OW21412   3.896   1.115   9.155 -0.6111 -0.8355  0.2098
 3259SOL    HW121413   3.983   1.118   9.195 -0.6857 -1.9054  0.4457
 3259SOL    HW221414   3.841   1.077   9.223 -1.8240 -0.4379 -0.5534
 3260SOL     OW21415   1.411   1.261   5.508 -0.7178 -0.1164  0.3037
 3260SOL    HW121416   1.420   1.353   5.480  0.2945  0.0743  1.2751
 3260SOL    HW221417   1.395   1.271   5.602  2.2634  0.4202  0.7778
 3261SOL     OW21418   4.386   0.709   6.961 -0.4143  0.6852  0.5188
 3261SOL    HW121419   4.477   0.739   6.964 -0.4980  0.9914  0.1336
 3261SOL    HW221420   4.373   0.746   6.873  0.4081  0.9115  0.4913
 3262SOL     OW21421   0.172   2.254   5.636 -0.1006  0.4940 -0.3994
 3262SOL    HW121422   0.092   2.206   5.614  0.1974 -1.0194  1.7856
 3262SOL    HW221423   0.235   2.193   5.597 -1.0193 -0.8010  0.1463
 3263SOL     OW21424   2.683   2.101   7.292 -0.1930 -0.0642 -0.2684
 3263SOL    HW121425   2.686   2.005   7.286  1.0326 -0.0451 -0.0785
 3263SOL    HW221426   2.644   2.124   7.376  1.1403  1.0058  0.0613
 3264SOL     OW21427   3.620   1.438   3.156  0.1584 -0.1536  0.3967
 3264SOL    HW121428   3.622   1.435   3.060 -1.3946 -2.4349  0.4399
 3264SOL    HW221429   3.614   1.533   3.172 -0.5058 -0.5700  2.5882
 3265SOL     OW21430   2.989   4.668   8.958 -0.2488 -0.0567  0.2131
 3265SOL    HW121431   2.973   4.726   9.033 -0.0100  1.6067 -1.0079
 3265SOL    HW221432   3.011   0.001   8.895 -1.1913 -1.3031 -1.4869
 3266SOL     OW21433   0.619   0.897   5.002  0.4475 -0.2292  0.0220
 3266SOL    HW121434   0.610   0.987   4.970 -1.4334 -0.2345  0.5098
 3266SOL    HW221435   0.700   0.905   5.052 -0.7701  1.3635  1.7482
 3267SOL     OW21436   0.628   1.292   3.829  0.1652  0.4672  0.2351
 3267SOL    HW121437   0.549   1.241   3.811  1.4070 -1.2154 -0.4471
 3267SOL    HW221438   0.630   1.287   3.925  1.2359 -3.3849  0.0112
 3268SOL     OW21439   3.294   0.685   2.832  0.2498  0.5388  0.1543
 3268SOL    HW121440   3.361   0.729   2.884  0.1024  0.7851  0.1370
 3268SOL    HW221441   3.228   0.753   2.843 -0.8484 -0.6387  0.8856
 3269SOL     OW21442   2.031   3.636  13.320 -0.5465  0.0001 -1.0358
 3269SOL    HW121443   2.054   3.554  13.277 -1.1123 -1.2210  0.9985
 3269SOL    HW221444   2.110   3.689  13.332 -0.7852  0.3615 -1.0623
 3270SOL     OW21445   3.169   2.134   6.595 -0.5998 -0.0350 -0.4765
 3270SOL    HW121446   3.089   2.139   6.542 -0.6896 -2.6530 -0.5896
 3270SOL    HW221447   3.195   2.042   6.590 -0.0741  0.1276 -0.6957
 3271SOL     OW21448   4.157   1.720   0.876 -0.6816 -0.1538  0.2312
 3271SOL    HW121449   4.166   1.800   0.824  1.3561 -0.5062  0.0245
 3271SOL    HW221450   4.117   1.750   0.957  0.1241  2.1748 -0.2173
 3272SOL     OW21451   1.816   4.302   9.157  0.1009  0.7341  0.6330
 3272SOL    HW121452   1.860   4.355   9.091  0.5068 -1.5711 -0.9483
 3272SOL    HW221453   1.855   4.217   9.135  1.3906  1.3102  0.6836
 3273SOL     OW21454   0.474   1.404   1.672 -0.1661 -0.0333  0.2520
 3273SOL    HW121455   0.383   1.434   1.673 -0.0236  0.4057 -0.1091
 3273SOL    HW221456   0.511   1.493   1.675  0.9451 -0.5487  2.1191
 3274SOL     OW21457   4.404   4.426   8.683 -0.2951  0.0019 -0.1254
 3274SOL    HW121458   4.346   4.439   8.759  0.3611  1.3962  0.1430
 3274SOL    HW221459   4.489   4.457   8.714 -0.2649 -1.3386  1.1140
 3275SOL     OW21460   2.131   1.432   3.188  0.1688 -0.0167  0.1610
 3275SOL    HW121461   2.191   1.442   3.114  0.4450  0.5377  0.4550
 3275SOL    HW221462   2.057   1.479   3.151  0.1780  1.0296  1.4805
 3276SOL     OW21463   1.590   1.330   5.050 -0.4357  0.5717  0.3833
 3276SOL    HW121464   1.671   1.367   5.086 -1.5661  1.5104  1.9539
 3276SOL    HW221465   1.635   1.292   4.975  0.8613 -1.7132  2.3298
 3277SOL     OW21466   4.064   1.901   9.054 -0.1227 -0.0894  0.1316
 3277SOL    HW121467   3.999   1.952   9.005  0.6337  0.8610  0.1164
 3277SOL    HW221468   4.138   1.915   8.995  0.6214  1.7741  1.5240
 3278SOL     OW21469   3.777   0.069   9.491  0.1022 -0.4342  0.1850
 3278SOL    HW121470   3.713   4.734   9.485 -1.2339  0.8261 -0.2897
 3278SOL    HW221471   3.740   0.145   9.448  0.5139 -0.4466 -0.1927
 3279SOL     OW21472   3.722   0.499   4.833  0.0312 -0.0768 -0.2602
 3279SOL    HW121473   3.765   0.581   4.855 -0.0745  0.1036 -0.7382
 3279SOL    HW221474   3.690   0.515   4.745  0.7694  0.5355 -0.4207
 3280SOL     OW21475   1.406   1.512   5.156 -0.2136 -0.0392  0.6823
 3280SOL    HW121476   1.348   1.533   5.083  2.5138 -1.7022 -1.9552
 3280SOL    HW221477   1.460   1.441   5.122  1.5386  0.6995  1.9344
 3281SOL     OW21478   1.662   1.894   3.108  0.6923  0.1446  0.3965
 3281SOL    HW121479   1.587   1.953   3.109 -0.2203 -0.9936 -0.2593
 3281SOL    HW221480   1.666   1.853   3.195 -0.7261 -1.3171 -0.2114
 3282SOL     OW21481   1.676   3.346   3.831  0.0429  0.4541 -0.1265
 3282SOL    HW121482   1.626   3.427   3.834  0.5764  0.6870  2.2153
 3282SOL    HW221483   1.713   3.347   3.743 -0.5015  0.8797 -0.3509
 3283SOL     OW21484   2.530   1.959  13.913 -0.5051  0.2178 -0.0483
 3283SOL    HW121485   2.514   1.881  13.860  0.0740  1.2100 -1.7026
 3283SOL    HW221486   2.568   2.007  13.840  1.1597 -1.4139 -0.2599
 3284SOL     OW21487   0.737   4.701   1.860  0.0512 -0.8037  0.0161
 3284SOL    HW121488   0.806   4.724   1.922 -0.2696 -0.2806  0.1841
 3284SOL    HW221489   0.790   4.692   1.780  0.6066  1.2374  0.1353
 3285SOL     OW21490   3.192   0.547   4.034  0.9181  0.4744 -0.2299
 3285SOL    HW121491   3.158   0.581   4.117  1.3706  0.5605 -0.0768
 3285SOL    HW221492   3.284   0.576   4.038  0.9012  0.4869  0.0735
 3286SOL     OW21493   0.770   1.230  13.810 -0.0211 -0.8158 -0.2505
 3286SOL    HW121494   0.806   1.199  13.726 -0.2237  2.2297 -1.4635
 3286SOL    HW221495   0.825   1.175  13.865  0.4946 -0.6321 -0.5836
 3287SOL     OW21496   1.245   1.406   7.482 -0.0685 -0.2180  0.4684
 3287SOL    HW121497   1.222   1.364   7.399  0.4527 -1.5447  1.0005
 3287SOL    HW221498   1.313   1.357   7.528  0.7835 -0.8283 -1.4684
 3288SOL     OW21499   4.689   0.571   4.338  0.0271  0.2419  0.0726
 3288SOL    HW121500   4.728   0.491   4.373 -1.3334  0.3172  1.7653
 3288SOL    HW221501   0.035   0.619   4.335  0.3774 -0.4070 -0.8088
 3289SOL     OW21502   4.662   4.677   3.652  0.2057 -0.4523 -0.4403
 3289SOL    HW121503   4.584   4.719   3.688 -0.9061 -0.8095 -2.4748
 3289SOL    HW221504   4.726   0.003   3.687 -0.2022  0.5758 -1.5385
 3290SOL     OW21505   2.622   0.101   2.588  0.3772  0.0651 -0.5111
 3290SOL    HW121506   2.673   0.056   2.520 -1.4114 -0.1976 -1.6714
 3290SOL    HW221507   2.598   0.186   2.550  1.3170  0.8286  0.5908
 3291SOL     OW21508   1.946   4.661   3.216  0.2913  0.1170  0.2465
 3291SOL    HW121509   1.875   4.717   3.248 -1.2359 -1.5732 -0.1188
 3291SOL    HW221510   1.991   4.730   3.168 -2.1494  1.3490 -0.2464
 3292SOL     OW21511   3.821   3.915  11.425  0.0988  0.4332  0.1753
 3292SOL    HW121512   3.803   3.961  11.507 -0.0549 -0.4989  0.6588
 3292SOL    HW221513   3.770   3.958  11.357  0.7139  0.6587 -0.1421
 3293SOL     OW21514   0.831   3.809   0.394 -0.0251 -0.2587 -0.0563
 3293SOL    HW121515   0.798   3.738   0.339 -1.6356  0.5194 -0.1116
 3293SOL    HW221516   0.748   3.851   0.417 -0.3347  0.4312 -2.4050
 3294SOL     OW21517   1.699   4.374   5.552 -0.3026 -0.0082  0.2280
 3294SOL    HW121518   1.756   4.394   5.478  0.6843  1.7601  1.4827
 3294SOL    HW221519   1.618   4.410   5.517 -0.4810 -0.9078 -0.2870
 3295SOL     OW21520   4.483   4.626   9.296  0.1320  0.2381 -0.5294
 3295SOL    HW121521   4.453   4.679   9.370  0.0329 -1.9725  1.0056
 3295SOL    HW221522   4.505   4.700   9.240 -0.1328 -1.1310 -2.4200
 3296SOL     OW21523   2.440   3.043  15.040  0.6121 -0.4983  0.0311
 3296SOL    HW121524   2.486   2.962  15.016 -0.7075 -1.1982 -0.1769
 3296SOL    HW221525   2.444   3.088  14.955 -0.1198 -1.6318 -0.6105
 3297SOL     OW21526   1.343   3.609   2.576  0.0287 -0.8249 -0.4669
 3297SOL    HW121527   1.315   3.518   2.585  0.1987 -0.7405  0.9362
 3297SOL    HW221528   1.430   3.597   2.539 -1.1658  1.2693 -3.9903
 3298SOL     OW21529   1.289   3.769   3.632  0.0106 -0.0107 -0.2457
 3298SOL    HW121530   1.380   3.740   3.640  0.0596  0.7710  2.1468
 3298SOL    HW221531   1.249   3.705   3.573 -2.4643 -0.9494  2.4107
 3299SOL     OW21532   2.989   2.708   5.843  0.0515 -0.1152 -0.3391
 3299SOL    HW121533   2.949   2.789   5.875 -1.7347 -0.8355 -0.7214
 3299SOL    HW221534   2.922   2.658   5.796 -1.3177  1.7530 -0.4254
 3300SOL     OW21535   1.003   3.940   7.861 -0.2560 -0.6841 -0.1529
 3300SOL    HW121536   0.961   3.856   7.881 -0.1207 -0.9287 -0.9305
 3300SOL    HW221537   0.935   3.976   7.804 -0.8223  0.4790  1.2485
 3301SOL     OW21538   3.878   3.678   8.479  0.1849  0.4857  0.0201
 3301SOL    HW121539   3.790   3.701   8.449  0.6734  2.0471 -0.1890
 3301SOL    HW221540   3.856   3.668   8.572 -0.9248  0.3674 -0.2527
 3302SOL     OW21541   4.064   4.435   9.054  0.0177  0.2464  1.0340
 3302SOL    HW121542   4.092   4.456   9.143 -0.3696  0.0199  1.2078
 3302SOL    HW221543   3.976   4.472   9.062 -0.1684  0.0137  0.1000
 3303SOL     OW21544   2.901   4.523   8.232 -0.4200  0.5279 -0.0024
 3303SOL    HW121545   2.977   4.569   8.266 -0.1754  0.2345 -0.1480
 3303SOL    HW221546   2.941   4.466   8.166  0.9466  0.0391  1.2262
 3304SOL     OW21547   1.925   3.874   7.198  0.2104  0.4599 -0.2107
 3304SOL    HW121548   1.852   3.841   7.146  1.1833 -0.1570 -1.1668
 3304SOL    HW221549   1.911   3.838   7.285 -0.3015  1.2603  0.0427
 3305SOL     OW21550   1.956   2.732   8.913  0.0347 -0.5748  0.2129
 3305SOL    HW121551   1.895   2.778   8.855 -1.6020 -3.5405 -0.4272
 3305SOL    HW221552   1.896   2.698   8.979  1.0234 -1.3422  0.7234
 3306SOL     OW21553   0.470   1.370  16.962 -0.1100  0.2289 -0.1535
 3306SOL    HW121554   0.431   1.445  16.916 -3.8037 -2.0248 -0.6956
 3306SOL    HW221555   0.533   1.341  16.896 -1.3294 -0.3426 -1.0699
 3307SOL     OW21556   1.579   2.146  17.155  0.1380 -0.5912  0.0628
 3307SOL    HW121557   1.531   2.082  17.208 -0.2710  0.0693  0.4959
 3307SOL    HW221558   1.586   2.206  17.230 -1.8651  0.9437 -0.9780
 3308SOL     OW21559   3.891   0.126   2.326  0.4223  0.8365 -0.2421
 3308SOL    HW121560   3.887   0.191   2.396  0.0815  0.2187  0.3194
 3308SOL    HW221561   3.806   0.126   2.281  0.7125  0.8019 -0.7919
 3309SOL     OW21562   1.457   0.079  12.028 -0.1809  0.5192  0.2370
 3309SOL    HW121563   1.474   0.155  12.083  1.7228  0.9298 -0.9035
 3309SOL    HW221564   1.420   0.123  11.951  0.8444  0.9824  0.0082
 3310SOL     OW21565   2.538   0.723   6.724  0.2722 -0.3924 -0.0303
 3310SOL    HW121566   2.562   0.634   6.749 -1.0592 -0.9241 -0.6404
 3310SOL    HW221567   2.554   0.706   6.631  1.7259 -0.4589  0.2350
 3311SOL     OW21568   1.864   4.234   7.095 -0.2612  0.4094 -0.3032
 3311SOL    HW121569   1.820   4.182   7.027  0.5389 -1.5357  0.6819
 3311SOL    HW221570   1.893   4.159   7.147  2.4923  3.3731  2.4071
 3312SOL     OW21571   2.628   0.029   4.277 -0.2217 -0.2250  0.3021
 3312SOL    HW121572   2.722   0.017   4.270 -0.0358  1.5892 -0.4099
 3312SOL    HW221573   2.606   0.072   4.194  1.2622 -1.0433 -0.5111
 3313SOL     OW21574   2.340   0.378   6.703  0.4668 -0.4966 -0.0073
 3313SOL    HW121575   2.346   0.309   6.637  0.6911 -1.8869  1.4828
 3313SOL    HW221576   2.246   0.367   6.718  0.4070  0.1513  0.1074
 3314SOL     OW21577   1.255   3.688   5.699 -0.3115  0.4087 -0.5097
 3314SOL    HW121578   1.190   3.638   5.650 -2.2408  1.2863  1.1360
 3314SOL    HW221579   1.215   3.680   5.786 -0.5199  0.5119 -0.5951
 3315SOL     OW21580   4.614   2.073   7.612 -0.1243 -0.5942 -0.1237
 3315SOL    HW121581   4.612   2.067   7.707  2.2959 -2.0344 -0.1806
 3315SOL    HW221582   4.593   2.167   7.608  2.4633 -0.0145  0.2923
 3316SOL     OW21583   2.941   0.230   5.479  0.0462 -0.4121  0.2284
 3316SOL    HW121584   2.971   0.320   5.484 -0.5295 -0.0915 -2.0676
 3316SOL    HW221585   3.012   0.185   5.432  0.5054 -0.1806  0.7056
 3317SOL     OW21586   4.050   2.734   3.370  0.0421  0.3162 -0.0087
 3317SOL    HW121587   3.956   2.733   3.349 -0.2661  1.6926  1.2991
 3317SOL    HW221588   4.043   2.756   3.463 -1.1276  0.1859 -0.0582
 3318SOL     OW21589   1.645   4.384   1.414 -0.4699 -0.0285  0.1907
 3318SOL    HW121590   1.722   4.436   1.436 -0.3350 -0.1531  0.0140
 3318SOL    HW221591   1.579   4.454   1.412 -1.1966 -0.6191  2.6816
 3319SOL     OW21592   4.422   0.493   8.419 -0.1571  0.7030  0.3986
 3319SOL    HW121593   4.515   0.477   8.434  0.3680  1.8054 -1.7247
 3319SOL    HW221594   4.435   0.569   8.362  1.5101 -1.0493 -1.5052
 3320SOL     OW21595   1.523   4.212   9.004  0.5771 -0.5631 -0.0919
 3320SOL    HW121596   1.564   4.257   9.078 -0.4048  1.5417 -0.8515
 3320SOL    HW221597   1.506   4.125   9.041 -0.3274 -0.8639 -1.2072
 3321SOL     OW21598   3.454   4.384   5.950  0.3184  0.2923 -0.5116
 3321SOL    HW121599   3.441   4.478   5.958 -3.1092 -0.2834  0.6735
 3321SOL    HW221600   3.407   4.356   6.029 -0.4436 -0.6315 -1.2825
 3322SOL     OW21601   3.035   1.343   2.937  0.3022  0.1606 -0.2386
 3322SOL    HW121602   3.050   1.403   2.864 -0.9672  0.7719 -0.0032
 3322SOL    HW221603   2.940   1.352   2.948  0.5622 -2.1520  3.6124
 3323SOL     OW21604   4.045   3.766  16.404  0.3696 -0.2121  0.2202
 3323SOL    HW121605   4.107   3.785  16.475  1.0052 -1.8706  0.1268
 3323SOL    HW221606   3.980   3.727  16.463  0.6745  0.6192  1.0996
 3324SOL     OW21607   1.786   3.935   2.527 -0.7959  0.4121  0.1982
 3324SOL    HW121608   1.779   3.890   2.612  0.8153 -0.1744  0.0257
 3324SOL    HW221609   1.859   3.887   2.488 -0.8336  1.4855 -1.1713
 3325SOL     OW21610   0.088   2.097   9.522  0.2917  0.6229  0.5646
 3325SOL    HW121611   0.077   2.029   9.589 -2.0330 -0.6156 -1.0817
 3325SOL    HW221612   0.000   2.110   9.487  0.9983  1.9108 -0.7530
 3326SOL     OW21613   1.910   4.713   9.394 -0.0674  0.2555 -0.2131
 3326SOL    HW121614   2.006   4.710   9.389 -0.0559 -0.8128  0.7518
 3326SOL    HW221615   1.901   4.662   9.474  0.4730 -0.3579 -0.5385
 3327SOL     OW21616   0.772   2.918   6.533 -0.1371 -0.5464 -0.0881
 3327SOL    HW121617   0.742   3.002   6.568  1.9048  0.1641 -0.0460
 3327SOL    HW221618   0.849   2.902   6.588  0.3759 -3.7337 -1.7269
 3328SOL     OW21619   2.076   2.846  10.393  0.2502  0.5682  0.3411
 3328SOL    HW121620   1.982   2.863  10.379 -0.6151 -2.0718  2.9580
 3328SOL    HW221621   2.065   2.754  10.418  2.3021  0.8401  2.2024
 3329SOL     OW21622   0.179   2.004  14.616  0.2284 -0.1570  0.8256
 3329SOL    HW121623   0.238   2.044  14.680  1.2608  0.6878 -0.6462
 3329SOL    HW221624   0.209   2.035  14.530 -1.0315 -2.7576 -0.5357
 3330SOL     OW21625   1.763   1.176  16.182  0.1111  0.1629  0.5274
 3330SOL    HW121626   1.742   1.183  16.089 -0.2743  0.5160  0.6401
 3330SOL    HW221627   1.741   1.084  16.194  0.2942 -0.1421 -1.3988
 3331SOL     OW21628   3.943   2.284   6.424 -0.3143  0.1108 -0.0248
 3331SOL    HW121629   3.977   2.323   6.343  0.4915  0.1545  0.3358
 3331SOL    HW221630   4.002   2.328   6.486  1.2342  0.9698 -2.0910
 3332SOL     OW21631   2.199   4.324   1.118 -0.1530 -0.3625 -0.2071
 3332SOL    HW121632   2.192   4.392   1.050  1.3601  1.8306  1.8158
 3332SOL    HW221633   2.140   4.350   1.189  1.4293 -0.3952  1.1083
 3333SOL     OW21634   0.025   2.680   5.777  0.3497  0.2017 -0.4032
 3333SOL    HW121635   0.120   2.688   5.775  0.3289  0.3070 -1.0314
 3333SOL    HW221636   0.002   2.588   5.794  1.2141  0.3812  1.6180
 3334SOL     OW21637   4.416   0.758   3.146 -0.4622  0.0148 -0.5197
 3334SOL    HW121638   4.480   0.811   3.193 -1.2827 -0.7342  1.4364
 3334SOL    HW221639   4.400   0.683   3.203 -1.0564 -0.2576 -1.0387
 3335SOL     OW21640   0.805   2.378   1.801  0.2644  0.2471  0.2967
 3335SOL    HW121641   0.862   2.335   1.864  0.3614  3.0391  2.0813
 3335SOL    HW221642   0.874   2.437   1.772  0.4314  0.0198  0.2322
 3336SOL     OW21643   3.853   2.413   2.252  0.0995 -0.3729  0.4660
 3336SOL    HW121644   3.790   2.341   2.256  1.0210 -1.3347 -2.0811
 3336SOL    HW221645   3.809   2.464   2.183 -1.2054  1.1382  2.4125
 3337SOL     OW21646   2.961   4.590  12.054 -0.0715  0.5543  0.5404
 3337SOL    HW121647   2.923   4.507  12.083  1.1692 -0.6914 -1.3611
 3337SOL    HW221648   2.889   4.653  12.055 -0.5135  0.0733 -0.8835
 3338SOL     OW21649   0.811   0.083   6.269  0.2879  0.0231 -0.6266
 3338SOL    HW121650   0.821   0.014   6.204  3.5645  0.0026 -0.0934
 3338SOL    HW221651   0.818   0.165   6.219  0.1006 -0.1655 -0.9599
 3339SOL     OW21652   3.567   3.848   7.306  0.1381  0.4560 -0.5867
 3339SOL    HW121653   3.605   3.829   7.392 -0.6223 -0.3875 -0.4403
 3339SOL    HW221654   3.644   3.849   7.250 -0.5283  2.0580 -1.4756
 3340SOL     OW21655   3.222   2.562  14.597 -0.0183  0.5734  0.2624
 3340SOL    HW121656   3.184   2.621  14.663  3.4056  1.0537  1.8344
 3340SOL    HW221657   3.154   2.497  14.582  0.9697  0.2316 -2.6142
 3341SOL     OW21658   3.389   1.640   3.704  0.3358  0.1888 -0.6814
 3341SOL    HW121659   3.423   1.702   3.768  1.6467 -2.2981  1.0091
 3341SOL    HW221660   3.302   1.680   3.696 -0.0630 -0.6242 -0.4308
 3342SOL     OW21661   1.072   2.373   8.787  0.2888  0.3797 -0.2738
 3342SOL    HW121662   0.992   2.332   8.820 -0.1517  1.9574  0.5939
 3342SOL    HW221663   1.143   2.327   8.833 -1.2846 -0.6765  1.0617
 3343SOL     OW21664   3.778   4.245   7.290 -0.3916  0.0612  0.0327
 3343SOL    HW121665   3.720   4.316   7.317 -0.1084  2.1263 -4.6080
 3343SOL    HW221666   3.730   4.187   7.232 -0.1181  0.5698 -0.7097
 3344SOL     OW21667   0.767   3.994   0.143 -0.1058 -0.7495  0.0352
 3344SOL    HW121668   0.849   3.958   0.176 -0.8690 -2.1249  0.4016
 3344SOL    HW221669   0.708   3.976   0.216  0.5710 -1.3013  0.4497
 3345SOL     OW21670   2.297   1.767   8.551 -0.4411  0.7940  0.0826
 3345SOL    HW121671   2.336   1.853   8.564 -2.6813  1.4462  2.5440
 3345SOL    HW221672   2.342   1.706   8.609 -2.0945 -0.1898  0.3541
 3346SOL     OW21673   3.611   0.205   3.724  0.3417  0.0234  0.0644
 3346SOL    HW121674   3.528   0.246   3.703  1.3658  0.6744 -2.7332
 3346SOL    HW221675   3.606   0.121   3.678  0.1472  0.0017  0.1242
 3347SOL     OW21676   3.551   1.142  14.311  0.3960  0.8015 -0.1695
 3347SOL    HW121677   3.486   1.081  14.277 -0.0274  0.3247  1.4847
 3347SOL    HW221678   3.577   1.205  14.243  2.7408  0.0315  0.0284
 3348SOL     OW21679   3.796   0.600  10.327 -0.0733  0.3569 -0.3532
 3348SOL    HW121680   3.740   0.656  10.382  1.5515  0.0638  1.6134
 3348SOL    HW221681   3.735   0.565  10.262 -0.0296 -0.5633  0.1055
 3349SOL     OW21682   0.366   2.587   2.739  0.0590  0.0062  0.4819
 3349SOL    HW121683   0.365   2.672   2.696  3.1339  0.5475  1.5293
 3349SOL    HW221684   0.353   2.531   2.662  0.2388 -0.0774  0.5120
 3350SOL     OW21685   4.099   1.595   7.463  0.1586 -0.2196  0.1600
 3350SOL    HW121686   4.059   1.579   7.549 -1.0780  0.3754 -0.3027
 3350SOL    HW221687   4.180   1.637   7.493 -0.8511  2.1743 -0.4789
 3351SOL     OW21688   4.282   0.285   5.699  0.0833  0.5089 -0.0090
 3351SOL    HW121689   4.205   0.282   5.641 -1.5861  1.5641  2.1482
 3351SOL    HW221690   4.304   0.192   5.706 -0.1963  0.3768 -0.8515
 3352SOL     OW21691   4.503   1.711   7.076 -0.0240 -0.2228  0.2704
 3352SOL    HW121692   4.534   1.671   6.994  2.0975  0.8836  0.5474
 3352SOL    HW221693   4.433   1.647   7.092  0.3373 -0.4032  1.1329
 3353SOL     OW21694   0.975   4.667   7.805  0.2391 -0.1667  0.1780
 3353SOL    HW121695   1.045   4.730   7.823  0.5665 -1.1905  2.4652
 3353SOL    HW221696   0.964   4.629   7.892  0.2379  0.4631  0.4581
 3354SOL     OW21697   3.175   0.837  12.618  0.8010 -0.0395  0.1823
 3354SOL    HW121698   3.095   0.887  12.637  1.1967  0.1395  1.3652
 3354SOL    HW221699   3.161   0.822  12.525  0.2419 -0.2242  0.2955
 3355SOL     OW21700   1.318   1.922   4.840  0.2733  0.2819  0.3701
 3355SOL    HW121701   1.399   1.968   4.815 -0.0756  1.1217  0.7884
 3355SOL    HW221702   1.247   1.957   4.786  1.4985  0.2189 -1.3189
 3356SOL     OW21703   3.438   0.868  11.629  0.2279  0.1539 -0.0737
 3356SOL    HW121704   3.469   0.944  11.678 -0.1773 -0.0758  0.5338
 3356SOL    HW221705   3.355   0.894  11.589 -0.1842  1.1261  1.3920
 3357SOL     OW21706   4.194   0.647   8.261  0.2300  0.4926  0.2156
 3357SOL    HW121707   4.287   0.655   8.280  0.3634  1.0264 -0.6727
 3357SOL    HW221708   4.172   0.740   8.253  1.3495  0.8959  1.8282
 3358SOL     OW21709   1.619   3.462  16.307 -0.9541 -0.0959  0.2308
 3358SOL    HW121710   1.587   3.497  16.224 -3.5361 -0.0641  1.2366
 3358SOL    HW221711   1.632   3.535  16.368  0.3651  0.3716 -0.6032
 3359SOL     OW21712   1.273   2.802   6.464 -0.1365  0.1518  0.3988
 3359SOL    HW121713   1.338   2.754   6.515 -2.5660 -2.6203  0.8774
 3359SOL    HW221714   1.193   2.752   6.480 -1.1119  0.8052 -2.3657
 3360SOL     OW21715   4.342   4.689  14.484  0.0308  0.0240 -0.4324
 3360SOL    HW121716   4.338   4.651  14.572 -4.3847 -1.4652 -1.2939
 3360SOL    HW221717   4.436   4.685  14.465  0.0540 -1.9222  0.0839
 3361SOL     OW21718   3.973   1.371   2.337  0.2712  0.4009 -0.1302
 3361SOL    HW121719   3.911   1.300   2.322 -1.3216  1.5308  1.1013
 3361SOL    HW221720   4.020   1.371   2.254 -2.5898  2.7580 -1.7477
 3362SOL     OW21721   4.212   4.558   8.865  0.2316  0.2192  0.6536
 3362SOL    HW121722   4.166   4.513   8.936 -3.0172  2.4427 -0.0626
 3362SOL    HW221723   4.139   4.614   8.838 -0.6301 -0.3340  1.8396
 3363SOL     OW21724   3.815   3.314  14.135  0.5005 -0.1682 -0.0539
 3363SOL    HW121725   3.854   3.242  14.084 -0.1176 -0.9338  0.5444
 3363SOL    HW221726   3.758   3.353  14.069  0.0795  0.9367  0.9791
 3364SOL     OW21727   3.501   1.997  14.707 -0.7986 -1.0007 -0.2378
 3364SOL    HW121728   3.497   1.958  14.620  1.1084 -3.3072  0.7037
 3364SOL    HW221729   3.411   2.028  14.720 -0.3724 -0.1881  0.7584
 3365SOL     OW21730   0.098   2.665  11.537  0.5599  0.0300  0.2193
 3365SOL    HW121731   0.121   2.630  11.624  1.2233  0.6128  0.2798
 3365SOL    HW221732   0.070   2.583  11.498  2.3134  0.1283 -1.2751
 3366SOL     OW21733   1.751   2.530   2.724 -0.4050  0.3465  0.2421
 3366SOL    HW121734   1.677   2.579   2.689 -0.1803 -0.1568 -0.9298
 3366SOL    HW221735   1.814   2.601   2.707  1.5292 -1.3643  0.2376
 3367SOL     OW21736   4.272   0.977  15.578 -0.7272  0.0214  0.0183
 3367SOL    HW121737   4.356   0.931  15.587  0.0628  2.0824  3.5877
 3367SOL    HW221738   4.212   0.909  15.608 -1.9314  0.1657 -2.1399
 3368SOL     OW21739   0.892   0.502   6.267 -0.5421  0.3654  0.1319
 3368SOL    HW121740   0.800   0.479   6.255 -0.2673 -0.8976  0.4017
 3368SOL    HW221741   0.914   0.441   6.337  0.3177  0.2564 -0.2314
 3369SOL     OW21742   4.577   1.159   3.212 -0.1055 -0.1267  0.2121
 3369SOL    HW121743   4.655   1.147   3.158 -0.7981 -1.2864 -0.5229
 3369SOL    HW221744   4.567   1.072   3.252 -1.4619  0.4248  1.0691
 3370SOL     OW21745   0.196   2.893   9.886 -0.2246  0.1134 -0.2044
 3370SOL    HW121746   0.280   2.852   9.865  0.5044  0.7311  1.4792
 3370SOL    HW221747   0.226   2.967   9.939  1.1808 -0.6864  0.1072
 3371SOL     OW21748   3.186   3.021   5.816  0.2221  0.3091  0.2756
 3371SOL    HW121749   3.235   3.102   5.805 -0.5795  0.8186  0.4891
 3371SOL    HW221750   3.173   3.008   5.722 -0.1807 -1.3277  0.5516
 3372SOL     OW21751   2.506   4.365   5.268 -0.2621 -0.3529  0.9498
 3372SOL    HW121752   2.548   4.282   5.289 -0.3256 -0.6202  0.0175
 3372SOL    HW221753   2.589   4.408   5.247 -0.1595 -2.0934 -2.2392
 3373SOL     OW21754   3.035   3.278   8.445 -0.0770 -0.1477  0.1377
 3373SOL    HW121755   2.987   3.313   8.370  0.5053  0.6784  0.1514
 3373SOL    HW221756   3.108   3.237   8.401 -1.4687 -0.1982 -2.1031
 3374SOL     OW21757   4.395   1.746   8.050  0.6444  0.0524  0.8486
 3374SOL    HW121758   4.334   1.773   8.119  1.4113 -0.2508  1.6384
 3374SOL    HW221759   4.474   1.767   8.100  2.5217 -1.5877 -1.4439
 3375SOL     OW21760   1.021   4.025   9.142 -0.2103  0.0120 -0.1785
 3375SOL    HW121761   1.064   4.006   9.225  0.5160  0.1847 -0.5154
 3375SOL    HW221762   1.018   3.938   9.103  1.7363 -0.0402 -0.2165
 3376SOL     OW21763   4.279   2.020  16.056 -0.4459 -0.2872 -0.1391
 3376SOL    HW121764   4.284   2.054  15.967  0.2376 -0.0672 -0.0176
 3376SOL    HW221765   4.184   2.012  16.064 -0.5339 -0.5395 -1.4744
 3377SOL     OW21766   4.686   4.114  12.882  0.4010  0.2708 -0.3761
 3377SOL    HW121767   0.037   4.149  12.899 -0.2202  1.4202  0.4727
 3377SOL    HW221768   4.628   4.188  12.898  1.6751  1.2153 -0.1337
 3378SOL     OW21769   3.298   2.719   8.238  0.9184 -0.3760  0.0510
 3378SOL    HW121770   3.266   2.729   8.328 -1.2943 -0.8594 -0.6953
 3378SOL    HW221771   3.274   2.627   8.227 -3.4928  0.5762  1.3905
 3379SOL     OW21772   0.799   3.184   5.039 -0.1541  0.2092 -0.1255
 3379SOL    HW121773   0.894   3.191   5.024 -0.3907  0.4715 -1.5176
 3379SOL    HW221774   0.770   3.247   4.973 -1.2312  0.8290  0.9577
 3380SOL     OW21775   1.794   1.367   1.543  0.7352  0.0363 -0.1278
 3380SOL    HW121776   1.839   1.383   1.459  0.5135  0.0525 -0.2434
 3380SOL    HW221777   1.736   1.443   1.547  0.6754 -0.0458  0.5392
 3381SOL     OW21778   1.712   2.317  13.515  0.3941  0.0178 -0.0110
 3381SOL    HW121779   1.672   2.358  13.438  3.0079  1.6315 -0.5044
 3381SOL    HW221780   1.750   2.391  13.563  0.5739 -0.1294  0.0740
 3382SOL     OW21781   2.466   2.533   5.039  0.4295  0.4792 -0.1776
 3382SOL    HW121782   2.518   2.458   5.010  1.1050  0.8166  0.1735
 3382SOL    HW221783   2.405   2.547   4.966  0.8533  1.8609 -0.2650
 3383SOL     OW21784   3.401   4.378   8.723 -0.1679  0.1317  0.1434
 3383SOL    HW121785   3.384   4.365   8.629  0.9915 -2.2988  0.2670
 3383SOL    HW221786   3.310   4.388   8.753 -0.6642 -0.3913 -1.1661
 3384SOL     OW21787   1.522   0.483   2.252 -0.1220  0.1583 -0.0654
 3384SOL    HW121788   1.461   0.554   2.234 -1.9298 -1.0797  1.1858
 3384SOL    HW221789   1.610   0.521   2.256 -0.3828  0.6966  0.5240
 3385SOL     OW21790   4.034   3.111   4.270 -0.0626  0.4179 -0.0128
 3385SOL    HW121791   4.057   3.080   4.357  2.2302  1.1266 -0.3542
 3385SOL    HW221792   4.096   3.054   4.225 -1.1778  0.0530 -1.1001
 3386SOL     OW21793   3.805   4.030   6.570 -0.6565 -0.0687  0.2691
 3386SOL    HW121794   3.900   4.025   6.582 -0.8679  1.0633  2.3824
 3386SOL    HW221795   3.785   4.123   6.580 -2.8278 -0.6661  1.4733
 3387SOL     OW21796   3.553   2.137   8.771 -0.9043  0.0614 -0.0590
 3387SOL    HW121797   3.532   2.051   8.808 -1.9908 -0.5166 -2.0194
 3387SOL    HW221798   3.617   2.107   8.706 -0.6618  0.5368 -0.0410
 3388SOL     OW21799   3.355   4.180   7.575 -0.3074 -0.1282  0.2329
 3388SOL    HW121800   3.284   4.230   7.534  1.1212  1.0549 -0.7969
 3388SOL    HW221801   3.417   4.248   7.602  1.6998 -2.1343  0.6831
 3389SOL     OW21802   4.731   2.736   0.948  0.1131 -0.2917  0.0769
 3389SOL    HW121803   4.722   2.822   0.908 -0.5580 -1.1857 -1.6998
 3389SOL    HW221804   0.003   2.758   1.041  1.1135 -0.4985  0.0383
 3390SOL     OW21805   3.238   1.202   8.096  0.4389  0.3725  0.5251
 3390SOL    HW121806   3.321   1.176   8.056 -0.9415 -1.2699 -1.3005
 3390SOL    HW221807   3.267   1.179   8.184  0.8421 -3.7071 -0.6631
 3391SOL     OW21808   3.822   0.889   5.197  0.3179  0.4375 -0.1208
 3391SOL    HW121809   3.796   0.847   5.279 -0.0413  1.2063  0.1591
 3391SOL    HW221810   3.811   0.981   5.221  5.8303  0.7039  1.2617
 3392SOL     OW21811   3.103   1.947   2.553 -0.5935 -0.3682 -0.0162
 3392SOL    HW121812   3.088   2.004   2.629  1.3605  2.2062 -1.5694
 3392SOL    HW221813   3.182   1.899   2.579 -0.0772  0.1926 -0.5575
 3393SOL     OW21814   1.063   2.174   5.330 -0.2692 -0.2467  0.9360
 3393SOL    HW121815   1.145   2.190   5.283 -0.8033  0.1433  0.1344
 3393SOL    HW221816   1.028   2.111   5.267 -0.0066 -1.4933  2.0347
 3394SOL     OW21817   2.068   3.522   2.850 -0.5919 -0.1034  0.3828
 3394SOL    HW121818   2.084   3.547   2.941 -2.8401  1.2674  0.3889
 3394SOL    HW221819   2.142   3.463   2.833 -0.1856  0.2936  0.7558
 3395SOL     OW21820   0.165   1.148   8.690  0.0302  0.0286 -0.0513
 3395SOL    HW121821   0.104   1.158   8.763 -2.8401  0.6226 -2.5575
 3395SOL    HW221822   0.231   1.210   8.724  0.2703  0.8114 -1.9625
 3396SOL     OW21823   2.994   2.135   0.884  0.1876 -0.1365 -0.6315
 3396SOL    HW121824   3.033   2.085   0.812  2.6578  2.2642 -0.9292
 3396SOL    HW221825   2.991   2.073   0.957 -1.2317 -0.2687 -0.7853
 3397SOL     OW21826   1.397   3.733   4.956  0.0372 -0.3959 -0.2977
 3397SOL    HW121827   1.320   3.714   4.903  0.2595  1.2863 -1.2191
 3397SOL    HW221828   1.465   3.684   4.909  1.3566 -2.8385  4.1294
 3398SOL     OW21829   0.212   2.447  16.848 -0.0036 -0.0007  0.3120
 3398SOL    HW121830   0.213   2.513  16.918  1.1990 -0.2681  0.5437
 3398SOL    HW221831   0.285   2.393  16.877  1.0502  1.2136 -0.0538
 3399SOL     OW21832   2.361   1.078   9.149 -0.4693  0.1067  0.1033
 3399SOL    HW121833   2.383   1.085   9.056 -0.5959  0.9404  0.1355
 3399SOL    HW221834   2.441   1.049   9.191 -1.6903 -2.3919  0.7026
 3400SOL     OW21835   2.431   0.033  13.807  0.3960 -0.5543 -0.1970
 3400SOL    HW121836   2.360   0.029  13.742  1.2760 -1.1333 -1.1279
 3400SOL    HW221837   2.392   4.717  13.877  1.4223 -1.0453 -0.0006
 3401SOL     OW21838   1.995   0.607  15.494  0.2456  0.1288 -0.1503
 3401SOL    HW121839   1.909   0.642  15.519 -0.6356 -2.4669  0.4372
 3401SOL    HW221840   1.978   0.587  15.402 -3.0376 -0.4436  0.5905
 3402SOL     OW21841   1.512   1.378   5.998  0.1369 -0.0906 -0.3177
 3402SOL    HW121842   1.419   1.375   6.021  0.4065  0.5283  0.8536
 3402SOL    HW221843   1.549   1.297   6.032  0.1507  0.5380  1.1661
 3403SOL     OW21844   2.188   1.741  13.424 -0.2327  0.3312  0.1250
 3403SOL    HW121845   2.198   1.645  13.422 -1.4057  0.2247 -0.8804
 3403SOL    HW221846   2.276   1.768  13.451 -0.7014  3.6732 -1.6604
 3404SOL     OW21847   4.396   4.723   6.541  0.0476 -0.2859 -0.3482
 3404SOL    HW121848   4.337   4.648   6.550  1.1912 -0.9020  2.0905
 3404SOL    HW221849   4.454   4.673   6.484  1.7592 -0.7052  1.7724
 3405SOL     OW21850   1.547   3.483  10.620 -0.0711 -0.4867  0.4178
 3405SOL    HW121851   1.589   3.478  10.534 -0.4790  0.4214  0.1708
 3405SOL    HW221852   1.606   3.433  10.677  1.3278 -2.0188 -2.3911
 3406SOL     OW21853   3.774   3.211  12.222  1.0700  0.4322 -0.1917
 3406SOL    HW121854   3.730   3.259  12.292 -0.9722 -2.1196  0.2868
 3406SOL    HW221855   3.821   3.282  12.180  1.2866  0.6142  0.3576
 3407SOL     OW21856   1.571   3.317   9.369 -0.3046  0.0660 -0.1326
 3407SOL    HW121857   1.629   3.383   9.331 -0.3528  0.8989  1.2205
 3407SOL    HW221858   1.639   3.254   9.391 -1.4727 -1.1768 -0.0588
 3408SOL     OW21859   0.360   2.907   2.480 -0.0962  0.1111 -0.2768
 3408SOL    HW121860   0.442   2.898   2.528 -0.2441 -5.2497 -1.1265
 3408SOL    HW221861   0.394   2.936   2.395 -0.8481  1.3171 -0.1758
 3409SOL     OW21862   2.148   0.734  12.248 -0.2573  0.2188  0.0528
 3409SOL    HW121863   2.100   0.816  12.237  1.2814  1.1407  0.0805
 3409SOL    HW221864   2.096   0.693  12.317 -0.3210 -0.1488 -0.2194
 3410SOL     OW21865   3.475   4.671   1.876  1.1593 -0.1192 -0.0374
 3410SOL    HW121866   3.529   4.699   1.950 -0.8606 -0.4776  1.5580
 3410SOL    HW221867   3.545   4.626   1.828  0.8098 -0.7570  0.0442
 3411SOL     OW21868   0.471   3.159   7.800  0.1005  0.1910 -0.1013
 3411SOL    HW121869   0.487   3.186   7.709 -0.0810  0.5785 -0.0206
 3411SOL    HW221870   0.375   3.162   7.803  0.1669  1.2846  1.1078
 3412SOL     OW21871   3.019   3.263  13.048 -0.6755 -0.1310 -0.0379
 3412SOL    HW121872   3.007   3.171  13.025  1.5781 -0.3887 -0.1294
 3412SOL    HW221873   3.054   3.296  12.965 -1.1980  3.1719  1.0479
 3413SOL     OW21874   2.851   0.335   2.515  0.2515 -0.1495  0.1586
 3413SOL    HW121875   2.761   0.360   2.531  0.1312  0.2474 -1.1303
 3413SOL    HW221876   2.848   0.356   2.421 -2.7965 -0.4207  0.2019
 3414SOL     OW21877   2.139   3.967   3.178  0.2925 -0.1634  0.0586
 3414SOL    HW121878   2.192   3.892   3.207  1.2713  0.2352 -0.6918
 3414SOL    HW221879   2.144   3.949   3.084 -1.6940 -0.2553 -0.0307
 3415SOL     OW21880   3.781   3.508   7.033 -0.1679 -0.3843  1.0910
 3415SOL    HW121881   3.710   3.524   7.095 -1.4949  0.8906 -0.7970
 3415SOL    HW221882   3.750   3.419   7.015  1.6130 -0.2594 -2.7473
 3416SOL     OW21883   1.004   0.590   3.261  0.1584 -0.0434 -0.3545
 3416SOL    HW121884   0.916   0.626   3.246  0.7171  0.3919 -2.5009
 3416SOL    HW221885   1.045   0.647   3.197 -1.0734  0.6836 -0.5025
 3417SOL     OW21886   1.416   0.189   8.971 -0.2566 -0.0967  0.0489
 3417SOL    HW121887   1.334   0.152   8.940 -0.3688 -2.5303  3.2265
 3417SOL    HW221888   1.481   0.124   8.946 -1.9029 -1.6443 -0.1512
 3418SOL     OW21889   3.101   0.861   6.017  0.1901 -0.3393  0.1736
 3418SOL    HW121890   3.091   0.910   5.935 -0.3946 -1.4186 -0.3971
 3418SOL    HW221891   3.195   0.843   6.015  0.2846 -0.0414  1.8833
 3419SOL     OW21892   1.682   2.671   5.731  0.3688  0.0491 -0.2149
 3419SOL    HW121893   1.588   2.663   5.745  0.4828 -2.0363 -0.6412
 3419SOL    HW221894   1.706   2.597   5.675  0.5193  0.8318 -1.1886
 3420SOL     OW21895   2.029   1.515   5.618  0.0247 -0.1401  0.3009
 3420SOL    HW121896   2.031   1.569   5.697  0.5718 -2.2599  1.7590
 3420SOL    HW221897   2.109   1.462   5.617 -2.5381 -3.9896 -1.1373
 3421SOL     OW21898   2.956   2.803   3.023  0.3747 -0.3970  0.6936
 3421SOL    HW121899   3.014   2.840   3.090  1.2714 -1.4191  0.4900
 3421SOL    HW221900   3.006   2.742   2.969 -0.6911 -0.5436 -0.1340
 3422SOL     OW21901   3.532   1.328   5.193 -0.0089  0.1868 -0.1074
 3422SOL    HW121902   3.512   1.370   5.109  2.0080  1.6921  0.1618
 3422SOL    HW221903   3.625   1.304   5.183 -0.8747 -1.4382 -4.2551
 3423SOL     OW21904   3.861   2.731   2.515  0.4787 -0.5836 -0.2615
 3423SOL    HW121905   3.879   2.797   2.448  0.0072 -0.5373 -0.3405
 3423SOL    HW221906   3.766   2.737   2.508  0.5881  1.9759  0.6885
 3424SOL     OW21907   4.170   2.932   3.189  0.5921 -0.2334  0.2636
 3424SOL    HW121908   4.139   2.866   3.250 -2.3229  2.0960  1.2886
 3424SOL    HW221909   4.084   2.962   3.160  1.0312  0.7925 -0.0206
 3425SOL     OW21910   0.447   0.065   3.874 -0.3677  0.2525 -0.5683
 3425SOL    HW121911   0.389   0.114   3.932  0.8633 -2.2067  2.7804
 3425SOL    HW221912   0.432   4.708   3.893  0.8116  0.6754  2.5758
 3426SOL     OW21913   4.545   3.075   1.895  0.4080 -0.0479 -0.2273
 3426SOL    HW121914   4.487   3.017   1.945  0.4377 -0.2401 -0.4158
 3426SOL    HW221915   4.488   3.143   1.859 -0.5330 -0.9577 -0.4601
 3427SOL     OW21916   0.056   4.417  12.890  0.3709 -0.0245  0.5081
 3427SOL    HW121917   0.032   4.484  12.825  0.3222  0.4652  1.0262
 3427SOL    HW221918   0.122   4.462  12.943  0.5831 -0.9165  0.9961
 3428SOL     OW21919   0.688   0.031   7.479  0.4501  0.1772  0.5066
 3428SOL    HW121920   0.742   0.006   7.405  1.0196  1.2263  0.5626
 3428SOL    HW221921   0.601   0.024   7.439  0.8089  1.9706 -0.6067
 3429SOL     OW21922   3.768   1.761   7.683 -0.3046  0.7875 -0.0144
 3429SOL    HW121923   3.738   1.845   7.719 -2.0324 -1.0451  2.7541
 3429SOL    HW221924   3.749   1.691   7.745  1.3220  0.4909  0.1309
 3430SOL     OW21925   3.439   2.411   9.332 -0.1415 -0.1207 -0.0378
 3430SOL    HW121926   3.480   2.367   9.406  1.0316  0.5046 -0.3274
 3430SOL    HW221927   3.513   2.464   9.303 -0.6045  0.8855  0.6588
 3431SOL     OW21928   4.433   0.719   5.913 -0.2441  0.0544  0.1134
 3431SOL    HW121929   4.428   0.686   6.003  0.4353 -1.0820 -0.2659
 3431SOL    HW221930   4.342   0.708   5.883 -1.0954  1.3534  2.1790
 3432SOL     OW21931   4.699   3.684  14.672  0.0883  0.4714  0.1941
 3432SOL    HW121932   4.714   3.632  14.593 -0.1962 -2.4335  2.0389
 3432SOL    HW221933   4.707   3.771  14.635  2.6242  1.6472  3.4687
 3433SOL     OW21934   0.661   1.012   5.587  0.0488  0.6610  0.2902
 3433SOL    HW121935   0.570   1.040   5.596 -0.6628 -1.5238 -0.2598
 3433SOL    HW221936   0.656   0.949   5.516 -1.4521  0.8192  0.2488
 3434SOL     OW21937   2.006   3.132  10.390  0.1482  0.7080 -0.4929
 3434SOL    HW121938   2.100   3.131  10.407 -0.1268 -0.3209  1.0206
 3434SOL    HW221939   1.967   3.050  10.419  1.1677 -0.7582 -3.3573
 3435SOL     OW21940   3.273   1.947  17.599 -0.0524  0.5610 -0.1173
 3435SOL    HW121941   3.272   1.983  17.511  1.1870 -0.5994 -0.5971
 3435SOL    HW221942   3.355   1.980  17.637  0.7833 -1.8316  0.1570
 3436SOL     OW21943   4.248   2.330   2.252  0.4900  0.7470 -0.6881
 3436SOL    HW121944   4.318   2.317   2.188 -0.6303  0.1906 -1.8187
 3436SOL    HW221945   4.183   2.331   2.182 -0.6677 -0.9169  0.3562
 3437SOL     OW21946   3.626   1.891  13.076  0.6061 -0.1072 -0.3893
 3437SOL    HW121947   3.700   1.855  13.027  1.7985 -0.3424  1.6143
 3437SOL    HW221948   3.644   1.985  13.079  1.1925 -0.2742  1.0475
 3438SOL     OW21949   4.436   1.183   3.848 -1.2332  0.2268  0.2449
 3438SOL    HW121950   4.423   1.257   3.789  1.9515 -0.0249 -0.7403
 3438SOL    HW221951   4.351   1.139   3.843  0.0689 -2.3865  1.3435
 3439SOL     OW21952   4.382   1.790  11.879  0.4877 -0.4801 -0.0427
 3439SOL    HW121953   4.319   1.829  11.941 -0.5219  0.1663 -1.4719
 3439SOL    HW221954   4.328   1.762  11.805  0.7479  0.9301 -0.7685
 3440SOL     OW21955   2.699   2.471   6.023  0.2228 -0.2955 -0.9894
 3440SOL    HW121956   2.735   2.392   6.062  3.0781  1.1788 -0.6612
 3440SOL    HW221957   2.650   2.428   5.953  0.0187  2.8016 -2.7395
 3441SOL     OW21958   4.210   0.588   9.009  0.1482 -0.2899 -0.0140
 3441SOL    HW121959   4.221   0.573   8.915  1.2031  0.0753  0.0543
 3441SOL    HW221960   4.288   0.539   9.032 -0.3438  0.0153  2.2452
 3442SOL     OW21961   0.670   1.315  12.819 -0.5648 -0.3569 -0.1308
 3442SOL    HW121962   0.660   1.280  12.907 -2.6560  1.8096  0.4642
 3442SOL    HW221963   0.763   1.338  12.817 -0.4002 -1.1719 -2.4058
 3443SOL     OW21964   1.772   0.514   4.849 -0.1300  0.4991 -0.6360
 3443SOL    HW121965   1.804   0.580   4.910 -1.9494  0.9627 -0.2122
 3443SOL    HW221966   1.726   0.567   4.784  0.0403 -0.2696 -1.3870
 3444SOL     OW21967   2.135   3.093   8.783 -0.2488  0.0539 -0.3220
 3444SOL    HW121968   2.148   3.148   8.860 -0.2990  0.0078 -0.2799
 3444SOL    HW221969   2.041   3.109   8.773 -0.6804 -2.8793 -1.0988
 3445SOL     OW21970   2.280   3.762   7.555  0.1929  0.4100 -0.3692
 3445SOL    HW121971   2.308   3.760   7.646  1.5741  0.5567 -0.7920
 3445SOL    HW221972   2.211   3.828   7.561 -0.7539 -0.2617 -3.7844
 3446SOL     OW21973   3.398   4.027   5.971 -0.0793 -0.1223  0.3807
 3446SOL    HW121974   3.367   4.076   5.894  0.3907 -0.3603  0.0378
 3446SOL    HW221975   3.417   3.944   5.927  0.4277  0.1770  0.0289
 3447SOL     OW21976   4.475   4.057   6.992  0.4905 -0.3804  0.4716
 3447SOL    HW121977   4.437   3.971   7.010  0.4688 -0.2052  1.2767
 3447SOL    HW221978   4.491   4.080   7.084  1.6879 -0.2738  0.2399
 3448SOL     OW21979   1.771   0.139  16.853 -0.6116 -0.0666  0.0991
 3448SOL    HW121980   1.745   0.066  16.797  2.8720 -2.0714  1.0903
 3448SOL    HW221981   1.836   0.096  16.909  0.5241 -0.2480 -1.3737
 3449SOL     OW21982   1.384   3.215   7.182 -0.0324 -0.1615  0.1021
 3449SOL    HW121983   1.329   3.289   7.156  0.5247 -0.3219 -1.5443
 3449SOL    HW221984   1.319   3.146   7.165 -1.6184  1.2287  0.5045
 3450SOL     OW21985   4.675   0.068   9.149 -0.8416 -0.7584 -0.0696
 3450SOL    HW121986   0.033   0.084   9.157 -0.7792 -1.7132  1.1286
 3450SOL    HW221987   4.680   4.721   9.103 -0.1134 -1.0940  0.5966
 3451SOL     OW21988   1.641   3.433   1.788  0.0316  0.0449 -0.1792
 3451SOL    HW121989   1.615   3.498   1.722  1.9058  1.8199  0.8171
 3451SOL    HW221990   1.567   3.439   1.848  1.3299 -0.5022  1.4628
 3452SOL     OW21991   0.205   1.332  12.558  0.1188  0.3140 -0.1512
 3452SOL    HW121992   0.295   1.336  12.526  0.1255  1.3210 -0.0032
 3452SOL    HW221993   0.153   1.372  12.488 -1.6226  0.6287  1.3263
 3453SOL     OW21994   2.344   0.928  12.084  0.2139  0.0718  0.0996
 3453SOL    HW121995   2.315   0.868  12.152 -1.6798  0.5637 -0.2608
 3453SOL    HW221996   2.387   0.995  12.137  3.7703 -1.0078 -1.4184
 3454SOL     OW21997   2.705   2.193   7.776 -0.9511  0.1023  0.1759
 3454SOL    HW121998   2.660   2.205   7.692  0.1922 -0.9861 -0.6018
 3454SOL    HW221999   2.655   2.242   7.840  2.3345  1.6580  1.5424
 3455SOL     OW22000   1.354   1.777   8.381 -0.3377  0.7372  0.0417
 3455SOL    HW122001   1.352   1.682   8.380 -0.2388  0.7418 -1.3121
 3455SOL    HW222002   1.446   1.779   8.353 -0.7398  3.1527 -1.1394
 3456SOL     OW22003   1.418   2.940  15.776  0.2556  0.3827 -0.6667
 3456SOL    HW122004   1.405   2.887  15.698  0.1606 -2.2152  1.0945
 3456SOL    HW222005   1.405   2.881  15.851  1.2133  0.2343 -0.6171
 3457SOL     OW22006   1.801   2.734   6.138 -0.4328  0.1960  0.2466
 3457SOL    HW122007   1.767   2.821   6.158 -1.7918 -0.4890  0.9615
 3457SOL    HW222008   1.782   2.688   6.220  3.0577 -1.5812  0.0253
 3458SOL     OW22009   4.059   3.727   8.030 -0.1623  0.3696 -0.2123
 3458SOL    HW122010   4.147   3.697   8.010 -1.0852 -1.9197 -0.8903
 3458SOL    HW222011   4.033   3.764   7.946 -2.9143 -0.0540  0.4407
 3459SOL     OW22012   2.609   3.981  10.329 -0.8582  0.1126 -0.3264
 3459SOL    HW122013   2.600   3.930  10.249  1.7185 -0.2478 -0.3708
 3459SOL    HW222014   2.538   4.041  10.305 -0.0596 -0.5261 -4.2681
 3460SOL     OW22015   1.088   0.767  10.018 -0.4081 -0.3013  0.2490
 3460SOL    HW122016   1.105   0.861  10.023 -0.6307 -0.2141 -0.8117
 3460SOL    HW222017   1.169   0.737  10.060 -0.5351  0.2801  0.9047
 3461SOL     OW22018   1.611   3.938   9.091  0.3401 -0.1987  0.2943
 3461SOL    HW122019   1.693   3.987   9.097 -0.6235  1.3626  0.7484
 3461SOL    HW222020   1.641   3.850   9.070 -0.6379 -0.1212 -1.3776
 3462SOL     OW22021   0.760   2.790   1.797  0.8721 -0.5304  0.3168
 3462SOL    HW122022   0.684   2.848   1.800  1.7716  0.7126 -1.3507
 3462SOL    HW222023   0.825   2.832   1.852  0.0084 -0.0547  0.9785
 3463SOL     OW22024   1.251   1.280   8.898  0.4954  0.0388  0.3322
 3463SOL    HW122025   1.272   1.210   8.836 -2.0902 -0.8603  0.4774
 3463SOL    HW222026   1.324   1.342   8.894  1.2987 -0.8241  1.7644
 3464SOL     OW22027   3.559   4.712   4.474  0.2099 -0.5656 -0.4910
 3464SOL    HW122028   3.615   4.704   4.551 -0.1140 -0.2890 -0.2221
 3464SOL    HW222029   3.618   4.715   4.399 -0.1102  0.9198 -0.6809
 3465SOL     OW22030   3.918   1.904   4.363 -0.2501 -0.3984  0.3040
 3465SOL    HW122031   3.999   1.907   4.414 -0.2263  0.1883  0.2391
 3465SOL    HW222032   3.951   1.941   4.281  0.5684 -2.1973 -0.1786
 3466SOL     OW22033   4.647   3.001   2.213 -0.7538  0.3661  0.0434
 3466SOL    HW122034   4.662   3.066   2.144 -2.5147 -0.3683 -1.0331
 3466SOL    HW222035   4.727   3.000   2.265  0.6888  2.1907 -2.1137
 3467SOL     OW22036   1.288   0.661  10.159 -0.1579 -0.1607  0.2498
 3467SOL    HW122037   1.362   0.641  10.101 -0.9908 -1.8551 -0.2217
 3467SOL    HW222038   1.309   0.614  10.239 -2.0568 -0.8741  0.3255
 3468SOL     OW22039   4.399   3.625   5.585 -0.2552  0.0962 -0.0478
 3468SOL    HW122040   4.470   3.566   5.610 -1.1854  0.0666  2.4755
 3468SOL    HW222041   4.436   3.661   5.504  0.3629 -1.1541 -0.3198
 3469SOL     OW22042   2.122   4.522   7.176 -0.1825  0.3179  0.2293
 3469SOL    HW122043   2.052   4.477   7.223 -0.6915 -0.3434 -1.1575
 3469SOL    HW222044   2.150   4.595   7.231  0.3104 -0.9061  1.6196
 3470SOL     OW22045   3.763   3.329   6.605  0.2286  0.0571  0.2984
 3470SOL    HW122046   3.791   3.314   6.695  0.0589  0.6679  0.4500
 3470SOL    HW222047   3.682   3.277   6.605  0.8634 -0.9298  1.0828
 3471SOL     OW22048   4.294   2.007   4.758 -0.2329  0.0244 -0.0588
 3471SOL    HW122049   4.267   1.932   4.705  2.4133 -1.6421  0.9829
 3471SOL    HW222050   4.369   2.040   4.709  0.2423  0.1460  0.7492
 3472SOL     OW22051   3.976   1.051   6.221  0.5621  0.3254 -0.1118
 3472SOL    HW122052   4.062   1.059   6.262 -0.0088 -0.1865  1.1917
 3472SOL    HW222053   3.941   0.985   6.280 -0.3545  1.1788  0.3024
 3473SOL     OW22054   2.335   3.249   6.780  0.1573  0.3365  0.0907
 3473SOL    HW122055   2.299   3.293   6.857 -0.7701 -1.8028  0.8907
 3473SOL    HW222056   2.425   3.282   6.785  0.8257 -1.6157  0.8521
 3474SOL     OW22057   2.843   3.211   4.376 -0.0968 -0.6568  0.5720
 3474SOL    HW122058   2.764   3.190   4.325  0.5194  1.3769 -1.2344
 3474SOL    HW222059   2.841   3.134   4.431  1.0841  0.0422  1.5860
 3475SOL     OW22060   1.038   1.009   7.919  0.8639  0.1405  0.0370
 3475SOL    HW122061   1.103   1.058   7.969 -0.0557  1.2931  0.1038
 3475SOL    HW222062   1.007   0.947   7.985  1.4563  1.0378  1.1570
 3476SOL     OW22063   2.839   0.675   3.876  0.1415  0.1276  0.2428
 3476SOL    HW122064   2.848   0.580   3.867 -1.9640 -0.1697  1.1740
 3476SOL    HW222065   2.916   0.712   3.835  0.0481 -3.2358 -2.9603
 3477SOL     OW22066   4.159   0.946  11.478  0.0135 -0.0671  0.3924
 3477SOL    HW122067   4.201   1.011  11.422  1.0037 -0.2264  0.9279
 3477SOL    HW222068   4.233   0.903  11.522  0.7111  0.3969 -0.3211
 3478SOL     OW22069   3.201   1.740   6.122 -0.3441 -0.1570 -0.2950
 3478SOL    HW122070   3.154   1.763   6.202 -0.8704 -0.2554 -0.5752
 3478SOL    HW222071   3.237   1.655   6.148 -0.5547  0.0736  0.7522
 3479SOL     OW22072   2.946   0.692  11.972  0.0527  0.4966  0.3643
 3479SOL    HW122073   2.896   0.750  12.030 -1.2353 -1.2628  1.0065
 3479SOL    HW222074   2.948   0.617  12.030  2.6294 -0.4544 -0.9525
 3480SOL     OW22075   3.350   2.869   2.560  0.3895  0.1502 -0.0050
 3480SOL    HW122076   3.331   2.962   2.547  0.2935 -0.0223 -1.0861
 3480SOL    HW222077   3.354   2.858   2.655  0.7609  0.7854  0.0529
 3481SOL     OW22078   3.069   3.795   3.318  0.1283  0.4216 -0.4375
 3481SOL    HW122079   3.146   3.738   3.324  0.7270  1.3062  0.2172
 3481SOL    HW222080   3.079   3.835   3.404 -0.7008  0.9642 -0.5981
 3482SOL     OW22081   3.849   1.451   5.714  0.2094  0.2133  0.1705
 3482SOL    HW122082   3.765   1.479   5.679  0.5375  3.1370  1.7121
 3482SOL    HW222083   3.914   1.504   5.668 -2.6373  2.1496 -1.6378
 3483SOL     OW22084   1.844   4.095   1.702 -0.6047 -0.3408  0.2447
 3483SOL    HW122085   1.755   4.078   1.672  0.4343 -1.1344 -2.4301
 3483SOL    HW222086   1.899   4.036   1.651 -1.2039  1.0945 -2.0801
 3484SOL     OW22087   4.159   1.922   7.531  0.4456 -0.1091 -0.1010
 3484SOL    HW122088   4.178   1.983   7.602  1.1311  1.4444 -1.6028
 3484SOL    HW222089   4.180   1.838   7.572  0.5185  0.1428  0.3739
 3485SOL     OW22090   2.046   1.142   7.747 -0.0014 -0.4122  0.2453
 3485SOL    HW122091   1.975   1.121   7.685  0.4158  0.4141 -0.5114
 3485SOL    HW222092   2.024   1.077   7.814 -0.7240  0.5493  0.9330
 3486SOL     OW22093   1.835   0.299   4.423 -0.5856 -0.3141 -0.7046
 3486SOL    HW122094   1.749   0.338   4.441  0.2203  0.8961  0.5105
 3486SOL    HW222095   1.819   0.221   4.476  0.8932 -0.1702 -0.0698
 3487SOL     OW22096   2.863   1.181   7.552 -0.4458  0.3387 -0.5423
 3487SOL    HW122097   2.888   1.188   7.460 -1.1018 -0.1553 -0.7543
 3487SOL    HW222098   2.918   1.249   7.590  1.4396 -0.1472 -2.3901
 3488SOL     OW22099   2.383   1.317  12.363 -0.4998 -0.4153 -0.0475
 3488SOL    HW122100   2.323   1.368  12.308 -0.8328  0.1323  0.8257
 3488SOL    HW222101   2.471   1.349  12.344 -0.4583 -0.3514  0.2513
 3489SOL     OW22102   2.624   1.263   0.796 -0.1095 -0.6038  0.1211
 3489SOL    HW122103   2.570   1.253   0.718 -0.0225  1.5674 -0.2132
 3489SOL    HW222104   2.571   1.206   0.852 -1.9663  1.9971  1.0467
 3490SOL     OW22105   0.221   1.715   9.595  0.6157  0.0662  0.7155
 3490SOL    HW122106   0.247   1.756   9.512 -0.5932  1.4082  1.0015
 3490SOL    HW222107   0.181   1.791   9.637  0.0538  0.4007 -0.4248
 3491SOL     OW22108   2.278   0.886   6.273 -0.5068 -0.2336  1.0423
 3491SOL    HW122109   2.184   0.907   6.270 -0.4642 -0.0580  0.9466
 3491SOL    HW222110   2.300   0.887   6.366  0.0276  0.2008  0.9084
 3492SOL     OW22111   2.575   1.256   5.249 -0.5225  0.3558  0.1633
 3492SOL    HW122112   2.655   1.272   5.198 -1.7158  2.5968 -1.0023
 3492SOL    HW222113   2.546   1.170   5.221 -1.1049  1.1650 -1.7478
 3493SOL     OW22114   4.022   1.107   7.983 -0.7596 -0.0314 -0.2283
 3493SOL    HW122115   4.098   1.049   7.975  1.3276  2.8155 -0.7292
 3493SOL    HW222116   4.028   1.159   7.903 -0.6733 -0.8843 -0.7805
 3494SOL     OW22117   1.358   1.290   2.443 -0.0682 -0.0511  0.0333
 3494SOL    HW122118   1.410   1.236   2.503  0.6106  1.4310  0.7858
 3494SOL    HW222119   1.333   1.233   2.370 -1.3804  0.7143 -0.1189
 3495SOL     OW22120   4.165   0.827  15.915 -0.4908  0.4210 -0.6260
 3495SOL    HW122121   4.131   0.913  15.939  0.9369  0.6482  0.6046
 3495SOL    HW222122   4.239   0.814  15.974  0.5127 -1.7078 -2.3437
 3496SOL     OW22123   1.301   0.711   3.371  0.6582 -0.1939 -0.0352
 3496SOL    HW122124   1.291   0.626   3.328 -1.9760  0.3542 -0.4795
 3496SOL    HW222125   1.394   0.709   3.393  0.6466 -0.1145  0.0202
 3497SOL     OW22126   3.257   1.581   5.570  0.6863 -0.7130 -0.0464
 3497SOL    HW122127   3.190   1.595   5.636 -1.3769 -1.0230 -2.0606
 3497SOL    HW222128   3.228   1.498   5.531  1.8104 -0.1511 -2.1070
 3498SOL     OW22129   1.440   3.870   8.812  0.3905 -0.0840 -0.3025
 3498SOL    HW122130   1.462   3.926   8.737  1.0167 -1.2794 -1.0124
 3498SOL    HW222131   1.507   3.910   8.868  1.5173 -2.4435  0.0203
 3499SOL     OW22132   3.125   0.805  10.929 -0.4538 -0.1196  0.0005
 3499SOL    HW122133   3.206   0.826  10.976 -1.4076  0.9134  1.1557
 3499SOL    HW222134   3.083   0.891  10.923  1.4770  0.8834  0.8648
 3500SOL     OW22135   1.006   2.018   9.342 -0.0429 -0.0810  0.2312
 3500SOL    HW122136   1.024   2.100   9.296  1.4036 -1.0376 -0.9318
 3500SOL    HW222137   1.089   1.990   9.380 -0.1738 -0.6501  0.0999
 3501SOL     OW22138   0.246   0.345   1.859 -0.2514 -0.0232 -0.3788
 3501SOL    HW122139   0.155   0.314   1.867  0.2790 -1.6048 -0.5559
 3501SOL    HW222140   0.278   0.324   1.771  0.0401  0.5916 -0.4215
 3502SOL     OW22141   0.132   2.921   5.536  0.1181 -0.2510 -0.3967
 3502SOL    HW122142   0.083   2.983   5.590  0.9844  0.2688 -0.2065
 3502SOL    HW222143   0.088   2.924   5.451  0.2411  0.4222 -0.4320
 3503SOL     OW22144   3.715   3.166   7.608  0.2790  0.1225  0.3017
 3503SOL    HW122145   3.657   3.163   7.533  0.6997 -2.2271  0.0464
 3503SOL    HW222146   3.673   3.222   7.673  1.1062 -1.3583  2.1386
 3504SOL     OW22147   2.808   2.308   2.981 -0.1478 -0.0017  0.0674
 3504SOL    HW122148   2.777   2.217   2.990  0.7534 -0.4998 -1.9271
 3504SOL    HW222149   2.831   2.303   2.888  1.4230 -1.0985  0.5188
 3505SOL     OW22150   1.256   3.034   3.856  0.0469 -0.2931 -0.1644
 3505SOL    HW122151   1.250   2.948   3.899 -0.5803  0.8816  2.1076
 3505SOL    HW222152   1.308   3.083   3.919 -1.1583 -0.0155  0.6180
 3506SOL     OW22153   4.648   1.583   3.424  0.0918 -0.0332  0.5545
 3506SOL    HW122154   4.571   1.638   3.440 -0.2130 -0.0111 -1.0158
 3506SOL    HW222155   4.693   1.589   3.508  0.9506  0.2840  0.0653
 3507SOL     OW22156   3.954   2.775  13.276  0.0070  0.3277 -0.3568
 3507SOL    HW122157   3.994   2.702  13.323  1.0772  1.8650  1.1131
 3507SOL    HW222158   4.034   2.799  13.229 -0.8326 -0.1765 -2.0419
 3508SOL     OW22159   3.644   4.375   2.698  0.9055  0.4815  0.4086
 3508SOL    HW122160   3.645   4.397   2.605  0.6438 -1.1499  0.0165
 3508SOL    HW222161   3.550   4.354   2.696  0.8683  0.7393 -0.5553
 3509SOL     OW22162   2.391   0.674   6.139  0.0926 -0.0645 -0.6509
 3509SOL    HW122163   2.416   0.617   6.211 -1.7320 -2.4209 -1.8752
 3509SOL    HW222164   2.374   0.753   6.190 -1.3490 -0.3581 -0.6967
 3510SOL     OW22165   1.364   4.060  16.211  0.7835 -0.1027  0.5944
 3510SOL    HW122166   1.295   4.093  16.154  0.4906 -1.0099  0.4196
 3510SOL    HW222167   1.394   4.137  16.260  1.3684  0.5278 -0.7542
 3511SOL     OW22168   3.983   4.361   2.606  0.0386 -0.2746 -0.1909
 3511SOL    HW122169   3.953   4.336   2.518 -0.8574  2.1438 -0.5679
 3511SOL    HW222170   4.070   4.321   2.611 -0.1818 -0.7700 -0.2901
 3512SOL     OW22171   4.580   4.108  15.606  0.1951  0.2303  0.0776
 3512SOL    HW122172   4.670   4.076  15.604  1.2320  3.1295  0.4598
 3512SOL    HW222173   4.580   4.155  15.523  4.8520 -1.0018 -0.6162
 3513SOL     OW22174   0.952   2.900   3.415  0.3207  0.2073  0.1343
 3513SOL    HW122175   0.954   2.912   3.510  0.3174  0.6186  0.0827
 3513SOL    HW222176   1.014   2.827   3.408 -0.2418 -0.4881  2.4964
 3514SOL     OW22177   2.246   4.309  15.839 -0.5643 -0.3737  0.4405
 3514SOL    HW122178   2.333   4.349  15.839 -1.3815  1.3999  0.7689
 3514SOL    HW222179   2.197   4.370  15.894  0.0059  0.4981 -0.0157
 3515SOL     OW22180   3.860   2.614   8.503 -0.3725 -0.9926  0.4422
 3515SOL    HW122181   3.901   2.679   8.447  1.4838 -0.3583  2.5415
 3515SOL    HW222182   3.773   2.634   8.469  0.7073 -0.2789 -1.9005
 3516SOL     OW22183   1.015   4.555   3.905 -0.4339  0.3500  0.5633
 3516SOL    HW122184   0.997   4.470   3.865  1.8551  0.2159 -0.1788
 3516SOL    HW222185   0.938   4.605   3.879  0.6971  0.8032 -1.9031
 3517SOL     OW22186   3.646   0.020   5.446  0.5986  0.5663 -0.0547
 3517SOL    HW122187   3.661   0.004   5.353 -0.3738 -0.4291 -0.0404
 3517SOL    HW222188   3.697   4.689   5.490  0.6835  0.0705 -0.9221
 3518SOL     OW22189   4.224   4.282   2.668 -0.2506 -0.2334  0.3482
 3518SOL    HW122190   4.218   4.243   2.756  1.8404 -0.0570  0.5588
 3518SOL    HW222191   4.317   4.278   2.647 -0.0267  0.5911  1.1835
 3519SOL     OW22192   3.635   1.581   6.475  0.6699 -0.1182  0.2529
 3519SOL    HW122193   3.714   1.527   6.472  1.5331  1.1914 -0.6236
 3519SOL    HW222194   3.656   1.670   6.504  0.8205 -0.3602  0.8835
 3520SOL     OW22195   0.180   3.947   8.034 -0.0306  0.0023  0.1434
 3520SOL    HW122196   0.272   3.975   8.034 -0.3736  1.1447 -1.3346
 3520SOL    HW222197   0.131   4.017   7.991 -0.6786 -3.1283 -4.2361
 3521SOL     OW22198   3.485   3.137  15.045 -0.0632 -0.7085 -0.3441
 3521SOL    HW122199   3.569   3.183  15.039 -1.6838  2.4516  1.0895
 3521SOL    HW222200   3.520   3.050  15.065 -0.5555 -0.8507 -0.1160
 3522SOL     OW22201   1.161   4.068   8.454  0.1517 -0.2092  0.2614
 3522SOL    HW122202   1.120   4.045   8.537 -1.0587  1.1286  0.0383
 3522SOL    HW222203   1.159   3.991   8.397  0.8927 -0.9674  1.2538
 3523SOL     OW22204   1.129   0.916   5.446  0.8191 -0.2793 -0.2121
 3523SOL    HW122205   1.077   0.994   5.425  1.7854 -0.0432 -1.7120
 3523SOL    HW222206   1.079   0.890   5.524 -0.4971  0.8572 -0.6701
 3524SOL     OW22207   0.993   3.790   3.636 -1.0343 -0.5454 -0.0940
 3524SOL    HW122208   1.085   3.814   3.638 -1.9878  3.1413  0.2159
 3524SOL    HW222209   0.990   3.695   3.627  5.0727 -0.4248 -2.9276
 3525SOL     OW22210   1.209   0.522   6.029 -0.1472 -0.7288 -0.7182
 3525SOL    HW122211   1.214   0.506   6.123  1.4853 -0.2624 -0.7184
 3525SOL    HW222212   1.211   0.431   6.001 -0.3911 -0.4912 -1.5187
 3526SOL     OW22213   3.256   4.407  13.859  0.8724 -0.5489 -0.1591
 3526SOL    HW122214   3.242   4.488  13.811  0.3075 -0.4270  0.2100
 3526SOL    HW222215   3.243   4.331  13.802 -1.3386 -2.1459  2.5074
 3527SOL     OW22216   2.821   3.298   5.379 -0.2251 -0.2698  0.0575
 3527SOL    HW122217   2.761   3.249   5.323 -0.5952 -0.8947  1.0055
 3527SOL    HW222218   2.774   3.315   5.460 -2.6441  0.2858 -1.4750
 3528SOL     OW22219   4.693   4.459  10.087  0.1636  0.6189 -0.0198
 3528SOL    HW122220   4.605   4.472  10.050  0.7034  1.3209 -1.0268
 3528SOL    HW222221   0.012   4.483  10.013 -0.2928  1.7195 -0.0037
 3529SOL     OW22222   4.427   0.925  15.955  0.5599  0.2743 -0.6571
 3529SOL    HW122223   4.407   1.007  15.909  0.8393  2.4677  3.1105
 3529SOL    HW222224   4.459   0.878  15.878  0.8699 -1.6238  0.6500
 3530SOL     OW22225   4.367   0.391   5.935  0.0978  0.5162  0.6758
 3530SOL    HW122226   4.353   0.327   5.865 -1.8414  1.2687  0.3771
 3530SOL    HW222227   4.275   0.415   5.937 -0.4313 -1.5974  1.0374
 3531SOL     OW22228   2.033   4.363   8.980 -0.2084  0.8379 -0.3045
 3531SOL    HW122229   2.069   4.393   9.063 -0.0423 -1.4088  0.4445
 3531SOL    HW222230   2.079   4.286   8.946  0.0374  0.5970  0.5729
 3532SOL     OW22231   3.028   0.227  11.611  0.1555 -0.0404 -0.0488
 3532SOL    HW122232   3.078   0.218  11.693 -1.2555  0.8857  0.9178
 3532SOL    HW222233   3.044   0.318  11.588  0.2035 -0.4746 -1.6757
 3533SOL     OW22234   4.680   4.203   1.883 -0.2287 -0.8224  0.6881
 3533SOL    HW122235   4.629   4.191   1.963 -0.3967  2.2318  1.0065
 3533SOL    HW222236   4.614   4.242   1.827 -0.3060  1.3565  2.3132
 3534SOL     OW22237   1.984   3.137   7.336 -1.0958 -0.0898  0.5940
 3534SOL    HW122238   1.979   3.045   7.364 -2.3742 -0.0242  0.5851
 3534SOL    HW222239   2.030   3.173   7.412 -0.2298  1.7053 -0.8005
 3535SOL     OW22240   3.696   1.570   9.436 -0.5812  0.6479 -0.0288
 3535SOL    HW122241   3.662   1.488   9.402  1.0297  0.9027 -2.2560
 3535SOL    HW222242   3.645   1.640   9.395  0.9516  1.5575 -0.3953
 3536SOL     OW22243   3.481   2.442  13.209  0.8569  0.1918 -0.5455
 3536SOL    HW122244   3.512   2.481  13.291 -2.6569 -0.8828  1.2834
 3536SOL    HW222245   3.558   2.453  13.153  0.7709 -0.6412 -0.8335
 3537SOL     OW22246   0.242   4.435   2.510 -0.1292  0.1113 -0.7260
 3537SOL    HW122247   0.249   4.506   2.447  0.0666 -0.4012 -1.2837
 3537SOL    HW222248   0.195   4.482   2.579 -0.1765  0.4120 -0.9659
 3538SOL     OW22249   4.187   4.149  12.532 -0.1215 -0.3013  0.1589
 3538SOL    HW122250   4.095   4.176  12.530  0.4085  1.3456 -1.3133
 3538SOL    HW222251   4.215   4.189  12.615  0.4277 -0.7664  0.2034
 3539SOL     OW22252   4.657   3.514  15.076  0.2732  0.0196  0.1284
 3539SOL    HW122253   4.585   3.524  15.013  0.8542  1.7738 -0.2833
 3539SOL    HW222254   4.611   3.485  15.154 -0.2458  3.8088  1.2495
 3540SOL     OW22255   0.413   0.431   2.693 -0.6423  0.1488 -0.1472
 3540SOL    HW122256   0.495   0.382   2.688 -0.5049  0.1973  1.5974
 3540SOL    HW222257   0.348   0.361   2.699 -1.3399  0.9437  1.5776
 3541SOL     OW22258   2.592   0.969   9.853 -0.6542 -0.1668 -0.0411
 3541SOL    HW122259   2.507   1.007   9.833 -1.3780 -0.3359  2.6781
 3541SOL    HW222260   2.579   0.904   9.922 -0.1666 -0.1095  0.1071
 3542SOL     OW22261   0.156   3.612  11.578 -0.3163  0.2653  0.0047
 3542SOL    HW122262   0.212   3.666  11.521 -0.9044  2.3565  1.4251
 3542SOL    HW222263   0.162   3.522  11.547 -1.7717  0.3933 -0.6666
 3543SOL     OW22264   1.315   2.066   4.489  0.2762  0.2117 -0.0270
 3543SOL    HW122265   1.378   2.138   4.494  0.8149 -0.4384  2.6528
 3543SOL    HW222266   1.326   2.041   4.397  3.0237 -2.6496  1.0511
 3544SOL     OW22267   0.484   0.051   4.848  0.0460 -0.3989 -0.0634
 3544SOL    HW122268   0.435   0.088   4.921 -0.3523 -0.0916 -0.4875
 3544SOL    HW222269   0.543   0.125   4.834  0.0313 -0.2230  0.7811
 3545SOL     OW22270   1.827   4.161   5.281  0.7158  0.7102 -0.4736
 3545SOL    HW122271   1.733   4.153   5.299  0.5050  1.1596 -1.3638
 3545SOL    HW222272   1.839   4.252   5.255  1.4764 -0.0008 -2.6446
 3546SOL     OW22273   1.751   2.089  16.537  0.2214  0.5245 -0.3418
 3546SOL    HW122274   1.778   2.180  16.526 -1.6608  1.2586  1.1607
 3546SOL    HW222275   1.835   2.056  16.570  0.8807  3.2450  0.7788
 3547SOL     OW22276   2.073   1.769   8.240  0.0782  0.4224 -0.2561
 3547SOL    HW122277   2.151   1.714   8.246  0.1232  0.8413  3.0524
 3547SOL    HW222278   2.111   1.853   8.264 -1.3683  1.2415 -0.8464
 3548SOL     OW22279   0.318   0.068   8.072 -0.3429 -0.4849 -0.1180
 3548SOL    HW122280   0.408   0.042   8.093 -1.2678 -1.4682  2.5922
 3548SOL    HW222281   0.304   0.029   7.986  1.0652 -0.8281 -0.2049
 3549SOL     OW22282   2.236   0.990   7.383  0.4358 -0.2813 -0.1971
 3549SOL    HW122283   2.271   1.077   7.398 -0.5262 -0.1469  1.3171
 3549SOL    HW222284   2.188   0.993   7.300  0.7330 -0.6159 -0.3794
 3550SOL     OW22285   3.950   0.385  10.696 -0.4250 -0.3459  0.1643
 3550SOL    HW122286   3.931   0.312  10.638 -2.7142 -1.6637  2.5460
 3550SOL    HW222287   3.963   0.451  10.628 -2.4106 -1.5621 -1.3623
 3551SOL     OW22288   0.059   1.070   7.392  0.0156 -0.2781  0.4210
 3551SOL    HW122289   0.041   1.048   7.483 -0.3591  0.2267  0.4653
 3551SOL    HW222290   0.008   1.151   7.388 -1.1823 -0.9961  1.0948
 3552SOL     OW22291   0.555   2.905   3.119  0.3102 -0.9876 -0.3487
 3552SOL    HW122292   0.483   2.842   3.130 -0.9234  0.5911  0.5277
 3552SOL    HW222293   0.616   2.871   3.185  0.8273 -0.3918 -0.5141
 3553SOL     OW22294   1.392   3.386   3.306 -0.1606  0.1076 -0.1661
 3553SOL    HW122295   1.474   3.392   3.355 -0.9235  0.8690  1.0051
 3553SOL    HW222296   1.327   3.421   3.367  0.5318 -1.0882  1.2552
 3554SOL     OW22297   2.478   4.043  11.109 -0.4050 -0.4372  0.2197
 3554SOL    HW122298   2.452   4.007  11.025 -0.3179 -0.3993  0.1760
 3554SOL    HW222299   2.413   4.112  11.119  3.2930  3.1319  0.1288
 3555SOL     OW22300   2.286   1.049  16.184  0.0085  0.3190 -0.2520
 3555SOL    HW122301   2.276   0.974  16.124 -3.7954  0.1160  0.6351
 3555SOL    HW222302   2.195   1.076  16.200  0.4547  1.2282  0.7245
 3556SOL     OW22303   1.267   2.851   9.948 -0.2349  0.1941  0.1552
 3556SOL    HW122304   1.291   2.760   9.932  1.9554  0.5982  1.1135
 3556SOL    HW222305   1.339   2.872  10.008 -0.2879 -0.0425  0.3026
 3557SOL     OW22306   0.708   2.181   5.107 -0.2223  0.2107 -0.0529
 3557SOL    HW122307   0.731   2.174   5.014 -0.6093  1.0001 -0.2052
 3557SOL    HW222308   0.740   2.095   5.135  2.4064  0.7217 -1.4810
 3558SOL     OW22309   0.996   2.238   3.868  0.6225 -0.5371 -0.3151
 3558SOL    HW122310   0.933   2.169   3.886  0.6032 -0.1242  1.2114
 3558SOL    HW222311   1.049   2.226   3.947 -0.1295 -0.1159  0.2539
 3559SOL     OW22312   4.609   4.214  14.051 -0.4506 -0.2273 -0.5338
 3559SOL    HW122313   4.540   4.256  13.999  1.4582  0.0761 -2.8234
 3559SOL    HW222314   4.576   4.129  14.082  2.1101 -0.7857  0.6629
 3560SOL     OW22315   1.364   1.007   3.953  0.3052  0.4697 -0.1302
 3560SOL    HW122316   1.296   0.967   3.900 -0.1801  0.2884  0.6297
 3560SOL    HW222317   1.374   0.944   4.025 -0.0376 -1.2558 -1.5956
 3561SOL     OW22318   3.636   0.932   6.626  0.4115  0.6584  0.4244
 3561SOL    HW122319   3.669   0.877   6.697 -0.5624 -0.8262 -0.2685
 3561SOL    HW222320   3.543   0.913   6.643  0.5266  1.6603  2.1709
 3562SOL     OW22321   0.938   0.848   8.121  0.1009  0.2059  0.1672
 3562SOL    HW122322   1.010   0.883   8.173 -1.0663  0.5356  1.5441
 3562SOL    HW222323   0.965   0.756   8.124  0.2747  0.1709 -2.1387
 3563SOL     OW22324   1.995   3.826   8.022  0.2542 -0.9549 -0.0681
 3563SOL    HW122325   1.971   3.907   7.977  1.6130  0.5493  1.9296
 3563SOL    HW222326   1.947   3.750   7.988 -1.8248  0.5902 -0.6312
 3564SOL     OW22327   3.104   3.205   9.726  0.0982  0.1495  0.5956
 3564SOL    HW122328   3.133   3.296   9.721  0.6876 -0.2402 -2.9952
 3564SOL    HW222329   3.012   3.213   9.751  0.2592  0.7433  1.0016
 3565SOL     OW22330   1.360   1.185  12.497  0.1324  0.6277 -0.0109
 3565SOL    HW122331   1.359   1.192  12.593 -0.9281  0.1641  0.0144
 3565SOL    HW222332   1.304   1.108  12.485 -0.9802  1.5812 -0.8775
 3566SOL     OW22333   2.649   3.943   5.179  0.0504  0.5902  0.0783
 3566SOL    HW122334   2.622   4.016   5.234 -1.4370  0.2600 -0.2081
 3566SOL    HW222335   2.638   3.969   5.087 -2.9247 -0.8660  0.0069
 3567SOL     OW22336   4.365   2.658   5.138 -0.0798 -0.1978  0.0897
 3567SOL    HW122337   4.343   2.569   5.163 -0.4930 -0.1317 -0.0363
 3567SOL    HW222338   4.448   2.650   5.092 -0.8234 -1.3990 -1.0552
 3568SOL     OW22339   0.013   1.722  12.791  0.3257  0.0881  0.3629
 3568SOL    HW122340   4.735   1.805  12.745  2.4153  0.1031 -0.2635
 3568SOL    HW222341   0.072   1.691  12.721 -1.0525 -1.4591 -0.1211
 3569SOL     OW22342   1.831   4.482   5.343  0.1705  0.6425 -0.1239
 3569SOL    HW122343   1.766   4.552   5.333  0.6343  0.9024 -1.2935
 3569SOL    HW222344   1.912   4.532   5.335  0.7483 -0.7555 -3.0961
 3570SOL     OW22345   3.315   3.408   8.731 -0.2318  0.5424 -0.3943
 3570SOL    HW122346   3.222   3.429   8.728  0.2201  2.6419  0.6066
 3570SOL    HW222347   3.322   3.357   8.811 -1.9960 -2.7957 -2.3877
 3571SOL     OW22348   3.548   2.714   2.876 -0.1007  0.2064  0.1413
 3571SOL    HW122349   3.457   2.740   2.861 -0.5796  0.2460  3.2905
 3571SOL    HW222350   3.597   2.791   2.846  1.0016 -0.7564 -0.5159
 3572SOL     OW22351   2.798   1.493  17.521  0.1413  0.0778 -0.1099
 3572SOL    HW122352   2.887   1.523  17.542  0.1301  0.5233 -0.7061
 3572SOL    HW222353   2.824   1.409  17.483  0.5523  1.2549 -2.4561
 3573SOL     OW22354   2.948   1.037   9.198 -0.2639  0.1129 -0.0557
 3573SOL    HW122355   2.939   1.111   9.259  0.8372  1.2248 -1.2243
 3573SOL    HW222356   2.889   0.974   9.239 -1.1674  0.5607 -0.6772
 3574SOL     OW22357   2.874   0.513   8.746 -0.1780  0.3607 -0.3244
 3574SOL    HW122358   2.816   0.567   8.693  0.5363  0.6249 -0.8342
 3574SOL    HW222359   2.841   0.423   8.737 -0.4186  0.3846  0.3613
 3575SOL     OW22360   3.726   0.859  15.427  0.1655  0.1089  0.0683
 3575SOL    HW122361   3.742   0.776  15.384 -1.4288 -0.7855  1.2070
 3575SOL    HW222362   3.673   0.898  15.358  1.3986  0.3017 -0.7739
 3576SOL     OW22363   1.473   0.167  17.381  0.6418 -0.3771  1.0618
 3576SOL    HW122364   1.417   0.120  17.443 -0.3975  1.1723  1.2763
 3576SOL    HW222365   1.502   0.245  17.429  0.5350  0.5269 -0.3775
 3577SOL     OW22366   1.888   3.450  17.087  0.0261  0.2903  0.3312
 3577SOL    HW122367   1.933   3.385  17.034  0.8094  1.7515 -0.8231
 3577SOL    HW222368   1.811   3.395  17.101  0.2541 -0.5667 -1.8148
 3578SOL     OW22369   2.296   0.147   3.597 -0.1137  0.1365  0.0232
 3578SOL    HW122370   2.243   0.086   3.546  1.6607 -0.0747 -1.5382
 3578SOL    HW222371   2.272   0.230   3.555  1.3397  0.1752 -0.6984
 3579SOL     OW22372   3.761   0.570   9.826  0.1869 -0.2505 -0.4391
 3579SOL    HW122373   3.792   0.487   9.790  2.1476 -0.4166  1.6277
 3579SOL    HW222374   3.828   0.628   9.789 -0.3337  1.2493  0.9679
 3580SOL     OW22375   0.085   1.802  17.052  0.3194 -0.5275 -0.3988
 3580SOL    HW122376   0.102   1.835  16.964  1.4391  1.0151  0.3891
 3580SOL    HW222377   0.174   1.810  17.087  1.0306 -2.0179 -1.8582
 3581SOL     OW22378   3.222   0.746  11.878  0.2223  0.2500  0.2463
 3581SOL    HW122379   3.144   0.739  11.932  0.1104 -1.2759 -0.0934
 3581SOL    HW222380   3.220   0.833  11.838  1.8455  0.2975  0.2549
 3582SOL     OW22381   4.189   2.194   6.612  0.1744  0.2549 -0.5386
 3582SOL    HW122382   4.267   2.151   6.649 -1.6713 -0.7409  2.1871
 3582SOL    HW222383   4.227   2.205   6.525  1.6021  1.6531  0.2426
 3583SOL     OW22384   2.825   0.746  11.475  0.1369 -0.9788 -0.4433
 3583SOL    HW122385   2.901   0.735  11.532  0.1434  0.8723 -0.0983
 3583SOL    HW222386   2.778   0.674  11.517  0.5835 -1.0941 -0.1409
 3584SOL     OW22387   4.632   1.227   5.399  0.1750  0.1591 -0.3286
 3584SOL    HW122388   4.652   1.189   5.314  1.5876  0.2184 -0.0212
 3584SOL    HW222389   4.646   1.155   5.461 -1.3895  0.0244 -0.1281
 3585SOL     OW22390   2.530   4.250   7.126  0.4346  0.2729 -0.4276
 3585SOL    HW122391   2.436   4.237   7.115  0.4631  0.8167 -1.3703
 3585SOL    HW222392   2.539   4.345   7.126 -0.7087  0.3898 -1.4101
 3586SOL     OW22393   2.138   4.673   3.450 -0.7818  0.6670 -0.0854
 3586SOL    HW122394   2.194   4.596   3.442 -1.6867 -0.1635  1.7274
 3586SOL    HW222395   2.068   4.656   3.387  0.0046 -1.1712 -0.4586
 3587SOL     OW22396   4.138   1.745  16.154  0.1324  0.2101 -0.4855
 3587SOL    HW122397   4.191   1.812  16.198 -1.9391  0.0852  2.1327
 3587SOL    HW222398   4.207   1.702  16.102 -0.9681 -0.6314 -1.2579
 3588SOL     OW22399   2.148   0.001   7.349 -0.1583  0.1217  0.5285
 3588SOL    HW122400   2.052   0.004   7.353 -0.1742  2.3280 -1.5060
 3588SOL    HW222401   2.164   0.081   7.400 -0.5172 -0.3540  1.3873
 3589SOL     OW22402   0.861   3.234   5.966  0.0197 -0.3558  0.0086
 3589SOL    HW122403   0.797   3.217   6.035 -0.6631  1.4022 -0.1698
 3589SOL    HW222404   0.931   3.194   6.015 -1.1822 -1.9221  0.4336
 3590SOL     OW22405   2.432   3.690  11.858 -0.1847  0.1464  0.1212
 3590SOL    HW122406   2.452   3.761  11.920  1.0304  1.2467 -1.5583
 3590SOL    HW222407   2.445   3.611  11.911 -1.0712 -0.4411 -0.5355
 3591SOL     OW22408   1.575   2.125   6.504  0.7316  0.0698  0.3621
 3591SOL    HW122409   1.605   2.071   6.431  1.0117  1.3292 -0.4619
 3591SOL    HW222410   1.659   2.128   6.550  0.6563  2.2065  0.3569
 3592SOL     OW22411   3.481   0.490   8.756 -0.1477 -0.2569  0.5303
 3592SOL    HW122412   3.526   0.422   8.805  0.3633  0.2941  0.8293
 3592SOL    HW222413   3.497   0.473   8.663 -2.1401  1.2805 -0.1204
 3593SOL     OW22414   1.946   2.879   7.407  0.5062 -0.6698 -0.4048
 3593SOL    HW122415   2.038   2.885   7.434  0.5014  0.1641 -0.5560
 3593SOL    HW222416   1.906   2.902   7.490 -1.0330 -0.0065 -1.3214
 3594SOL     OW22417   4.646   1.654  13.061 -0.2526 -0.1670 -0.3420
 3594SOL    HW122418   4.663   1.670  12.968 -2.0156  0.9156 -0.4880
 3594SOL    HW222419   4.667   1.561  13.069 -2.3227 -0.5306  0.7882
 3595SOL     OW22420   1.250   0.353   3.521 -0.0054 -0.1622  0.1964
 3595SOL    HW122421   1.200   0.273   3.539  3.4649 -1.9413  1.9941
 3595SOL    HW222422   1.215   0.421   3.578 -0.6538 -0.6470  0.3666
 3596SOL     OW22423   3.401   1.794   2.787  0.4452  0.1663 -0.5768
 3596SOL    HW122424   3.410   1.827   2.697 -2.4757 -1.4767 -1.4880
 3596SOL    HW222425   3.493   1.793   2.813 -0.0501  0.5984  1.1873
 3597SOL     OW22426   3.803   3.776   7.702  0.1438 -0.5121 -0.5394
 3597SOL    HW122427   3.872   3.711   7.688  0.4306 -0.6865  1.6793
 3597SOL    HW222428   3.735   3.724   7.745  2.8199 -2.3898  1.4495
 3598SOL     OW22429   2.340   3.387  15.887  0.1406 -0.4273  0.4757
 3598SOL    HW122430   2.373   3.477  15.879 -0.7671  0.1066  2.8093
 3598SOL    HW222431   2.258   3.399  15.840  1.3651  3.5228 -0.7088
 3599SOL     OW22432   0.336   0.345   6.287  0.0061 -0.1927  0.0716
 3599SOL    HW122433   0.294   0.321   6.204  1.3413 -3.9911  0.4695
 3599SOL    HW222434   0.306   0.283   6.353 -0.9574  1.2364  0.9674
 3600SOL     OW22435   2.171   1.483   2.182 -0.7233 -0.4302  0.1564
 3600SOL    HW122436   2.103   1.482   2.114 -1.8315  0.4395  1.2568
 3600SOL    HW222437   2.145   1.402   2.225 -0.9330 -0.6055 -0.2935
 3601SOL     OW22438   3.125   1.195  12.521  0.5077 -0.4795  0.1121
 3601SOL    HW122439   3.212   1.226  12.546 -0.0865  1.4588 -0.2966
 3601SOL    HW222440   3.077   1.192  12.604 -0.7736  1.7881 -0.5636
 3602SOL     OW22441   0.307   2.496   4.075 -0.2517 -0.3827  0.1901
 3602SOL    HW122442   0.346   2.433   4.014 -0.9751 -1.9726  1.3842
 3602SOL    HW222443   0.252   2.558   4.027 -3.3212 -0.2799  3.8409
 3603SOL     OW22444   1.991   1.947   6.334 -0.0437 -0.1639  0.2578
 3603SOL    HW122445   2.027   1.882   6.274  0.0321 -0.2974  0.4484
 3603SOL    HW222446   2.069   1.997   6.359  0.5206 -0.2433 -1.3761
 3604SOL     OW22447   2.828   2.650   0.469  0.3481  0.7184  0.2411
 3604SOL    HW122448   2.867   2.562   0.467 -0.8572  0.1190  2.4851
 3604SOL    HW222449   2.847   2.670   0.560  0.1269  0.6495  0.3035
 3605SOL     OW22450   0.903   2.657   1.570 -0.2152 -0.4802 -0.0190
 3605SOL    HW122451   0.956   2.625   1.643  0.8184  4.0490  1.2522
 3605SOL    HW222452   0.836   2.694   1.628  0.0775 -2.3291  1.5243
 3606SOL     OW22453   3.480   0.610   3.514 -0.3680  0.6032 -0.0537
 3606SOL    HW122454   3.497   0.684   3.572 -0.7198  0.8977 -0.3203
 3606SOL    HW222455   3.406   0.646   3.464  1.2665  0.4768 -2.5822
 3607SOL     OW22456   4.458   3.971   4.104  0.2835  0.1467  0.4667
 3607SOL    HW122457   4.548   3.958   4.074 -0.2510 -2.6269  0.0110
 3607SOL    HW222458   4.440   3.877   4.099  3.2249 -0.4285  0.7942
 3608SOL     OW22459   4.615   0.475  13.853 -0.0802  0.1290 -0.5039
 3608SOL    HW122460   4.601   0.398  13.797  1.3920  0.1613 -0.9283
 3608SOL    HW222461   4.647   0.425  13.928  0.7695 -0.4926 -1.2680
 3609SOL     OW22462   0.546   0.674   5.943 -0.2345 -0.1461 -0.4732
 3609SOL    HW122463   0.540   0.764   5.912  0.4625 -1.1603 -3.4834
 3609SOL    HW222464   0.618   0.632   5.897  1.8737  0.9466  1.8355
 3610SOL     OW22465   2.626   4.348  15.547 -0.2390  0.2066  0.0406
 3610SOL    HW122466   2.617   4.335  15.642  0.0558  0.5112  0.1103
 3610SOL    HW222467   2.610   4.261  15.511  0.7223 -0.3417  0.9438
 3611SOL     OW22468   3.853   2.880   7.099  0.3130 -0.1224  0.5120
 3611SOL    HW122469   3.876   2.798   7.055 -1.6400 -0.1672 -0.4468
 3611SOL    HW222470   3.819   2.934   7.028  1.6531  0.6036  0.4304
 3612SOL     OW22471   0.925   1.482   3.670 -0.3145 -0.1289 -0.1457
 3612SOL    HW122472   0.997   1.487   3.607 -0.1111 -2.9808 -0.1313
 3612SOL    HW222473   0.929   1.388   3.688  0.7115  0.2011  1.3566
 3613SOL     OW22474   2.776   1.941   7.852 -0.2916  0.1779  0.5523
 3613SOL    HW122475   2.689   1.912   7.878 -2.1034  1.1787 -4.3821
 3613SOL    HW222476   2.743   2.022   7.812  0.5455  0.5351  0.5821
 3614SOL     OW22477   3.335   4.094   2.151  0.0479 -0.2723  0.3858
 3614SOL    HW122478   3.291   4.169   2.110  0.5660 -0.9501 -1.3866
 3614SOL    HW222479   3.426   4.122   2.161 -0.5036  1.9492 -0.7298
 3615SOL     OW22480   0.791   3.969   7.337 -0.5161  0.1174  0.5039
 3615SOL    HW122481   0.758   3.948   7.424 -0.1049 -0.4266  0.5279
 3615SOL    HW222482   0.863   4.019   7.374  3.2057 -1.8813 -3.9258
 3616SOL     OW22483   1.871   2.426   6.622  0.1641 -0.1672  0.6388
 3616SOL    HW122484   1.858   2.347   6.675 -0.8627 -0.0441  0.5761
 3616SOL    HW222485   1.896   2.488   6.691  0.9815  0.0789  0.1147
 3617SOL     OW22486   3.473   0.967   7.254  0.0935  0.9087 -0.2696
 3617SOL    HW122487   3.515   0.993   7.172  0.3775  2.6167  0.4174
 3617SOL    HW222488   3.425   1.049   7.268  1.5427  1.8091 -0.5798
 3618SOL     OW22489   1.052   4.550  11.009 -0.1374  0.1506 -0.1122
 3618SOL    HW122490   1.090   4.638  11.005 -0.8845  0.4746  0.0332
 3618SOL    HW222491   0.964   4.565  11.044 -1.2666 -3.9359 -1.1387
 3619SOL     OW22492   0.851   3.164   8.382 -0.0383  0.6555 -0.0532
 3619SOL    HW122493   0.932   3.159   8.431  0.5489  2.0649 -0.8839
 3619SOL    HW222494   0.887   3.185   8.296 -1.5134  1.7220 -0.4143
 3620SOL     OW22495   0.284   4.672   5.741 -0.4154  0.4878 -0.0872
 3620SOL    HW122496   0.360   4.730   5.741 -0.8833  1.0924  0.4941
 3620SOL    HW222497   0.255   4.662   5.651 -0.4100 -1.0166  0.0816
 3621SOL     OW22498   1.734   4.710   0.127  0.4314 -0.2218  0.2976
 3621SOL    HW122499   1.697   0.023   0.054 -0.7555 -1.7296 -0.1163
 3621SOL    HW222500   1.828   4.731   0.133  0.6573 -1.8492  2.5863
 3622SOL     OW22501   1.725   1.658   7.716  0.2216 -0.1414 -0.2527
 3622SOL    HW122502   1.753   1.576   7.758 -1.1555 -1.4873 -2.0114
 3622SOL    HW222503   1.632   1.660   7.737  0.4961  0.5047  0.9149
 3623SOL     OW22504   2.057   0.561   3.285 -0.2598  0.0402  0.3508
 3623SOL    HW122505   1.963   0.546   3.280 -0.5004  1.2549  1.2763
 3623SOL    HW222506   2.056   0.657   3.291 -1.1438  0.0637 -0.1783
 3624SOL     OW22507   3.086   2.662   5.098 -0.1390 -0.0436 -0.8231
 3624SOL    HW122508   2.996   2.633   5.114 -0.4204  1.1875 -0.1957
 3624SOL    HW222509   3.056   2.717   5.026 -0.9866  2.0069  1.0768
 3625SOL     OW22510   0.350   2.643  12.209  0.8990 -0.5684  0.4176
 3625SOL    HW122511   0.380   2.727  12.242  1.6785  0.0763 -1.9203
 3625SOL    HW222512   0.317   2.674  12.125 -0.0861 -1.0689  0.6165
 3626SOL     OW22513   0.241   4.084   7.661 -0.6462 -0.7829 -0.2078
 3626SOL    HW122514   0.249   4.007   7.606 -2.5614 -0.7194 -0.5846
 3626SOL    HW222515   0.322   4.131   7.640 -2.6413  1.9450 -1.7932
 3627SOL     OW22516   2.674   0.369   9.827 -0.4488 -0.1909 -0.1456
 3627SOL    HW122517   2.750   0.406   9.873 -0.3983  2.2317 -2.1918
 3627SOL    HW222518   2.658   0.286   9.873 -1.9665 -0.5077 -1.2552
 3628SOL     OW22519   1.150   4.288  11.770 -0.3158  0.2640 -0.2620
 3628SOL    HW122520   1.057   4.269  11.782  0.4950 -2.2866  1.9821
 3628SOL    HW222521   1.149   4.363  11.710 -1.0503  0.5121  0.0527
 3629SOL     OW22522   1.154   2.752  14.942 -0.0947 -0.6072 -0.3272
 3629SOL    HW122523   1.213   2.695  14.892  1.3484  0.2153  0.4363
 3629SOL    HW222524   1.182   2.736  15.032 -1.7369 -1.4479  0.0286
 3630SOL     OW22525   0.701   3.345   4.489 -0.6209 -0.4106 -0.5293
 3630SOL    HW122526   0.753   3.268   4.469 -0.0547  0.0623 -0.8570
 3630SOL    HW222527   0.683   3.385   4.404  1.9395  2.3443  0.2141
 3631SOL     OW22528   2.048   0.495   1.527 -0.3256  0.3184  0.2039
 3631SOL    HW122529   2.124   0.550   1.543  0.6286 -0.0777 -2.9248
 3631SOL    HW222530   2.072   0.455   1.443 -1.7892 -1.0275  0.4080
 3632SOL     OW22531   1.820   2.980  13.843 -0.1209  0.1242  0.1053
 3632SOL    HW122532   1.859   3.038  13.909  0.7041  0.3623 -0.5892
 3632SOL    HW222533   1.826   3.043  13.771 -2.0537  0.1791 -0.0094
 3633SOL     OW22534   3.944   3.488  13.104 -0.2087 -0.3539  0.6192
 3633SOL    HW122535   3.946   3.485  13.200  1.3210  2.9598  0.6893
 3633SOL    HW222536   4.011   3.428  13.072  1.2254  2.5216 -1.8078
 3634SOL     OW22537   2.137   3.333  11.387 -0.4491  0.4932 -0.3555
 3634SOL    HW122538   2.228   3.348  11.413 -0.5139  0.1715  0.0665
 3634SOL    HW222539   2.095   3.412  11.420 -1.4301 -0.0139 -0.3982
 3635SOL     OW22540   1.665   2.680   1.309 -0.1780 -0.2046 -0.4593
 3635SOL    HW122541   1.670   2.708   1.400 -1.0773 -0.8832 -0.2012
 3635SOL    HW222542   1.737   2.728   1.267  1.1894 -0.6900  1.3345
 3636SOL     OW22543   3.694   0.747   6.321  0.2540  0.2134 -0.3004
 3636SOL    HW122544   3.681   0.652   6.325  1.8119 -0.0420 -1.1093
 3636SOL    HW222545   3.620   0.782   6.370  1.0031  0.3650  0.7252
 3637SOL     OW22546   4.657   4.484  10.750 -0.1321 -0.2121 -0.2545
 3637SOL    HW122547   4.610   4.413  10.707 -0.8787  0.2909 -0.2554
 3637SOL    HW222548   4.649   4.556  10.688 -1.2223  1.8338  2.2572
 3638SOL     OW22549   3.542   1.216  10.646  0.2832  0.0347  0.4283
 3638SOL    HW122550   3.451   1.195  10.626 -0.5418  2.2751  1.8822
 3638SOL    HW222551   3.561   1.130  10.684  0.0763  0.1462  0.7853
 3639SOL     OW22552   4.116   1.214  15.609 -0.0959  0.6925 -0.9785
 3639SOL    HW122553   4.195   1.161  15.623 -2.0306 -1.8471  0.3507
 3639SOL    HW222554   4.088   1.189  15.521 -0.5180  1.4388 -1.0532
 3640SOL     OW22555   2.336   1.220  13.012 -0.0431  0.1874 -0.1142
 3640SOL    HW122556   2.398   1.147  13.017 -2.0915 -1.5393  0.1687
 3640SOL    HW222557   2.389   1.295  12.986 -0.0409  1.6016  4.0269
 3641SOL     OW22558   2.018   3.433   1.517  0.1875 -0.8538  0.2015
 3641SOL    HW122559   2.047   3.514   1.474 -0.9135  0.6941  2.3434
 3641SOL    HW222560   1.949   3.474   1.569  0.6012 -0.9827  0.8552
 3642SOL     OW22561   0.170   0.325   5.734  0.0380  0.4024  0.0167
 3642SOL    HW122562   0.098   0.303   5.793  1.3067  1.1469  1.8303
 3642SOL    HW222563   0.208   0.240   5.713  1.3142  1.7331 -3.1017
 3643SOL     OW22564   1.954   1.405   7.543  0.1663 -0.5421 -0.0153
 3643SOL    HW122565   1.990   1.393   7.631 -2.2230  3.6285  1.4824
 3643SOL    HW222566   1.955   1.498   7.521  2.1281 -0.3651  0.8264
 3644SOL     OW22567   2.374   1.020  10.130 -0.2494  0.0857  0.4722
 3644SOL    HW122568   2.402   1.058  10.213  1.2260  0.6470 -0.2847
 3644SOL    HW222569   2.304   0.961  10.159  1.4977 -2.5107 -0.6014
 3645SOL     OW22570   4.023   2.521   1.560  0.0093  0.2229  0.2406
 3645SOL    HW122571   3.953   2.526   1.494  0.1510  2.4213  0.2851
 3645SOL    HW222572   4.090   2.584   1.533 -1.2428  0.4856 -2.2555
 3646SOL     OW22573   0.682   0.166   8.786  0.1391  0.3748 -0.1780
 3646SOL    HW122574   0.604   0.222   8.786  0.5518  0.9532  0.2539
 3646SOL    HW222575   0.674   0.126   8.873  1.5570 -0.3887 -0.3899
 3647SOL     OW22576   4.269   0.975   1.450 -0.4292  0.0591 -0.2431
 3647SOL    HW122577   4.187   0.930   1.471 -1.0187  0.4827 -1.6552
 3647SOL    HW222578   4.241   1.066   1.455  0.8921  0.3942  1.1959
 3648SOL     OW22579   3.581   4.203  11.751  0.1959 -0.5128  0.2373
 3648SOL    HW122580   3.626   4.283  11.725  2.1628 -1.1917  1.6095
 3648SOL    HW222581   3.530   4.235  11.825 -1.4762 -0.7595 -0.7845
 3649SOL     OW22582   1.092   3.597   9.306 -0.6150  0.0187  0.7772
 3649SOL    HW122583   1.174   3.578   9.351  0.7514  0.4291 -1.5640
 3649SOL    HW222584   1.054   3.510   9.321 -0.3905 -0.1182  0.5466
 3650SOL     OW22585   4.293   0.559   8.720  0.2725 -0.5758 -0.1544
 3650SOL    HW122586   4.270   0.650   8.702  1.3263 -0.1110  0.8133
 3650SOL    HW222587   4.321   0.543   8.630  2.4798 -1.9638  0.7715
 3651SOL     OW22588   2.167   1.751  17.461 -0.2938 -0.2537  0.2759
 3651SOL    HW122589   2.133   1.692  17.528 -1.9700 -0.3993 -0.7068
 3651SOL    HW222590   2.100   1.741  17.394  0.5868 -1.0380 -0.4830
 3652SOL     OW22591   1.115   1.913   5.579  0.1718  0.4574  0.1478
 3652SOL    HW122592   1.193   1.864   5.551  1.0328  0.3742  2.6897
 3652SOL    HW222593   1.160   1.977   5.635 -0.4925 -1.3559  2.7531
 3653SOL     OW22594   4.583   3.942   5.527 -0.3592 -0.1268 -0.3055
 3653SOL    HW122595   4.649   3.872   5.530 -1.3939 -1.0471  0.8533
 3653SOL    HW222596   4.570   3.955   5.621  2.7766 -4.3099  0.7044
 3654SOL     OW22597   2.618   0.125   7.533 -0.2142  0.1012 -0.3634
 3654SOL    HW122598   2.536   0.096   7.492 -0.3448  1.4718 -1.0418
 3654SOL    HW222599   2.609   0.219   7.543  0.5034 -0.0726  2.1011
 3655SOL     OW22600   0.666   2.341   9.836  0.4419 -0.7569 -0.2296
 3655SOL    HW122601   0.725   2.327   9.911  0.3757  1.1924  0.1969
 3655SOL    HW222602   0.588   2.295   9.866 -0.4795 -0.8258 -2.7484
 3656SOL     OW22603   1.657   0.946   2.596  0.2972  0.0754 -0.2467
 3656SOL    HW122604   1.734   0.979   2.549  0.6364  0.2761  0.4582
 3656SOL    HW222605   1.697   0.873   2.644 -2.6508  0.2070  2.3791
 3657SOL     OW22606   2.550   3.024   9.512  0.5105 -0.1386 -0.3756
 3657SOL    HW122607   2.509   3.090   9.567  0.7962  0.5432 -0.9852
 3657SOL    HW222608   2.642   3.051   9.515 -0.1327  2.0290 -0.2110
 3658SOL     OW22609   0.425   2.252   7.239 -0.6887  0.0114  0.2972
 3658SOL    HW122610   0.462   2.235   7.326  1.1048 -0.0285 -0.4678
 3658SOL    HW222611   0.481   2.190   7.192 -0.1725 -0.3041  1.3416
 3659SOL     OW22612   4.475   0.420   1.833  0.1719  0.2435 -0.1634
 3659SOL    HW122613   4.400   0.422   1.774 -0.4808  1.0337  0.6983
 3659SOL    HW222614   4.458   0.333   1.870 -0.7410 -0.4783 -2.2590
 3660SOL     OW22615   1.328   1.308   4.377 -0.0474  0.1733 -0.6261
 3660SOL    HW122616   1.319   1.402   4.362 -1.8260  0.3821  1.8341
 3660SOL    HW222617   1.387   1.279   4.307 -1.2868 -0.8854 -1.2404
 3661SOL     OW22618   2.795   0.626  17.569  0.1699  0.2729 -0.1723
 3661SOL    HW122619   2.827   0.674  17.646  2.3086 -0.5777 -0.5314
 3661SOL    HW222620   2.773   0.706  17.521 -0.4814  1.2101  1.6840
 3662SOL     OW22621   1.022   1.926   3.737  0.1048 -0.0337 -0.2671
 3662SOL    HW122622   1.006   2.003   3.792 -1.2768 -0.9516  0.5946
 3662SOL    HW222623   0.939   1.884   3.715  1.7826 -1.5046 -3.7223
 3663SOL     OW22624   2.536   1.467   4.969  0.3341  0.1418  0.1101
 3663SOL    HW122625   2.522   1.509   4.884  2.1280 -0.5186 -0.5132
 3663SOL    HW222626   2.522   1.376   4.943 -0.9700  0.2991  0.2826
 3664SOL     OW22627   2.904   1.729   6.562 -0.1062 -0.3597 -0.0537
 3664SOL    HW122628   2.810   1.722   6.545 -0.0823  0.8666 -0.6698
 3664SOL    HW222629   2.904   1.695   6.652 -0.7214 -1.4993 -0.4778
 3665SOL     OW22630   4.545   0.603   5.417 -0.0790  0.2008  0.3598
 3665SOL    HW122631   4.487   0.600   5.493 -0.1377  0.5740  0.3290
 3665SOL    HW222632   4.522   0.522   5.372  2.4198 -0.5027  0.3434
 3666SOL     OW22633   1.714   2.683   9.660 -0.3164 -0.0930  0.0756
 3666SOL    HW122634   1.657   2.607   9.670 -1.3507  1.0601  2.9764
 3666SOL    HW222635   1.801   2.653   9.687  1.2359  1.2407 -3.3773
 3667SOL     OW22636   2.751   0.991   7.843  0.1477  0.5020  0.7374
 3667SOL    HW122637   2.751   0.966   7.751 -1.0956  1.5680  0.4425
 3667SOL    HW222638   2.810   1.066   7.851  0.5045  0.4289 -1.2754
 3668SOL     OW22639   4.284   2.051  14.575 -0.1758 -0.0944 -1.0302
 3668SOL    HW122640   4.354   2.112  14.551  1.0456 -0.8587  0.6525
 3668SOL    HW222641   4.249   2.021  14.491  0.1451 -3.0798 -0.0989
 3669SOL     OW22642   3.806   4.702   8.409  0.9645 -0.0168  0.3807
 3669SOL    HW122643   3.883   4.735   8.455 -0.0901  0.2583  1.9540
 3669SOL    HW222644   3.787   4.626   8.464  0.8642 -1.0226 -1.0429
 3670SOL     OW22645   2.827   1.042   2.924  0.1850  0.0703  0.3973
 3670SOL    HW122646   2.787   0.955   2.928 -1.2369  0.7287  0.3298
 3670SOL    HW222647   2.794   1.072   3.009 -0.5509 -0.0598  0.1516
 3671SOL     OW22648   0.050   1.554   8.055 -0.0026 -0.3116  0.4942
 3671SOL    HW122649   0.076   1.603   8.133  2.4886 -0.2780 -0.3697
 3671SOL    HW222650   4.734   1.485   8.097 -0.6885  0.0890  0.2873
 3672SOL     OW22651   4.561   1.528   1.161  0.4157 -0.3979 -0.2318
 3672SOL    HW122652   4.617   1.516   1.237  1.8149  0.1343 -1.1632
 3672SOL    HW222653   4.602   1.456   1.113  1.3861 -1.3292  2.0054
 3673SOL     OW22654   1.622   4.064  15.634 -0.3990  0.2837  0.4538
 3673SOL    HW122655   1.568   4.094  15.560 -0.7065 -1.7951 -0.1467
 3673SOL    HW222656   1.711   4.066  15.599 -1.0317 -1.8112 -1.2774
 3674SOL     OW22657   2.147   0.911  16.407 -0.2225 -0.0562 -0.1666
 3674SOL    HW122658   2.171   1.000  16.378 -0.1631  0.6718  2.1683
 3674SOL    HW222659   2.053   0.919  16.423  0.3511  2.8119  1.8208
 3675SOL     OW22660   2.707   3.407   5.597 -0.4631  0.1694 -0.1500
 3675SOL    HW122661   2.652   3.426   5.673  2.3865  2.5047  1.3331
 3675SOL    HW222662   2.771   3.477   5.607 -0.9359  0.6561 -0.5162
 3676SOL     OW22663   1.180   1.697  16.337 -0.1637 -0.3864  0.4600
 3676SOL    HW122664   1.150   1.737  16.255  2.1533 -0.3493 -0.3760
 3676SOL    HW222665   1.246   1.759  16.368 -1.5476  2.0938 -1.5063
 3677SOL     OW22666   0.126   0.682   3.038  0.2133 -0.7282  0.3303
 3677SOL    HW122667   0.117   0.647   3.127 -1.4196  0.0730  0.4820
 3677SOL    HW222668   0.053   0.632   3.001 -0.2333 -2.0064  2.9142
 3678SOL     OW22669   1.959   0.277   8.205 -0.0775 -0.2576  0.2236
 3678SOL    HW122670   1.979   0.220   8.130 -0.3233  1.0416 -0.8240
 3678SOL    HW222671   1.934   0.212   8.271  1.0171  1.1663  2.0356
 3679SOL     OW22672   3.971   2.689  16.730  0.5658  0.6518  0.3916
 3679SOL    HW122673   3.981   2.708  16.637  2.2433  1.5652  0.7516
 3679SOL    HW222674   3.981   2.775  16.771  0.5973  1.4460 -1.2660
 3680SOL     OW22675   0.304   3.452   3.193  0.3624 -0.0525 -0.1110
 3680SOL    HW122676   0.368   3.506   3.238 -0.7947  0.6065  0.7480
 3680SOL    HW222677   0.350   3.385   3.143  0.4056 -0.5989  0.6684
 3681SOL     OW22678   3.028   3.069   5.181 -0.1174  0.1450  0.2630
 3681SOL    HW122679   3.066   3.034   5.262  0.2043  1.4139  0.6575
 3681SOL    HW222680   3.076   3.013   5.120 -1.6526 -0.2413 -0.5850
 3682SOL     OW22681   4.075   0.553   5.311 -0.1576  0.1401  0.1878
 3682SOL    HW122682   4.049   0.579   5.400 -0.3106 -0.9619  0.4673
 3682SOL    HW222683   4.106   0.466   5.334  0.2425 -0.1683 -1.5855
 3683SOL     OW22684   3.387   0.096   3.329 -0.7895  0.9434  0.6339
 3683SOL    HW122685   3.379   0.192   3.323 -2.8955  0.7628  0.5533
 3683SOL    HW222686   3.447   0.086   3.403 -0.1711 -1.0451 -0.1521
 3684SOL     OW22687   0.758   0.415  11.573  0.2242 -0.2653  0.1559
 3684SOL    HW122688   0.671   0.430  11.536  0.4632 -0.5818 -0.5386
 3684SOL    HW222689   0.749   0.464  11.655  1.7921  2.0592 -1.0657
 3685SOL     OW22690   0.255   2.746   6.605 -0.0588 -1.0147  0.1349
 3685SOL    HW122691   0.318   2.748   6.676  2.2134  0.3565 -1.9453
 3685SOL    HW222692   0.249   2.839   6.584 -1.5016 -1.0414  0.3953
 3686SOL     OW22693   0.444   3.767  12.732  0.2425 -0.0549  0.0930
 3686SOL    HW122694   0.353   3.748  12.709  0.7941 -2.1511 -0.3046
 3686SOL    HW222695   0.429   3.771  12.827  0.6654 -1.3464  0.2108
 3687SOL     OW22696   1.250   0.725  12.948  0.1528 -0.0506  0.6151
 3687SOL    HW122697   1.169   0.773  12.930 -0.0257 -0.3544  0.6015
 3687SOL    HW222698   1.317   0.762  12.891 -0.9585 -0.7425 -1.1504
 3688SOL     OW22699   3.675   3.109   5.563 -0.2191  0.4409 -0.7249
 3688SOL    HW122700   3.635   3.167   5.628  0.1168  1.2708 -1.2648
 3688SOL    HW222701   3.601   3.051   5.545  1.0758 -1.6395  0.6666
 3689SOL     OW22702   1.015   0.743  14.784  0.5495 -0.4242  0.5599
 3689SOL    HW122703   1.043   0.664  14.831  0.1351 -0.1535  1.2754
 3689SOL    HW222704   1.037   0.810  14.849 -0.8224 -0.4293  1.0290
 3690SOL     OW22705   4.229   3.810  16.199 -0.4864  0.7048 -0.3479
 3690SOL    HW122706   4.239   3.905  16.191 -0.5272  0.6620 -0.9663
 3690SOL    HW222707   4.169   3.804  16.273  0.3408 -1.2035  0.1765
 3691SOL     OW22708   4.675   3.434  14.186 -0.2611  0.4239 -0.3571
 3691SOL    HW122709   4.597   3.383  14.208  2.6560 -2.5947  3.0316
 3691SOL    HW222710   0.011   3.385  14.225  0.4878  0.0470 -2.1938
 3692SOL     OW22711   3.333   2.772   5.862  0.8113 -0.0288 -0.2712
 3692SOL    HW122712   3.312   2.866   5.862  0.9520  0.0026 -0.6565
 3692SOL    HW222713   3.368   2.754   5.775  1.8811 -2.0226  0.5882
 3693SOL     OW22714   4.160   4.097   7.858  0.1013 -0.2334 -0.0535
 3693SOL    HW122715   4.240   4.075   7.906 -0.8426  0.9555  2.0552
 3693SOL    HW222716   4.150   4.010   7.819  0.9394 -0.2775 -0.1606
 3694SOL     OW22717   2.987   0.370   7.938 -0.3017  0.2554 -0.3254
 3694SOL    HW122718   3.001   0.330   7.852  1.1363  1.0748 -0.4780
 3694SOL    HW222719   3.033   0.312   7.999  1.2013  2.2669  0.4645
 3695SOL     OW22720   3.907   0.043  12.941  0.2184  0.0086 -0.5467
 3695SOL    HW122721   3.862   0.104  12.882 -1.5835  0.6260  1.4734
 3695SOL    HW222722   3.873   0.080  13.022 -0.2715  2.4139 -1.8362
 3696SOL     OW22723   0.524   4.292  15.525  0.2415 -0.3812  0.2618
 3696SOL    HW122724   0.451   4.259  15.577 -3.0126  1.0164 -3.4234
 3696SOL    HW222725   0.487   4.378  15.506  0.2954 -0.6180 -0.9265
 3697SOL     OW22726   3.768   3.500  11.706 -0.0437 -0.3367 -0.4458
 3697SOL    HW122727   3.783   3.594  11.700 -0.1246 -0.3027 -0.0936
 3697SOL    HW222728   3.740   3.484  11.616 -0.4806  0.5369 -0.4606
 3698SOL     OW22729   2.871   2.122  16.934 -0.0345 -0.2160 -0.1839
 3698SOL    HW122730   2.896   2.135  16.842 -0.2986  0.1289 -0.2069
 3698SOL    HW222731   2.819   2.201  16.947  0.7803 -0.0727  2.0858
 3699SOL     OW22732   4.311   2.940  11.308  0.7198 -0.0443 -0.0997
 3699SOL    HW122733   4.232   2.962  11.357  0.7019 -2.9886  1.1879
 3699SOL    HW222734   4.351   3.027  11.303  0.2034  0.1398 -0.9928
 3700SOL     OW22735   0.414   1.875  16.297  0.4779 -0.7444 -0.6277
 3700SOL    HW122736   0.377   1.797  16.257  0.3051 -0.7053 -0.5436
 3700SOL    HW222737   0.508   1.854  16.304  0.9593  2.2654  2.0174
 3701SOL     OW22738   4.008   0.429   0.974 -0.6392  0.0492  0.5641
 3701SOL    HW122739   4.080   0.491   0.991 -0.0271 -0.1558 -1.3350
 3701SOL    HW222740   4.053   0.372   0.912 -2.7289 -0.6194 -0.3026
 3702SOL     OW22741   1.440   0.851  12.796  0.1569 -0.5225 -0.8956
 3702SOL    HW122742   1.432   0.869  12.702 -0.7130  1.1439 -0.5030
 3702SOL    HW222743   1.530   0.868  12.821 -0.3297  0.1096  0.4318
 3703SOL     OW22744   1.373   0.552   1.432  0.5590  0.5775  0.2992
 3703SOL    HW122745   1.436   0.604   1.483  1.7845  0.8339 -1.4507
 3703SOL    HW222746   1.405   0.462   1.443 -0.0972  0.1496 -1.2701
 3704SOL     OW22747   0.062   3.289  11.800 -0.3193 -0.1552  0.2505
 3704SOL    HW122748   0.012   3.293  11.882 -1.7031 -0.6205 -0.5688
 3704SOL    HW222749   0.050   3.376  11.763  0.3225 -0.4334 -0.5913
 3705SOL     OW22750   4.197   3.224  15.561  0.9212  0.4815 -0.2849
 3705SOL    HW122751   4.209   3.312  15.597 -1.2500  0.1416  1.2670
 3705SOL    HW222752   4.122   3.193  15.611  0.9208  1.9042  0.5857
 3706SOL     OW22753   1.715   3.669   9.832 -0.1215  0.3698  0.8152
 3706SOL    HW122754   1.659   3.746   9.820 -1.9790 -1.4408 -2.0199
 3706SOL    HW222755   1.676   3.616   9.763  1.0920 -1.6728  1.7234
 3707SOL     OW22756   3.097   1.225   4.031  0.2661 -0.0216  0.0236
 3707SOL    HW122757   3.159   1.297   4.021  2.6192 -1.8056  1.6975
 3707SOL    HW222758   3.100   1.194   3.941 -0.1628 -0.1169  0.0397
 3708SOL     OW22759   2.994   3.586   3.647 -0.5478  0.1304  0.1829
 3708SOL    HW122760   3.036   3.504   3.620 -0.5772 -0.6080  2.3757
 3708SOL    HW222761   3.069   3.644   3.661 -0.8157  0.2619  1.1381
 3709SOL     OW22762   4.638   3.136   8.281  0.0024  0.1090 -0.0479
 3709SOL    HW122763   4.699   3.074   8.322 -0.4044  0.5917  1.2771
 3709SOL    HW222764   4.694   3.200   8.237  1.6787 -1.6036 -0.4242
 3710SOL     OW22765   1.173   0.667   2.017 -0.1732  0.2458  0.0123
 3710SOL    HW122766   1.112   0.608   1.971  0.2303 -1.9467  2.2974
 3710SOL    HW222767   1.239   0.658   1.948  1.8516 -0.9609  2.0929
 3711SOL     OW22768   3.959   3.834   6.103 -0.1537  0.1833  0.0886
 3711SOL    HW122769   3.898   3.801   6.038 -1.8671  2.2958  0.6113
 3711SOL    HW222770   4.033   3.786   6.066 -0.6342  1.7023 -2.9064
 3712SOL     OW22771   0.734   2.050  16.524 -1.1427  0.1031  0.4991
 3712SOL    HW122772   0.778   2.117  16.470 -2.1773 -1.8068 -2.7029
 3712SOL    HW222773   0.735   1.975  16.465 -0.1377  1.1576 -0.8460
 3713SOL     OW22774   0.215   4.262   2.122 -0.4420 -0.0511 -0.0355
 3713SOL    HW122775   0.174   4.288   2.204 -0.3392 -0.5866  0.1870
 3713SOL    HW222776   0.169   4.307   2.050  0.8577 -0.6210 -1.2135
 3714SOL     OW22777   1.744   1.118   6.945 -0.2872 -0.0818  0.7517
 3714SOL    HW122778   1.827   1.088   6.909  1.0059  1.9622  1.9527
 3714SOL    HW222779   1.682   1.108   6.874  1.9941 -0.6481 -1.1551
 3715SOL     OW22780   0.848   0.949   3.719  0.6320  0.1429 -0.0305
 3715SOL    HW122781   0.830   0.869   3.770 -0.2280  1.7992  2.2910
 3715SOL    HW222782   0.792   0.936   3.643  0.2470 -0.7071  0.3885
 3716SOL     OW22783   2.438   1.682   2.860  0.1522  0.2160 -0.7053
 3716SOL    HW122784   2.512   1.718   2.811  0.6027 -1.0171 -0.9292
 3716SOL    HW222785   2.367   1.709   2.801  2.0259  0.9561 -2.6160
 3717SOL     OW22786   0.097   0.385   4.461 -0.6384  0.0115  0.1229
 3717SOL    HW122787   0.015   0.348   4.493 -0.1155  0.2887  1.8043
 3717SOL    HW222788   0.146   0.390   4.544 -0.0912  1.2210 -0.2604
 3718SOL     OW22789   3.002   1.880   7.995 -0.8797  0.4705  0.3333
 3718SOL    HW122790   2.915   1.900   7.960 -0.8995 -0.7770 -0.3361
 3718SOL    HW222791   3.001   1.786   7.978 -2.3440  0.8065 -1.3875
 3719SOL     OW22792   4.585   0.823   3.664 -0.6199 -0.0565 -0.1313
 3719SOL    HW122793   4.596   0.913   3.697 -0.4987 -0.4015  0.7853
 3719SOL    HW222794   4.517   0.799   3.728 -1.1684 -0.1229 -0.7325
 3720SOL     OW22795   2.955   1.809  15.844 -0.2211  0.1226 -0.1598
 3720SOL    HW122796   2.961   1.817  15.749  1.7640 -1.6078 -0.1879
 3720SOL    HW222797   2.888   1.875  15.862 -2.2280 -1.7802 -0.7152
 3721SOL     OW22798   3.823   2.956   6.063 -0.5572  0.2936 -0.0287
 3721SOL    HW122799   3.742   2.951   6.013 -0.1412 -0.4183 -0.6376
 3721SOL    HW222800   3.864   3.035   6.027 -0.4742  0.4877  0.4928
 3722SOL     OW22801   2.350   2.714   6.867 -0.4659  0.3356 -0.2665
 3722SOL    HW122802   2.404   2.775   6.918 -0.9604  0.4106  0.1785
 3722SOL    HW222803   2.274   2.756   6.828 -0.7753 -1.3742 -1.4975
 3723SOL     OW22804   0.932   1.536   8.766 -0.5454  0.3759 -0.1144
 3723SOL    HW122805   0.975   1.536   8.681 -0.3769  1.2204 -0.0232
 3723SOL    HW222806   0.844   1.517   8.734 -0.7891 -0.7988  1.2265
 3724SOL     OW22807   0.410   1.729  14.136  0.1665  0.4226  0.5063
 3724SOL    HW122808   0.456   1.647  14.154 -0.9047 -0.2671  0.0669
 3724SOL    HW222809   0.370   1.761  14.217 -0.1610 -0.4667  0.6875
 3725SOL     OW22810   0.314   4.556   3.369  0.5423  0.6082 -0.4386
 3725SOL    HW122811   0.340   4.548   3.461 -0.6097 -1.0451 -0.2481
 3725SOL    HW222812   0.228   4.596   3.380  0.0752 -0.8111  1.2152
 3726SOL     OW22813   3.493   3.661   1.877 -0.0231  0.2748 -0.2118
 3726SOL    HW122814   3.429   3.730   1.892 -0.0749  0.0718  0.5265
 3726SOL    HW222815   3.434   3.586   1.885 -2.1097  2.0079  0.4362
 3727SOL     OW22816   2.133   0.521  13.294 -0.6544  0.0310  0.4392
 3727SOL    HW122817   2.118   0.449  13.233 -0.7572 -1.8388  2.6642
 3727SOL    HW222818   2.138   0.484  13.382 -2.3110  0.4094  0.6906
 3728SOL     OW22819   3.022   2.730   6.232 -0.2720  0.6478  0.0392
 3728SOL    HW122820   3.105   2.720   6.186 -0.3115 -0.0015  0.1113
 3728SOL    HW222821   2.986   2.644   6.254  1.6102 -0.2401 -0.3661
 3729SOL     OW22822   3.285   2.726   1.687 -0.6233  0.4894 -0.2928
 3729SOL    HW122823   3.303   2.705   1.779 -1.7285  0.6180 -0.0476
 3729SOL    HW222824   3.365   2.693   1.646  1.4055  3.7556  1.0360
 3730SOL     OW22825   3.057   3.039   4.777 -0.2834  0.7479  0.1970
 3730SOL    HW122826   3.080   3.052   4.685 -1.4383 -3.7867 -0.7303
 3730SOL    HW222827   3.023   3.123   4.805 -1.2097  1.4414 -3.0471
 3731SOL     OW22828   3.192   2.450   9.465 -0.2384  0.5826 -0.0059
 3731SOL    HW122829   3.213   2.504   9.541 -0.1648  0.1818  0.2598
 3731SOL    HW222830   3.272   2.445   9.412 -0.9678 -2.4888 -0.8068
 3732SOL     OW22831   1.222   0.729   4.594 -0.4917  0.3752  0.3857
 3732SOL    HW122832   1.183   0.806   4.553  1.6983  0.0712 -2.3014
 3732SOL    HW222833   1.189   0.738   4.683 -1.0975 -0.8099  0.2858
 3733SOL     OW22834   3.532   3.290   8.997  0.1842 -0.4860  0.6757
 3733SOL    HW122835   3.442   3.270   8.973  1.0686 -2.4118 -1.0423
 3733SOL    HW222836   3.577   3.206   8.991  0.0806 -0.3802 -1.5072
 3734SOL     OW22837   1.771   4.242  16.496  0.2706  0.0788  0.5769
 3734SOL    HW122838   1.798   4.200  16.578  1.6010  1.3372  0.7743
 3734SOL    HW222839   1.830   4.197  16.436 -1.7731  0.9285 -2.0235
 3735SOL     OW22840   1.380   2.906  14.352 -0.1455  0.1729  0.4084
 3735SOL    HW122841   1.302   2.947  14.312  1.4468 -0.0739 -2.9124
 3735SOL    HW222842   1.367   2.934  14.443 -0.4224  2.1969 -0.2538
 3736SOL     OW22843   4.110   1.496  11.870  0.5544 -0.0206  0.1108
 3736SOL    HW122844   4.026   1.482  11.913  0.7283 -2.2830 -0.2715
 3736SOL    HW222845   4.163   1.500  11.950  1.1058  0.6091 -0.2863
 3737SOL     OW22846   0.318   2.538   4.625  0.0263  0.0239 -0.3585
 3737SOL    HW122847   0.341   2.584   4.544 -0.9431  0.1778 -0.5491
 3737SOL    HW222848   0.318   2.447   4.597  2.7387  0.3141 -1.3223
 3738SOL     OW22849   0.448   2.998   0.778  0.1177 -0.6526 -0.3173
 3738SOL    HW122850   0.481   2.953   0.700 -0.2420  1.2505 -1.5708
 3738SOL    HW222851   0.373   2.945   0.804  0.6170 -1.1649  0.0937
 3739SOL     OW22852   4.211   2.598   8.566 -0.2163  0.2806  0.2910
 3739SOL    HW122853   4.177   2.682   8.597  0.3829  0.1682  1.2437
 3739SOL    HW222854   4.135   2.543   8.547  0.1493  0.2288 -1.0335
 3740SOL     OW22855   4.254   3.887   3.670 -0.4083 -0.6906  0.1448
 3740SOL    HW122856   4.256   3.981   3.688  0.8070 -0.4114 -1.3871
 3740SOL    HW222857   4.345   3.861   3.681 -0.5135 -1.4125 -0.6855
 3741SOL     OW22858   2.846   2.209   9.392 -0.3407 -1.0225  0.1935
 3741SOL    HW122859   2.870   2.275   9.458 -1.5882 -0.1340 -0.2436
 3741SOL    HW222860   2.752   2.225   9.380 -0.2593 -0.4988  0.2536
 3742SOL     OW22861   0.930   2.745  17.447 -0.1009  0.1081  0.2719
 3742SOL    HW122862   0.862   2.788  17.395 -1.3197  1.8513  3.3056
 3742SOL    HW222863   1.010   2.789  17.418  0.0913 -0.1329  0.4401
 3743SOL     OW22864   4.279   3.109   6.081  0.2758 -0.6895 -0.2874
 3743SOL    HW122865   4.312   3.199   6.087  1.1896 -1.0435  0.0314
 3743SOL    HW222866   4.204   3.131   6.026  0.9323  1.7746 -0.1959
 3744SOL     OW22867   2.408   3.923   2.586 -0.1547 -0.2172  0.0163
 3744SOL    HW122868   2.398   3.846   2.642  1.2231 -0.5228 -0.1548
 3744SOL    HW222869   2.470   3.880   2.528  0.1480 -0.8255  0.8054
 3745SOL     OW22870   2.786   2.581   5.114  0.3463  0.3684 -0.4097
 3745SOL    HW122871   2.826   2.538   5.038 -2.3713 -1.0350 -1.0348
 3745SOL    HW222872   2.719   2.634   5.071  2.0793  3.2504  0.4457
 3746SOL     OW22873   3.532   0.764   7.560 -0.4816 -0.3146 -0.0594
 3746SOL    HW122874   3.447   0.809   7.554 -0.6938 -1.1019 -2.6392
 3746SOL    HW222875   3.510   0.681   7.518 -0.9652 -0.2468  0.0556
 3747SOL     OW22876   1.322   1.776  16.664 -0.0093 -0.2302 -0.6179
 3747SOL    HW122877   1.389   1.708  16.670 -0.1837 -0.4048 -0.6767
 3747SOL    HW222878   1.361   1.850  16.617 -0.4122 -1.3265 -2.6626
 3748SOL     OW22879   2.885   3.752   7.119  0.0688  0.0974  0.2773
 3748SOL    HW122880   2.967   3.702   7.112  0.2374  0.4590 -0.3467
 3748SOL    HW222881   2.911   3.820   7.181 -0.9065 -1.1317  2.0381
 3749SOL     OW22882   3.638   3.096   9.158 -0.2891  0.1120  0.2861
 3749SOL    HW122883   3.621   3.182   9.197  0.4019  1.2236 -1.8354
 3749SOL    HW222884   3.555   3.051   9.171 -0.9387  0.7334 -1.6402
 3750SOL     OW22885   2.672   3.641   7.910  0.3681  0.1792  0.4136
 3750SOL    HW122886   2.599   3.651   7.849  0.8255  0.2900 -0.1193
 3750SOL    HW222887   2.746   3.654   7.850 -1.0685  0.9935 -1.1654
 3751SOL     OW22888   0.426   1.658   5.245  0.1630  0.1073  0.5483
 3751SOL    HW122889   0.499   1.671   5.184 -0.0625  1.3339  0.5299
 3751SOL    HW222890   0.420   1.563   5.244 -2.3734  0.2774 -2.0324
 3752SOL     OW22891   1.644   4.247  15.283  0.2959  0.0647 -0.4288
 3752SOL    HW122892   1.568   4.193  15.258  0.6520 -0.9848  0.7524
 3752SOL    HW222893   1.617   4.320  15.227  2.3189  0.8948 -0.3115
 3753SOL     OW22894   3.958   2.715   3.684  0.0237 -0.3140 -0.0540
 3753SOL    HW122895   3.970   2.627   3.649  1.1274  0.1587 -0.8900
 3753SOL    HW222896   3.932   2.690   3.773 -2.3136 -0.2554 -0.7210
 3754SOL     OW22897   0.261   4.709  16.565 -0.8145 -0.4111 -0.3185
 3754SOL    HW122898   0.337   4.672  16.520 -0.2640  1.1981 -0.6984
 3754SOL    HW222899   0.194   4.718  16.497  0.2794  2.7114 -1.0053
 3755SOL     OW22900   3.910   1.970   1.623 -0.1376 -0.2220  0.2113
 3755SOL    HW122901   3.963   1.960   1.544 -1.8466  0.0947 -0.9776
 3755SOL    HW222902   3.888   1.877   1.631 -0.5735  0.0916  2.5125
 3756SOL     OW22903   2.298   1.352   7.039  0.2438  0.6316 -0.3454
 3756SOL    HW122904   2.246   1.362   6.959  1.4383  3.1367 -0.8196
 3756SOL    HW222905   2.346   1.272   7.017 -0.0215  0.1393  0.8387
 3757SOL     OW22906   4.298   2.645   1.498  0.1468 -0.4465  0.0303
 3757SOL    HW122907   4.350   2.659   1.419 -2.1251 -0.0753 -1.3830
 3757SOL    HW222908   4.303   2.730   1.542  0.8068 -0.4985  0.0552
 3758SOL     OW22909   4.417   1.157   1.218  0.0472  0.1666  0.5169
 3758SOL    HW122910   4.335   1.109   1.227  0.4214 -0.5650  0.0352
 3758SOL    HW222911   4.410   1.190   1.128  0.3352 -0.6090  0.2089
 3759SOL     OW22912   0.869   3.366   6.683  0.0345  0.4180 -0.2511
 3759SOL    HW122913   0.942   3.427   6.694  1.0196 -0.4423 -2.0031
 3759SOL    HW222914   0.803   3.420   6.725  0.0989 -0.8162  1.4501
 3760SOL     OW22915   1.535   1.100   8.588  0.0331  0.0765  0.3128
 3760SOL    HW122916   1.609   1.041   8.599  0.4866  0.8343  1.3519
 3760SOL    HW222917   1.580   1.180   8.559  0.2377 -0.7902 -1.7440
 3761SOL     OW22918   1.122   2.106   4.698 -0.6854 -0.0560 -0.5654
 3761SOL    HW122919   1.181   2.111   4.623  0.4699  2.8655  0.5226
 3761SOL    HW222920   1.073   2.028   4.674 -2.0814  0.5249  0.3666
 3762SOL     OW22921   2.300   3.017   4.527  0.0385 -0.0937  0.1870
 3762SOL    HW122922   2.323   2.994   4.617  1.5160  0.5821 -0.0212
 3762SOL    HW222923   2.228   3.077   4.548  0.0206  0.7195 -2.2929
 3763SOL     OW22924   3.608   4.609   5.761  0.2016 -0.1737 -0.8356
 3763SOL    HW122925   3.584   4.652   5.844 -0.3015 -2.6505  0.2979
 3763SOL    HW222926   3.697   4.645   5.757 -0.2150  0.9691  0.0904
 3764SOL     OW22927   4.387   0.818   1.661 -0.1086  0.5422 -0.0768
 3764SOL    HW122928   4.447   0.863   1.720 -1.0322  0.8089  0.6570
 3764SOL    HW222929   4.338   0.896   1.635 -2.5992 -0.2033  2.4852
 3765SOL     OW22930   0.569   4.175   1.622 -0.6048  0.0790  0.3976
 3765SOL    HW122931   0.590   4.190   1.530 -2.8584 -0.3282 -0.1792
 3765SOL    HW222932   0.587   4.258   1.665  1.9686  0.2091 -0.9424
 3766SOL     OW22933   4.441   3.273  15.416  0.3108 -0.3222 -0.1402
 3766SOL    HW122934   4.476   3.361  15.430  1.9399 -0.7884 -1.2648
 3766SOL    HW222935   4.360   3.275  15.467  1.6623  1.4883  1.9745
 3767SOL     OW22936   3.886   3.472   6.396  0.4901 -0.4679 -0.0183
 3767SOL    HW122937   3.913   3.535   6.463  0.4219  1.1616 -1.5225
 3767SOL    HW222938   3.854   3.400   6.450  2.1113 -2.1422 -1.3201
 3768SOL     OW22939   1.828   1.749   2.950 -0.2449 -0.3833 -0.0208
 3768SOL    HW122940   1.761   1.792   3.003 -1.4839 -0.8512 -1.2064
 3768SOL    HW222941   1.793   1.763   2.862  0.3522  0.6411 -0.0849
 3769SOL     OW22942   2.033   3.139  17.480  0.0720 -0.4026 -0.1013
 3769SOL    HW122943   2.021   3.044  17.486  0.1643 -0.5133 -1.5295
 3769SOL    HW222944   2.125   3.139  17.455 -0.2881 -0.3509 -1.4753
 3770SOL     OW22945   4.656   0.967  10.605 -0.0467 -0.1655 -0.4356
 3770SOL    HW122946   4.597   1.022  10.552 -1.6591  1.2243  2.8138
 3770SOL    HW222947   4.721   1.036  10.610 -1.5343  1.2296 -0.1665
 3771SOL     OW22948   2.568   0.988   7.344 -0.3759  0.0360  0.6255
 3771SOL    HW122949   2.475   0.994   7.366 -0.4106 -0.3046  0.5717
 3771SOL    HW222950   2.578   1.068   7.294 -0.3910  0.7772  1.8108
 3772SOL     OW22951   0.240   3.615  14.506 -0.3423  0.3964  0.1422
 3772SOL    HW122952   0.156   3.608  14.460 -0.5899 -1.4517  0.8972
 3772SOL    HW222953   0.217   3.560  14.580 -0.4400 -0.1670 -0.3029
 3773SOL     OW22954   0.967   0.400   2.555 -0.2253 -0.3008 -0.5676
 3773SOL    HW122955   0.993   0.331   2.616  0.3214 -0.4362 -0.9562
 3773SOL    HW222956   1.008   0.478   2.593 -1.5098  0.5119 -0.8590
 3774SOL     OW22957   4.247   3.461   9.703  0.0231  0.2394  0.2717
 3774SOL    HW122958   4.175   3.500   9.752 -0.0298 -0.7161  0.9556
 3774SOL    HW222959   4.196   3.444   9.624  0.6528 -1.3625  0.2183
 3775SOL     OW22960   3.657   0.841  16.149  0.1594  0.0134  0.2429
 3775SOL    HW122961   3.673   0.932  16.172 -0.2857 -0.0868  0.9239
 3775SOL    HW222962   3.593   0.853  16.079  1.2300 -0.2854 -0.8002
 3776SOL     OW22963   3.693   4.358   4.742 -0.7060  0.6435  0.0095
 3776SOL    HW122964   3.626   4.427   4.736 -1.3630 -0.1073 -1.3287
 3776SOL    HW222965   3.659   4.291   4.683  0.8683  1.7996 -2.1857
 3777SOL     OW22966   2.329   1.100   6.925 -0.1292 -0.8093  0.4429
 3777SOL    HW122967   2.356   1.066   6.840 -1.0907  0.8847 -0.5616
 3777SOL    HW222968   2.237   1.072   6.921 -0.9310  1.8841  0.0714
 3778SOL     OW22969   3.308   4.005   7.331  0.3989  0.2611  0.0464
 3778SOL    HW122970   3.391   3.957   7.332  1.8618  2.7614  0.1005
 3778SOL    HW222971   3.342   4.081   7.379  1.0783  1.5756 -2.5159
 3779SOL     OW22972   3.798   2.953   2.830 -0.2987  0.3385  0.6245
 3779SOL    HW122973   3.833   3.041   2.820 -1.2020  0.2789 -2.7938
 3779SOL    HW222974   3.880   2.906   2.848 -0.5065 -0.5450 -0.7711
 3780SOL     OW22975   2.829   1.142   9.969  0.5867 -0.5578 -0.1058
 3780SOL    HW122976   2.901   1.132   9.907  1.6642 -0.0465  1.0828
 3780SOL    HW222977   2.758   1.091   9.928  0.0345  1.5622 -1.7713
 3781SOL     OW22978   0.978   1.397   7.596 -0.5601 -0.0756  0.3682
 3781SOL    HW122979   1.069   1.375   7.577 -0.0738  3.8024 -1.8766
 3781SOL    HW222980   0.965   1.357   7.682 -0.8059  1.0258  0.8462
 3782SOL     OW22981   3.190   2.703  10.074  0.4239 -0.0108  0.1496
 3782SOL    HW122982   3.242   2.775  10.110  0.9711  0.4364 -1.5825
 3782SOL    HW222983   3.178   2.739   9.987 -0.4344 -2.9542 -0.9699
 3783SOL     OW22984   1.927   4.397   1.668  0.5215  0.0015 -0.1526
 3783SOL    HW122985   1.949   4.305   1.651 -0.5825 -0.0722 -1.1314
 3783SOL    HW222986   1.897   4.410   1.758 -0.5424  0.0171 -0.5064
 3784SOL     OW22987   3.798   3.742   8.163 -0.2823 -0.4073 -0.5627
 3784SOL    HW122988   3.816   3.832   8.134  0.2727  0.2101  1.6860
 3784SOL    HW222989   3.789   3.692   8.082  0.5727 -1.7549  0.1708
 3785SOL     OW22990   0.888   3.180  16.128 -0.5860 -0.0614 -0.1001
 3785SOL    HW122991   0.938   3.122  16.071 -0.8301 -0.1089 -0.2655
 3785SOL    HW222992   0.896   3.268  16.090 -1.5920 -0.9450 -2.3940
 3786SOL     OW22993   0.588   1.702   6.125  0.2427 -0.2553 -0.2934
 3786SOL    HW122994   0.596   1.658   6.210 -1.5849  2.2473  1.1603
 3786SOL    HW222995   0.494   1.713   6.117  0.1636 -2.2270 -2.4652
 3787SOL     OW22996   3.501   2.374   4.593 -0.1805  0.1784  0.4633
 3787SOL    HW122997   3.444   2.305   4.627 -1.8032  2.2879  1.9944
 3787SOL    HW222998   3.582   2.325   4.605  0.2530  0.3898 -1.5059
 3788SOL     OW22999   1.008   0.990   6.404 -0.4400  0.1984  0.2823
 3788SOL    HW123000   0.946   0.956   6.467  1.1014  0.1726  1.7984
 3788SOL    HW223001   1.013   0.912   6.349  0.0174  0.2872  0.1968
 3789SOL     OW23002   4.612   3.417   4.592 -0.2138  0.2515  0.5016
 3789SOL    HW123003   4.671   3.374   4.530 -1.0321 -2.1506  1.3881
 3789SOL    HW223004   4.664   3.406   4.672  0.9428 -0.1225 -0.2976
 3790SOL     OW23005   0.695   1.244   6.933  0.5141 -1.0127  0.7061
 3790SOL    HW123006   0.784   1.239   6.899 -0.6151 -2.5847 -2.0694
 3790SOL    HW223007   0.702   1.330   6.973  1.1999  0.4553 -2.5476
 3791SOL     OW23008   3.988   0.154  15.888 -0.2546  0.4392  0.3298
 3791SOL    HW123009   3.989   0.160  15.792 -2.0433 -1.0155  0.2433
 3791SOL    HW223010   3.971   0.243  15.920 -0.4792 -0.2625  2.1098
 3792SOL     OW23011   1.720   1.867  14.785  0.7766 -0.0535  0.9693
 3792SOL    HW123012   1.656   1.812  14.830  1.0902 -0.4231  0.9632
 3792SOL    HW223013   1.702   1.852  14.693  0.5164  0.5646  0.9201
 3793SOL     OW23014   3.183   1.742   8.676 -0.0766 -0.5435  0.1839
 3793SOL    HW123015   3.102   1.720   8.630  1.4461 -3.6573 -0.9719
 3793SOL    HW223016   3.226   1.810   8.623 -0.7869 -0.7331 -0.6287
 3794SOL     OW23017   2.931   2.999   4.047  0.0141  0.5490  0.1026
 3794SOL    HW123018   2.978   3.069   4.002  0.8737 -0.9611 -1.3682
 3794SOL    HW223019   2.849   3.048   4.046 -0.0029  0.5685  2.2723
 3795SOL     OW23020   0.921   0.499   7.434 -0.4250  0.1865  0.6286
 3795SOL    HW123021   0.949   0.428   7.492  0.8191  2.6765  3.0629
 3795SOL    HW223022   0.831   0.504   7.464  0.0554 -2.0896  2.4115
 3796SOL     OW23023   4.037   4.276   5.448  0.3321  0.2659  0.2736
 3796SOL    HW123024   4.031   4.181   5.442  0.0669  0.0976  3.0057
 3796SOL    HW223025   3.984   4.306   5.374  0.2375 -1.2073 -0.2539
 3797SOL     OW23026   2.246   3.856   2.936  0.3286  0.3303 -0.0357
 3797SOL    HW123027   2.279   3.804   2.863  2.1469  0.6693  0.5441
 3797SOL    HW223028   2.242   3.941   2.891  3.1286  1.0026  0.9752
 3798SOL     OW23029   4.605   2.489   6.341  0.4996 -0.3253 -0.1584
 3798SOL    HW123030   4.533   2.550   6.351  1.2903  1.1001 -3.2642
 3798SOL    HW223031   4.670   2.532   6.396 -0.4861 -1.0923  1.6416
 3799SOL     OW23032   2.040   0.023   6.829 -0.1197 -0.1038 -0.2332
 3799SOL    HW123033   2.068   0.073   6.905 -0.4352  1.2940 -1.0451
 3799SOL    HW223034   2.040   0.094   6.765  0.6327  1.0251  1.0289
 3800SOL     OW23035   4.335   0.904  12.321 -1.0413  0.3644  0.2988
 3800SOL    HW123036   4.304   0.979  12.271 -1.5356 -0.7038 -1.0186
 3800SOL    HW223037   4.356   0.843  12.250 -2.1505  0.8028 -0.3947
 3801SOL     OW23038   0.237   4.636   2.342 -0.2111  0.2557  0.0366
 3801SOL    HW123039   0.172   4.641   2.272  2.2702 -1.3644 -2.3951
 3801SOL    HW223040   0.283   4.720   2.341 -1.3403  0.8497 -1.0056
 3802SOL     OW23041   4.049   3.847   2.003 -0.2105  0.9256 -0.5814
 3802SOL    HW123042   4.108   3.811   1.937 -0.2359 -1.1354  0.5389
 3802SOL    HW223043   3.968   3.867   1.956 -1.7098 -0.2505  1.4991
 3803SOL     OW23044   3.917   0.488   2.861  0.5332 -0.4384 -0.1665
 3803SOL    HW123045   3.974   0.444   2.798 -1.8899 -1.0369 -1.9486
 3803SOL    HW223046   3.857   0.532   2.800  1.2712 -2.1958 -2.1524
 3804SOL     OW23047   0.596   2.501   5.670  0.4594 -0.5812 -0.2447
 3804SOL    HW123048   0.563   2.588   5.695  0.3012 -0.3644 -1.1788
 3804SOL    HW223049   0.524   2.439   5.682  1.0898 -1.3730 -0.5704
 3805SOL     OW23050   4.231   1.186   5.460 -0.1377  0.7775 -0.2003
 3805SOL    HW123051   4.239   1.186   5.556 -0.1532 -0.2902 -0.2011
 3805SOL    HW223052   4.317   1.156   5.432 -0.7780 -0.7721 -0.4751
 3806SOL     OW23053   2.767   1.251   7.151 -0.2999  0.3079  0.2471
 3806SOL    HW123054   2.778   1.309   7.075  0.3873 -0.5577 -0.3275
 3806SOL    HW223055   2.692   1.199   7.123  0.3709 -0.3712 -0.2634
 3807SOL     OW23056   2.828   0.087   1.504 -0.0377 -0.0102 -0.0629
 3807SOL    HW123057   2.891   0.155   1.479 -0.4006  0.5992  0.6782
 3807SOL    HW223058   2.783   0.144   1.567  1.1340  1.5747 -0.6500
 3808SOL     OW23059   4.205   0.892   3.304  0.7197 -0.4282 -0.1354
 3808SOL    HW123060   4.233   0.808   3.267 -1.3121 -0.7497 -0.9231
 3808SOL    HW223061   4.214   0.955   3.233 -3.0655 -0.3727 -0.5887
 3809SOL     OW23062   0.287   1.294   4.869 -0.0665  0.6049 -0.1395
 3809SOL    HW123063   0.282   1.293   4.965 -0.2760 -0.8015 -0.1587
 3809SOL    HW223064   0.216   1.231   4.853 -1.6239  2.6087 -1.0709
 3810SOL     OW23065   0.765   1.420   4.738 -0.1781 -0.0423  0.4349
 3810SOL    HW123066   0.679   1.376   4.737 -1.3258  2.2042  0.4101
 3810SOL    HW223067   0.812   1.369   4.804  1.9111  0.1972 -0.8806
 3811SOL     OW23068   3.408   0.727   6.975  0.0820 -0.2339 -0.4772
 3811SOL    HW123069   3.388   0.701   7.065  1.6166 -0.4781 -0.1952
 3811SOL    HW223070   3.443   0.645   6.941  0.2601 -0.5437  0.4533
 3812SOL     OW23071   0.273   0.513   6.028 -0.2553  0.5313 -0.0567
 3812SOL    HW123072   0.282   0.453   5.955 -0.1325  1.1483 -0.5479
 3812SOL    HW223073   0.344   0.575   6.011  1.3009 -0.8961  1.1927
 3813SOL     OW23074   0.056   2.089  10.038 -0.0110 -0.0995  0.2781
 3813SOL    HW123075   4.719   2.054   9.987 -0.0294  1.4708 -0.7745
 3813SOL    HW223076   0.116   2.106   9.965 -1.2250 -2.7963 -1.3231
 3814SOL     OW23077   3.774   0.051   8.972 -0.2763 -0.4456  0.2496
 3814SOL    HW123078   3.709   0.008   8.917 -1.4827 -0.3179  1.5929
 3814SOL    HW223079   3.726   0.115   9.024  0.4751  0.3474 -0.0291
 3815SOL     OW23080   0.603   1.762   7.620  0.4995  0.5282  0.8140
 3815SOL    HW123081   0.657   1.711   7.559  0.3215  1.2189  0.0754
 3815SOL    HW223082   0.554   1.688   7.656 -2.0225  0.5622 -2.5179
 3816SOL     OW23083   1.908   1.507   3.051  0.0999  0.4400 -0.3744
 3816SOL    HW123084   1.815   1.483   3.051 -0.0114  0.8784 -2.1246
 3816SOL    HW223085   1.894   1.581   2.993  0.0082  0.1966 -0.6624
 3817SOL     OW23086   3.520   3.543   9.109 -0.0101 -0.2548  0.5365
 3817SOL    HW123087   3.494   3.460   9.069  1.5444  0.5803 -2.2134
 3817SOL    HW223088   3.589   3.511   9.167  0.2687 -1.4502 -0.4512
 3818SOL     OW23089   0.904   3.703   9.494  0.0805 -0.3268  0.8461
 3818SOL    HW123090   0.963   3.653   9.437 -2.2888  0.8477 -2.6396
 3818SOL    HW223091   0.950   3.787   9.500 -2.3039  1.1309 -1.6007
 3819SOL     OW23092   1.046   1.180   6.169 -0.7140 -0.1214  0.0148
 3819SOL    HW123093   1.054   1.133   6.252  2.1009  0.3183 -0.0128
 3819SOL    HW223094   0.997   1.123   6.110 -1.7227  1.4057 -0.6149
 3820SOL     OW23095   0.567   3.181  13.049 -0.5303  0.5731  0.0698
 3820SOL    HW123096   0.476   3.156  13.063  0.3401 -2.4736  0.3085
 3820SOL    HW223097   0.601   3.091  13.054 -0.1654  0.6196 -1.5531
 3821SOL     OW23098   2.446   2.437   3.549 -0.6572  0.2374  0.1207
 3821SOL    HW123099   2.475   2.499   3.482 -3.8938  1.0398 -0.5053
 3821SOL    HW223100   2.530   2.436   3.596 -1.4088 -2.2920  1.3649
 3822SOL     OW23101   2.454   0.834   1.798 -0.2681  0.4615  0.6054
 3822SOL    HW123102   2.509   0.777   1.744 -0.3744  1.2610 -0.3524
 3822SOL    HW223103   2.377   0.780   1.815 -0.9503  0.9988 -0.7407
 3823SOL     OW23104   4.623   2.375  16.417  0.2137  0.2238 -0.1215
 3823SOL    HW123105   4.579   2.291  16.430  0.9219 -0.1415 -0.0543
 3823SOL    HW223106   4.660   2.398  16.503 -0.0402 -1.2848  0.3873
 3824SOL     OW23107   2.136   0.726   2.159 -0.0944  0.2397  0.1898
 3824SOL    HW123108   2.153   0.810   2.202  1.2218  0.8213 -1.4494
 3824SOL    HW223109   2.043   0.734   2.139 -0.5066  0.1917  2.0932
 3825SOL     OW23110   1.778   1.316  16.609 -0.4807  0.2173  0.0717
 3825SOL    HW123111   1.848   1.345  16.551 -1.4586  2.6116  0.0559
 3825SOL    HW223112   1.817   1.241  16.654  2.2704  0.8567 -1.2345
 3826SOL     OW23113   3.488   0.350  15.998 -0.1826 -0.2740  0.1008
 3826SOL    HW123114   3.440   0.320  16.075  0.3675 -1.2610  0.0604
 3826SOL    HW223115   3.469   0.443  16.007  0.0718 -0.0449 -1.8046
 3827SOL     OW23116   1.180   3.552   7.620  0.1549 -0.6142  0.6849
 3827SOL    HW123117   1.179   3.537   7.714 -3.2235 -1.1536  0.5828
 3827SOL    HW223118   1.272   3.548   7.594 -0.6366 -0.4265 -2.2328
 3828SOL     OW23119   3.330   0.353   8.233 -0.3637  0.2680  0.1654
 3828SOL    HW123120   3.392   0.419   8.201  0.5498 -1.0593 -0.8161
 3828SOL    HW223121   3.279   0.413   8.287  1.5562  1.0034  1.1299
 3829SOL     OW23122   1.784   4.387   3.409  0.2873  0.0432  0.1720
 3829SOL    HW123123   1.764   4.300   3.374  0.2111  0.1037  0.0651
 3829SOL    HW223124   1.757   4.435   3.331  0.9775 -0.0546 -0.1230
 3830SOL     OW23125   2.654   2.415  11.176  0.3707 -0.0580 -0.1582
 3830SOL    HW123126   2.688   2.407  11.265 -0.1543 -0.0940  0.0384
 3830SOL    HW223127   2.626   2.507  11.177  0.1837 -0.1333  1.4724
 3831SOL     OW23128   1.418   0.254   8.031 -0.6728 -0.4884 -0.3565
 3831SOL    HW123129   1.447   0.310   8.103  3.8610  0.3195 -2.7811
 3831SOL    HW223130   1.333   0.292   8.009 -0.5632 -0.0677 -0.0619
 3832SOL     OW23131   0.368   1.184   1.979  0.0393 -0.2716 -0.3984
 3832SOL    HW123132   0.329   1.187   1.892  1.4481 -2.0381 -1.1007
 3832SOL    HW223133   0.434   1.115   1.971  0.0216 -0.1862 -1.2913
 3833SOL     OW23134   1.884   1.853  12.475  0.2500  0.0170  0.2580
 3833SOL    HW123135   1.872   1.943  12.445  2.7272  0.7596  1.5000
 3833SOL    HW223136   1.892   1.865  12.570 -1.5295  0.5758  0.3335
 3834SOL     OW23137   1.728   1.023  14.678 -0.1227  0.6884  0.4849
 3834SOL    HW123138   1.713   1.117  14.683 -1.4809  0.6105 -2.4145
 3834SOL    HW223139   1.658   0.991  14.621 -1.0615  1.8710  0.9542
 3835SOL     OW23140   4.332   3.656   2.791  0.4528  0.1896  0.4437
 3835SOL    HW123141   4.344   3.637   2.884 -2.3617 -1.7337  0.4369
 3835SOL    HW223142   4.415   3.613   2.769  0.6598  0.7730  0.0966
 3836SOL     OW23143   3.672   4.050   5.826  0.2719 -0.0678 -0.0318
 3836SOL    HW123144   3.595   3.992   5.825  1.1691 -1.2579 -2.8155
 3836SOL    HW223145   3.666   4.100   5.744 -1.0702 -1.1555 -0.6146
 3837SOL     OW23146   0.233   0.473   7.930  0.0040  0.4567 -0.0318
 3837SOL    HW123147   0.171   0.453   8.000  2.4679 -0.3691  1.9171
 3837SOL    HW223148   0.216   0.401   7.870 -0.1806 -0.2885  0.9233
 3838SOL     OW23149   4.359   1.617  16.975 -0.2848 -0.0084  0.4262
 3838SOL    HW123150   4.317   1.690  16.929  0.1016  1.7869  2.9067
 3838SOL    HW223151   4.361   1.545  16.911  1.6664 -1.1840  1.8282
 3839SOL     OW23152   4.511   3.982  14.191  0.6143 -0.1768 -0.0530
 3839SOL    HW123153   4.518   3.908  14.252 -0.1413 -2.5440 -2.8365
 3839SOL    HW223154   4.417   3.985  14.205  0.8670 -0.3000  1.6595
 3840SOL     OW23155   2.054   1.617  14.004  0.1015  0.7856  0.3073
 3840SOL    HW123156   2.062   1.561  14.081  0.5673  2.3884  1.4295
 3840SOL    HW223157   2.127   1.593  13.947 -1.1805 -1.7040 -0.2654
 3841SOL     OW23158   4.192   4.697   4.382 -0.1984  0.0139  0.1427
 3841SOL    HW123159   4.191   0.051   4.414 -0.3009  0.3291 -0.7413
 3841SOL    HW223160   4.235   4.650   4.453  0.7063 -1.6053 -1.4908
 3842SOL     OW23161   1.646   0.784   8.394 -0.1643 -0.0395 -0.0427
 3842SOL    HW123162   1.589   0.718   8.435  1.3408 -0.3805  1.5330
 3842SOL    HW223163   1.709   0.726   8.351  0.9853 -0.0181  1.6024
 3843SOL     OW23164   1.273   3.005   7.481 -0.1893 -0.6800  0.1411
 3843SOL    HW123165   1.252   2.987   7.389  0.6052 -0.9077 -0.0015
 3843SOL    HW223166   1.360   2.966   7.491 -0.3990 -1.2016 -0.0722
 3844SOL     OW23167   1.939   0.945   6.016  0.0700 -0.3302 -0.2118
 3844SOL    HW123168   1.905   0.856   6.006  2.3835 -1.1705 -0.5851
 3844SOL    HW223169   1.989   0.958   5.935 -1.2090 -0.4138 -1.0152
 3845SOL     OW23170   3.545   2.321   5.355 -0.0845  0.1894  0.2146
 3845SOL    HW123171   3.474   2.262   5.380  0.8727 -0.4719  1.3726
 3845SOL    HW223172   3.540   2.326   5.259  1.0095  0.4061  0.1628
 3846SOL     OW23173   0.702   4.121   9.836  0.0925 -0.6587 -0.2135
 3846SOL    HW123174   0.708   4.026   9.843 -1.0337 -0.6377  0.8949
 3846SOL    HW223175   0.687   4.134   9.742 -0.5529 -0.2004 -0.0464
 3847SOL     OW23176   0.031   0.970  17.175  0.9143 -0.1187 -0.2151
 3847SOL    HW123177   4.720   0.952  17.256  2.5891 -0.5384  0.6696
 3847SOL    HW223178   0.010   0.905  17.107 -2.1530  0.1958  0.4499
 3848SOL     OW23179   1.733   1.573  17.502  0.1884 -0.0891  0.6923
 3848SOL    HW123180   1.788   1.527  17.565  0.6140  0.6658  0.8772
 3848SOL    HW223181   1.651   1.524  17.496 -0.3413  0.8065  0.5894
 3849SOL     OW23182   0.753   1.988   6.569  0.0710  0.7168 -0.5758
 3849SOL    HW123183   0.817   2.059   6.574  0.6618 -0.0019  2.3527
 3849SOL    HW223184   0.703   2.015   6.492 -0.4858 -1.4506 -0.9908
 3850SOL     OW23185   3.771   3.755   5.954  0.0808  0.1822 -0.8406
 3850SOL    HW123186   3.693   3.700   5.961 -0.1615  0.6371  0.0326
 3850SOL    HW223187   3.757   3.818   5.884  0.9016  2.3495  0.9513
 3851SOL     OW23188   1.294   1.595  10.668  0.3977  0.4522  0.1920
 3851SOL    HW123189   1.211   1.636  10.642 -0.4898 -2.1212 -1.0013
 3851SOL    HW223190   1.266   1.547  10.746  3.2783  0.6028  1.3201
 3852SOL     OW23191   0.960   2.795  16.275 -0.0786 -0.3965 -0.1976
 3852SOL    HW123192   0.906   2.756  16.344 -0.8322 -1.3484 -1.3151
 3852SOL    HW223193   0.919   2.881  16.273 -0.6574 -0.6484  0.7167
 3853SOL     OW23194   0.991   4.054   7.478 -0.1244  0.6770 -0.4280
 3853SOL    HW123195   1.011   4.107   7.556 -0.6191  0.5922 -0.2444
 3853SOL    HW223196   1.070   4.063   7.424 -1.1925 -0.7943 -2.2357
 3854SOL     OW23197   3.618   1.490   5.594 -0.3346  0.2668  0.1133
 3854SOL    HW123198   3.573   1.524   5.516  0.7238  0.5605 -0.3593
 3854SOL    HW223199   3.540   1.461   5.642  0.0228 -0.4901  0.2298
 3855SOL     OW23200   4.349   1.323  12.249 -0.2457  0.8790 -0.5954
 3855SOL    HW123201   4.298   1.243  12.233 -0.7135  0.2835  3.9107
 3855SOL    HW223202   4.332   1.344  12.340  1.9077  1.9553 -0.4543
 3856SOL     OW23203   3.541   0.084  15.188  0.0820 -0.1122 -0.0009
 3856SOL    HW123204   3.472   0.047  15.244 -2.6217  2.9950 -1.2903
 3856SOL    HW223205   3.566   0.165  15.232 -2.0053 -0.1799  1.2860
 3857SOL     OW23206   1.457   2.783   9.493  0.2838 -0.3942 -0.1602
 3857SOL    HW123207   1.373   2.747   9.521  0.8006 -0.8378  0.8127
 3857SOL    HW223208   1.479   2.823   9.577 -1.3281  0.7236 -0.2578
 3858SOL     OW23209   1.848   1.366  10.681  0.7958  0.0812 -0.0191
 3858SOL    HW123210   1.763   1.406  10.701  2.4896  2.7854  1.7390
 3858SOL    HW223211   1.829   1.280  10.645  0.7718 -0.1830  0.6270
 3859SOL     OW23212   1.605   3.278  11.759  0.2911 -0.3727  0.1490
 3859SOL    HW123213   1.640   3.328  11.834  0.9095  0.4071 -0.6637
 3859SOL    HW223214   1.582   3.345  11.695  1.1660 -0.2694 -0.0562
 3860SOL     OW23215   1.488   0.074  10.279 -0.0054 -0.2958  0.2653
 3860SOL    HW123216   1.482   0.000  10.339 -0.7708  0.9531  1.7259
 3860SOL    HW223217   1.435   0.047  10.204 -0.3984  1.7754 -0.2054
 3861SOL     OW23218   1.128   4.261   4.747 -0.1688  0.2119 -0.1552
 3861SOL    HW123219   1.166   4.186   4.700 -0.0024  0.1359  0.1005
 3861SOL    HW223220   1.081   4.217   4.818 -2.0297 -0.3144 -1.7074
 3862SOL     OW23221   4.450   3.643   3.791  0.4143 -0.2645  0.1242
 3862SOL    HW123222   4.444   3.666   3.883  0.6410 -0.7983  0.2693
 3862SOL    HW223223   4.501   3.716   3.757 -2.7549  1.7454 -0.3220
 3863SOL     OW23224   4.687   1.747   6.680 -0.4365  0.1921  0.2275
 3863SOL    HW123225   4.645   1.686   6.741  1.2325 -1.1349  0.0347
 3863SOL    HW223226   4.644   1.822   6.723  0.4664  0.7197  0.2037
 3864SOL     OW23227   2.846   1.533   2.613  0.4774 -0.2338  0.4814
 3864SOL    HW123228   2.837   1.602   2.679 -0.8930  1.3857 -1.4181
 3864SOL    HW223229   2.941   1.522   2.610  0.4792 -0.0498 -0.2070
 3865SOL     OW23230   2.719   2.977   0.595  0.7728 -0.2574  0.2562
 3865SOL    HW123231   2.803   2.972   0.550  0.9264  0.3479  0.4734
 3865SOL    HW223232   2.673   2.906   0.550 -0.6191  1.6040 -1.2327
 3866SOL     OW23233   0.138   2.658   9.334  0.5081  0.1653 -0.2384
 3866SOL    HW123234   0.044   2.641   9.334  0.1720  2.0006 -2.7093
 3866SOL    HW223235   0.160   2.698   9.418 -1.7796  1.9749 -0.5193
 3867SOL     OW23236   0.818   2.570   5.904 -0.0771  0.6447  0.1583
 3867SOL    HW123237   0.883   2.629   5.944  0.8275 -1.1564  1.3271
 3867SOL    HW223238   0.792   2.627   5.832 -0.3664 -0.7932 -0.8659
 3868SOL     OW23239   1.930   3.324   3.915  0.4366  0.2812  0.3047
 3868SOL    HW123240   1.836   3.312   3.901  0.8604 -1.0349 -1.4015
 3868SOL    HW223241   1.927   3.353   4.006  0.9421  2.2652 -0.2957
 3869SOL     OW23242   0.837   3.750   8.199  0.6182  0.3753 -0.3081
 3869SOL    HW123243   0.785   3.792   8.268  1.7040  1.9967 -0.4643
 3869SOL    HW223244   0.833   3.665   8.241 -0.8129 -0.7273 -2.6847
 3870SOL     OW23245   4.461   1.409   3.282 -0.3100  0.0156  0.4634
 3870SOL    HW123246   4.501   1.325   3.259  0.6534 -0.1216  2.6250
 3870SOL    HW223247   4.525   1.458   3.334 -0.0401  0.2687 -0.1072
 3871SOL     OW23248   2.733   3.689   3.649 -0.9427  0.7735  0.0222
 3871SOL    HW123249   2.711   3.747   3.722 -0.5003 -0.5310  1.1909
 3871SOL    HW223250   2.826   3.677   3.667 -0.4433  2.2341 -1.5840
 3872SOL     OW23251   3.856   3.857   7.433  0.3429  0.0617  0.3952
 3872SOL    HW123252   3.880   3.807   7.356 -1.6308 -0.2081 -0.0598
 3872SOL    HW223253   3.851   3.788   7.499  0.2664 -0.9842 -0.7039
 3873SOL     OW23254   0.674   4.449   6.686 -0.4462 -0.1931  0.0458
 3873SOL    HW123255   0.675   4.456   6.590  2.5819 -0.8534  0.0469
 3873SOL    HW223256   0.705   4.360   6.701  0.2456  0.4054  2.1502
 3874SOL     OW23257   1.166   1.974   6.986  0.5504 -0.0229 -0.2433
 3874SOL    HW123258   1.137   2.052   6.939 -2.0019 -0.5203  0.5512
 3874SOL    HW223259   1.125   1.906   6.932 -0.6793  1.2319 -0.9087
 3875SOL     OW23260   3.589   2.754   2.426 -0.2964 -0.0482  0.2437
 3875SOL    HW123261   3.508   2.791   2.461 -0.1802 -0.8382  1.3553
 3875SOL    HW223262   3.593   2.812   2.350 -1.5521  0.7013  0.7402
 3876SOL     OW23263   2.702   0.101   3.943 -0.7146 -0.0135 -0.0225
 3876SOL    HW123264   2.670   0.134   3.859 -0.1907  1.2304  0.2661
 3876SOL    HW223265   2.638   0.034   3.969 -1.0790  0.1672 -0.4561
 3877SOL     OW23266   3.231   2.969  16.392  0.1458 -0.0613 -0.8475
 3877SOL    HW123267   3.161   2.953  16.329  0.8028 -0.7292 -1.4196
 3877SOL    HW223268   3.188   3.038  16.441 -1.2035 -0.2017 -1.8249
 3878SOL     OW23269   0.394   2.352   6.371  0.2220 -0.0275  0.6473
 3878SOL    HW123270   0.377   2.446   6.383 -0.8849 -0.1549  0.1548
 3878SOL    HW223271   0.453   2.361   6.296  0.2980  0.9224  0.8181
 3879SOL     OW23272   3.526   3.355  17.387  0.1137 -0.2712 -0.3978
 3879SOL    HW123273   3.475   3.436  17.391  1.4172  0.5448 -0.3636
 3879SOL    HW223274   3.604   3.387  17.341  0.1006 -0.0956 -0.2994
 3880SOL     OW23275   1.291   4.426   4.488 -0.6464  0.3439  0.0361
 3880SOL    HW123276   1.208   4.414   4.443 -1.0631  0.5723  0.7451
 3880SOL    HW223277   1.272   4.503   4.543  1.2926 -0.7013  2.1760
 3881SOL     OW23278   3.906   3.402  11.148 -0.2601 -0.2147  0.3099
 3881SOL    HW123279   3.882   3.439  11.233 -3.0134 -1.1161 -0.0837
 3881SOL    HW223280   3.852   3.462  11.097 -0.4885  0.1248  0.9535
 3882SOL     OW23281   0.830   1.020  17.577 -0.7184 -0.0899 -0.0793
 3882SOL    HW123282   0.772   0.944  17.576  0.0170 -0.6615  0.6221
 3882SOL    HW223283   0.784   1.095  17.539  0.9701 -0.5770 -3.0840
 3883SOL     OW23284   1.546   3.880  17.398  0.0422 -0.2903  0.4939
 3883SOL    HW123285   1.538   3.915  17.310  1.8876  0.1719  0.5068
 3883SOL    HW223286   1.456   3.877  17.429 -0.3869  0.2596 -0.7028
 3884SOL     OW23287   2.419   4.731   8.430  0.6438  0.0568  0.3738
 3884SOL    HW123288   2.348   0.039   8.477 -0.4671 -2.9235  1.5167
 3884SOL    HW223289   2.475   0.070   8.411  1.5168 -0.3530  1.3138
 3885SOL     OW23290   2.288   0.161   5.693  0.2943  0.0606 -0.4933
 3885SOL    HW123291   2.214   0.154   5.634  0.9503 -1.1040 -1.1776
 3885SOL    HW223292   2.343   0.089   5.659  0.5002 -1.1091  2.3016
 3886SOL     OW23293   2.646   0.490   4.777  0.0889 -0.0529 -0.3975
 3886SOL    HW123294   2.684   0.508   4.863 -3.0361  2.0080  0.5535
 3886SOL    HW223295   2.620   0.577   4.747  0.6979  0.0994 -0.4830
 3887SOL     OW23296   2.642   2.365  15.172  0.5571 -0.1042 -0.3458
 3887SOL    HW123297   2.556   2.357  15.130 -0.2693 -0.8399  1.4791
 3887SOL    HW223298   2.619   2.353  15.264 -3.7261 -0.4470 -1.4615
 3888SOL     OW23299   3.316   2.576   5.497 -0.1664  0.9104 -0.0165
 3888SOL    HW123300   3.273   2.499   5.534 -0.7932  1.4633  0.4081
 3888SOL    HW223301   3.235   2.626   5.486 -0.6990  0.1857  0.6314
 3889SOL     OW23302   0.972   3.010   2.323 -0.5463  0.3739  0.2558
 3889SOL    HW123303   0.890   3.027   2.369 -1.7292 -0.7075 -1.4377
 3889SOL    HW223304   0.936   2.984   2.238 -0.8431 -1.0913  0.8350
 3890SOL     OW23305   3.042   2.646  12.550  0.3898 -0.0029  0.5058
 3890SOL    HW123306   3.039   2.741  12.560  0.7797  0.2981 -2.1785
 3890SOL    HW223307   2.989   2.637  12.471 -1.0868 -0.9355  1.6197
 3891SOL     OW23308   4.211   1.041   3.750 -0.3831 -0.2786  0.0185
 3891SOL    HW123309   4.260   0.994   3.682 -1.1582 -0.1262 -0.6397
 3891SOL    HW223310   4.134   1.071   3.702 -0.1642  1.6308  0.8756
 3892SOL     OW23311   4.385   3.306  11.546 -0.3977 -0.1917 -0.2242
 3892SOL    HW123312   4.371   3.258  11.465  2.8229 -2.1757  0.3871
 3892SOL    HW223313   4.414   3.392  11.516  0.9970 -0.5957 -0.0088
 3893SOL     OW23314   2.954   0.258   3.566 -0.5212  0.2095  0.4361
 3893SOL    HW123315   2.996   0.267   3.480 -0.9128 -0.9264  0.1289
 3893SOL    HW223316   3.022   0.216   3.619 -0.6833  0.7347  1.0637
 3894SOL     OW23317   1.754   3.137   2.474  1.2850  0.1484 -0.2678
 3894SOL    HW123318   1.770   3.223   2.434 -0.2744 -0.1186 -1.4774
 3894SOL    HW223319   1.827   3.134   2.536  0.1281  0.2038  1.0948
 3895SOL     OW23320   4.371   3.869   9.217  0.1125  0.4473 -0.4879
 3895SOL    HW123321   4.450   3.826   9.248 -0.6088 -1.5836 -1.4957
 3895SOL    HW223322   4.368   3.949   9.271 -0.6841  1.2090 -1.6593
 3896SOL     OW23323   1.241   1.917   2.711 -0.1957 -0.0909 -0.1771
 3896SOL    HW123324   1.214   2.007   2.728 -0.8176 -0.1770 -0.7115
 3896SOL    HW223325   1.266   1.926   2.619 -1.6730  0.7394 -0.4989
 3897SOL     OW23326   0.513   0.306   2.412  0.0587  0.0697 -0.1473
 3897SOL    HW123327   0.425   0.275   2.389  0.3184 -0.8734  0.1241
 3897SOL    HW223328   0.531   0.370   2.344 -1.8872 -0.2520 -0.9639
 3898SOL     OW23329   3.002   1.828  13.747 -0.2023 -0.2812  0.6119
 3898SOL    HW123330   3.029   1.904  13.799  0.4431 -1.0977  1.4553
 3898SOL    HW223331   3.074   1.833  13.683 -0.3427 -4.1154  0.1619
 3899SOL     OW23332   1.219   0.459   3.975 -0.4038 -0.2011  0.2985
 3899SOL    HW123333   1.158   0.456   4.049 -3.6109 -1.2569 -2.3609
 3899SOL    HW223334   1.158   0.449   3.901  2.0951 -0.5860 -1.7339
 3900SOL     OW23335   0.421   3.554   8.027  0.2156 -0.2665  0.3449
 3900SOL    HW123336   0.463   3.506   8.098  0.3034 -3.6398 -1.9918
 3900SOL    HW223337   0.442   3.644   8.050 -0.6393  0.0827 -0.2511
 3901SOL     OW23338   0.826   2.524   9.593 -0.3589 -0.5650 -0.3426
 3901SOL    HW123339   0.809   2.435   9.562  2.3389 -0.9242 -0.7791
 3901SOL    HW223340   0.850   2.566   9.510 -0.7282 -0.9414 -0.6448
 3902SOL     OW23341   4.050   4.637  16.591 -0.3990  0.4696 -0.2411
 3902SOL    HW123342   4.002   4.601  16.517  0.8994 -0.7464 -0.4992
 3902SOL    HW223343   4.058   4.729  16.565  0.2576 -0.4255 -3.1404
 3903SOL     OW23344   4.028   2.727  12.889  0.8191 -0.0948 -0.0772
 3903SOL    HW123345   4.011   2.813  12.926 -1.5450 -0.3911 -0.5122
 3903SOL    HW223346   4.091   2.757  12.824 -1.3863  0.9872 -1.6855
 3904SOL     OW23347   0.951   4.720   5.844  0.0610 -0.0217 -0.2521
 3904SOL    HW123348   0.862   4.718   5.880  0.5340 -0.2753  0.8954
 3904SOL    HW223349   0.933   0.001   5.751 -1.2709  2.4541  0.4589
 3905SOL     OW23350   3.712   4.593   7.304  0.4939  0.1162 -0.0382
 3905SOL    HW123351   3.648   4.628   7.242 -1.2845 -2.9950  0.0107
 3905SOL    HW223352   3.777   4.560   7.242 -1.0259  0.3421 -1.7851
 3906SOL     OW23353   1.960   4.319  15.374 -0.1455 -0.4077  0.1959
 3906SOL    HW123354   1.919   4.261  15.439  0.6195 -1.2689 -0.0870
 3906SOL    HW223355   1.884   4.367  15.342  1.5753 -0.2674 -3.6473
 3907SOL     OW23356   3.363   1.663   3.033  0.3248  0.3202  0.1814
 3907SOL    HW123357   3.318   1.578   3.029  0.1053  0.4494 -0.0525
 3907SOL    HW223358   3.357   1.692   2.942 -0.4585 -0.4189 -0.0043
 3908SOL     OW23359   3.149   2.761  14.771  0.0453 -0.6307  0.5221
 3908SOL    HW123360   3.207   2.820  14.819  0.5342 -0.4338 -0.3111
 3908SOL    HW223361   3.074   2.758  14.830  1.6017 -2.0053  2.4401
 3909SOL     OW23362   4.301   2.184   4.372 -0.0773  0.5101  0.2815
 3909SOL    HW123363   4.376   2.174   4.314 -1.2629  0.6569 -1.2740
 3909SOL    HW223364   4.351   2.194   4.454  1.2290 -0.5576 -0.3860
 3910SOL     OW23365   1.441   3.804   6.957 -0.2684 -0.4946 -0.3906
 3910SOL    HW123366   1.412   3.714   6.941 -1.3044 -0.0572 -1.0593
 3910SOL    HW223367   1.363   3.848   6.922 -0.0271 -0.4522 -0.8750
 3911SOL     OW23368   0.018   4.543   8.069  0.9263 -0.1878  0.1757
 3911SOL    HW123369   4.735   4.523   7.978 -1.2607 -2.1408  1.0586
 3911SOL    HW223370   0.002   4.454   8.100 -1.1340 -0.3995 -1.4685
 3912SOL     OW23371   0.244   3.215   2.096  0.1151  0.5908 -0.1186
 3912SOL    HW123372   0.149   3.206   2.101  0.0146  1.7869  0.2379
 3912SOL    HW223373   0.261   3.266   2.017  0.9819  0.1706 -0.2033
 3913SOL     OW23374   0.646   0.700   3.667  0.1911 -0.0334 -0.7358
 3913SOL    HW123375   0.590   0.641   3.617  0.5566  0.2379 -1.4704
 3913SOL    HW223376   0.586   0.773   3.677  0.6067  0.1744  0.2820
 3914SOL     OW23377   1.823   3.766   4.809  0.2146 -0.1300 -0.1454
 3914SOL    HW123378   1.851   3.848   4.770 -2.1371  0.9907  0.5147
 3914SOL    HW223379   1.892   3.752   4.873  0.0251  1.6227  0.4438
 3915SOL     OW23380   2.596   4.355  13.646  0.3632  0.5116  0.0940
 3915SOL    HW123381   2.636   4.372  13.731  2.8529  0.8009 -1.1321
 3915SOL    HW223382   2.567   4.443  13.621  0.3844  1.5180  3.5821
 3916SOL     OW23383   3.607   1.758   1.849 -0.0365 -0.3884 -0.4734
 3916SOL    HW123384   3.636   1.670   1.876  0.7603  0.1810  0.5242
 3916SOL    HW223385   3.550   1.777   1.924  0.2935  0.6837 -0.5044
 3917SOL     OW23386   2.444   3.540   9.558  0.9361 -0.6624  0.0941
 3917SOL    HW123387   2.418   3.631   9.545  0.2927 -0.6447  1.4616
 3917SOL    HW223388   2.413   3.497   9.478 -0.8148  1.1934 -0.2378
 3918SOL     OW23389   4.486   2.072   4.573  0.3166 -0.0082  0.4750
 3918SOL    HW123390   4.538   2.069   4.493  0.5505  1.4852  0.5691
 3918SOL    HW223391   4.563   2.068   4.630  0.1181 -2.7030  0.5668
 3919SOL     OW23392   2.392   3.661   5.973 -0.6424 -0.5760  0.1325
 3919SOL    HW123393   2.330   3.711   5.920 -1.2522  0.1152  1.4865
 3919SOL    HW223394   2.457   3.722   6.007  0.4902 -1.4291 -0.4953
 3920SOL     OW23395   1.815   1.412   1.047 -0.1633  0.0157  0.4532
 3920SOL    HW123396   1.751   1.476   1.016  0.1728 -0.6721 -1.6559
 3920SOL    HW223397   1.829   1.438   1.138  1.3233 -3.7104  1.3106
 3921SOL     OW23398   1.403   3.901  16.536  0.3125 -0.3066  0.0437
 3921SOL    HW123399   1.498   3.918  16.535  0.1040  0.9592  1.3888
 3921SOL    HW223400   1.392   3.895  16.441 -0.0329  0.5389  0.0311
 3922SOL     OW23401   2.389   1.126   0.873  0.3397 -0.5442 -0.1257
 3922SOL    HW123402   2.309   1.172   0.847  0.1976 -0.9781 -0.4652
 3922SOL    HW223403   2.409   1.073   0.796 -0.6887 -1.0929 -0.0283
 3923SOL     OW23404   0.319   0.527  16.166 -0.4969  0.0545  0.4919
 3923SOL    HW123405   0.386   0.560  16.105 -0.2297 -0.3198  0.5782
 3923SOL    HW223406   0.352   0.441  16.191 -0.1983  0.0665  0.1469
 3924SOL     OW23407   1.694   1.857   2.720  0.2305 -0.3427  0.0972
 3924SOL    HW123408   1.696   1.944   2.678 -1.7598 -0.0606  0.6308
 3924SOL    HW223409   1.602   1.831   2.720 -0.3490  1.6961  1.9275
 3925SOL     OW23410   4.660   1.230   2.627  0.4857 -0.1336 -0.1313
 3925SOL    HW123411   4.715   1.152   2.626  0.8142  0.1040 -0.8270
 3925SOL    HW223412   4.721   1.304   2.627  0.5250 -0.1639  0.1564
 3926SOL     OW23413   0.772   1.567  16.149  0.1432 -0.5686 -0.1206
 3926SOL    HW123414   0.684   1.531  16.136 -0.9882  1.9236  0.7756
 3926SOL    HW223415   0.795   1.529  16.234  2.2849 -0.6500 -0.7224
 3927SOL     OW23416   3.562   1.980   3.604 -0.5847 -0.1070  0.2650
 3927SOL    HW123417   3.590   1.908   3.547  1.7292  1.4920 -0.6124
 3927SOL    HW223418   3.497   1.924   3.645  0.4836 -1.7290 -0.2529
 3928SOL     OW23419   2.504   1.828   3.989 -0.3438  0.5652 -0.1366
 3928SOL    HW123420   2.479   1.746   3.946 -0.3152  0.7701 -0.5458
 3928SOL    HW223421   2.424   1.863   4.027 -0.2831  2.2975 -1.6087
 3929SOL     OW23422   2.839   0.571  13.463 -0.4919  0.5087 -0.0560
 3929SOL    HW123423   2.774   0.526  13.409 -0.3581  1.0681 -0.6928
 3929SOL    HW223424   2.788   0.568  13.544 -1.0493  0.1031 -0.4244
 3930SOL     OW23425   2.882   0.864  17.685 -0.4974  0.2796 -0.4561
 3930SOL    HW123426   2.849   0.953  17.695  0.7277  0.7332 -0.4472
 3930SOL    HW223427   2.975   0.885  17.687 -0.6145  0.8701 -1.3227
 3931SOL     OW23428   1.171   2.722   9.005  0.2941 -0.3961  0.2538
 3931SOL    HW123429   1.134   2.730   8.916  0.4879 -0.1417  0.1963
 3931SOL    HW223430   1.137   2.799   9.051 -0.4304 -0.6876  0.2083
 3932SOL     OW23431   2.124   4.735  16.167  0.1985  0.2820  0.1732
 3932SOL    HW123432   2.060   4.671  16.196 -0.5262  0.3876 -1.2204
 3932SOL    HW223433   2.110   0.077  16.222  0.4015  1.1802 -1.0546
 3933SOL     OW23434   1.791   2.758   9.362 -0.2157  0.1623 -0.1828
 3933SOL    HW123435   1.775   2.717   9.447 -2.1335 -0.4767 -0.8496
 3933SOL    HW223436   1.873   2.795   9.392  0.8284 -0.2068 -2.6177
 3934SOL     OW23437   4.693   1.398   8.892 -0.1686  0.4900 -0.2021
 3934SOL    HW123438   4.608   1.382   8.933  0.8311  0.5416  1.8548
 3934SOL    HW223439   4.726   1.308   8.897 -1.7645 -0.0774  0.3073
 3935SOL     OW23440   3.246   0.232   2.679  0.7842 -0.1480  0.2329
 3935SOL    HW123441   3.183   0.160   2.686  0.6148  0.2467  2.8517
 3935SOL    HW223442   3.313   0.202   2.618 -0.6090 -0.9534 -0.8942
 3936SOL     OW23443   3.265   0.415   2.884  0.2376  0.5299  0.0699
 3936SOL    HW123444   3.260   0.508   2.862 -0.5701 -0.0189 -2.0617
 3936SOL    HW223445   3.256   0.364   2.803 -0.4553  1.3209 -0.3539
 3937SOL     OW23446   2.419   1.601   2.137  0.1261 -0.5744  0.0163
 3937SOL    HW123447   2.352   1.537   2.164 -0.1769  0.6006  2.0493
 3937SOL    HW223448   2.363   1.652   2.079 -2.1359 -2.0350  0.8786
 3938SOL     OW23449   2.010   3.739   2.647 -0.1496 -0.2462 -0.3043
 3938SOL    HW123450   2.050   3.672   2.702  0.9711  2.1889  1.8229
 3938SOL    HW223451   1.955   3.786   2.709 -2.0938 -0.6456 -1.6969
 3939SOL     OW23452   3.699   0.288  15.322 -0.0861 -0.0471  0.0209
 3939SOL    HW123453   3.789   0.256  15.316  0.3447  1.3080 -0.8136
 3939SOL    HW223454   3.691   0.313  15.414  0.3717  0.1364  0.0111
 3940SOL     OW23455   0.467   0.142   0.654  0.4603  0.0501 -0.3987
 3940SOL    HW123456   0.447   0.235   0.645 -0.8777 -0.1596  0.5568
 3940SOL    HW223457   0.485   0.119   0.563  0.7576  0.8542 -0.5424
 3941SOL     OW23458   3.258   0.239  16.582 -0.1001 -0.3548  0.4184
 3941SOL    HW123459   3.292   0.180  16.650 -2.2057 -1.0298  0.9041
 3941SOL    HW223460   3.181   0.287  16.613 -1.4128 -0.9112 -2.0087
 3942SOL     OW23461   1.891   4.526  11.887 -0.0286  0.4048  0.1382
 3942SOL    HW123462   1.849   4.604  11.923  0.3911 -0.4718  2.5151
 3942SOL    HW223463   1.984   4.548  11.883  0.3822 -1.3761 -0.2106
 3943SOL     OW23464   1.009   4.176   4.367 -0.1759 -0.2698 -0.4964
 3943SOL    HW123465   0.962   4.192   4.449 -0.3094  0.3413 -0.6940
 3943SOL    HW223466   0.999   4.256   4.317 -0.3771 -0.1299 -0.2343
 3944SOL     OW23467   0.826   1.979   9.074 -0.6235  0.0312  0.4919
 3944SOL    HW123468   0.828   1.954   8.981  1.2586  0.7830  0.3205
 3944SOL    HW223469   0.827   2.073   9.057  2.3826  0.0003  0.4969
 3945SOL     OW23470   0.574   2.605   7.479 -0.0561  0.6500 -0.2365
 3945SOL    HW123471   0.522   2.680   7.508  0.7402  1.5861 -1.2332
 3945SOL    HW223472   0.504   2.540   7.468 -0.8398  1.6518 -1.1754
 3946SOL     OW23473   1.760   4.421   7.532 -0.2807 -0.7873  0.3270
 3946SOL    HW123474   1.792   4.415   7.622 -2.4566 -0.5231  1.0969
 3946SOL    HW223475   1.676   4.465   7.532  0.6912  1.1030 -2.1064
 3947SOL     OW23476   2.242   4.396   7.995 -0.3008 -0.1725  0.1573
 3947SOL    HW123477   2.186   4.465   8.031  1.6421  1.7651 -0.5826
 3947SOL    HW223478   2.326   4.441   7.985 -1.3243  1.7441  0.1023
 3948SOL     OW23479   4.375   2.318   8.251 -0.0057 -0.1786 -0.4579
 3948SOL    HW123480   4.383   2.336   8.345  1.6695  1.8392 -0.9971
 3948SOL    HW223481   4.395   2.402   8.211  1.7268  0.2604  1.3427
 3949SOL     OW23482   3.744   2.552   5.702  0.6598  0.2647 -0.5741
 3949SOL    HW123483   3.678   2.550   5.633 -2.5476 -0.8472  2.5341
 3949SOL    HW223484   3.793   2.474   5.673  0.3617  0.4652 -1.6098
 3950SOL     OW23485   4.351   2.896   1.594 -0.3094 -0.3128 -0.2849
 3950SOL    HW123486   4.336   2.897   1.688  0.0353 -1.7665 -0.2117
 3950SOL    HW223487   4.401   2.975   1.574 -1.4549  0.8362  1.3683
 3951SOL     OW23488   3.472   3.209   8.481 -0.0427 -0.0489 -0.4284
 3951SOL    HW123489   3.407   3.279   8.482  0.7436  0.6831 -0.3203
 3951SOL    HW223490   3.494   3.193   8.389  0.4545  1.8508 -0.6390
 3952SOL     OW23491   2.494   1.697   5.528  0.0324 -0.2362  0.3655
 3952SOL    HW123492   2.416   1.664   5.573 -0.2438 -0.2808 -0.1507
 3952SOL    HW223493   2.520   1.633   5.462 -0.6445 -1.4587  1.2753
 3953SOL     OW23494   2.207   3.620   9.889 -0.0814 -0.1637 -0.2477
 3953SOL    HW123495   2.130   3.615   9.832  0.3463 -1.3658 -0.7248
 3953SOL    HW223496   2.180   3.571   9.967  0.3714  2.0584  1.2977
 3954SOL     OW23497   1.448   4.181   1.923 -0.7955 -0.1059 -0.1702
 3954SOL    HW123498   1.470   4.210   1.835 -0.8156  1.8063  0.4704
 3954SOL    HW223499   1.522   4.211   1.976 -0.5483  3.7713 -2.7190
 3955SOL     OW23500   0.785   4.244   5.886  0.4417  0.2266 -0.1665
 3955SOL    HW123501   0.779   4.200   5.802  0.4075  1.5944 -0.8747
 3955SOL    HW223502   0.774   4.174   5.950 -0.6907 -0.2587 -0.9138
 3956SOL     OW23503   4.604   1.035   2.247  0.4913  0.3221 -0.3212
 3956SOL    HW123504   4.599   1.116   2.197  2.3695 -0.3938 -1.6194
 3956SOL    HW223505   4.533   1.041   2.311  0.1670 -0.2696 -0.6225
 3957SOL     OW23506   3.303   1.021  14.261 -0.2261  0.3663  0.2508
 3957SOL    HW123507   3.215   0.993  14.236  0.5231  0.5482 -2.6331
 3957SOL    HW223508   3.314   1.108  14.223  0.5547 -0.6321 -1.7928
 3958SOL     OW23509   3.864   0.892   7.261 -0.0363 -0.2398  0.0174
 3958SOL    HW123510   3.881   0.970   7.209  0.4758 -0.9973 -0.9594
 3958SOL    HW223511   3.906   0.917   7.343  3.0331 -2.3919 -0.8413
 3959SOL     OW23512   4.732   2.063  14.824  0.0505  0.0852  0.2547
 3959SOL    HW123513   4.730   2.156  14.843 -0.6169 -0.2152  1.6434
 3959SOL    HW223514   0.023   2.054  14.733  0.5059  1.1602  0.2874
 3960SOL     OW23515   3.710   3.302   7.879 -0.6027 -0.0849 -0.1739
 3960SOL    HW123516   3.709   3.206   7.876  0.8469 -0.1273  0.8688
 3960SOL    HW223517   3.778   3.315   7.945 -1.2404  2.5094 -0.0370
 3961SOL     OW23518   2.161   0.980   4.237  0.0614  0.8578 -0.0863
 3961SOL    HW123519   2.251   0.974   4.269  0.2736  2.5869 -0.3664
 3961SOL    HW223520   2.117   0.896   4.248  2.4455 -0.2169  1.1882
 3962SOL     OW23521   1.346   4.567   8.815  0.0604  0.6737  0.4829
 3962SOL    HW123522   1.275   4.506   8.836 -1.0389  1.0522 -2.2719
 3962SOL    HW223523   1.373   4.596   8.902  2.0093 -0.3643  0.2269
 3963SOL     OW23524   1.741   0.300   5.385 -0.2830 -0.1820  0.4476
 3963SOL    HW123525   1.830   0.292   5.352  0.0514  3.3117  0.4513
 3963SOL    HW223526   1.694   0.313   5.302 -1.2441 -2.8249  0.5638
 3964SOL     OW23527   0.113   4.181   6.306  0.3639  0.7045  0.2476
 3964SOL    HW123528   0.058   4.180   6.384 -0.6970 -1.1498 -0.5087
 3964SOL    HW223529   0.199   4.166   6.344  1.2494  0.6872 -1.7319
 3965SOL     OW23530   4.072   2.023   3.575  0.3879 -0.0209  0.4372
 3965SOL    HW123531   4.146   1.971   3.542 -0.0941 -0.8592  0.6615
 3965SOL    HW223532   4.113   2.109   3.568  0.2815  0.1043  1.2815
 3966SOL     OW23533   1.667   0.779  10.442  0.1261 -0.0266 -0.0644
 3966SOL    HW123534   1.610   0.822  10.506 -0.6920 -1.3230  0.0984
 3966SOL    HW223535   1.715   0.718  10.498  0.3399 -1.5023 -1.8746
 3967SOL     OW23536   3.894   0.736  12.992 -0.1183  0.3505 -0.2706
 3967SOL    HW123537   3.947   0.811  13.017  1.7424 -0.6959 -1.0575
 3967SOL    HW223538   3.957   0.665  13.005 -1.8390 -1.4304 -1.5411
 3968SOL     OW23539   1.666   4.053   4.419  0.1184 -0.0695  0.2673
 3968SOL    HW123540   1.586   4.106   4.418 -1.6456 -2.7250 -1.7357
 3968SOL    HW223541   1.735   4.108   4.455  0.3362 -0.1196 -0.0707
 3969SOL     OW23542   2.689   1.024   8.206  0.2626 -0.0658  0.2008
 3969SOL    HW123543   2.627   1.070   8.149  0.2787  1.1709  1.1817
 3969SOL    HW223544   2.685   0.937   8.167  0.2717 -0.0077  0.0696
 3970SOL     OW23545   3.995   0.580   0.054  0.2413 -0.4667 -0.2092
 3970SOL    HW123546   3.928   0.569   0.122 -0.0663  2.5469 -0.0123
 3970SOL    HW223547   4.065   0.530   0.096 -1.7894 -1.4677  1.9693
 3971SOL     OW23548   1.685   4.395   4.914  0.7756  0.6917  0.3274
 3971SOL    HW123549   1.596   4.419   4.892  0.6929 -0.2182 -0.3073
 3971SOL    HW223550   1.707   4.466   4.975  2.0231  0.6238 -0.0327
 3972SOL     OW23551   1.339   2.341   6.926 -0.0285  0.0015  0.0351
 3972SOL    HW123552   1.322   2.276   6.857 -3.2091  1.0097 -0.1016
 3972SOL    HW223553   1.281   2.414   6.905 -0.1966 -1.0854 -3.3368
 3973SOL     OW23554   4.588   2.875   5.670 -0.4702 -0.0461  0.1151
 3973SOL    HW123555   4.603   2.944   5.735  0.0134  0.8520 -0.9439
 3973SOL    HW223556   4.649   2.807   5.699  0.5275  1.1029  0.7359
 3974SOL     OW23557   1.976   2.751   3.698  0.0209  0.3298  0.0022
 3974SOL    HW123558   1.881   2.758   3.712 -0.0417  0.5334 -0.5516
 3974SOL    HW223559   1.999   2.659   3.713  1.7043  0.4094 -2.1526
 3975SOL     OW23560   3.622   0.282   7.079  0.0502 -0.2318 -0.0210
 3975SOL    HW123561   3.597   0.230   7.155 -0.7163  1.6365  1.0067
 3975SOL    HW223562   3.636   0.370   7.114 -0.7545 -0.9847  2.2345
 3976SOL     OW23563   3.733   0.575  12.706  0.1515  0.2586 -0.2588
 3976SOL    HW123564   3.666   0.600  12.643 -0.5184 -0.6278  0.0999
 3976SOL    HW223565   3.810   0.565  12.650  0.0626  0.4899 -0.4225
 3977SOL     OW23566   2.671   4.373   2.049  0.3041  0.9343  0.4955
 3977SOL    HW123567   2.586   4.415   2.045 -0.1044  0.1615  1.0251
 3977SOL    HW223568   2.736   4.442   2.061  1.2683  0.1763 -0.3301
 3978SOL     OW23569   0.299   2.440   5.259 -0.7084 -0.3730 -0.5550
 3978SOL    HW123570   0.344   2.379   5.200  0.2290  2.2955 -2.5939
 3978SOL    HW223571   0.212   2.402   5.264 -1.0720  0.8220  2.5013
 3979SOL     OW23572   0.038   2.550   2.641  0.1448  0.1847 -0.4730
 3979SOL    HW123573   0.002   2.482   2.585  0.3519  0.3720 -0.8358
 3979SOL    HW223574   0.103   2.498   2.689 -0.7307 -1.5340 -1.1671
 3980SOL     OW23575   3.247   1.563   4.744  0.3795 -0.3812 -0.1280
 3980SOL    HW123576   3.239   1.654   4.774  0.3125  0.2110 -1.9410
 3980SOL    HW223577   3.304   1.578   4.668  1.9339  1.3866  1.3854
 3981SOL     OW23578   3.475   2.721   0.235  0.0744  0.0415 -0.5383
 3981SOL    HW123579   3.532   2.674   0.174  0.7159 -0.3802  0.3844
 3981SOL    HW223580   3.500   2.683   0.320 -0.6324 -0.5702 -0.5976
 3982SOL     OW23581   2.589   3.896   6.200 -0.5513 -0.5553 -0.5456
 3982SOL    HW123582   2.633   3.915   6.117 -3.1546  0.3576 -1.7213
 3982SOL    HW223583   2.585   3.802   6.214  0.0560 -0.8526 -2.4103
 3983SOL     OW23584   2.548   2.260  10.642  0.2263  0.1507 -0.1233
 3983SOL    HW123585   2.468   2.216  10.669  1.3454 -1.1681  1.0230
 3983SOL    HW223586   2.571   2.309  10.721 -0.1602  0.6726 -0.3345
 3984SOL     OW23587   3.277   2.549   1.357 -0.2756  0.2260  0.0480
 3984SOL    HW123588   3.205   2.581   1.411  0.8894  1.7949  0.6702
 3984SOL    HW223589   3.304   2.465   1.395  0.9509  0.1575 -0.9472
 3985SOL     OW23590   0.912   4.671   3.401 -0.2855  0.0656 -0.2619
 3985SOL    HW123591   0.983   4.715   3.354  0.3492 -1.1174 -0.3935
 3985SOL    HW223592   0.904   4.715   3.486 -1.8172  0.4661 -0.6281
 3986SOL     OW23593   2.806   4.487   2.510 -1.1434  0.6884  0.4789
 3986SOL    HW123594   2.817   4.406   2.460 -0.5313  0.1063  1.5528
 3986SOL    HW223595   2.769   4.474   2.597 -0.8177 -0.3459  0.4684
 3987SOL     OW23596   4.282   1.431   9.982 -0.1793 -0.1882 -0.1741
 3987SOL    HW123597   4.218   1.502   9.977  1.2082  1.0484 -0.5199
 3987SOL    HW223598   4.285   1.434  10.078 -2.4462  1.4761 -0.1493
 3988SOL     OW23599   0.869   4.488   2.762 -0.4519  0.0905  0.2597
 3988SOL    HW123600   0.825   4.478   2.846 -0.0898 -1.0464  0.3152
 3988SOL    HW223601   0.910   4.574   2.777 -1.4223  0.4755  0.7046
 3989SOL     OW23602   1.094   3.123   6.807  0.8523 -0.0131 -0.0511
 3989SOL    HW123603   1.114   3.048   6.864  2.3724  0.5395  0.1570
 3989SOL    HW223604   1.002   3.103   6.794  0.4244  1.8186  0.1767
 3990SOL     OW23605   1.407   1.524   2.961  0.1670 -0.0828  0.6156
 3990SOL    HW123606   1.366   1.542   2.876 -0.3922  0.0084  0.9030
 3990SOL    HW223607   1.341   1.460   2.986  0.5638 -0.3628  0.9462
 3991SOL     OW23608   1.157   0.113   7.899  0.5399 -0.2044  0.1492
 3991SOL    HW123609   1.169   0.169   7.976 -1.2268 -0.9487  0.9804
 3991SOL    HW223610   1.167   0.172   7.824 -0.2846 -0.8904 -0.4957
 3992SOL     OW23611   3.103   0.716   9.206  0.3175 -0.4331 -0.1747
 3992SOL    HW123612   3.062   0.694   9.123  1.2718  1.0462 -1.0409
 3992SOL    HW223613   3.155   0.789   9.174  1.7894 -1.0968  0.7120
 3993SOL     OW23614   1.957   4.366   9.661 -0.4215 -0.0498 -0.1746
 3993SOL    HW123615   1.959   4.385   9.568 -1.3224 -1.0455 -0.4044
 3993SOL    HW223616   1.924   4.449   9.695 -0.9627 -0.3918  0.1361
 3994SOL     OW23617   4.418   0.610  17.224  0.6120  0.0780  0.1921
 3994SOL    HW123618   4.429   0.542  17.158  2.3729  0.5649 -0.0209
 3994SOL    HW223619   4.395   0.694  17.183  0.7784  1.2106  2.3986
 3995SOL     OW23620   2.927   4.075   6.115  0.7613  0.6171 -0.0980
 3995SOL    HW123621   2.965   3.987   6.117  0.8193  0.6708  1.1774
 3995SOL    HW223622   2.858   4.060   6.051  1.0196 -1.0077 -0.0047
 3996SOL     OW23623   4.469   3.209   9.502  0.3330  0.3738  0.1833
 3996SOL    HW123624   4.511   3.272   9.443 -2.2437  1.5729 -0.3745
 3996SOL    HW223625   4.496   3.126   9.463 -1.3730 -0.0609 -0.0623
 3997SOL     OW23626   4.172   0.189   8.505 -0.5253  0.1762  0.2711
 3997SOL    HW123627   4.255   0.185   8.457 -1.2589 -2.2346 -0.7639
 3997SOL    HW223628   4.202   0.237   8.582 -0.0469  0.9622 -0.3998
 3998SOL     OW23629   1.571   3.303   4.545  0.2946  0.7057 -0.1873
 3998SOL    HW123630   1.524   3.386   4.550  1.2830  1.1602  1.4390
 3998SOL    HW223631   1.512   3.246   4.594  2.6062 -0.1360  1.6113
 3999SOL     OW23632   4.335   0.808   4.658 -0.2265 -0.2233  0.1657
 3999SOL    HW123633   4.346   0.895   4.698 -0.9717  1.2038 -2.7241
 3999SOL    HW223634   4.372   0.816   4.571 -0.2289  1.4823  0.3135
 4000SOL     OW23635   4.176   3.940   2.907  0.1843 -0.1452  0.0421
 4000SOL    HW123636   4.090   3.900   2.919 -0.7485  1.4699 -1.1998
 4000SOL    HW223637   4.186   3.917   2.815 -1.9831  0.9625 -0.4752
 4001SOL     OW23638   1.289   4.707   1.684 -0.0811  0.5033 -0.0111
 4001SOL    HW123639   1.265   0.053   1.727 -0.8561  1.3639 -2.0672
 4001SOL    HW223640   1.342   4.661   1.749 -1.0677 -0.5967  0.0087
 4002SOL     OW23641   0.491   0.719  13.537  0.0643  0.1128  0.2384
 4002SOL    HW123642   0.561   0.655  13.524 -1.0107 -0.7781 -1.2286
 4002SOL    HW223643   0.418   0.657  13.545 -1.1407  1.5709  0.4078
 4003SOL     OW23644   1.343   4.212   6.911 -0.1024 -0.7427 -0.1020
 4003SOL    HW123645   1.315   4.124   6.885 -3.2626  0.0116  0.6994
 4003SOL    HW223646   1.261   4.259   6.892  0.7593  1.1750  0.9030
 4004SOL     OW23647   2.680   4.180   8.915 -0.3462  0.0423 -0.4331
 4004SOL    HW123648   2.604   4.204   8.863  0.9941 -0.1351 -2.4642
 4004SOL    HW223649   2.718   4.265   8.936 -1.7665  1.1624 -2.4291
 4005SOL     OW23650   3.110   2.160   6.882  0.1432 -0.5210  0.4259
 4005SOL    HW123651   3.037   2.110   6.846 -0.0003 -1.1393  1.5854
 4005SOL    HW223652   3.147   2.183   6.796 -0.0383  1.4777  0.8757
 4006SOL     OW23653   1.939   2.003   3.051 -0.3528 -0.3912  0.0808
 4006SOL    HW123654   1.846   1.990   3.033 -0.4969  0.9924 -0.2315
 4006SOL    HW223655   1.970   1.915   3.030  0.2802 -0.4861  1.4084
 4007SOL     OW23656   3.212   2.306   1.919 -0.1828  0.4529 -0.0099
 4007SOL    HW123657   3.145   2.244   1.947  2.1717 -1.6036  0.9716
 4007SOL    HW223658   3.226   2.370   1.989  0.5130  0.3832 -0.0952
 4008SOL     OW23659   3.430   0.368   2.208 -0.1108  0.3741 -0.0045
 4008SOL    HW123660   3.443   0.310   2.132 -0.7341 -0.5188  0.5587
 4008SOL    HW223661   3.377   0.441   2.175  0.9661  1.1022 -0.1059
 4009SOL     OW23662   1.975   3.768   9.765  0.6403 -1.0357 -0.3317
 4009SOL    HW123663   1.991   3.674   9.756 -0.9228 -1.1235 -2.0638
 4009SOL    HW223664   1.884   3.758   9.795 -0.4916 -1.7902 -4.0101
 4010SOL     OW23665   2.981   2.681  14.952  0.4231  0.0078 -0.4240
 4010SOL    HW123666   3.030   2.726  15.020  1.9013  0.7599 -1.9697
 4010SOL    HW223667   2.938   2.617  15.008  0.6732  0.6803  0.5361
 4011SOL     OW23668   2.814   1.353   6.020 -0.1041 -0.1721 -0.8620
 4011SOL    HW123669   2.755   1.377   6.092  0.9135  1.9165 -0.7079
 4011SOL    HW223670   2.887   1.412   6.039 -0.4029 -0.6902  1.8807
 4012SOL     OW23671   0.988   0.361   4.520  0.3152  0.0990  0.1761
 4012SOL    HW123672   0.936   0.334   4.445  0.6520  1.1336 -0.4302
 4012SOL    HW223673   0.945   0.435   4.562 -0.9470 -1.4780  1.6623
 4013SOL     OW23674   4.424   2.051   4.135 -0.2001  0.1294  0.5816
 4013SOL    HW123675   4.374   2.091   4.064  1.5189  0.4746 -0.4509
 4013SOL    HW223676   4.410   1.959   4.110 -2.0219  0.6307 -0.2157
 4014SOL     OW23677   1.674   1.270  12.071  0.2969 -0.0184 -0.6865
 4014SOL    HW123678   1.766   1.248  12.086  0.0393 -2.6150 -2.9825
 4014SOL    HW223679   1.637   1.242  12.155  1.1873 -2.2730 -1.0537
 4015SOL     OW23680   2.915   1.946  13.438 -0.1379  0.2335 -0.1164
 4015SOL    HW123681   2.984   2.000  13.401 -0.8486  1.1523 -0.0966
 4015SOL    HW223682   2.934   1.860  13.400 -1.0299  1.6562 -3.7002
 4016SOL     OW23683   0.614   2.332  15.611  0.4235 -0.2411  0.2807
 4016SOL    HW123684   0.574   2.406  15.657 -0.7190 -1.0794  0.6467
 4016SOL    HW223685   0.565   2.259  15.650  1.1638 -1.3124 -0.8021
 4017SOL     OW23686   4.511   0.669   1.940  0.3340 -0.2236  0.4959
 4017SOL    HW123687   4.479   0.596   1.888 -4.2643  0.0596  3.0033
 4017SOL    HW223688   4.577   0.705   1.880  0.8803  1.2114  1.9574
 4018SOL     OW23689   0.242   3.514   6.942  0.3134  0.0998  0.1494
 4018SOL    HW123690   0.282   3.498   7.028  0.6747  0.0924 -0.0176
 4018SOL    HW223691   0.178   3.443   6.944 -1.3486  1.6313  0.9844
 4019SOL     OW23692   0.399   1.814   7.383 -0.2260  1.1180  1.0059
 4019SOL    HW123693   0.484   1.787   7.418  0.4616  0.7643 -0.9351
 4019SOL    HW223694   0.354   1.730   7.378  0.3368  0.7805  1.5112
 4020SOL     OW23695   0.550   2.447   9.018 -0.2093 -0.3515 -0.1229
 4020SOL    HW123696   0.457   2.460   9.038  0.2374 -0.9755  2.3768
 4020SOL    HW223697   0.591   2.522   9.061  0.7056 -0.8305 -0.1840
 4021SOL     OW23698   3.981   3.544   8.213 -0.2390  0.4493  0.4745
 4021SOL    HW123699   3.908   3.592   8.252 -1.9798 -1.7880 -0.0242
 4021SOL    HW223700   4.006   3.618   8.157 -0.4971 -1.8177 -2.6057
 4022SOL     OW23701   3.280   3.790   5.368 -0.8105  0.8769 -0.5278
 4022SOL    HW123702   3.284   3.882   5.343 -2.7898  1.5957  1.7148
 4022SOL    HW223703   3.269   3.743   5.285 -3.1230  0.0354  0.2475
 4023SOL     OW23704   4.492   4.729   4.643  0.0358 -0.5724  0.2326
 4023SOL    HW123705   4.449   0.071   4.608 -1.7928 -1.3411  0.7698
 4023SOL    HW223706   4.424   4.661   4.649 -0.8480  0.1823 -1.3736
 4024SOL     OW23707   3.916   2.919   4.789 -0.1571  0.8334 -0.1675
 4024SOL    HW123708   3.981   2.901   4.858 -1.2644  0.3350  0.7429
 4024SOL    HW223709   3.845   2.970   4.828 -0.6325 -1.1503  1.5833
 4025SOL     OW23710   2.537   3.445   2.308  0.0470 -0.6307  0.1087
 4025SOL    HW123711   2.491   3.396   2.240 -0.8423 -1.1087  1.0394
 4025SOL    HW223712   2.626   3.413   2.290  0.0678 -1.7408  2.1271
 4026SOL     OW23713   1.254   1.851   0.565 -0.1785  0.5196  0.5368
 4026SOL    HW123714   1.240   1.792   0.491 -1.0522  0.0392  1.0974
 4026SOL    HW223715   1.315   1.910   0.519 -1.1396  0.8559 -0.3023
 4027SOL     OW23716   4.724   2.472   3.580  0.8429 -0.0642  0.4232
 4027SOL    HW123717   0.047   2.421   3.525 -1.0777 -0.5177 -1.2240
 4027SOL    HW223718   4.649   2.473   3.520  0.1447 -0.8350  1.2983
 4028SOL     OW23719   4.191   1.320   7.180  0.2629  0.2362  0.5783
 4028SOL    HW123720   4.192   1.283   7.269 -0.2200  3.2552  1.8368
 4028SOL    HW223721   4.246   1.398   7.183  2.4478 -1.2128 -1.4986
 4029SOL     OW23722   2.481   0.356   8.754  0.1972  0.0992  0.1602
 4029SOL    HW123723   2.426   0.421   8.710 -0.8556 -0.4304  0.6842
 4029SOL    HW223724   2.409   0.305   8.790 -0.0523  1.0544  1.0183
 4030SOL     OW23725   1.664   0.052   2.747  0.4723  0.0641 -0.0571
 4030SOL    HW123726   1.625   0.123   2.799  0.7646 -1.0051  1.6262
 4030SOL    HW223727   1.667   4.714   2.807 -1.0677  0.6388  0.7438
 4031SOL     OW23728   0.305   2.996  15.594 -0.0555 -0.4015  0.0628
 4031SOL    HW123729   0.297   2.942  15.673 -0.8934  0.1014  0.3216
 4031SOL    HW223730   0.211   2.990  15.574 -0.1266 -0.4168  0.4111
 4032SOL     OW23731   0.392   1.886   8.222  0.5494  0.4864  0.3931
 4032SOL    HW123732   0.323   1.914   8.162 -1.4304 -0.7407  2.1060
 4032SOL    HW223733   0.389   1.953   8.289  1.7376 -0.5163  1.4510
 4033SOL     OW23734   4.494   3.532   2.386 -0.3531  0.0818 -0.0153
 4033SOL    HW123735   4.461   3.621   2.398 -0.2625  0.1930 -0.6068
 4033SOL    HW223736   4.580   3.547   2.348  0.4726 -1.1591  1.3656
 4034SOL     OW23737   2.188   3.373  12.955  0.3237 -0.5550 -0.3067
 4034SOL    HW123738   2.162   3.363  13.046  2.8342  2.1035  0.6761
 4034SOL    HW223739   2.137   3.451  12.936  0.4974 -0.5743 -0.8609
 4035SOL     OW23740   0.181   3.714   3.194 -0.0373  0.3573 -0.2406
 4035SOL    HW123741   0.160   3.622   3.179 -3.0913  1.0538 -0.3431
 4035SOL    HW223742   0.188   3.725   3.099 -1.3173 -0.8307 -0.4751
 4036SOL     OW23743   0.998   3.777   0.074  0.2912  0.2851 -0.4163
 4036SOL    HW123744   1.057   3.822   0.135  0.8232 -1.1396  0.1147
 4036SOL    HW223745   1.058   3.776  17.743  1.1708  0.4384  0.2799
 4037SOL     OW23746   3.832   2.691   8.007 -0.6250 -0.0115  0.5175
 4037SOL    HW123747   3.872   2.772   8.038  1.1584 -1.1537  1.2275
 4037SOL    HW223748   3.871   2.626   8.066  0.8969 -0.8874 -1.4460
 4038SOL     OW23749   0.713   4.317   8.959 -0.3789 -0.1213 -0.0833
 4038SOL    HW123750   0.767   4.265   8.900  0.4445 -1.5195  1.9165
 4038SOL    HW223751   0.731   4.266   9.038 -2.7902  1.8140  1.7206
 4039SOL     OW23752   2.101   3.221   3.562 -0.5903  0.2926 -0.4619
 4039SOL    HW123753   2.113   3.129   3.581 -0.5291  0.2647 -0.6418
 4039SOL    HW223754   2.180   3.267   3.589 -0.7984  2.0485 -2.8264
 4040SOL     OW23755   4.440   1.455   8.303  0.0041 -0.3001  0.1366
 4040SOL    HW123756   4.463   1.404   8.225  0.2851 -0.0706  0.0677
 4040SOL    HW223757   4.344   1.454   8.299  0.0129 -1.1407  0.1831
 4041SOL     OW23758   0.861   3.855  10.881  0.4725  0.4021 -0.3896
 4041SOL    HW123759   0.849   3.897  10.795 -2.0256 -0.9704 -0.7328
 4041SOL    HW223760   0.824   3.769  10.862  1.3031 -0.6774  2.9969
 4042SOL     OW23761   3.958   3.748   6.900 -0.0774 -0.0253 -0.0290
 4042SOL    HW123762   3.877   3.715   6.939 -1.7259  1.5638 -2.0950
 4042SOL    HW223763   3.925   3.831   6.866 -0.4661 -0.2743 -0.2653
 4043SOL     OW23764   4.732   1.865  16.394 -0.2227  0.5127  0.5741
 4043SOL    HW123765   0.087   1.853  16.419  0.0118  1.1308 -0.0184
 4043SOL    HW223766   4.687   1.885  16.477 -0.3634  0.8843  0.4080
 4044SOL     OW23767   0.555   4.339   7.835  0.2544  0.1220 -0.6943
 4044SOL    HW123768   0.625   4.285   7.799  0.0505  0.0995 -1.0598
 4044SOL    HW223769   0.567   4.414   7.777 -0.3276  0.2484 -0.6565
 4045SOL     OW23770   4.731   4.210   2.735 -0.7431 -0.6056 -0.2224
 4045SOL    HW123771   4.730   4.291   2.787  0.5942 -0.8893  0.2481
 4045SOL    HW223772   0.084   4.183   2.757 -0.0021  1.0278 -1.2383
 4046SOL     OW23773   3.339   1.700  10.936  0.2396  0.9534  0.4601
 4046SOL    HW123774   3.278   1.626  10.934  1.8356 -0.2321 -2.9662
 4046SOL    HW223775   3.390   1.705  10.856 -2.6792 -0.6882 -1.5143
 4047SOL     OW23776   1.727   1.810   3.559 -0.0712 -0.1132 -0.1980
 4047SOL    HW123777   1.790   1.813   3.487  0.0905 -2.0203 -0.1425
 4047SOL    HW223778   1.786   1.808   3.635  1.1194  0.7698 -1.1035
 4048SOL     OW23779   1.068   1.841   6.439 -0.0988  0.0483  0.1142
 4048SOL    HW123780   1.143   1.845   6.499 -0.3131  1.2624  0.2877
 4048SOL    HW223781   1.103   1.872   6.355 -2.5823 -0.8523 -1.2466
 4049SOL     OW23782   1.140   1.705   2.425  0.1977 -0.4783 -0.3326
 4049SOL    HW123783   1.197   1.637   2.460  1.3776  1.0751  0.7492
 4049SOL    HW223784   1.080   1.668   2.360  0.9604  0.1433 -1.4177
 4050SOL     OW23785   1.734   4.521   4.531 -0.0909 -0.2945  0.1738
 4050SOL    HW123786   1.787   4.469   4.593  1.1805 -0.2123 -0.8555
 4050SOL    HW223787   1.719   4.605   4.575 -1.9126 -0.0010 -1.0511
 4051SOL     OW23788   2.399   0.813   3.377 -0.0388 -0.0980  0.4738
 4051SOL    HW123789   2.371   0.733   3.421  0.7215 -0.4867  0.2476
 4051SOL    HW223790   2.493   0.796   3.385 -0.0764 -0.0659  0.9638
 4052SOL     OW23791   1.951   0.890   7.350 -0.1350  0.1750 -0.0843
 4052SOL    HW123792   1.857   0.897   7.339  0.1281 -0.4333 -2.5406
 4052SOL    HW223793   1.991   0.949   7.286 -0.3864 -0.3783 -0.7469
 4053SOL     OW23794   2.634   3.677   7.057 -0.1141  0.5574  0.2004
 4053SOL    HW123795   2.664   3.586   7.060  2.8157  1.5163 -0.0409
 4053SOL    HW223796   2.704   3.728   7.099  0.0764  0.1904  0.3314
 4054SOL     OW23797   2.832   4.465   3.569  0.2771 -0.0699  0.0433
 4054SOL    HW123798   2.821   4.551   3.529 -3.3957 -1.6610 -2.2984
 4054SOL    HW223799   2.801   4.485   3.658 -0.5627 -2.5989  0.3259
 4055SOL     OW23800   0.739   4.152   5.609 -0.5641  0.1215 -0.5354
 4055SOL    HW123801   0.711   4.219   5.547 -0.2736  0.4467 -0.3161
 4055SOL    HW223802   0.834   4.153   5.603 -0.3605 -1.6338  2.3657
 4056SOL     OW23803   3.082   0.473   1.627  0.3369 -0.5914  0.2590
 4056SOL    HW123804   3.057   0.491   1.718 -0.3988  0.4653 -0.1546
 4056SOL    HW223805   2.993   0.483   1.594  0.8440  0.7179 -0.6844
 4057SOL     OW23806   1.610   1.103   5.361 -0.1979 -0.3892 -0.1776
 4057SOL    HW123807   1.579   1.089   5.271  1.1341  2.5204 -1.0748
 4057SOL    HW223808   1.541   1.158   5.398 -0.3219  0.0278 -1.0237
 4058SOL     OW23809   2.259   1.171  11.374  0.2716 -0.1829 -0.4339
 4058SOL    HW123810   2.296   1.237  11.316  1.3993 -0.8579 -0.4651
 4058SOL    HW223811   2.283   1.089  11.329 -0.6608 -1.0251  0.6134
 4059SOL     OW23812   1.169   0.670   1.556 -0.0747 -0.1489  0.0768
 4059SOL    HW123813   1.095   0.640   1.504 -0.5188  0.9499  0.0730
 4059SOL    HW223814   1.244   0.635   1.508  0.3135 -0.1078  0.6489
 4060SOL     OW23815   0.033   1.463   6.074  0.8138  0.2092 -0.1253
 4060SOL    HW123816   4.695   1.448   6.016 -1.3707 -0.1426  2.7261
 4060SOL    HW223817   0.079   1.535   6.031  0.5834  0.6686  0.4059
 4061SOL     OW23818   3.045   3.541   8.235  0.0136 -0.0144 -0.2027
 4061SOL    HW123819   3.079   3.508   8.152  0.2173 -1.4803  0.4679
 4061SOL    HW223820   3.114   3.593   8.275  0.8410 -0.4476 -1.0760
 4062SOL     OW23821   4.244   3.765   0.671  0.7148  0.2159 -0.0236
 4062SOL    HW123822   4.277   3.842   0.718  0.8000  0.4986 -0.5535
 4062SOL    HW223823   4.325   3.714   0.661  1.4902  1.1366  1.4716
 4063SOL     OW23824   4.620   2.215   3.669  0.3457  0.5330 -0.0282
 4063SOL    HW123825   4.697   2.203   3.724  1.2080 -0.9857 -1.5845
 4063SOL    HW223826   4.651   2.290   3.619  1.4099 -1.5919 -2.5211
 4064SOL     OW23827   1.025   1.743   4.817 -0.4993 -0.2159  0.8592
 4064SOL    HW123828   1.115   1.710   4.825 -0.6498 -0.5949  0.9945
 4064SOL    HW223829   1.033   1.777   4.728 -0.7483 -0.3994  0.7682
 4065SOL     OW23830   2.369   3.702   4.195 -0.1823 -0.5545  0.2461
 4065SOL    HW123831   2.383   3.736   4.284  1.4320  1.8817 -0.9142
 4065SOL    HW223832   2.373   3.786   4.148 -1.3763 -0.1786  0.8085
 4066SOL     OW23833   4.447   0.683   2.856  0.0662 -0.0339 -0.0049
 4066SOL    HW123834   4.425   0.745   2.926 -1.0405  1.7851 -1.9459
 4066SOL    HW223835   4.420   0.730   2.777 -0.1267  1.8672  1.1900
 4067SOL     OW23836   2.855   2.514   7.511 -0.0621  0.1048  0.4123
 4067SOL    HW123837   2.858   2.444   7.445  1.9250 -0.8945  1.5415
 4067SOL    HW223838   2.934   2.502   7.564 -0.8254 -0.2059  1.4900
 4068SOL     OW23839   3.387   4.401  16.473 -0.3198 -0.0557 -0.1499
 4068SOL    HW123840   3.386   4.471  16.407  0.3650  0.9274  0.8861
 4068SOL    HW223841   3.361   4.453  16.549  1.6208  2.0831 -0.9742
 4069SOL     OW23842   1.693   0.878   1.708 -0.6174 -0.6685 -0.2629
 4069SOL    HW123843   1.755   0.932   1.659 -1.1588  1.0189  0.9415
 4069SOL    HW223844   1.652   0.935   1.772  0.6874  0.4938 -0.4673
 4070SOL     OW23845   0.713   2.702   7.162  0.1532  0.4302  0.3574
 4070SOL    HW123846   0.652   2.630   7.177  1.3326 -0.6475  0.0036
 4070SOL    HW223847   0.696   2.721   7.070 -1.5621 -0.0508  0.5858
 4071SOL     OW23848   2.337   2.451   6.397  0.1904 -0.3575  0.3820
 4071SOL    HW123849   2.365   2.398   6.322 -1.1513  0.4856 -0.7260
 4071SOL    HW223850   2.414   2.503   6.419  0.3120 -0.7125  0.7960
 4072SOL     OW23851   1.786   0.506   3.330 -0.2698 -0.2991 -0.3392
 4072SOL    HW123852   1.837   0.425   3.339 -0.1287 -0.2268 -0.5054
 4072SOL    HW223853   1.770   0.538   3.419  0.1297 -1.3343  0.1094
 4073SOL     OW23854   1.425   0.519   3.155  0.3797  0.4347  0.6821
 4073SOL    HW123855   1.453   0.458   3.224 -2.7150 -0.8707  0.7679
 4073SOL    HW223856   1.512   0.546   3.127  0.2679 -1.8617 -1.8840
 4074SOL     OW23857   4.623   0.191   8.294 -0.2614  0.0718 -0.3315
 4074SOL    HW123858   4.640   0.242   8.373 -0.8674  0.6914 -0.6013
 4074SOL    HW223859   4.705   0.144   8.278 -0.0700  0.1398  0.4645
 4075SOL     OW23860   2.098   3.995   7.038  0.1010 -0.3799  0.2303
 4075SOL    HW123861   2.135   3.918   6.995  0.1313  0.9942 -2.1566
 4075SOL    HW223862   2.040   3.949   7.099 -0.2849  0.0025  0.1528
 4076SOL     OW23863   3.313   2.441   8.244  0.3897  0.1283  0.0995
 4076SOL    HW123864   3.280   2.389   8.317 -2.0874  0.6113 -0.6827
 4076SOL    HW223865   3.332   2.374   8.179  0.2196  0.3448 -0.1753
 4077SOL     OW23866   0.112   0.983   4.238 -0.0095  0.3063  0.4852
 4077SOL    HW123867   0.043   1.039   4.273  1.1396  0.2337  2.9213
 4077SOL    HW223868   0.090   0.970   4.146  0.2136  3.0256  0.0624
 4078SOL     OW23869   0.634   1.686  16.566 -0.2414 -0.0749 -0.1388
 4078SOL    HW123870   0.656   1.722  16.651 -0.1048  1.4452 -0.8159
 4078SOL    HW223871   0.720   1.687  16.525 -0.0503 -0.9899  0.2450
 4079SOL     OW23872   2.088   2.257   4.076  1.0122 -0.2437 -0.7406
 4079SOL    HW123873   2.167   2.243   4.022  0.6689  1.3011 -1.6539
 4079SOL    HW223874   2.130   2.253   4.161  1.5789 -2.4357 -1.1215
 4080SOL     OW23875   1.524   1.581  17.122 -0.1947  0.2862 -0.2544
 4080SOL    HW123876   1.580   1.652  17.093 -0.3495 -0.0014 -1.2420
 4080SOL    HW223877   1.539   1.512  17.058  0.9716  0.4457 -0.1403
 4081SOL     OW23878   2.869   3.509   5.857  0.1172  0.3145 -0.0587
 4081SOL    HW123879   2.961   3.523   5.877  0.3050 -1.2744  0.1353
 4081SOL    HW223880   2.828   3.576   5.912  0.9544  1.6611 -1.0815
 4082SOL     OW23881   1.951   0.222  14.486 -0.4042 -0.0313  0.0367
 4082SOL    HW123882   1.905   0.207  14.403 -0.2833  0.1296 -0.0594
 4082SOL    HW223883   1.885   0.246  14.551  1.1598 -1.1700  2.0162
 4083SOL     OW23884   1.639   3.890   1.974  0.1607 -0.2183 -0.0159
 4083SOL    HW123885   1.649   3.876   1.880 -1.2755  0.7971 -0.3202
 4083SOL    HW223886   1.584   3.967   1.987  1.3823  0.8794 -1.3806
 4084SOL     OW23887   4.267   1.957   8.889  0.3488  0.3320  0.1083
 4084SOL    HW123888   4.336   1.932   8.951  0.8119  0.9673 -0.1483
 4084SOL    HW223889   4.314   2.019   8.833 -1.9437  0.9063 -1.2011
 4085SOL     OW23890   2.365   3.695   2.750  0.3071  0.0328  0.0830
 4085SOL    HW123891   2.320   3.614   2.774 -1.0486  0.5277 -0.7745
 4085SOL    HW223892   2.455   3.661   2.742  0.4250  0.3231  0.1923
 4086SOL     OW23893   1.587   0.939  15.586 -0.3494  0.1089  0.2958
 4086SOL    HW123894   1.678   0.955  15.560 -1.0684  1.1271 -1.6407
 4086SOL    HW223895   1.552   1.020  15.550 -0.3151 -0.2946 -0.6647
 4087SOL     OW23896   4.728   3.416   9.731  0.8940  0.1171  0.9584
 4087SOL    HW123897   0.042   3.339   9.705 -0.7839 -0.9549  0.8211
 4087SOL    HW223898   4.635   3.391   9.733  0.0770  3.0560 -0.7861
 4088SOL     OW23899   4.641   4.391   3.593  0.3906  0.3709 -0.0465
 4088SOL    HW123900   4.547   4.383   3.581  0.3718  0.2153  0.2173
 4088SOL    HW223901   4.651   4.483   3.617 -1.4277  0.4471  0.3966
 4089SOL     OW23902   1.238   1.634  12.878  0.0668  0.1299 -0.1839
 4089SOL    HW123903   1.267   1.596  12.795 -0.8435 -0.3566 -0.2746
 4089SOL    HW223904   1.216   1.558  12.931 -1.8445 -0.0978 -1.3197
 4090SOL     OW23905   2.628   2.620   2.216  0.1342  0.0737 -0.2559
 4090SOL    HW123906   2.579   2.550   2.172 -1.5338  0.1674  1.4636
 4090SOL    HW223907   2.693   2.645   2.151  0.1165 -2.2356 -1.1952
 4091SOL     OW23908   2.830   3.101   9.517 -0.2733 -0.6002 -0.3543
 4091SOL    HW123909   2.823   3.181   9.465 -1.2757 -0.7155 -0.3911
 4091SOL    HW223910   2.924   3.106   9.537 -0.1791  0.5219 -1.1271
 4092SOL     OW23911   4.330   0.844  11.888  0.0712 -0.1260 -0.1480
 4092SOL    HW123912   4.352   0.824  11.978 -1.8091 -1.7684 -0.0466
 4092SOL    HW223913   4.244   0.802  11.887  1.3799 -2.8364  3.2281
 4093SOL     OW23914   0.836   4.274   3.741 -0.3626 -0.1834  0.1863
 4093SOL    HW123915   0.906   4.254   3.804 -0.0480  2.4814  0.6836
 4093SOL    HW223916   0.876   4.252   3.657 -1.5083  2.8960 -1.1477
 4094SOL     OW23917   3.917   4.683   4.156  0.2676  0.6098 -0.4095
 4094SOL    HW123918   3.950   4.615   4.215 -1.3284 -0.2204 -0.4772
 4094SOL    HW223919   4.004   4.719   4.136  0.6240  0.7825  1.4153
 4095SOL     OW23920   0.709   0.312  14.453  0.2435 -0.1556 -0.0069
 4095SOL    HW123921   0.795   0.306  14.496  1.2795 -1.5367 -2.2715
 4095SOL    HW223922   0.701   0.222  14.423 -2.4042 -0.0475  0.3702
 4096SOL     OW23923   0.355   3.133   9.202 -0.0935  0.0802  0.7484
 4096SOL    HW123924   0.343   3.185   9.281  1.0156 -1.5477  1.9801
 4096SOL    HW223925   0.316   3.186   9.133 -0.0275 -2.3128 -1.1374
 4097SOL     OW23926   2.733   4.554   6.090 -0.2697  0.4961 -0.1331
 4097SOL    HW123927   2.763   4.642   6.112  0.3963  0.1567  0.3102
 4097SOL    HW223928   2.768   4.500   6.161 -2.9184  1.4396  1.8891
 4098SOL     OW23929   4.096   3.881   6.547  0.0175 -0.5031 -0.4222
 4098SOL    HW123930   4.119   3.963   6.592 -1.2098 -0.8722  0.8973
 4098SOL    HW223931   4.100   3.910   6.456  1.7705  4.0947  1.0949
 4099SOL     OW23932   0.828   1.510   5.264  0.0275  0.0903  0.1617
 4099SOL    HW123933   0.760   1.552   5.210 -0.9975 -1.2501  0.4242
 4099SOL    HW223934   0.901   1.513   5.201 -1.7434 -0.5712 -1.8967
 4100SOL     OW23935   0.720   0.703   2.613 -0.4203  0.3195 -0.0680
 4100SOL    HW123936   0.745   0.771   2.551 -0.9597 -1.1020 -1.8464
 4100SOL    HW223937   0.659   0.652   2.559  0.4894 -0.8155 -0.0442
 4101SOL     OW23938   1.610   0.262   2.556 -0.1708 -0.0663  0.1013
 4101SOL    HW123939   1.581   0.193   2.615 -0.0386 -0.1482  0.0716
 4101SOL    HW223940   1.564   0.242   2.474 -1.0061 -0.8678  0.7550
 4102SOL     OW23941   4.021   0.301  14.213  0.2192  0.5658 -0.0633
 4102SOL    HW123942   4.117   0.300  14.219  0.1219 -0.4198  1.3258
 4102SOL    HW223943   4.003   0.217  14.172 -1.0179  0.0269  1.6153
 4103SOL     OW23944   4.119   3.124  15.011 -0.5812  0.3127 -0.4483
 4103SOL    HW123945   4.194   3.109  14.953 -2.0277  0.0955 -2.2987
 4103SOL    HW223946   4.157   3.210  15.028 -1.1174  0.5317 -0.3714
 4104SOL     OW23947   1.003   0.145   6.464  1.0339  0.0931  0.0390
 4104SOL    HW123948   0.949   0.099   6.399 -0.3087  0.8153  0.6449
 4104SOL    HW223949   1.082   0.168   6.414 -0.4896  1.4542 -1.7800
 4105SOL     OW23950   0.290   1.072   4.534  0.0946 -0.7389 -0.1089
 4105SOL    HW123951   0.198   1.081   4.559 -0.7021  0.0248 -3.4199
 4105SOL    HW223952   0.308   0.995   4.588  0.4946 -2.3077 -2.4699
 4106SOL     OW23953   3.577   4.312  17.721 -0.3013 -0.2729 -0.2131
 4106SOL    HW123954   3.584   4.396   0.022 -0.5568  0.2692 -1.2093
 4106SOL    HW223955   3.512   4.328  17.653  0.3709 -2.9454 -1.4938
 4107SOL     OW23956   2.312   4.653  16.909  0.6583  0.2367 -0.4480
 4107SOL    HW123957   2.404   4.680  16.907 -0.0522  2.7547  2.4983
 4107SOL    HW223958   2.318   4.577  16.967  0.5508 -0.5961 -1.5096
 4108SOL     OW23959   1.689   3.194   4.161 -0.0859  0.0167  0.1951
 4108SOL    HW123960   1.721   3.120   4.213 -0.3482 -1.3688 -1.6128
 4108SOL    HW223961   1.769   3.211   4.112  0.4682 -0.4732  0.9245
 4109SOL     OW23962   2.379   2.938   1.778 -0.2671 -0.6374  0.4682
 4109SOL    HW123963   2.343   2.849   1.777 -3.0104  0.4560  2.4404
 4109SOL    HW223964   2.309   2.988   1.819 -0.5037  0.7640 -1.6587
 4110SOL     OW23965   2.351   0.668   3.941  0.4353 -0.5374 -0.2920
 4110SOL    HW123966   2.325   0.729   3.872 -1.5726 -2.2092 -1.0170
 4110SOL    HW223967   2.440   0.695   3.962  0.0178  0.8027 -0.2620
 4111SOL     OW23968   2.884   1.274  14.474 -0.3733 -0.1573  1.0173
 4111SOL    HW123969   2.814   1.311  14.529 -0.1130 -0.1985  1.3795
 4111SOL    HW223970   2.926   1.222  14.543 -0.2054 -0.7366  0.4819
 4112SOL     OW23971   1.312   4.357   8.279 -0.3077  0.2075  0.7205
 4112SOL    HW123972   1.257   4.307   8.219  0.6924 -2.7438  2.2446
 4112SOL    HW223973   1.252   4.379   8.350 -0.3626  0.3555  0.6285
 4113SOL     OW23974   0.192   0.042  11.740 -0.7445 -0.1523 -0.1211
 4113SOL    HW123975   0.254   0.089  11.796  0.2515 -0.9432 -0.5799
 4113SOL    HW223976   0.176   0.111  11.677  1.9295  0.6139  0.0317
 4114SOL     OW23977   3.280   1.483   1.791 -0.2123  0.0431 -0.1862
 4114SOL    HW123978   3.354   1.472   1.850 -0.5074  0.1763  0.2145
 4114SOL    HW223979   3.242   1.395   1.788 -0.2112 -0.0265  1.8395
 4115SOL     OW23980   1.588   0.475   3.843  0.0996  0.1775 -0.0470
 4115SOL    HW123981   1.583   0.411   3.914 -0.8754  1.3616  0.9343
 4115SOL    HW223982   1.590   0.552   3.899  0.1637  0.6811 -0.7417
 4116SOL     OW23983   2.389   4.098   6.204  0.2898  0.0155  0.4011
 4116SOL    HW123984   2.462   4.038   6.190  0.5145  0.3457  0.1501
 4116SOL    HW223985   2.442   4.177   6.191 -0.2123  0.4498  0.9789
 4117SOL     OW23986   2.826   1.965   8.731  0.3166  0.0119  0.3613
 4117SOL    HW123987   2.760   1.924   8.787 -0.1208  0.4230  0.1580
 4117SOL    HW223988   2.906   1.933   8.771  0.4509  0.6207  0.5803
 4118SOL     OW23989   4.164   0.614  10.049  0.1444 -0.4583  0.3790
 4118SOL    HW123990   4.093   0.655  10.097  0.3555 -1.1338  1.2662
 4118SOL    HW223991   4.195   0.555  10.118 -0.5833 -3.2156 -1.6563
 4119SOL     OW23992   3.758   0.960  14.562 -0.1296 -0.2375  0.0099
 4119SOL    HW123993   3.785   0.987  14.650 -0.5431  1.6482 -0.4380
 4119SOL    HW223994   3.843   0.930  14.529  1.4345  1.9065  2.0984
 4120SOL     OW23995   3.338   3.934   2.954  0.2346 -0.5577  0.1606
 4120SOL    HW123996   3.247   3.940   2.983 -0.2361  2.6094 -2.0048
 4120SOL    HW223997   3.376   3.859   3.000  0.5552 -1.8484 -2.2124
 4121SOL     OW23998   4.228   0.819   8.657  0.4215 -0.1268 -0.3200
 4121SOL    HW123999   4.219   0.881   8.729 -1.9885  0.2874 -0.9943
 4121SOL    HW224000   4.142   0.834   8.619  0.0819 -0.4056  0.3502
 4122SOL     OW24001   2.084   4.013   5.894  0.0612 -0.0431 -0.0412
 4122SOL    HW124002   2.094   4.007   5.989 -0.4920  2.3210  0.1517
 4122SOL    HW224003   2.120   4.100   5.880 -1.9876  0.7936 -0.1928
 4123SOL     OW24004   4.201   1.816  15.023  0.2352  0.5737 -0.2474
 4123SOL    HW124005   4.212   1.867  15.104  0.0526  0.7885 -0.3563
 4123SOL    HW224006   4.250   1.872  14.963  1.8034  0.8600  1.3141
 4124SOL     OW24007   0.066   4.245  13.433 -0.0580 -0.1727  0.0106
 4124SOL    HW124008   4.729   4.277  13.487  1.2000  1.6938  0.6335
 4124SOL    HW224009   0.031   4.235  13.345 -2.5370  1.7623  0.7474
 4125SOL     OW24010   4.061   1.010   4.499 -0.2984  0.5907 -0.1136
 4125SOL    HW124011   4.111   0.995   4.419 -0.0951  0.5603  0.0202
 4125SOL    HW224012   4.020   0.924   4.508 -2.0571  1.4818  0.4526
 4126SOL     OW24013   0.167   1.226   5.571 -0.0474  0.0463  0.1429
 4126SOL    HW124014   0.093   1.204   5.515 -1.3189  1.0535  1.3939
 4126SOL    HW224015   0.181   1.316   5.540 -1.2387  0.6174  1.2162
 4127SOL     OW24016   0.772   2.072   9.454 -0.0415 -0.6582  1.1901
 4127SOL    HW124017   0.809   2.132   9.519  0.1251  0.3809  0.1321
 4127SOL    HW224018   0.854   2.060   9.405 -0.5462 -2.8562  0.8873
 4128SOL     OW24019   1.344   0.437   9.053  0.2661  0.2093  0.1320
 4128SOL    HW124020   1.371   0.348   9.031  0.0238  0.3778 -0.8461
 4128SOL    HW224021   1.423   0.490   9.052  0.7886 -0.5538  1.2613
 4129SOL     OW24022   3.450   0.562  15.600  0.2693  0.0233 -0.3172
 4129SOL    HW124023   3.379   0.534  15.542  0.5942 -1.7751  0.1397
 4129SOL    HW224024   3.403   0.576  15.682  1.7093 -0.2060  0.5534
 4130SOL     OW24025   0.810   1.074   7.786  0.0107  0.4590 -0.1719
 4130SOL    HW124026   0.900   1.044   7.798  0.8793  1.5824 -3.8135
 4130SOL    HW224027   0.759   1.031   7.854  1.5393 -1.9577 -0.5899
 4131SOL     OW24028   1.861   4.195   4.992 -0.1485  0.0119 -0.2512
 4131SOL    HW124029   1.796   4.250   4.948 -0.3891 -1.1858 -1.4062
 4131SOL    HW224030   1.821   4.110   5.011  0.9639 -0.3462  0.5258
 4132SOL     OW24031   2.500   0.161   3.042 -0.1287  0.3204 -0.2570
 4132SOL    HW124032   2.508   0.252   3.011 -2.6512  0.5167 -0.2779
 4132SOL    HW224033   2.441   0.158   3.117 -0.5131  2.5447 -0.4632
 4133SOL     OW24034   4.366   3.625  11.117  0.1652 -0.2885  0.1064
 4133SOL    HW124035   4.437   3.687  11.102 -1.1432  1.4769  1.1616
 4133SOL    HW224036   4.401   3.541  11.087  1.6660 -0.4906  2.4173
 4134SOL     OW24037   0.888   4.490  11.664  0.2829  0.1963 -0.4979
 4134SOL    HW124038   0.873   4.406  11.707 -1.8928  0.6533 -0.3967
 4134SOL    HW224039   0.834   4.478  11.586 -0.8115 -2.0753  0.6210
 4135SOL     OW24040   0.661   2.483   0.728 -0.5545  0.5653 -0.4872
 4135SOL    HW124041   0.739   2.532   0.701 -0.6094  1.4576  0.9794
 4135SOL    HW224042   0.598   2.549   0.758  0.3029  0.4640  1.5011
 4136SOL     OW24043   1.131   2.659   5.831  0.6944 -0.1020 -0.0989
 4136SOL    HW124044   1.074   2.722   5.876 -0.9909 -2.4097  0.9508
 4136SOL    HW224045   1.083   2.653   5.748  0.6417  1.7278 -0.2029
 4137SOL     OW24046   2.962   0.619  12.651  0.2996  0.0346  0.2750
 4137SOL    HW124047   3.031   0.679  12.678  1.4689 -0.5631 -1.3645
 4137SOL    HW224048   2.995   0.533  12.678  1.0219  0.3300  0.3483
 4138SOL     OW24049   1.192   1.517   3.351  0.1487 -0.5116  0.1638
 4138SOL    HW124050   1.228   1.518   3.440  0.3378  0.8257  0.0806
 4138SOL    HW224051   1.234   1.442   3.309 -0.9004 -1.6765  1.2332
 4139SOL     OW24052   3.984   1.154   8.275 -0.4059  0.6337  0.4351
 4139SOL    HW124053   3.973   1.149   8.180 -0.7645 -1.8814  0.6042
 4139SOL    HW224054   3.896   1.175   8.306  0.0226  0.5686  1.6827
 4140SOL     OW24055   3.953   4.295   8.209  0.5142  0.2616 -0.2862
 4140SOL    HW124056   3.937   4.248   8.127  0.0937 -1.1062  0.5714
 4140SOL    HW224057   3.950   4.384   8.175 -2.2073  0.5539  0.7344
 4141SOL     OW24058   0.135   3.260   3.634  0.0084 -0.3622 -0.1559
 4141SOL    HW124059   0.084   3.333   3.668 -2.6688 -1.2990 -2.1905
 4141SOL    HW224060   0.119   3.259   3.540  0.3659 -1.1873 -0.2078
 4142SOL     OW24061   3.051   3.969   7.561 -0.0503  0.3416  0.5760
 4142SOL    HW124062   3.126   3.913   7.578 -0.7458 -0.3604  1.3548
 4142SOL    HW224063   3.049   3.973   7.466 -0.6978  0.5994  0.5940
 4143SOL     OW24064   1.866   4.216  16.986 -0.6060 -0.0999  0.0392
 4143SOL    HW124065   1.845   4.304  16.953 -0.5923 -0.0926  0.0497
 4143SOL    HW224066   1.868   4.235  17.080 -1.9446  2.7561 -0.5109
 4144SOL     OW24067   4.239   1.605   5.406  0.3855  0.0263 -0.1994
 4144SOL    HW124068   4.223   1.536   5.341  0.4512 -1.8753  1.8224
 4144SOL    HW224069   4.307   1.560   5.457  1.6567  2.8489  0.5991
 4145SOL     OW24070   1.205   3.618  10.860  0.3492 -0.1950 -0.2212
 4145SOL    HW124071   1.286   3.651  10.823  1.3984 -1.4641  0.9610
 4145SOL    HW224072   1.184   3.683  10.927  0.9867  0.3106 -0.5175
 4146SOL     OW24073   3.789   1.004  12.826  0.5669 -0.6652 -0.0708
 4146SOL    HW124074   3.744   0.928  12.862 -1.1818  0.0153 -0.8276
 4146SOL    HW224075   3.800   1.053  12.908 -2.8638 -3.2486  1.9178
 4147SOL     OW24076   3.892   1.316   9.396 -0.5414 -0.0843 -0.0898
 4147SOL    HW124077   3.956   1.375   9.436 -0.0597 -1.5071  1.2124
 4147SOL    HW224078   3.950   1.259   9.346 -1.2290 -1.1384  0.3298
 4148SOL     OW24079   3.827   2.847   3.950 -0.5007 -0.0189 -0.1285
 4148SOL    HW124080   3.804   2.918   3.891  0.0727  0.1000 -0.2142
 4148SOL    HW224081   3.770   2.855   4.027  0.4018 -1.5176  0.6907
 4149SOL     OW24082   3.692   2.001   9.589 -0.0404 -0.1894 -0.4368
 4149SOL    HW124083   3.712   1.944   9.664 -0.0687  0.8824  0.3799
 4149SOL    HW224084   3.724   1.954   9.512  3.0386 -0.4362  1.0169
 4150SOL     OW24085   3.693   1.543   9.059 -0.0386 -0.1162 -0.0706
 4150SOL    HW124086   3.756   1.614   9.056 -0.6351  0.4495  0.6862
 4150SOL    HW224087   3.724   1.482   8.992 -0.5600 -0.5917  0.1210
 4151SOL     OW24088   2.167   3.704   4.576  0.3891 -0.3431 -0.0695
 4151SOL    HW124089   2.089   3.747   4.540  0.0132 -1.1688 -0.2449
 4151SOL    HW224090   2.238   3.749   4.531  1.2848 -0.5811  1.0956
 4152SOL     OW24091   4.689   1.404  17.689 -0.3272 -0.0227 -0.1552
 4152SOL    HW124092   4.614   1.462  17.699  1.2409  2.0162 -0.2840
 4152SOL    HW224093   0.010   1.461  17.637  0.3989  1.8046  2.6517
 4153SOL     OW24094   3.124   1.251  11.687 -0.4745  0.1601 -0.1805
 4153SOL    HW124095   3.035   1.226  11.664 -0.5842  1.5194 -1.2484
 4153SOL    HW224096   3.152   1.301  11.609  0.6785  1.6954  1.2126
 4154SOL     OW24097   3.143   3.980   9.110 -0.0661 -0.5114  0.4614
 4154SOL    HW124098   3.073   4.044   9.112  1.5839  1.2706  1.1514
 4154SOL    HW224099   3.095   3.902   9.080 -2.0265  1.8852 -2.5493
 4155SOL     OW24100   1.315   4.602   6.856  0.1747 -0.1301  0.3287
 4155SOL    HW124101   1.346   4.637   6.772  0.1728 -1.2692 -0.1548
 4155SOL    HW224102   1.309   4.679   6.912 -1.9752 -0.2737  0.3078
 4156SOL     OW24103   0.060   1.159   8.959  0.9296 -0.0988  0.0234
 4156SOL    HW124104   0.078   1.065   8.951  1.5520  0.4041 -4.4757
 4156SOL    HW224105   0.100   1.183   9.043 -1.0389 -1.3225  1.3213
 4157SOL     OW24106   0.036   3.253   5.553 -0.0005  0.1922  0.2870
 4157SOL    HW124107   0.107   3.234   5.491  0.4333 -0.3790  0.9693
 4157SOL    HW224108   0.070   3.341   5.573  2.5066 -0.2554 -1.8630
 4158SOL     OW24109   2.356   2.949   4.270 -0.3242  0.1359 -0.0168
 4158SOL    HW124110   2.318   2.962   4.357  0.9060  2.7002  0.1292
 4158SOL    HW224111   2.278   2.930   4.218  0.3584  1.4277 -1.5040
 4159SOL     OW24112   4.105   1.826   2.966  0.0863 -0.5291 -0.1123
 4159SOL    HW124113   4.099   1.906   3.018  0.3854 -0.7748  0.3044
 4159SOL    HW224114   4.047   1.767   3.014 -0.7607  2.0157  1.9398
 4160SOL     OW24115   2.640   0.782   2.326  0.1454  0.1424  0.1993
 4160SOL    HW124116   2.723   0.811   2.365 -0.6041  0.5071  1.5126
 4160SOL    HW224117   2.584   0.833   2.384 -0.0570  2.4335 -2.0016
 4161SOL     OW24118   0.575   0.830   7.076  0.1755 -0.5974 -0.2244
 4161SOL    HW124119   0.528   0.913   7.061  1.2925  0.2583  0.9459
 4161SOL    HW224120   0.632   0.841   7.000  0.5352  1.9997  0.3967
 4162SOL     OW24121   2.615   3.321   6.839 -0.2986 -0.3092  0.1484
 4162SOL    HW124122   2.673   3.349   6.768  0.1342  0.9773  1.0077
 4162SOL    HW224123   2.648   3.391   6.894  0.8830 -0.6471 -0.1344
 4163SOL     OW24124   2.505   4.699   5.084 -0.1590 -0.0920  0.3497
 4163SOL    HW124125   2.546   4.725   5.166 -0.9674  3.8227 -0.5130
 4163SOL    HW224126   2.575   4.646   5.046  1.0516  0.6858  1.5378
 4164SOL     OW24127   2.842   3.851  13.517 -0.0894 -0.6587  0.6087
 4164SOL    HW124128   2.790   3.931  13.522  1.0172 -0.0137  2.0017
 4164SOL    HW224129   2.797   3.788  13.573  0.3816 -0.3741  1.3176
 4165SOL     OW24130   1.898   0.953   2.974  0.2542 -0.7938  0.3883
 4165SOL    HW124131   1.870   1.044   2.963 -0.5102 -1.0182  0.4336
 4165SOL    HW224132   1.893   0.917   2.885 -0.3422 -0.4455  0.2782
 4166SOL     OW24133   3.201   1.336   3.513  0.5437  0.3776 -0.8386
 4166SOL    HW124134   3.288   1.374   3.503 -0.4090  2.9055  0.4631
 4166SOL    HW224135   3.208   1.283   3.433 -0.6762  0.0928 -0.7496
 4167SOL     OW24136   4.439   4.734   7.834 -0.1492 -0.1944 -0.5816
 4167SOL    HW124137   4.390   4.653   7.821 -2.2700  1.0158 -0.0557
 4167SOL    HW224138   4.457   4.723   7.927 -0.8033  2.3066 -0.1638
 4168SOL     OW24139   1.983   0.336  12.087 -0.5800  0.3022 -0.2123
 4168SOL    HW124140   1.923   0.267  12.115  1.9784 -1.9334 -0.1461
 4168SOL    HW224141   2.061   0.283  12.104 -2.6612 -2.7050 -0.0913
 4169SOL     OW24142   3.300   3.622   3.370  0.8006 -0.6426 -0.2591
 4169SOL    HW124143   3.236   3.555   3.390 -0.2182  0.0346 -1.2921
 4169SOL    HW224144   3.381   3.572   3.375  0.7193 -0.8176 -0.7801
 4170SOL     OW24145   0.661   2.714   6.711 -0.4864 -0.0422 -0.2785
 4170SOL    HW124146   0.622   2.731   6.625  0.2793  1.4904 -0.3306
 4170SOL    HW224147   0.672   2.804   6.741  1.3128 -0.4505  0.2725
 4171SOL     OW24148   1.883   1.528   4.743  0.6502 -0.0110 -0.0446
 4171SOL    HW124149   1.818   1.459   4.754 -0.3958  1.1965  1.2401
 4171SOL    HW224150   1.961   1.477   4.766  1.1304  0.6616 -0.1766
 4172SOL     OW24151   0.446   2.472  16.570  0.0879  0.3601 -0.1133
 4172SOL    HW124152   0.433   2.476  16.475  2.2081  0.6537 -0.3875
 4172SOL    HW224153   0.404   2.389  16.594 -0.0720  0.3731 -0.3522
 4173SOL     OW24154   2.870   1.628   1.485 -0.1926 -0.0472 -0.0192
 4173SOL    HW124155   2.782   1.592   1.480  0.1250 -1.0262  1.4791
 4173SOL    HW224156   2.889   1.661   1.397  2.4315 -0.2019  0.4685
 4174SOL     OW24157   2.887   4.223   8.085  0.4743  0.2328 -0.6446
 4174SOL    HW124158   2.881   4.206   8.179  0.0166  1.0331 -0.5257
 4174SOL    HW224159   2.794   4.243   8.073  0.2576 -0.6664 -0.4732
 4175SOL     OW24160   0.374   3.153   4.963  0.7652  0.6189 -0.5634
 4175SOL    HW124161   0.371   3.191   5.050  0.5775  0.2318 -0.3992
 4175SOL    HW224162   0.412   3.068   4.985  1.0743  0.8632 -0.1660
 4176SOL     OW24163   2.725   0.249   7.789 -0.3907  0.1738  0.1908
 4176SOL    HW124164   2.689   0.316   7.731  0.0362 -0.5848 -0.9400
 4176SOL    HW224165   2.814   0.281   7.797 -1.0817  2.8514 -3.0312
 4177SOL     OW24166   0.497   1.666   6.962 -0.1883  0.0534  0.5752
 4177SOL    HW124167   0.547   1.649   7.042  0.6555  2.1185  0.4926
 4177SOL    HW224168   0.555   1.714   6.902 -0.6046  1.7339  1.5431
 4178SOL     OW24169   3.365   0.261  16.259  0.2834  0.1598 -0.0990
 4178SOL    HW124170   3.385   0.319  16.332 -1.3743 -0.3301  0.7536
 4178SOL    HW224171   3.292   0.214  16.300  0.7220 -1.2214 -0.9006
 4179SOL     OW24172   1.015   2.952  14.074  0.2230 -0.5245  0.2996
 4179SOL    HW124173   0.948   2.912  14.018  0.2795 -0.5582  0.2555
 4179SOL    HW224174   0.973   2.948  14.160 -0.9767  0.4700 -0.2409
 4180SOL     OW24175   1.032   2.431   9.807 -0.3317  0.6551 -0.0880
 4180SOL    HW124176   0.938   2.424   9.789 -0.1939 -1.0631 -0.0793
 4180SOL    HW224177   1.070   2.417   9.720  2.4672  0.2166  1.2305
 4181SOL     OW24178   3.843   2.385  13.312 -0.0819 -0.6389  0.5930
 4181SOL    HW124179   3.820   2.340  13.231 -1.0713 -1.2945  1.2420
 4181SOL    HW224180   3.789   2.464  13.305 -0.7980 -1.1998 -0.0763
 4182SOL     OW24181   1.167   0.105   3.572  0.2545  0.7156  0.2032
 4182SOL    HW124182   1.178   0.048   3.496 -0.6257 -0.6579  1.1244
 4182SOL    HW224183   1.220   0.062   3.639  0.0300 -0.5890 -0.4515
 4183SOL     OW24184   3.401   2.864  16.890 -0.1021 -0.4588  0.0498
 4183SOL    HW124185   3.457   2.800  16.845 -1.0922 -1.3754  0.1229
 4183SOL    HW224186   3.320   2.819  16.915  0.1773 -1.6297 -1.1185
 4184SOL     OW24187   0.327   2.040  14.392 -0.0456 -0.1484 -0.2833
 4184SOL    HW124188   0.315   2.032  14.298  0.7844 -0.4035 -0.3692
 4184SOL    HW224189   0.418   2.014  14.408 -0.4279 -0.6750  1.0912
 4185SOL     OW24190   1.779   3.693   4.246 -0.4460  0.0340  0.1192
 4185SOL    HW124191   1.762   3.601   4.227  4.0932 -0.0455 -3.5879
 4185SOL    HW224192   1.689   3.716   4.268 -0.8284 -0.6796 -0.7122
 4186SOL     OW24193   0.058   4.123   7.857  0.4120 -0.2338 -0.3369
 4186SOL    HW124194   4.733   4.077   7.800  0.1265 -1.1378  0.6981
 4186SOL    HW224195   0.130   4.106   7.795  0.2246 -0.3318 -0.5287
 4187SOL     OW24196   2.269   0.854   3.760  0.3278 -0.1057 -0.0781
 4187SOL    HW124197   2.217   0.822   3.687 -2.8288  2.7034  0.9521
 4187SOL    HW224198   2.222   0.937   3.767  2.3607  0.9302  1.5979
 4188SOL     OW24199   1.448   1.058   8.073 -0.2464  0.2811  0.1782
 4188SOL    HW124200   1.529   1.061   8.022  0.4654 -2.2263  1.1693
 4188SOL    HW224201   1.484   1.042   8.160 -0.0412 -1.7124 -0.2622
 4189SOL     OW24202   1.076   1.150   4.346  0.0468  0.3845 -0.9621
 4189SOL    HW124203   1.145   1.215   4.360 -0.7719  0.0530  4.4597
 4189SOL    HW224204   1.131   1.073   4.355  1.0766  1.5365  2.4283
 4190SOL     OW24205   3.808   4.071   3.874 -0.3094  0.3005  0.7680
 4190SOL    HW124206   3.873   4.097   3.809 -0.6906 -1.7966 -0.4214
 4190SOL    HW224207   3.839   4.112   3.955 -0.6896  0.6646  0.7308
 4191SOL     OW24208   3.247   1.898  13.279  0.0995 -0.0306  0.0341
 4191SOL    HW124209   3.245   1.863  13.190 -1.5376  0.9866 -0.3231
 4191SOL    HW224210   3.307   1.971  13.267  0.8031 -0.6606 -0.2988
 4192SOL     OW24211   2.693   4.135   0.046  0.1123 -0.1284 -0.2143
 4192SOL    HW124212   2.655   4.106  17.707  0.7231 -0.1229 -0.4959
 4192SOL    HW224213   2.614   4.112   0.094  0.5155  0.7933  0.8894
 4193SOL     OW24214   0.428   4.314  15.251  0.3512 -0.1230 -0.3474
 4193SOL    HW124215   0.389   4.354  15.329  1.9289 -1.1837  0.9787
 4193SOL    HW224216   0.365   4.245  15.228 -0.3698  0.3815  0.0847
 4194SOL     OW24217   3.827   1.742   4.817  0.6265  0.0480 -0.1849
 4194SOL    HW124218   3.826   1.742   4.912 -3.2050 -1.9280 -0.2452
 4194SOL    HW224219   3.736   1.762   4.793 -0.1137 -1.2954  1.5372
 4195SOL     OW24220   2.014   3.388   3.336 -0.5772 -0.3119  0.1582
 4195SOL    HW124221   1.994   3.456   3.400  1.4140  1.5399 -1.1917
 4195SOL    HW224222   2.065   3.325   3.387  0.2926 -1.3030 -1.9480
 4196SOL     OW24223   3.793   2.683  12.735 -0.2302  0.0468 -0.4076
 4196SOL    HW124224   3.846   2.618  12.690 -2.1919 -2.1830  0.5140
 4196SOL    HW224225   3.855   2.720  12.798  0.0015 -3.3867  1.3943
 4197SOL     OW24226   2.058   4.280   3.570 -0.1125 -0.5374  0.0986
 4197SOL    HW124227   2.051   4.348   3.504 -1.4188  0.3516  1.1522
 4197SOL    HW224228   2.119   4.219   3.528 -0.9347 -1.3852  0.1398
 4198SOL     OW24229   0.775   1.409   2.370  0.1556 -0.0882  0.9155
 4198SOL    HW124230   0.821   1.326   2.387  0.3283 -0.1823  0.0224
 4198SOL    HW224231   0.689   1.372   2.351 -1.0003  2.5660  1.0564
 4199SOL     OW24232   3.526   0.262   7.606 -0.0910  0.0398 -0.0395
 4199SOL    HW124233   3.440   0.232   7.635  0.5637 -1.8991 -0.1328
 4199SOL    HW224234   3.576   0.229   7.681 -0.7915  2.1333  1.3678
 4200SOL     OW24235   1.765   1.385   3.329 -0.3679 -0.6115  0.2113
 4200SOL    HW124236   1.686   1.332   3.333 -0.7617  0.1591  2.6320
 4200SOL    HW224237   1.834   1.319   3.320 -1.4590 -1.8954  1.2923
 4201SOL     OW24238   1.450   4.098   6.634 -0.3796 -0.4177  0.3079
 4201SOL    HW124239   1.433   4.189   6.609 -1.5292 -0.1326  2.1490
 4201SOL    HW224240   1.357   4.076   6.632 -0.8904  1.7552  0.2012
 4202SOL     OW24241   0.845   1.649   3.242 -0.3305 -0.0217  0.1222
 4202SOL    HW124242   0.866   1.556   3.252  0.6517  0.0458 -1.2675
 4202SOL    HW224243   0.935   1.682   3.242 -0.6592  0.8618  0.3605
 4203SOL     OW24244   4.577   2.892   3.973  0.4553  0.1346 -0.0304
 4203SOL    HW124245   4.564   2.975   3.927  1.6634  0.9440  1.0865
 4203SOL    HW224246   4.490   2.857   3.991  1.0567 -0.8508  0.9718
 4204SOL     OW24247   1.656   4.396   8.538 -0.9891  0.2078 -0.4520
 4204SOL    HW124248   1.700   4.480   8.555 -2.5469  0.8973  0.1430
 4204SOL    HW224249   1.615   4.387   8.624  1.0227  0.0162  0.5021
 4205SOL     OW24250   0.035   3.182  15.733 -0.9081  0.2204 -0.2346
 4205SOL    HW124251   0.028   3.122  15.658  2.3992 -1.3531  0.7491
 4205SOL    HW224252   0.003   3.120  15.798  0.9192  0.1380  0.5835
 4206SOL     OW24253   4.632   2.750   4.742  0.0312 -0.5739  0.0558
 4206SOL    HW124254   4.660   2.816   4.678 -1.5869  0.0387 -0.0307
 4206SOL    HW224255   4.705   2.690   4.754  0.2991 -0.0226  1.2669
 4207SOL     OW24256   0.707   1.049   2.703  0.1565 -0.0775 -0.1024
 4207SOL    HW124257   0.670   1.110   2.767 -1.2515 -0.2396 -0.7535
 4207SOL    HW224258   0.644   0.977   2.707 -0.3613  0.3692 -0.3164
 4208SOL     OW24259   4.609   2.610   4.997  0.0156 -1.0184  0.0408
 4208SOL    HW124260   4.696   2.590   5.031 -0.2138  0.9793  1.8288
 4208SOL    HW224261   4.624   2.640   4.907  0.4638 -0.5191  0.2813
 4209SOL     OW24262   2.073   4.083   1.419  0.0982  0.3130 -0.0622
 4209SOL    HW124263   2.101   4.015   1.479 -2.3490  0.3174  1.0892
 4209SOL    HW224264   2.141   4.150   1.429 -0.7315  1.0840  0.4730
 4210SOL     OW24265   1.903   1.679   7.534  0.1555 -0.3182  0.2497
 4210SOL    HW124266   1.858   1.707   7.454 -0.7328  0.9486  1.1822
 4210SOL    HW224267   1.835   1.671   7.602 -0.3373  1.1003 -0.0656
 4211SOL     OW24268   0.773   2.087   1.911 -0.0819 -0.5628  0.5328
 4211SOL    HW124269   0.827   2.082   1.990  2.1709 -0.7134 -1.0239
 4211SOL    HW224270   0.715   2.150   1.954  0.0686 -0.7413  0.9935
 4212SOL     OW24271   4.044   1.578   1.621  0.4230 -0.5842  0.1496
 4212SOL    HW124272   4.033   1.548   1.531 -3.5303 -2.0563  1.0859
 4212SOL    HW224273   4.123   1.630   1.613 -0.8915  1.6743  1.8796
 4213SOL     OW24274   4.329   4.504   3.557  0.7938  0.7558 -0.2126
 4213SOL    HW124275   4.317   4.450   3.635 -1.4550  2.5216  0.6587
 4213SOL    HW224276   4.263   4.571   3.573  0.0129 -0.6533  2.4166
 4214SOL     OW24277   2.565   4.341   4.940  0.1555  0.3768 -0.0257
 4214SOL    HW124278   2.611   4.415   4.980  0.9091 -2.0138  3.5218
 4214SOL    HW224279   2.483   4.344   4.990 -0.3813 -0.8492 -0.8306
 4215SOL     OW24280   3.244   3.350  15.238 -0.2730 -0.1485  0.0223
 4215SOL    HW124281   3.281   3.398  15.312  1.1974 -0.0104 -0.8090
 4215SOL    HW224282   3.156   3.389  15.241 -0.5538 -0.5955 -2.2914
 4216SOL     OW24283   0.513   0.799  15.728 -0.7366  0.7957  0.0259
 4216SOL    HW124284   0.448   0.737  15.693 -2.5616  2.0119  1.2417
 4216SOL    HW224285   0.530   0.847  15.647  1.1788 -0.1308 -0.1169
 4217SOL     OW24286   4.657   2.774   1.476  0.1503 -0.3349 -0.2814
 4217SOL    HW124287   4.619   2.846   1.526 -2.3617 -0.6581 -1.7211
 4217SOL    HW224288   0.000   2.760   1.527  1.4471 -0.6093 -2.3813
 4218SOL     OW24289   2.857   1.150  13.995  0.2551 -1.0055 -0.2479
 4218SOL    HW124290   2.894   1.162  14.083 -2.3327  0.9255  0.5905
 4218SOL    HW224291   2.809   1.067  13.998  0.1234 -0.8994  0.9103
 4219SOL     OW24292   4.608   3.977   3.460  1.0178  0.3063  0.0493
 4219SOL    HW124293   4.695   3.941   3.444  0.7554  0.0417 -0.7558
 4219SOL    HW224294   4.614   4.067   3.428 -1.9024  0.2577 -0.6320
 4220SOL     OW24295   4.082   0.856   9.035 -0.6564 -0.3776  0.0494
 4220SOL    HW124296   4.049   0.766   9.037  0.1309 -0.6446  1.1544
 4220SOL    HW224297   4.000   0.903   9.048 -0.1994  0.3362  0.3708
 4221SOL     OW24298   1.256   4.105   7.354  0.0054  0.7364  0.1988
 4221SOL    HW124299   1.316   4.074   7.287 -0.4690 -3.3874  1.6928
 4221SOL    HW224300   1.266   4.198   7.333  1.4309  0.2820 -1.1163
 4222SOL     OW24301   3.712   1.517   1.883  0.3663 -0.0026  0.6789
 4222SOL    HW124302   3.802   1.506   1.915  1.6114 -3.7315 -4.1408
 4222SOL    HW224303   3.700   1.423   1.871 -0.1697  0.1103  0.3554
 4223SOL     OW24304   0.599   0.373   4.416  0.5229  0.5311 -0.1915
 4223SOL    HW124305   0.581   0.450   4.471  0.4587  1.6281 -1.7358
 4223SOL    HW224306   0.548   0.308   4.464  2.3294  0.8218  2.0754
 4224SOL     OW24307   1.149   0.975   1.012 -0.6534  0.2265 -0.5071
 4224SOL    HW124308   1.057   0.962   1.034 -0.6942 -1.8220 -1.8051
 4224SOL    HW224309   1.145   1.003   0.921 -1.0365  1.0288 -0.2394
 4225SOL     OW24310   4.612   1.377   5.853 -0.3038 -0.2721  0.2711
 4225SOL    HW124311   4.610   1.431   5.774 -1.2516  1.6590  1.6154
 4225SOL    HW224312   4.521   1.366   5.879  0.2131  2.1493  3.2005
 4226SOL     OW24313   3.281   1.199   5.184 -0.4478 -0.8315 -0.0444
 4226SOL    HW124314   3.279   1.222   5.091  0.1169  0.3225  0.2218
 4226SOL    HW224315   3.356   1.253   5.208  0.4053 -1.0929 -2.0816
 4227SOL     OW24316   0.997   4.188   7.708  0.0020 -0.3806 -0.0029
 4227SOL    HW124317   1.040   4.271   7.691 -0.3968  0.1189  1.4778
 4227SOL    HW224318   0.907   4.216   7.689  0.2757  1.0985  0.8920
 4228SOL     OW24319   3.449   0.897   6.346  0.5214  0.2209  0.4753
 4228SOL    HW124320   3.364   0.855   6.364  2.8813 -3.8771  1.9990
 4228SOL    HW224321   3.431   0.983   6.383 -0.7612  1.1788 -2.3395
 4229SOL     OW24322   0.693   3.586  16.815 -0.1565 -0.1189 -0.6926
 4229SOL    HW124323   0.705   3.650  16.745  6.3349 -1.3808 -0.6809
 4229SOL    HW224324   0.658   3.508  16.771 -1.1042  0.5400 -1.1207
 4230SOL     OW24325   3.552   3.795  12.687  0.1040 -0.9125 -0.0367
 4230SOL    HW124326   3.485   3.818  12.622  0.5187 -0.7733 -0.4138
 4230SOL    HW224327   3.578   3.882  12.719 -0.9520 -0.7186  0.2819
 4231SOL     OW24328   1.981   1.762   9.618  0.2221  0.3111 -0.3733
 4231SOL    HW124329   1.994   1.817   9.540 -1.3137  1.3687  0.1123
 4231SOL    HW224330   1.885   1.758   9.623  0.3333 -1.9524  0.0510
 4232SOL     OW24331   4.110   1.979  16.963 -0.0764  0.1041  0.1193
 4232SOL    HW124332   4.036   1.958  16.907  0.9532  1.7998 -1.8827
 4232SOL    HW224333   4.184   1.945  16.912  0.9425  1.4813  0.6639
 4233SOL     OW24334   3.268   3.141   2.506  0.4457 -0.3123  0.4668
 4233SOL    HW124335   3.243   3.197   2.580  0.5034 -0.5357  0.6560
 4233SOL    HW224336   3.328   3.196   2.456 -1.0540  0.8812 -0.0119
 4234SOL     OW24337   4.240   2.272   8.616  0.2054  0.1624 -0.4654
 4234SOL    HW124338   4.217   2.244   8.527  1.8281 -2.4939 -0.0527
 4234SOL    HW224339   4.301   2.342   8.593  0.6340  0.6497  2.1814
 4235SOL     OW24340   3.812   3.297   1.620  0.0599 -0.0240 -0.0237
 4235SOL    HW124341   3.907   3.309   1.619  0.0759  0.0235  1.3146
 4235SOL    HW224342   3.790   3.308   1.713 -0.0919 -2.4072  0.2475
 4236SOL     OW24343   0.776   1.696   8.266 -0.1028 -0.2486  0.0777
 4236SOL    HW124344   0.704   1.675   8.325  1.7692 -2.1529  1.6400
 4236SOL    HW224345   0.847   1.721   8.325  0.1784 -0.4376 -0.1810
 4237SOL     OW24346   1.356   0.288  11.062 -0.1411 -0.4746  0.0536
 4237SOL    HW124347   1.260   0.294  11.062 -0.2297 -1.7199 -0.0323
 4237SOL    HW224348   1.372   0.334  10.979 -1.7423 -0.9835 -0.5347
 4238SOL     OW24349   2.727   1.947   1.143 -0.1625 -0.6550 -0.0454
 4238SOL    HW124350   2.795   2.013   1.152 -0.6898 -0.2083  0.6857
 4238SOL    HW224351   2.706   1.950   1.050  1.5664  0.2083 -0.4016
 4239SOL     OW24352   0.529   3.310   7.555 -0.3785  0.0954 -0.2068
 4239SOL    HW124353   0.585   3.380   7.520 -0.4931  0.4878  0.3988
 4239SOL    HW224354   0.451   3.360   7.576 -0.1722  0.0385  0.7170
 4240SOL     OW24355   2.581   4.048   1.661 -0.4382  0.4323 -0.6375
 4240SOL    HW124356   2.570   4.050   1.756 -1.5182 -2.8608 -0.7003
 4240SOL    HW224357   2.506   4.104   1.641 -1.5203 -0.2838  1.3951
 4241SOL     OW24358   1.028   2.700   9.360  0.2119  0.2928  0.1397
 4241SOL    HW124359   1.109   2.726   9.403  1.8721  0.1472 -2.8558
 4241SOL    HW224360   1.039   2.605   9.355 -5.0163 -0.3459  0.8129
 4242SOL     OW24361   2.610   1.039   5.924  0.3264  0.1904 -0.1738
 4242SOL    HW124362   2.532   1.041   5.980 -1.0871  0.6068 -2.1429
 4242SOL    HW224363   2.570   1.081   5.847  1.3177  0.3634 -0.5920
 4243SOL     OW24364   0.708   2.651   2.911  0.1920 -0.2238  0.1507
 4243SOL    HW124365   0.619   2.666   2.944  0.7890  2.3785  0.6082
 4243SOL    HW224366   0.699   2.557   2.901  2.1752 -0.5269  1.2792
 4244SOL     OW24367   2.927   2.823   7.555 -0.0546 -1.2108  0.1305
 4244SOL    HW124368   2.953   2.739   7.517 -0.8463 -1.9295  1.1639
 4244SOL    HW224369   2.833   2.813   7.543 -0.2868  0.4711  0.5683
 4245SOL     OW24370   0.991   0.749   7.315 -0.0982 -0.3598  0.1244
 4245SOL    HW124371   1.013   0.805   7.389  1.6418  0.9746 -1.3768
 4245SOL    HW224372   0.987   0.668   7.365  1.1291 -0.8546 -0.5562
 4246SOL     OW24373   3.726   1.809   4.002  0.0341 -0.3223 -0.2797
 4246SOL    HW124374   3.671   1.772   3.933  2.6073 -2.8828 -0.9524
 4246SOL    HW224375   3.813   1.770   3.994 -0.5981 -1.6175 -0.7543
 4247SOL     OW24376   1.082   1.071  17.446 -0.3993  0.7168  0.7604
 4247SOL    HW124377   0.996   1.057  17.487 -0.5231 -1.7084 -0.3135
 4247SOL    HW224378   1.073   1.156  17.404 -0.4759  0.1236 -0.4350
 4248SOL     OW24379   3.143   1.314   5.556 -0.9752 -0.6729 -0.2476
 4248SOL    HW124380   3.120   1.248   5.491 -0.8804 -1.4944  0.5401
 4248SOL    HW224381   3.214   1.276   5.608 -1.6067  0.7947  1.6956
 4249SOL     OW24382   2.406   3.421   6.433  0.2567 -0.1061  0.1826
 4249SOL    HW124383   2.496   3.400   6.409  0.7834  2.6183 -0.3061
 4249SOL    HW224384   2.374   3.332   6.447 -0.8666  0.1451 -0.7774
 4250SOL     OW24385   0.198   3.877   7.505  0.4785 -0.4163  0.0302
 4250SOL    HW124386   0.195   3.799   7.561  0.0411 -1.3099 -1.2323
 4250SOL    HW224387   0.109   3.862   7.472  0.7588 -1.2055 -0.3554
 4251SOL     OW24388   2.175   1.140   4.724  0.1563 -0.4005  0.9950
 4251SOL    HW124389   2.135   1.225   4.743 -0.8174 -0.4794 -0.6668
 4251SOL    HW224390   2.264   1.163   4.700  0.1277 -3.4281 -2.0715
 4252SOL     OW24391   1.306   2.166   8.628 -0.2233 -0.1972 -0.3874
 4252SOL    HW124392   1.391   2.125   8.616  0.4724  1.6216 -1.5543
 4252SOL    HW224393   1.320   2.208   8.713  0.7095  0.8634 -1.0735
 4253SOL     OW24394   1.734   0.320   8.852 -0.1413  0.4068  0.8410
 4253SOL    HW124395   1.671   0.248   8.858 -1.1343  1.0358 -2.2571
 4253SOL    HW224396   1.688   0.402   8.836 -2.3032 -1.3368 -1.7898
 4254SOL     OW24397   0.409   3.006   8.387  0.0254 -0.0288 -0.3275
 4254SOL    HW124398   0.499   2.978   8.371  0.6004  1.4876  0.2590
 4254SOL    HW224399   0.413   3.095   8.351 -0.0386  0.7891  1.7209
 4255SOL     OW24400   0.944   3.546   5.350  0.3777  0.1750 -0.0984
 4255SOL    HW124401   0.954   3.627   5.300 -1.0240 -0.4483 -1.3965
 4255SOL    HW224402   0.857   3.516   5.322 -0.0984 -0.1579  1.7254
 4256SOL     OW24403   2.898   3.018  17.325  0.0187 -0.5267 -0.5546
 4256SOL    HW124404   2.922   2.936  17.369 -0.5068 -0.5092 -0.2405
 4256SOL    HW224405   2.937   3.010  17.238  2.8149  0.5413  0.5883
 4257SOL     OW24406   3.628   4.397   4.303  0.0429  0.2612  0.0953
 4257SOL    HW124407   3.710   4.359   4.332 -0.3246 -1.1562 -0.7433
 4257SOL    HW224408   3.661   4.481   4.271  0.4004  0.2248  0.3647
 4258SOL     OW24409   2.207   2.811  13.836  0.1906 -0.0779 -0.8059
 4258SOL    HW124410   2.178   2.789  13.924  0.3807  1.4374 -0.3495
 4258SOL    HW224411   2.124   2.788  13.795 -0.8131  1.2726  0.4481
 4259SOL     OW24412   0.616   0.099  11.074  0.5916 -0.0348  0.2038
 4259SOL    HW124413   0.522   0.087  11.057  1.1528 -3.0706 -0.7418
 4259SOL    HW224414   0.617   0.195  11.074 -1.1613 -0.0087  0.0330
 4260SOL     OW24415   4.488   3.102   4.191  0.0334 -0.1521  0.5819
 4260SOL    HW124416   4.482   3.161   4.266  1.0779  2.1864 -1.1697
 4260SOL    HW224417   4.580   3.080   4.206  0.0376 -0.6379 -0.1624
 4261SOL     OW24418   4.384   3.711   9.529 -0.1237  0.0801  0.3836
 4261SOL    HW124419   4.363   3.643   9.593 -0.9599 -1.6237 -1.6796
 4261SOL    HW224420   4.312   3.702   9.466  2.1608  1.0914 -2.3808
 4262SOL     OW24421   0.570   3.978   6.201  0.2927  0.2242  0.0727
 4262SOL    HW124422   0.519   4.048   6.159  0.0874 -1.7030 -2.9302
 4262SOL    HW224423   0.524   3.983   6.284 -1.3484  0.7128 -0.8639
 4263SOL     OW24424   0.618   2.171   3.193  0.3078 -0.5903 -0.3577
 4263SOL    HW124425   0.573   2.238   3.244 -2.1420 -1.8571 -0.8654
 4263SOL    HW224426   0.699   2.175   3.244 -1.4157 -0.5740  2.3674
 4264SOL     OW24427   4.458   1.102   2.530 -0.0962 -0.0771  0.0640
 4264SOL    HW124428   4.543   1.140   2.551 -0.9407  2.3583 -0.9101
 4264SOL    HW224429   4.406   1.175   2.497 -1.7095 -1.6934 -1.0397
 4265SOL     OW24430   2.134   2.211   5.960 -0.0171  0.3492  0.2951
 4265SOL    HW124431   2.108   2.294   5.919  1.1989  0.8865  0.5809
 4265SOL    HW224432   2.114   2.235   6.051 -0.5484 -0.8805  0.4895
 4266SOL     OW24433   4.625   2.082   7.880  0.1712  0.3262  0.3156
 4266SOL    HW124434   4.696   2.136   7.915  1.8699 -1.2415 -0.7150
 4266SOL    HW224435   4.575   2.067   7.960 -0.3467  0.4315  0.0142
 4267SOL     OW24436   0.841   4.595   6.118 -0.4728  0.2133 -0.6668
 4267SOL    HW124437   0.759   4.560   6.084 -0.4256 -0.0865 -0.4670
 4267SOL    HW224438   0.902   4.587   6.044  1.4746  0.5660  0.9233
 4268SOL     OW24439   0.345   1.368   3.279  0.0403 -0.0898 -0.1929
 4268SOL    HW124440   0.252   1.389   3.270  0.0727  0.2373  0.2324
 4268SOL    HW224441   0.376   1.453   3.249  0.6145  0.3951  1.7728
 4269SOL     OW24442   2.589   2.617   7.247 -0.0266  0.0480  0.4328
 4269SOL    HW124443   2.626   2.529   7.256 -1.3812 -0.7127 -1.6015
 4269SOL    HW224444   2.624   2.663   7.324  0.5395 -0.6592  0.6019
 4270SOL     OW24445   0.574   1.422   8.438 -0.0773  0.0853  0.0191
 4270SOL    HW124446   0.563   1.515   8.417  1.0373  0.0111 -0.9086
 4270SOL    HW224447   0.482   1.395   8.445  0.4061 -1.1833  1.4944
 4271SOL     OW24448   4.465   3.688  12.774  0.2184  0.4124  0.3756
 4271SOL    HW124449   4.525   3.618  12.748  2.2232  2.8194 -1.4751
 4271SOL    HW224450   4.515   3.752  12.824  0.2384  0.6824  0.0092
 4272SOL     OW24451   1.581   1.949   6.045 -0.0900 -0.1748  0.0046
 4272SOL    HW124452   1.575   2.039   6.013 -0.8109 -0.2445 -0.0675
 4272SOL    HW224453   1.654   1.920   5.990  0.7398  2.0967 -0.0561
 4273SOL     OW24454   1.097   0.338  11.096  0.4100 -0.1209 -0.1157
 4273SOL    HW124455   1.011   0.378  11.087  0.9250  1.5717  2.4577
 4273SOL    HW224456   1.067   0.265  11.151 -2.8265  1.7080  0.5390
 4274SOL     OW24457   4.402   2.683   3.138 -0.2361  0.4048  0.3855
 4274SOL    HW124458   4.345   2.757   3.158  2.0869  2.3230 -0.0776
 4274SOL    HW224459   4.333   2.616   3.139  0.3435 -0.2030  0.0631
 4275SOL     OW24460   2.252   0.185   4.254 -0.2596  0.2949  0.1734
 4275SOL    HW124461   2.224   0.097   4.227 -1.3498  0.6222  0.2379
 4275SOL    HW224462   2.232   0.174   4.347  1.3699 -1.3565  0.3534
 4276SOL     OW24463   3.761   0.156  10.929  0.1439  0.0623  0.4847
 4276SOL    HW124464   3.764   0.252  10.923 -2.2045  0.1238  0.0285
 4276SOL    HW224465   3.675   0.148  10.971  0.4582 -1.8161  0.7439
 4277SOL     OW24466   1.788   3.133   7.164  0.2890  0.0158  0.0176
 4277SOL    HW124467   1.859   3.140   7.101  0.1382  0.9161 -0.0529
 4277SOL    HW224468   1.852   3.122   7.234 -2.8937 -1.0870  2.7503
 4278SOL     OW24469   0.919   0.783   6.242  0.3269  0.7006 -0.2417
 4278SOL    HW124470   0.837   0.800   6.287  0.3820  0.8265 -0.1870
 4278SOL    HW224471   0.931   0.692   6.268 -2.8120 -0.2484 -2.1066
 4279SOL     OW24472   2.572   1.112   7.045  0.7161 -0.4682  0.0093
 4279SOL    HW124473   2.487   1.101   7.001  1.1747  0.1271 -1.0132
 4279SOL    HW224474   2.625   1.042   7.007  0.8204 -1.1720  1.4487
 4280SOL     OW24475   3.975   1.112   7.146  0.0353  0.1994 -0.4784
 4280SOL    HW124476   3.886   1.143   7.159  0.4845  2.0733 -1.8424
 4280SOL    HW224477   4.026   1.176   7.196 -1.7262  0.3534  1.1217
 4281SOL     OW24478   1.319   2.743   4.994 -0.1485  0.0423 -0.0863
 4281SOL    HW124479   1.401   2.793   4.992  0.5068 -0.9355  2.4996
 4281SOL    HW224480   1.264   2.790   5.056  0.9958 -2.3168  2.6970
 4282SOL     OW24481   1.086   2.530   4.144 -0.9171  0.0098  0.0588
 4282SOL    HW124482   1.137   2.471   4.089  1.8741 -0.5393  3.1720
 4282SOL    HW224483   1.008   2.481   4.168 -0.4510 -0.8417 -0.1630
 4283SOL     OW24484   3.544   1.728   3.499 -0.1918 -0.1824 -0.0871
 4283SOL    HW124485   3.497   1.665   3.554 -0.5311  0.4966  0.3907
 4283SOL    HW224486   3.548   1.672   3.421  0.1642 -0.1585 -0.0881
 4284SOL     OW24487   1.454   1.722   2.736  0.1599 -0.0018 -0.1140
 4284SOL    HW124488   1.386   1.789   2.740 -0.1960 -0.2142 -2.5286
 4284SOL    HW224489   1.412   1.667   2.670 -0.0604 -0.6026  0.5278
 4285SOL     OW24490   3.824   4.044   1.513 -0.4358  0.5048  0.2594
 4285SOL    HW124491   3.830   4.138   1.530  1.5603  0.1538  1.4772
 4285SOL    HW224492   3.845   4.017   1.602 -0.9951  1.7803  0.7723
 4286SOL     OW24493   1.338   3.922  10.503  0.7444  0.0390  0.1955
 4286SOL    HW124494   1.351   3.907  10.596 -0.4342 -0.4589  0.2855
 4286SOL    HW224495   1.334   3.832  10.470 -0.4623  0.8477 -1.8251
 4287SOL     OW24496   3.197   0.478   6.114  0.2289  0.0600  0.0036
 4287SOL    HW124497   3.147   0.425   6.175  0.1395 -0.6026 -0.6493
 4287SOL    HW224498   3.286   0.470   6.148 -0.4488 -0.7777  1.5506
 4288SOL     OW24499   2.196   3.193   6.112 -0.1694  0.2812  0.0321
 4288SOL    HW124500   2.150   3.264   6.067  0.1177  0.2834 -0.2547
 4288SOL    HW224501   2.162   3.119   6.061  3.4696 -1.2352 -0.1671
 4289SOL     OW24502   2.627   2.224  13.455 -0.0983 -0.1156  0.1878
 4289SOL    HW124503   2.684   2.298  13.433 -0.7044  0.2438 -0.1612
 4289SOL    HW224504   2.540   2.263  13.452  0.4343  1.3492  3.9657
 4290SOL     OW24505   3.940   4.729   1.595 -0.0767 -0.2448  0.2650
 4290SOL    HW124506   3.988   0.013   1.514 -0.8958  1.1711  0.1284
 4290SOL    HW224507   3.958   0.065   1.654 -1.5725  0.0577  0.3666
 4291SOL     OW24508   0.441   1.903   3.910 -0.0721 -0.1090 -0.5262
 4291SOL    HW124509   0.523   1.857   3.927  0.2488 -0.2218 -2.4443
 4291SOL    HW224510   0.409   1.926   3.997  1.7763  0.3515  0.0308
 4292SOL     OW24511   3.208   2.767   0.328  0.0714  0.1632  0.5547
 4292SOL    HW124512   3.290   2.734   0.291 -0.4689 -2.4346  1.6947
 4292SOL    HW224513   3.175   2.817   0.253 -1.3294  1.1409  1.8141
 4293SOL     OW24514   4.186   2.226   9.465 -0.2438 -0.6811 -0.1913
 4293SOL    HW124515   4.208   2.177   9.386 -0.1720  0.9845 -1.1886
 4293SOL    HW224516   4.251   2.296   9.462  1.6929 -2.5129 -0.4435
 4294SOL     OW24517   4.669   2.303  12.641  0.4208 -0.1641 -0.5518
 4294SOL    HW124518   0.023   2.290  12.668  0.6286 -0.5310 -1.4409
 4294SOL    HW224519   4.684   2.330  12.551 -1.3777 -1.0010 -1.1132
 4295SOL     OW24520   1.403   3.725  10.706  0.8048  0.2275  0.4235
 4295SOL    HW124521   1.477   3.785  10.704  1.1116 -0.2242 -1.7052
 4295SOL    HW224522   1.439   3.641  10.678  2.1229  0.8473  0.2758
 4296SOL     OW24523   0.861   4.670   1.626 -0.4799  0.1457  0.2125
 4296SOL    HW124524   0.933   4.667   1.564 -0.9956  1.4836 -0.4404
 4296SOL    HW224525   0.789   4.631   1.575  0.7385 -1.3972 -0.3506
 4297SOL     OW24526   0.621   2.479   7.977 -0.1190 -0.6537  0.1861
 4297SOL    HW124527   0.584   2.392   7.960  0.6792 -0.6546 -1.5667
 4297SOL    HW224528   0.695   2.457   8.033 -0.9821  0.0021  1.5712
 4298SOL     OW24529   2.400   4.514   1.378 -0.1589  0.0679 -0.0022
 4298SOL    HW124530   2.428   4.424   1.397  0.3758  0.0942 -0.6592
 4298SOL    HW224531   2.414   4.563   1.459 -1.3170 -1.1559  0.9389
 4299SOL     OW24532   4.147   4.519   1.834  0.1905 -0.2407  0.3470
 4299SOL    HW124533   4.183   4.488   1.751 -0.6779 -0.9877  0.2456
 4299SOL    HW224534   4.119   4.607   1.806  1.4417 -0.7668 -2.5586
 4300SOL     OW24535   2.598   0.780   3.977 -0.2558  0.4343 -0.9788
 4300SOL    HW124536   2.685   0.743   3.973 -0.6280 -0.5526 -0.0943
 4300SOL    HW224537   2.624   0.872   3.977 -0.0181  0.3785  1.8928
 4301SOL     OW24538   0.314   1.604   8.152  0.2323  0.2237  0.0161
 4301SOL    HW124539   0.320   1.700   8.157 -0.7303  0.3085 -0.3726
 4301SOL    HW224540   0.399   1.588   8.111  0.6179  0.8942  0.5579
 4302SOL     OW24541   1.873   4.518   1.403 -0.0042  0.0220  0.1912
 4302SOL    HW124542   1.906   4.498   1.491  1.0127  0.6286 -0.0484
 4302SOL    HW224543   1.953   4.560   1.371 -1.6527  1.3633 -2.0509
 4303SOL     OW24544   1.983   1.770   2.186 -0.4099  0.2485  0.3926
 4303SOL    HW124545   2.005   1.711   2.114 -1.4299  3.0043 -2.1717
 4303SOL    HW224546   1.921   1.825   2.138 -1.7387 -0.9211  0.7540
 4304SOL     OW24547   0.914   2.328   7.231  0.2443 -0.0535  0.4095
 4304SOL    HW124548   0.902   2.313   7.138 -4.4877 -0.4675  1.1114
 4304SOL    HW224549   1.003   2.364   7.233 -0.1447  0.9860 -1.3607
 4305SOL     OW24550   1.484   2.487   8.454  0.5832 -0.0414 -0.0902
 4305SOL    HW124551   1.421   2.477   8.382 -0.7796 -0.4606  1.1753
 4305SOL    HW224552   1.532   2.404   8.455 -0.0640 -0.4188 -0.5271
 4306SOL     OW24553   1.025   1.482   9.252  0.2549 -0.0152 -0.4325
 4306SOL    HW124554   1.037   1.436   9.170 -0.3574 -1.0790  0.0758
 4306SOL    HW224555   1.010   1.574   9.228  0.9724  0.4817  0.9932
 4307SOL     OW24556   0.488   0.392   8.249 -0.1639  0.3928 -0.2204
 4307SOL    HW124557   0.398   0.360   8.250  0.1711 -0.5575 -0.7376
 4307SOL    HW224558   0.529   0.349   8.324 -0.2317  1.0342  0.1863
 4308SOL     OW24559   4.173   1.730  12.505 -0.8002 -0.4901 -0.6805
 4308SOL    HW124560   4.144   1.785  12.432  1.9854  2.7608  0.6705
 4308SOL    HW224561   4.267   1.741  12.488 -0.3154  0.6420  2.8281
 4309SOL     OW24562   3.042   0.596   6.975  0.5434 -0.4039 -0.0663
 4309SOL    HW124563   3.032   0.690   6.965  0.4563 -0.3949  0.0997
 4309SOL    HW224564   2.949   0.571   6.967  0.4305 -0.5456  1.7568
 4310SOL     OW24565   4.075   4.371   8.629  0.2521 -0.0511  0.1852
 4310SOL    HW124566   4.076   4.467   8.630 -1.3541 -0.0398  0.5215
 4310SOL    HW224567   4.052   4.355   8.721 -0.7062 -1.1631 -0.2403
 4311SOL     OW24568   1.080   0.102   4.572 -0.1120 -0.9045  0.3378
 4311SOL    HW124569   1.075   0.085   4.478  0.6374 -1.8159  0.4579
 4311SOL    HW224570   1.055   0.194   4.570  0.4398 -0.7854 -0.7331
 4312SOL     OW24571   1.368   4.270   0.220  0.1600 -0.2522 -0.0332
 4312SOL    HW124572   1.372   4.174   0.223 -0.5685 -0.2207  1.8899
 4312SOL    HW224573   1.403   4.284   0.308  0.2019 -0.0116 -0.0888
 4313SOL     OW24574   2.463   0.133   7.907  0.2524  0.1051  0.3025
 4313SOL    HW124575   2.533   0.072   7.882 -0.3283 -0.6429  0.4793
 4313SOL    HW224576   2.480   0.214   7.858  0.3316 -0.5208 -0.7110
 4314SOL     OW24577   2.980   4.524  15.401  0.5246  0.4710  0.4078
 4314SOL    HW124578   2.963   4.429  15.403  1.5424  0.3323  2.7238
 4314SOL    HW224579   2.980   4.557  15.311 -0.0285 -0.5757  0.0204
 4315SOL     OW24580   1.126   1.365  16.403  0.0228  0.5664 -0.6303
 4315SOL    HW124581   1.173   1.434  16.358  1.4933 -0.1113 -0.1227
 4315SOL    HW224582   1.137   1.379  16.497  1.2817  1.6236 -0.9356
 4316SOL     OW24583   2.807   4.239  15.096  0.3413 -0.0517  0.1725
 4316SOL    HW124584   2.743   4.175  15.064 -1.3899  1.3601  0.8485
 4316SOL    HW224585   2.753   4.291  15.155  1.1580 -0.1892  1.0375
 4317SOL     OW24586   1.415   0.566  10.389  0.4063  0.2504  0.3347
 4317SOL    HW124587   1.466   0.486  10.387 -1.9793 -1.2665  0.2550
 4317SOL    HW224588   1.483   0.634  10.390  0.1282  0.5277  0.5940
 4318SOL     OW24589   4.382   2.357   6.422  0.6682 -0.3912 -0.0677
 4318SOL    HW124590   4.412   2.325   6.337  1.1758  1.2262 -0.5034
 4318SOL    HW224591   4.465   2.393   6.452  1.5691 -1.8928 -0.8004
 4319SOL     OW24592   2.264   1.767  12.877  0.2021  0.2130 -0.3839
 4319SOL    HW124593   2.329   1.796  12.941 -0.8855  1.9544 -0.0613
 4319SOL    HW224594   2.206   1.842  12.888  2.0272  1.1150  3.0619
 4320SOL     OW24595   1.480   2.275   2.671  0.0187  0.0322  0.2024
 4320SOL    HW124596   1.529   2.230   2.740  1.4012  0.5327 -0.4535
 4320SOL    HW224597   1.493   2.366   2.695 -0.0952 -0.1561  1.0007
 4321SOL     OW24598   2.612   3.499  17.209 -0.3380 -0.4482  0.1606
 4321SOL    HW124599   2.664   3.491  17.288 -0.7282  0.0054  0.4681
 4321SOL    HW224600   2.663   3.542  17.140 -0.4469 -0.2282  0.2175
 4322SOL     OW24601   0.995   2.000   2.441  0.5489 -0.1483  0.1789
 4322SOL    HW124602   1.005   2.006   2.536  0.6764 -0.1163  0.1621
 4322SOL    HW224603   0.985   1.907   2.420  0.5497 -0.5146  1.8367
 4323SOL     OW24604   0.193   3.508   8.308 -0.8467 -0.2671 -0.0931
 4323SOL    HW124605   0.264   3.501   8.371  1.5288  0.4125 -2.6766
 4323SOL    HW224606   0.212   3.441   8.242  0.9244 -0.3952  0.5496
 4324SOL     OW24607   3.883   3.765   4.480  0.0538  0.1925  0.2409
 4324SOL    HW124608   3.832   3.689   4.452  1.3362  0.1142 -1.8944
 4324SOL    HW224609   3.821   3.836   4.465  0.6754  0.3540 -1.6049
 4325SOL     OW24610   0.816   2.167   2.165 -0.2905 -0.2465  0.1186
 4325SOL    HW124611   0.766   2.162   2.246  0.1793 -0.7136  0.3755
 4325SOL    HW224612   0.865   2.248   2.180 -0.7740  0.0698 -0.0273
 4326SOL     OW24613   0.992   0.616   3.534 -0.3212 -0.6753  0.4480
 4326SOL    HW124614   1.002   0.610   3.439  0.3930 -3.0383  0.6646
 4326SOL    HW224615   0.950   0.530   3.539 -0.5237 -0.7618 -2.4946
 4327SOL     OW24616   1.104   3.747  10.623 -0.6394 -0.2275  0.6974
 4327SOL    HW124617   1.190   3.706  10.637  0.3134  1.1505 -1.0877
 4327SOL    HW224618   1.075   3.769  10.711  1.9513  0.2353  1.4298
 4328SOL     OW24619   1.653   0.599  10.967 -0.3193 -0.3683 -0.2855
 4328SOL    HW124620   1.622   0.571  11.053 -0.0638  0.8982  0.2053
 4328SOL    HW224621   1.714   0.529  10.941 -0.1635  0.5115 -2.3024
 4329SOL     OW24622   1.310   4.608  12.728 -0.3804  0.2406  0.1756
 4329SOL    HW124623   1.354   4.668  12.668  3.3698  0.5538  3.2178
 4329SOL    HW224624   1.231   4.659  12.744 -2.3265 -2.4354 -0.8126
 4330SOL     OW24625   3.485   3.148   3.416 -0.0402  0.1342 -0.4486
 4330SOL    HW124626   3.444   3.224   3.373 -0.1663  1.5707  2.2409
 4330SOL    HW224627   3.408   3.094   3.432  0.0410  0.7530  2.0196
 4331SOL     OW24628   1.600   2.436   5.404  0.1256 -0.2955 -0.2764
 4331SOL    HW124629   1.540   2.417   5.332 -0.3890 -1.9962  0.5975
 4331SOL    HW224630   1.660   2.504   5.373  0.8557 -0.5609  0.5510
 4332SOL     OW24631   3.155   1.437   8.007  0.1955 -0.2080 -0.1563
 4332SOL    HW124632   3.202   1.406   7.929 -0.3817 -1.5599  0.0346
 4332SOL    HW224633   3.170   1.358   8.059  1.0552  0.0183 -0.0625
 4333SOL     OW24634   3.449   1.558   9.979  0.6373 -0.3453  0.3588
 4333SOL    HW124635   3.531   1.524  10.015 -0.0328 -1.8426  0.4401
 4333SOL    HW224636   3.480   1.638   9.935  0.3497 -0.0380  0.7127
 4334SOL     OW24637   4.013   0.756   7.992  0.3302 -1.1069 -0.4239
 4334SOL    HW124638   4.066   0.728   8.067  0.8543  1.5547  0.1888
 4334SOL    HW224639   4.079   0.810   7.947 -0.6695  0.2608 -0.2395
 4335SOL     OW24640   3.684   1.840  17.062 -0.3443  0.2330 -0.3679
 4335SOL    HW124641   3.721   1.918  17.021 -1.0670  1.8379  2.0592
 4335SOL    HW224642   3.739   1.778  17.014 -2.1017 -1.5536 -0.0946
 4336SOL     OW24643   2.467   1.286   8.272 -0.2400 -0.2249 -0.1493
 4336SOL    HW124644   2.407   1.306   8.201 -0.8657 -4.4030 -0.7971
 4336SOL    HW224645   2.552   1.324   8.249  0.0312 -0.6924  0.0871
 4337SOL     OW24646   2.950   1.884   3.756  0.3710 -0.4015 -0.3512
 4337SOL    HW124647   2.891   1.923   3.821  0.4072  1.9048 -1.7028
 4337SOL    HW224648   2.960   1.802   3.804  1.0696 -0.1729 -0.0963
 4338SOL     OW24649   1.846   2.667   5.262 -0.2753 -0.4375  0.1431
 4338SOL    HW124650   1.821   2.758   5.279  1.2197  0.1630 -0.9103
 4338SOL    HW224651   1.922   2.681   5.205 -0.1853  0.0553  0.3822
 4339SOL     OW24652   0.401   3.784  16.684 -0.1573  0.2797 -0.1621
 4339SOL    HW124653   0.394   3.693  16.713 -0.5420  0.4854  0.3835
 4339SOL    HW224654   0.312   3.819  16.690 -0.7898 -1.4595  0.4636
 4340SOL     OW24655   3.817   3.987   8.376 -0.6767  0.4028 -0.0623
 4340SOL    HW124656   3.893   3.931   8.362 -0.2234  1.1026 -0.3906
 4340SOL    HW224657   3.773   4.001   8.292  0.2711  1.9096 -0.3052
 4341SOL     OW24658   2.858   2.492   4.888 -0.9685 -0.1965  0.2403
 4341SOL    HW124659   2.861   2.534   4.802  1.0689  0.8068  0.8026
 4341SOL    HW224660   2.899   2.407   4.872 -0.2040  0.4339 -1.1540
 4342SOL     OW24661   2.426   3.384   8.137 -0.1037  0.1380 -0.1557
 4342SOL    HW124662   2.447   3.332   8.214 -2.8385 -0.3084  0.2938
 4342SOL    HW224663   2.415   3.311   8.077  0.3337  0.1907 -0.2956
 4343SOL     OW24664   4.046   2.013  13.860 -0.4592  0.4190  0.5141
 4343SOL    HW124665   3.987   1.945  13.828 -0.9283  1.8447 -1.6884
 4343SOL    HW224666   4.074   1.959  13.933  0.8884 -2.1106 -1.8756
 4344SOL     OW24667   1.228   2.093   9.653  0.1697  0.1196  0.0054
 4344SOL    HW124668   1.223   2.040   9.573 -0.3055 -0.7153  0.5894
 4344SOL    HW224669   1.160   2.055   9.709 -1.0675  3.2653  0.6076
 4345SOL     OW24670   0.966   0.307   1.974  0.5333 -0.4022  0.4525
 4345SOL    HW124671   1.058   0.332   1.984  0.6128 -0.3965 -0.3251
 4345SOL    HW224672   0.939   0.365   1.903  0.5376  0.5928  1.2722
 4346SOL     OW24673   0.729   4.085   2.640 -0.2595 -0.0583 -0.6145
 4346SOL    HW124674   0.742   4.172   2.602  0.0991  0.9672  1.8891
 4346SOL    HW224675   0.638   4.060   2.621 -0.1213 -0.6869 -0.4220
 4347SOL     OW24676   1.253   4.049   6.263  0.2256 -0.7642  0.9955
 4347SOL    HW124677   1.206   3.976   6.303 -0.3773  0.1210  1.9440
 4347SOL    HW224678   1.286   4.015   6.180  1.8158 -0.5629  1.5526
 4348SOL     OW24679   3.485   4.210   1.548  0.1297  0.3998 -0.4753
 4348SOL    HW124680   3.577   4.214   1.522  0.0312 -0.3474 -0.9180
 4348SOL    HW224681   3.484   4.298   1.588  0.9491 -0.6889  1.9312
 4349SOL     OW24682   0.757   1.436   7.190  0.0149  0.1819  0.1070
 4349SOL    HW124683   0.818   1.501   7.225  1.3441 -0.2315 -1.4382
 4349SOL    HW224684   0.775   1.352   7.234  0.2017 -0.2424 -0.7866
 4350SOL     OW24685   3.803   3.953  16.303 -0.3160 -0.1602 -0.0892
 4350SOL    HW124686   3.820   4.000  16.222 -0.3739 -1.7028 -0.9890
 4350SOL    HW224687   3.854   3.875  16.282  0.6351 -0.0372  1.7479
 4351SOL     OW24688   2.450   3.714   8.309 -0.1616 -0.3730 -0.5852
 4351SOL    HW124689   2.545   3.720   8.296 -0.3304 -0.0632 -1.6637
 4351SOL    HW224690   2.441   3.645   8.375  4.4281 -1.4072 -1.0075
 4352SOL     OW24691   3.168   0.988   6.669 -0.4457 -0.0417 -0.0533
 4352SOL    HW124692   3.240   0.925   6.661  1.1280  1.7134  0.2491
 4352SOL    HW224693   3.214   1.054   6.721 -0.0280  0.2529 -0.8018
 4353SOL     OW24694   1.739   2.588   7.786  0.1347  0.0204 -0.6145
 4353SOL    HW124695   1.707   2.587   7.696 -0.8498  1.1576 -0.2727
 4353SOL    HW224696   1.754   2.497   7.813 -3.1779 -0.4163 -0.2277
 4354SOL     OW24697   0.132   3.666  15.521  0.2677 -0.4224  0.7561
 4354SOL    HW124698   0.175   3.618  15.450 -1.0608 -2.4342  1.2870
 4354SOL    HW224699   0.149   3.597  15.585 -1.4139  0.7233  2.4474
 4355SOL     OW24700   3.822   1.809   8.658 -0.2747 -0.0868 -0.2722
 4355SOL    HW124701   3.848   1.860   8.735  0.2058  0.4254 -0.7645
 4355SOL    HW224702   3.830   1.874   8.588 -2.1093  3.7513  3.0716
 4356SOL     OW24703   3.067   3.474   4.921  0.0689  0.6246 -0.3281
 4356SOL    HW124704   3.079   3.402   4.983 -2.4730 -0.7479 -1.4434
 4356SOL    HW224705   3.081   3.550   4.978  1.0580 -0.4544  0.8507
 4357SOL     OW24706   3.863   4.319   2.847 -0.8989  0.2931 -0.6385
 4357SOL    HW124707   3.780   4.350   2.811 -0.0089  2.3745 -0.9045
 4357SOL    HW224708   3.923   4.327   2.773  1.5598  0.2370  1.3480
 4358SOL     OW24709   0.015   3.529   9.168 -0.1897 -0.0845  0.9310
 4358SOL    HW124710   4.710   3.588   9.105  0.4921 -0.2656  0.3124
 4358SOL    HW224711   0.083   3.590   9.199  1.2839 -1.1146 -0.2936
 4359SOL     OW24712   3.542   1.290   4.272 -0.1903  0.1328  0.5928
 4359SOL    HW124713   3.587   1.305   4.188 -0.0307  0.6316  0.7627
 4359SOL    HW224714   3.566   1.372   4.315 -0.4253  1.3051 -1.5080
 4360SOL     OW24715   1.337   3.133   7.703  0.3160 -0.6909 -0.1230
 4360SOL    HW124716   1.310   3.083   7.626 -1.0827  0.3415 -0.3094
 4360SOL    HW224717   1.383   3.056   7.736 -2.6936 -1.8262  1.4674
 4361SOL     OW24718   2.093   3.298   2.512 -0.3929  0.4668 -0.4066
 4361SOL    HW124719   2.075   3.367   2.448 -0.6737 -1.8716 -2.8526
 4361SOL    HW224720   2.101   3.232   2.443  0.1973 -2.3474  2.3610
 4362SOL     OW24721   2.941   0.640   6.085  0.2010  0.3365 -0.4629
 4362SOL    HW124722   2.985   0.726   6.087 -0.1312  0.4494  2.1491
 4362SOL    HW224723   3.025   0.594   6.084  0.5162  0.9343 -1.2855
 4363SOL     OW24724   0.306   1.441  10.320 -0.2907 -0.4038  0.2783
 4363SOL    HW124725   0.358   1.456  10.399 -1.8435  0.8291  1.0749
 4363SOL    HW224726   0.316   1.346  10.322 -1.3240 -0.4901  1.6648
 4364SOL     OW24727   1.851   4.250  17.610 -0.2163  0.0696 -0.0500
 4364SOL    HW124728   1.882   4.221  17.696  0.7715 -1.0261 -0.7644
 4364SOL    HW224729   1.819   4.170  17.568  2.6147 -0.5805 -1.0364
 4365SOL     OW24730   0.890   2.302  11.169  0.2240  0.1322  0.1170
 4365SOL    HW124731   0.827   2.313  11.098  0.2899  0.9513  0.1843
 4365SOL    HW224732   0.845   2.236  11.222 -1.9232 -0.0318 -1.9133
 4366SOL     OW24733   0.203   2.671   8.799  0.5901 -0.0335 -1.0889
 4366SOL    HW124734   0.220   2.653   8.892 -1.0059 -0.5759 -0.8865
 4366SOL    HW224735   0.226   2.762   8.783 -1.0328  0.5955  0.1329
 4367SOL     OW24736   3.204   0.023   5.395  0.7233 -0.3477  0.3645
 4367SOL    HW124737   3.247   0.094   5.347  1.5717  0.2884  2.0352
 4367SOL    HW224738   3.241   0.031   5.483 -0.9365  1.4682  0.8698
 4368SOL     OW24739   3.502   0.072  11.003  0.0046  0.1765 -0.0422
 4368SOL    HW124740   3.494   4.726  10.955  0.1303 -0.2068  0.5823
 4368SOL    HW224741   3.408   0.087  11.013 -0.6510 -3.5813 -0.3377
 4369SOL     OW24742   2.052   2.455   7.309  0.5496  0.0638  0.6940
 4369SOL    HW124743   2.092   2.444   7.222 -1.0888 -0.5149  0.0188
 4369SOL    HW224744   2.002   2.535   7.296 -3.0088 -1.9179  2.1254
 4370SOL     OW24745   2.214   2.065   6.406 -0.6536 -0.1550 -0.0181
 4370SOL    HW124746   2.180   2.136   6.352 -2.7273 -0.7560  0.5117
 4370SOL    HW224747   2.261   2.114   6.473 -1.0500  0.4566 -0.1836
 4371SOL     OW24748   0.765   2.847   9.918  0.1590  0.3641  0.0962
 4371SOL    HW124749   0.694   2.822   9.977 -0.1663 -0.2602 -0.5559
 4371SOL    HW224750   0.720   2.911   9.863 -0.4873  1.3631  1.7761
 4372SOL     OW24751   0.568   3.600  16.103  0.3042  0.4562 -0.6926
 4372SOL    HW124752   0.533   3.687  16.083  1.6028  1.2229  0.3510
 4372SOL    HW224753   0.637   3.620  16.166 -2.4148  1.1023  2.0145
 4373SOL     OW24754   0.367   3.055   7.442 -1.0264  0.4334 -0.3150
 4373SOL    HW124755   0.284   3.080   7.401  0.4873  1.8374 -2.5391
 4373SOL    HW224756   0.408   3.137   7.470 -2.1668  0.0975  2.3505
 4374SOL     OW24757   1.776   4.513   7.024  0.1162 -0.0252 -0.0487
 4374SOL    HW124758   1.827   4.435   7.002 -0.3283 -0.8208  1.6616
 4374SOL    HW224759   1.704   4.504   6.962  2.3087 -1.1432 -2.4125
 4375SOL     OW24760   3.739   1.247   6.464  0.4536  0.2183 -0.0357
 4375SOL    HW124761   3.764   1.199   6.544  0.9377  1.9496  0.8536
 4375SOL    HW224762   3.807   1.315   6.464  1.7499 -1.0799  0.2119
 4376SOL     OW24763   0.672   2.940   8.386  0.2751 -0.0907  0.2527
 4376SOL    HW124764   0.709   2.911   8.303  1.4323 -0.2766  0.8281
 4376SOL    HW224765   0.727   3.017   8.399  1.6490 -0.7365 -1.7195
 4377SOL     OW24766   2.062   3.150   4.419  0.3112  0.5346  0.5719
 4377SOL    HW124767   2.019   3.147   4.334  0.1969 -0.3280  0.6680
 4377SOL    HW224768   2.015   3.224   4.457  0.9385  1.7135 -0.9251
 4378SOL     OW24769   3.043   4.497   6.589 -0.1184 -0.0895  0.3377
 4378SOL    HW124770   2.976   4.563   6.572  0.8445  0.7990  0.0181
 4378SOL    HW224771   2.984   4.429   6.621 -0.9857  1.6430  2.4251
 4379SOL     OW24772   3.453   0.119   8.039 -0.1952  0.2263  0.2033
 4379SOL    HW124773   3.508   0.111   8.117 -0.7659 -4.1698  0.1520
 4379SOL    HW224774   3.512   0.170   7.983  0.6306 -3.0671 -1.8910
 4380SOL     OW24775   3.883   1.435   8.330 -0.3317  0.3340  0.3175
 4380SOL    HW124776   3.824   1.416   8.403 -0.4023  1.4472  0.5443
 4380SOL    HW224777   3.847   1.376   8.263 -1.6655 -0.0924  1.4192
 4381SOL     OW24778   1.690   3.151   9.972  0.1126  0.5190  0.5122
 4381SOL    HW124779   1.776   3.150  10.012  0.3725 -2.6591 -0.1732
 4381SOL    HW224780   1.640   3.082  10.016  1.5353 -1.0151 -0.2977
 4382SOL     OW24781   2.082   3.080   3.931 -0.3245 -0.1793  0.1780
 4382SOL    HW124782   2.044   3.168   3.936 -2.3482 -1.1123  1.3588
 4382SOL    HW224783   2.089   3.069   3.836  0.2752 -1.2140  0.3320
 4383SOL     OW24784   1.472   1.891  11.693 -0.0279  0.0887  0.3944
 4383SOL    HW124785   1.492   1.798  11.702  0.8733  0.2929  0.4967
 4383SOL    HW224786   1.439   1.919  11.779  1.1853  1.1932  0.4929
 4384SOL     OW24787   3.373   0.157  16.831 -0.1091  0.2959 -0.4669
 4384SOL    HW124788   3.451   0.128  16.878 -1.9886 -2.4239  0.9971
 4384SOL    HW224789   3.313   0.140  16.904 -0.0176  0.8019 -0.2732
 4385SOL     OW24790   1.672   3.866   3.500  0.1971  0.3731 -0.0541
 4385SOL    HW124791   1.650   3.939   3.558 -0.8081 -1.6414  2.0802
 4385SOL    HW224792   1.697   3.908   3.418  0.4282 -0.1226 -0.2337
 4386SOL     OW24793   0.191   2.392   9.305 -0.0283  0.4460 -0.1847
 4386SOL    HW124794   0.234   2.391   9.220 -1.2917  1.2437 -0.8456
 4386SOL    HW224795   0.182   2.487   9.319 -2.3751  0.3586 -1.1112
 4387SOL     OW24796   3.163   0.834   8.242  0.3032  0.1784 -0.5331
 4387SOL    HW124797   3.069   0.818   8.242  0.4714 -0.8330 -1.0302
 4387SOL    HW224798   3.168   0.927   8.264  1.0831 -0.4900  2.0700
 4388SOL     OW24799   1.748   3.059   0.140 -0.2602 -0.5121 -0.3611
 4388SOL    HW124800   1.726   3.144   0.178  1.8422 -1.3780  2.7992
 4388SOL    HW224801   1.813   3.087   0.075 -1.6119 -0.3351 -1.6414
 4389SOL     OW24802   2.691   0.499   5.053  0.1746  0.8058 -0.1357
 4389SOL    HW124803   2.692   0.404   5.068  0.7815  0.9179  0.5377
 4389SOL    HW224804   2.712   0.535   5.139  0.9011  0.0262  0.0140
 4390SOL     OW24805   0.115   1.739   7.203  0.0759 -0.0409  0.4532
 4390SOL    HW124806   0.161   1.674   7.257  1.8449  1.2051  0.4431
 4390SOL    HW224807   0.035   1.700   7.169  0.2106 -0.5328  0.6911
 4391SOL     OW24808   1.014   0.951  17.062  0.0381  0.0269 -0.3030
 4391SOL    HW124809   0.982   0.950  16.971 -0.3979  1.8685 -0.1860
 4391SOL    HW224810   0.950   1.005  17.109 -1.9595 -1.9268 -0.7458
 4392SOL     OW24811   2.116   1.716   4.822 -0.0217  0.2097 -0.0058
 4392SOL    HW124812   2.031   1.680   4.797 -0.1723 -0.6103  1.6904
 4392SOL    HW224813   2.129   1.797   4.771  0.5792  0.7342  0.9685
 4393SOL     OW24814   0.615   0.115  16.712  0.1394 -0.0500  0.0979
 4393SOL    HW124815   0.555   0.043  16.734  1.6649 -0.6203  2.4054
 4393SOL    HW224816   0.689   0.085  16.764 -1.5748 -1.2510  1.8832
 4394SOL     OW24817   1.238   0.694  11.386 -0.1002  0.2431 -0.1064
 4394SOL    HW124818   1.265   0.655  11.303  0.9812  1.7764 -0.4766
 4394SOL    HW224819   1.148   0.700  11.353 -0.1913 -1.1347 -0.1282
 4395SOL     OW24820   3.770   3.190   2.218 -0.1297  0.1620  0.8783
 4395SOL    HW124821   3.782   3.265   2.277  0.0614  0.4051  0.5269
 4395SOL    HW224822   3.675   3.183   2.222 -0.2583  1.8897  0.6649
 4396SOL     OW24823   1.477   4.532   7.516  0.1566  0.1978 -0.2209
 4396SOL    HW124824   1.436   4.617   7.528  1.1823  0.4309  1.6381
 4396SOL    HW224825   1.406   4.467   7.521  0.6251 -0.5037 -2.7865
 4397SOL     OW24826   4.164   0.005   3.855  0.1656 -0.2178 -0.7581
 4397SOL    HW124827   4.187   0.098   3.858 -1.9066  0.1524  3.5786
 4397SOL    HW224828   4.227   4.705   3.916  0.5950  2.9068  0.6358
 4398SOL     OW24829   4.197   1.685  11.678 -0.4164 -0.2930 -0.1834
 4398SOL    HW124830   4.143   1.762  11.658  1.1818  1.1343  0.9861
 4398SOL    HW224831   4.140   1.638  11.739  2.2056 -1.5967  1.2448
 4399SOL     OW24832   1.907   4.413   2.388 -0.1013  0.4634 -0.5368
 4399SOL    HW124833   1.850   4.352   2.435  2.0809 -0.8048  0.4406
 4399SOL    HW224834   1.981   4.360   2.357  1.0843  1.7764  0.0777
 4400SOL     OW24835   1.937   4.072   3.865  0.1242  0.0681 -0.2535
 4400SOL    HW124836   2.014   4.015   3.866  1.3823  1.7156 -1.0971
 4400SOL    HW224837   1.907   4.077   3.774  1.1722 -0.0854 -0.6160
 4401SOL     OW24838   4.310   3.139   4.492 -0.1241 -0.3690 -0.5091
 4401SOL    HW124839   4.330   3.216   4.439 -1.6475  0.0877 -0.4247
 4401SOL    HW224840   4.214   3.140   4.502 -0.0831 -0.7173 -0.0754
 4402SOL     OW24841   4.512   0.898   7.809  0.6264 -0.0499  0.0235
 4402SOL    HW124842   4.498   0.806   7.832  0.7510 -0.0311  0.1750
 4402SOL    HW224843   4.575   0.935   7.871  0.2817  0.6799 -0.0673
 4403SOL     OW24844   2.812   3.426   6.698  0.0104 -0.8216 -0.5039
 4403SOL    HW124845   2.853   3.340   6.691  2.5290  0.4427 -1.2820
 4403SOL    HW224846   2.867   3.464   6.766 -3.2651 -1.7527  2.7075
 4404SOL     OW24847   0.315   1.479  10.983 -1.1960 -0.4519  0.6000
 4404SOL    HW124848   0.321   1.519  11.070  1.7753  0.2570  0.0666
 4404SOL    HW224849   0.245   1.535  10.951 -1.2103 -0.8610 -0.1014
 4405SOL     OW24850   0.983   0.509  11.415  0.1099  0.2617  0.1246
 4405SOL    HW124851   0.935   0.572  11.361  1.3217  2.2123  1.3548
 4405SOL    HW224852   0.913   0.471  11.469 -0.0968 -0.2152 -0.4747
 4406SOL     OW24853   1.719   1.093   9.091  0.3601 -0.3285  0.1324
 4406SOL    HW124854   1.678   1.091   9.005  1.3798 -1.3512 -0.3286
 4406SOL    HW224855   1.645   1.055   9.139  0.0578 -1.0921 -0.9432
 4407SOL     OW24856   4.070   3.908   9.617 -0.3075  0.4094 -0.4802
 4407SOL    HW124857   4.025   3.930   9.535 -0.6092 -0.5391 -0.5704
 4407SOL    HW224858   4.031   3.964   9.684  1.9971  1.3564  0.0603
 4408SOL     OW24859   1.556   2.023   3.480  0.5188 -0.0769  0.0753
 4408SOL    HW124860   1.638   1.974   3.486 -1.3561 -3.1070  0.7206
 4408SOL    HW224861   1.497   1.956   3.446  0.1102 -0.7270  2.0687
 4409SOL     OW24862   4.369   0.313  13.722  0.4621  0.1628  0.4155
 4409SOL    HW124863   4.459   0.280  13.730  0.4200 -0.7483 -2.7402
 4409SOL    HW224864   4.320   0.273  13.793  0.6327 -2.2341 -0.8307
 4410SOL     OW24865   0.123   3.502   5.643 -0.4318 -0.1244  0.1564
 4410SOL    HW124866   0.127   3.588   5.685  0.2874 -1.4500  2.7958
 4410SOL    HW224867   0.126   3.453   5.725  1.8075 -0.2539 -0.0105
 4411SOL     OW24868   1.293   2.460  10.750 -0.5451 -0.0750  0.0247
 4411SOL    HW124869   1.389   2.459  10.747 -0.5713 -2.0129 -0.4347
 4411SOL    HW224870   1.261   2.370  10.752 -1.4398  0.2796  1.3715
 4412SOL     OW24871   4.715   1.572   9.436  0.9746  0.2982 -1.0569
 4412SOL    HW124872   0.017   1.596   9.521  1.2754  1.7027 -1.5923
 4412SOL    HW224873   4.735   1.648   9.381  0.0100  0.4622 -1.1710
 4413SOL     OW24874   1.357   4.063  15.451  0.0843 -0.1038 -0.6993
 4413SOL    HW124875   1.312   4.034  15.372  1.1414 -0.8463 -1.0244
 4413SOL    HW224876   1.348   3.986  15.507 -1.0103  0.9732  0.5870
 4414SOL     OW24877   4.371   1.578  16.516  0.0420  0.5307  0.1885
 4414SOL    HW124878   4.404   1.492  16.489 -2.0010 -0.1106 -0.3297
 4414SOL    HW224879   4.335   1.558  16.603 -0.0963  2.9258  0.6872
 4415SOL     OW24880   0.416   4.467   4.581 -0.0656 -0.3231  0.1767
 4415SOL    HW124881   0.428   4.447   4.674  2.2148 -1.1168 -0.2796
 4415SOL    HW224882   0.478   4.538   4.563 -0.7727  0.5242  1.0827
 4416SOL     OW24883   2.115   1.544   5.330  0.1326 -0.3627 -0.4501
 4416SOL    HW124884   2.028   1.536   5.291 -0.1570 -1.3416  0.4140
 4416SOL    HW224885   2.088   1.542   5.422 -0.9870 -3.6440 -0.8452
 4417SOL     OW24886   1.013   0.771   4.248 -0.1424  0.6811 -0.3829
 4417SOL    HW124887   1.006   0.770   4.152  0.7859 -1.2287 -0.4369
 4417SOL    HW224888   0.919   0.769   4.266  0.1178 -1.6372  0.8053
 4418SOL     OW24889   2.772   2.777   8.807 -0.0172 -0.7625  0.1351
 4418SOL    HW124890   2.744   2.865   8.832 -0.9696 -1.0167 -0.0545
 4418SOL    HW224891   2.821   2.743   8.883  0.9534  0.1920 -0.0645
 4419SOL     OW24892   4.501   0.026   8.099 -0.5272 -0.0091  0.2923
 4419SOL    HW124893   4.520   0.058   8.188 -0.6464  0.6940  0.0691
 4419SOL    HW224894   4.578   4.708   8.080 -0.2882  0.1934  0.6646
 4420SOL     OW24895   3.902   4.266  12.827 -0.1193  0.1824 -0.1594
 4420SOL    HW124896   3.925   4.359  12.831  2.0273 -0.3389 -0.2623
 4420SOL    HW224897   3.926   4.248  12.918  1.4750 -0.3367 -0.6754
 4421SOL     OW24898   1.178   1.157   1.327  0.2463 -0.0060  0.7035
 4421SOL    HW124899   1.141   1.069   1.337  2.4195 -0.9109  0.6434
 4421SOL    HW224900   1.268   1.138   1.350  0.9999  1.0789 -1.3224
 4422SOL     OW24901   3.624   1.299   9.381  0.1642 -0.3817  0.2484
 4422SOL    HW124902   3.640   1.265   9.469 -0.3412 -1.6315 -0.1437
 4422SOL    HW224903   3.713   1.296   9.346  0.4562  0.3339  0.9254
 4423SOL     OW24904   0.730   3.636   0.213 -0.0954 -0.1370 -0.2742
 4423SOL    HW124905   0.708   3.546   0.188  1.1218 -0.0198 -1.7999
 4423SOL    HW224906   0.796   3.664   0.150 -0.1777 -1.2742 -0.8708
 4424SOL     OW24907   3.875   0.137   4.363 -0.2373 -0.3567  0.2472
 4424SOL    HW124908   3.847   0.070   4.300  1.0588 -2.2232  1.6683
 4424SOL    HW224909   3.853   0.092   4.444 -0.9443 -2.9081 -1.3422
 4425SOL     OW24910   3.206   3.825   3.562  0.4188  0.8006  0.1081
 4425SOL    HW124911   3.267   3.751   3.553 -0.2513  0.2632 -0.0359
 4425SOL    HW224912   3.274   3.882   3.597 -0.0201  0.0936  2.1071
 4426SOL     OW24913   0.810   0.459   0.572 -0.3925 -0.0945 -0.0891
 4426SOL    HW124914   0.837   0.444   0.662  0.9449 -0.4582 -0.5443
 4426SOL    HW224915   0.731   0.512   0.580  0.4481  0.7747  2.3354
 4427SOL     OW24916   1.024   3.175   8.116  0.1520 -0.4053  0.1187
 4427SOL    HW124917   1.112   3.181   8.154  0.2461  2.6279 -0.5908
 4427SOL    HW224918   1.020   3.256   8.066 -1.3901 -2.3610 -2.8916
 4428SOL     OW24919   0.652   0.033   3.592  0.0270  0.2022  0.1244
 4428SOL    HW124920   0.646   4.712   3.515 -2.5722  1.8729 -0.9107
 4428SOL    HW224921   0.741   0.013   3.620  0.6098 -0.9007 -2.5247
 4429SOL     OW24922   1.518   1.621  15.142 -0.1350 -0.2150 -0.0569
 4429SOL    HW124923   1.608   1.654  15.136  0.0964 -0.7842  0.2688
 4429SOL    HW224924   1.501   1.648  15.232  0.4380 -1.1875  0.3372
 4430SOL     OW24925   3.349   2.486   3.541  0.0109 -0.4612  0.4530
 4430SOL    HW124926   3.437   2.480   3.578 -1.2810 -0.6362  3.4708
 4430SOL    HW224927   3.335   2.580   3.526  0.4071 -0.3179  0.9925
 4431SOL     OW24928   2.860   1.590   9.503 -0.5006 -0.5279 -0.2502
 4431SOL    HW124929   2.922   1.566   9.572  0.8450 -1.7053 -1.8703
 4431SOL    HW224930   2.909   1.549   9.432  0.1195 -0.6751  0.2571
 4432SOL     OW24931   3.485   3.475   4.714  0.2969  0.0986  0.4310
 4432SOL    HW124932   3.558   3.438   4.765  0.3792 -2.5904 -1.6215
 4432SOL    HW224933   3.524   3.457   4.629  0.4459 -1.0534  0.7425
 4433SOL     OW24934   0.988   2.600   3.034  0.4611 -0.0461 -0.4081
 4433SOL    HW124935   0.914   2.625   2.977 -0.1047 -1.5854 -0.3465
 4433SOL    HW224936   0.957   2.611   3.124 -0.9345  3.6149 -1.3113
 4434SOL     OW24937   3.424   1.873   2.534 -0.4100  0.1405  0.2499
 4434SOL    HW124938   3.511   1.843   2.507 -0.7005  0.8280 -1.4726
 4434SOL    HW224939   3.393   1.906   2.450  1.0674  0.1144 -0.3040
 4435SOL     OW24940   3.147   1.919   5.088  1.5537  0.3805 -0.4386
 4435SOL    HW124941   3.054   1.906   5.109  1.4540 -0.0657 -1.1383
 4435SOL    HW224942   3.172   2.008   5.112  0.1197  0.6283  0.1492
 4436SOL     OW24943   3.014   0.786   2.777 -0.3953  0.0999 -0.7547
 4436SOL    HW124944   3.035   0.768   2.686 -0.7785  0.9443 -1.0101
 4436SOL    HW224945   2.994   0.696   2.804 -0.0258  0.4632  0.7125
 4437SOL     OW24946   2.313   4.170   7.804 -0.2881  0.6477 -0.3971
 4437SOL    HW124947   2.263   4.096   7.837 -0.5868  1.4418  0.9349
 4437SOL    HW224948   2.307   4.229   7.879  1.5275  1.8280 -1.1693
 4438SOL     OW24949   4.556   2.882   9.742 -0.5950 -0.1629  0.6421
 4438SOL    HW124950   4.542   2.890   9.836 -1.8123  2.7260  0.2044
 4438SOL    HW224951   4.562   2.787   9.737  2.6937 -0.1329  4.1038
 4439SOL     OW24952   0.783   0.853  10.838 -0.4382  0.3048 -0.7174
 4439SOL    HW124953   0.839   0.778  10.859  0.8441  1.6685  0.7795
 4439SOL    HW224954   0.792   0.896  10.923 -0.1874  0.1670 -0.6733
 4440SOL     OW24955   4.477   1.761   2.777 -0.5050 -0.0297 -0.2430
 4440SOL    HW124956   4.496   1.828   2.843 -0.6568 -0.5669  0.3478
 4440SOL    HW224957   4.559   1.712   2.789  0.1382  1.0776 -0.0554
 4441SOL     OW24958   0.996   4.181   6.940 -0.1920  0.5913 -0.2479
 4441SOL    HW124959   1.001   4.127   6.861 -1.7989  0.3457 -0.1967
 4441SOL    HW224960   1.040   4.255   6.899 -0.0156  1.1787  1.0146
 4442SOL     OW24961   1.620   2.100   9.133 -0.0449 -0.0610 -0.4160
 4442SOL    HW124962   1.670   2.050   9.198 -1.8454 -1.1400  0.1605
 4442SOL    HW224963   1.648   2.191   9.137 -2.7907  0.7767 -0.0506
 4443SOL     OW24964   3.496   3.058   7.170 -0.0721  0.2060  0.1407
 4443SOL    HW124965   3.512   3.035   7.078  1.0592  0.1695  0.3439
 4443SOL    HW224966   3.413   3.105   7.162  0.5025  0.8141 -2.1570
 4444SOL     OW24967   1.949   1.309   1.730 -0.0718 -0.3400 -0.4208
 4444SOL    HW124968   1.906   1.350   1.654 -1.1195  0.2770  0.4970
 4444SOL    HW224969   1.874   1.259   1.764  0.8855 -0.0420  2.1465
 4445SOL     OW24970   3.452   2.616   7.747 -0.0408 -0.5357 -0.0599
 4445SOL    HW124971   3.427   2.689   7.689 -1.9380 -0.5108  0.7787
 4445SOL    HW224972   3.414   2.537   7.710 -1.3088 -0.2447  0.5882
 4446SOL     OW24973   3.381   1.831  10.153  0.3472  0.6284 -0.5803
 4446SOL    HW124974   3.361   1.740  10.177  0.2266  0.2000 -2.2460
 4446SOL    HW224975   3.303   1.835  10.097  0.5668  1.7467 -0.8019
 4447SOL     OW24976   0.061   3.933  15.551 -0.1169  0.6240 -0.0350
 4447SOL    HW124977   0.108   3.850  15.564 -0.7833  0.7240  3.1150
 4447SOL    HW224978   0.127   3.999  15.530  2.1353 -1.8926 -0.9749
 4448SOL     OW24979   2.437   4.443   1.024  0.0146 -0.3393  0.1235
 4448SOL    HW124980   2.374   4.433   1.096  0.0122 -1.7094 -0.0785
 4448SOL    HW224981   2.449   4.352   0.999  1.6514  0.1004 -0.6629
 4449SOL     OW24982   4.624   0.163   7.515 -0.4369  0.2546 -0.3532
 4449SOL    HW124983   4.664   0.148   7.429 -0.1799  0.5714 -0.2869
 4449SOL    HW224984   4.563   0.234   7.495 -2.7308 -1.5836 -0.0029
 4450SOL     OW24985   2.290   3.612   1.918  0.5625 -0.4260  0.1158
 4450SOL    HW124986   2.379   3.621   1.883  0.7381  0.9159  0.9299
 4450SOL    HW224987   2.299   3.618   2.013  0.6585  0.8469  0.0310
 4451SOL     OW24988   4.509   2.954  16.908  0.1890 -0.0394  0.0077
 4451SOL    HW124989   4.457   2.935  16.830 -0.4161 -0.1218  0.4356
 4451SOL    HW224990   4.502   3.050  16.911  1.9244  0.0704  0.8726
 4452SOL     OW24991   0.403   4.711   7.769 -0.2278  0.0842 -0.3483
 4452SOL    HW124992   0.419   0.050   7.712  3.9149 -0.1889  0.5121
 4452SOL    HW224993   0.475   4.651   7.751  0.5665  0.7182  0.7478
 4453SOL     OW24994   1.371   2.797   5.750  0.4426 -0.4663 -0.5760
 4453SOL    HW124995   1.344   2.748   5.828  3.3109 -0.1283  0.6362
 4453SOL    HW224996   1.423   2.868   5.787 -1.9902  0.1990  1.5832
 4454SOL     OW24997   1.573   3.193   6.059 -0.0132  0.8372 -0.5026
 4454SOL    HW124998   1.667   3.187   6.043  0.3994  2.0483  1.4370
 4454SOL    HW224999   1.562   3.287   6.073 -0.8440  0.2063  3.0086
 4455SOL     OW25000   4.392   4.299   5.792  0.0114  0.3608  0.0606
 4455SOL    HW125001   4.347   4.368   5.841  0.1008 -0.0791  0.7713
 4455SOL    HW225002   4.319   4.270   5.737 -0.4517 -2.8555  2.3322
 4456SOL     OW25003   0.590   0.735   6.224 -0.0314  0.4166 -0.3992
 4456SOL    HW125004   0.551   0.804   6.171  1.2191 -0.1671 -2.0954
 4456SOL    HW225005   0.617   0.665   6.164  2.3447 -0.7100  1.9621
 4457SOL     OW25006   0.014   1.382  13.053 -0.0153  0.0277  0.0258
 4457SOL    HW125007   0.091   1.401  13.106 -0.3984  0.6773  0.3622
 4457SOL    HW225008   0.048   1.381  12.964 -1.1636  1.1289 -0.4346
 4458SOL     OW25009   1.594   3.084   3.866 -0.1725  0.0725  0.1585
 4458SOL    HW125010   1.519   3.124   3.909 -0.8172  0.5894 -1.4560
 4458SOL    HW225011   1.646   3.164   3.856  0.1062 -0.1164  0.0926
 4459SOL     OW25012   3.292   2.798   2.829 -0.0019 -0.2678 -0.1092
 4459SOL    HW125013   3.233   2.731   2.864  0.8747 -0.4686  0.9798
 4459SOL    HW225014   3.234   2.872   2.848  0.0973  0.3066 -2.0905
 4460SOL     OW25015   4.344   3.655  13.316 -0.3522 -0.1288  0.2531
 4460SOL    HW125016   4.384   3.741  13.301  0.4281 -0.3966  0.8403
 4460SOL    HW225017   4.417   3.594  13.316  1.0161  1.5155 -0.7408
 4461SOL     OW25018   1.823   3.395   2.359  0.5214 -0.2740 -0.4655
 4461SOL    HW125019   1.792   3.406   2.268 -1.9932 -0.1562  0.3911
 4461SOL    HW225020   1.883   3.469   2.364 -2.8735  2.4527  0.2917
 4462SOL     OW25021   2.615   1.591  10.949  0.2820 -0.7751 -0.5734
 4462SOL    HW125022   2.675   1.518  10.933  1.7448  0.6460 -1.6549
 4462SOL    HW225023   2.662   1.646  11.012  1.8901  1.9697 -4.1004
 4463SOL     OW25024   0.664   2.798   2.103 -0.7668 -0.3147 -0.3453
 4463SOL    HW125025   0.637   2.796   2.194 -1.2059 -0.9453 -0.4891
 4463SOL    HW225026   0.684   2.706   2.084 -1.5745 -0.5522 -0.0135
 4464SOL     OW25027   2.850   1.407   4.615 -0.0340 -0.2766  0.1265
 4464SOL    HW125028   2.930   1.407   4.563 -0.8878 -2.4849 -1.1457
 4464SOL    HW225029   2.787   1.387   4.546  1.4753  0.6831 -1.5322
 4465SOL     OW25030   2.319   3.949   4.070 -0.1542 -0.4491  0.0550
 4465SOL    HW125031   2.295   4.040   4.054 -2.4325 -1.2553 -0.9960
 4465SOL    HW225032   2.243   3.904   4.034 -0.8332 -0.6934  1.7527
 4466SOL     OW25033   4.725   3.225   2.049  0.0347  0.2568 -0.6577
 4466SOL    HW125034   4.674   3.181   1.980  0.9262 -1.8556  0.0317
 4466SOL    HW225035   4.674   3.306   2.052 -2.5018 -1.4126  1.4733
 4467SOL     OW25036   3.329   0.807   7.990  0.3050  0.5855  0.6421
 4467SOL    HW125037   3.262   0.819   8.057  0.9826 -1.0133  1.5935
 4467SOL    HW225038   3.301   0.724   7.952 -2.8897  1.0705  1.8885
 4468SOL     OW25039   3.255   2.975   4.988 -0.2369  0.3971  0.0383
 4468SOL    HW125040   3.273   2.882   5.000  2.4412  0.7737 -0.9826
 4468SOL    HW225041   3.238   2.985   4.894 -0.1065 -0.8138 -0.1173
 4469SOL     OW25042   3.001   1.179  14.236 -0.4710 -0.0340 -0.1041
 4469SOL    HW125043   3.080   1.233  14.238 -1.9371  2.1191 -0.4879
 4469SOL    HW225044   2.958   1.203  14.318  2.7407 -1.3861  1.9550
 4470SOL     OW25045   3.940   3.162  10.995  0.2683 -0.2718  0.6182
 4470SOL    HW125046   3.941   3.233  11.059  3.2469  0.5421 -0.3542
 4470SOL    HW225047   3.960   3.091  11.055  2.7373 -0.9973 -1.0453
 4471SOL     OW25048   0.244   3.681   6.736  0.0013  0.1645  0.3141
 4471SOL    HW125049   0.157   3.707   6.767 -0.4905  1.8038 -2.4191
 4471SOL    HW225050   0.266   3.610   6.796 -0.4024  0.2666  0.5826
 4472SOL     OW25051   3.225   4.088   9.388 -0.3044  0.6060  0.1991
 4472SOL    HW125052   3.177   4.170   9.393  2.4980  2.1782  1.6356
 4472SOL    HW225053   3.211   4.067   9.296  1.0285 -0.1906  0.1658
 4473SOL     OW25054   1.372   4.237  15.810 -0.1026 -0.1107 -0.3116
 4473SOL    HW125055   1.426   4.297  15.861 -1.5783  1.8252 -0.9951
 4473SOL    HW225056   1.334   4.296  15.745 -0.1240 -0.8680 -0.9927
 4474SOL     OW25057   3.265   1.496   6.206  0.3608 -0.0232 -0.3008
 4474SOL    HW125058   3.288   1.526   6.294 -1.2685 -1.6933  0.7045
 4474SOL    HW225059   3.254   1.401   6.214 -0.7599  0.2995  1.9476
 4475SOL     OW25060   0.253   2.342  15.569  0.1313 -0.1677 -0.3168
 4475SOL    HW125061   0.218   2.253  15.561  1.4787 -0.5498 -2.1354
 4475SOL    HW225062   0.316   2.340  15.641 -0.4622  0.2745  0.2073
 4476SOL     OW25063   0.808   1.308   8.359  0.3994  0.2903  0.0371
 4476SOL    HW125064   0.735   1.354   8.401 -1.7267  0.6337 -4.0074
 4476SOL    HW225065   0.775   1.271   8.277  0.9871 -1.9137  0.7903
 4477SOL     OW25066   2.770   1.812   3.961 -0.3412 -0.8037 -0.1418
 4477SOL    HW125067   2.806   1.737   3.914 -1.6343 -1.6241  0.1732
 4477SOL    HW225068   2.676   1.801   3.952 -0.9389  1.1289  3.6301
 4478SOL     OW25069   3.741   0.607   2.695 -0.2452 -0.1657  0.2554
 4478SOL    HW125070   3.653   0.580   2.722 -0.6290 -0.5084 -1.3588
 4478SOL    HW225071   3.725   0.694   2.659 -0.2567 -1.1619 -2.0966
 4479SOL     OW25072   0.095   1.595  17.524 -0.0481  0.5825  0.2052
 4479SOL    HW125073   0.035   1.572  17.453 -0.4804  1.8631  0.1558
 4479SOL    HW225074   0.150   1.669  17.495  1.7654 -0.1226  1.8661
 4480SOL     OW25075   0.561   1.508   5.690 -0.0802 -0.6899  0.1037
 4480SOL    HW125076   0.560   1.412   5.687 -0.5975 -0.6806  0.1257
 4480SOL    HW225077   0.545   1.516   5.784  1.0689  0.0468  0.2466
 4481SOL     OW25078   3.490   4.043   0.021  0.0010  0.2278  0.1130
 4481SOL    HW125079   3.565   4.018   0.075 -1.6924 -0.9720  1.9038
 4481SOL    HW225080   3.513   4.131  17.736 -1.4350  0.1322 -1.3335
 4482SOL     OW25081   2.432   1.103   6.611 -0.0530 -0.3802  0.3450
 4482SOL    HW125082   2.492   1.073   6.542  0.5216  0.9448  0.2767
 4482SOL    HW225083   2.494   1.157   6.660  0.6714  2.4535 -3.6759
 4483SOL     OW25084   2.814   1.424   6.420 -0.8254  0.3549  0.2729
 4483SOL    HW125085   2.832   1.435   6.514  2.1028 -0.2141 -0.2313
 4483SOL    HW225086   2.801   1.329   6.414  2.4858 -0.1631  1.4235
 4484SOL     OW25087   1.463   1.133   2.631 -0.1678 -0.3345  0.1007
 4484SOL    HW125088   1.520   1.209   2.641  0.6644 -0.9381 -0.0148
 4484SOL    HW225089   1.531   1.065   2.622  0.2128 -0.0234  0.6480
 4485SOL     OW25090   2.731   0.221   5.067  0.4536 -0.1313 -0.0448
 4485SOL    HW125091   2.805   0.169   5.097 -0.8302 -1.7122  0.4322
 4485SOL    HW225092   2.706   0.169   4.991  0.1849  2.6157 -1.8391
 4486SOL     OW25093   2.160   2.365  14.669  0.0386 -0.2452 -0.5648
 4486SOL    HW125094   2.089   2.317  14.627 -1.4723  1.3842  0.1267
 4486SOL    HW225095   2.146   2.367  14.764  0.4869 -1.4572 -0.4684
 4487SOL     OW25096   3.491   1.773   7.249 -0.0025  0.2282 -0.7539
 4487SOL    HW125097   3.555   1.817   7.305 -0.6316 -0.3649  0.4295
 4487SOL    HW225098   3.549   1.711   7.205 -0.7847  0.1684 -1.7275
 4488SOL     OW25099   1.833   0.623  13.297 -0.1755  0.3552 -0.0849
 4488SOL    HW125100   1.926   0.627  13.272 -0.0331  1.1782  0.5554
 4488SOL    HW225101   1.784   0.662  13.225  0.5721 -2.1914 -1.9604
 4489SOL     OW25102   0.007   0.567   2.580  0.2919 -0.1272 -0.0124
 4489SOL    HW125103   0.092   0.604   2.555 -0.1367  0.4735 -0.5639
 4489SOL    HW225104   4.693   0.609   2.511 -1.7671  2.3174  3.0117
 4490SOL     OW25105   1.653   3.718   5.669 -0.0896  0.1325 -0.1034
 4490SOL    HW125106   1.654   3.667   5.750  0.6940 -0.3925 -0.4389
 4490SOL    HW225107   1.687   3.798   5.710  1.6468 -1.4002  1.3720
 4491SOL     OW25108   1.544   2.653   5.155  0.0440  0.6099 -0.5273
 4491SOL    HW125109   1.528   2.748   5.157  0.2478  0.6256  0.1958
 4491SOL    HW225110   1.632   2.646   5.117  0.2350  0.0334  0.0252
 4492SOL     OW25111   1.153   0.280   6.820 -0.4732  0.7315 -0.7594
 4492SOL    HW125112   1.064   0.305   6.846 -0.0523  0.9949  0.4650
 4492SOL    HW225113   1.172   0.344   6.752  1.1787  1.4739  0.4047
 4493SOL     OW25114   0.083   4.019  16.177 -0.4038  0.5178  0.0643
 4493SOL    HW125115   0.006   4.014  16.121 -0.4368  0.8021  0.0872
 4493SOL    HW225116   0.114   3.928  16.181 -1.4913  0.1344 -0.0630
 4494SOL     OW25117   4.191   1.499   1.861 -0.5572  0.6056  0.4779
 4494SOL    HW125118   4.160   1.509   1.771 -1.8179  0.1780  0.8582
 4494SOL    HW225119   4.198   1.403   1.853 -3.6064  0.4838 -0.5734
 4495SOL     OW25120   3.953   0.196   3.116  0.3113  0.3170 -0.2779
 4495SOL    HW125121   3.979   0.279   3.075  3.5940 -0.4440  0.2173
 4495SOL    HW225122   3.995   0.138   3.051 -1.0468 -1.7693  0.7126
 4496SOL     OW25123   1.516   4.213  16.741 -0.4436 -0.4408 -1.0535
 4496SOL    HW125124   1.606   4.180  16.736 -0.2391  0.2017 -1.6615
 4496SOL    HW225125   1.496   4.210  16.835  1.4747  0.0913 -0.6177
 4497SOL     OW25126   1.329   3.201  15.175  0.2195  0.2073  0.2441
 4497SOL    HW125127   1.234   3.198  15.169  0.1003 -1.3754  2.7506
 4497SOL    HW225128   1.335   3.292  15.205 -0.8972  0.9157 -1.7141
 4498SOL     OW25129   4.052   0.748  11.158 -0.8194  0.0183  0.0545
 4498SOL    HW125130   4.130   0.792  11.123  0.0182 -0.1056  1.7964
 4498SOL    HW225131   4.063   0.764  11.251 -1.6389  0.9803 -0.0105
 4499SOL     OW25132   0.051   2.321   5.357  0.5446 -0.0993  0.7838
 4499SOL    HW125133   4.701   2.360   5.354  0.8032  0.4668  0.7380
 4499SOL    HW225134   0.036   2.249   5.419  0.7582 -1.8176 -1.1716
 4500SOL     OW25135   3.554   2.791   7.275 -0.6812 -0.1671 -0.6039
 4500SOL    HW125136   3.646   2.812   7.292 -0.7534 -0.5826  0.2874
 4500SOL    HW225137   3.531   2.862   7.214  1.3350  0.7890 -0.2707
 4501SOL     OW25138   0.373   3.743   2.144  0.1612 -0.1248  0.0951
 4501SOL    HW125139   0.349   3.835   2.140  0.2251 -0.1845 -1.5716
 4501SOL    HW225140   0.289   3.699   2.157 -0.0332  0.6713  1.5005
 4502SOL     OW25141   3.494   1.378  11.120 -0.0624  0.7676 -0.2306
 4502SOL    HW125142   3.573   1.327  11.102 -2.1527 -2.6540  0.2941
 4502SOL    HW225143   3.536   1.427  11.191  1.0442  0.5175 -0.7152
 4503SOL     OW25144   1.812   2.275   2.783 -0.2322 -0.0320 -0.4663
 4503SOL    HW125145   1.800   2.364   2.748 -0.0148 -0.9774 -2.9904
 4503SOL    HW225146   1.724   2.252   2.813 -0.1174  1.7793  1.2562
 4504SOL     OW25147   3.208   2.565  13.225 -0.3907 -0.2052  0.1714
 4504SOL    HW125148   3.269   2.493  13.211 -0.8365 -0.6661  0.6098
 4504SOL    HW225149   3.269   2.622  13.270  1.7679 -0.9420 -1.8185
 4505SOL     OW25150   3.857   4.310  15.003 -0.2674  0.4893 -0.1904
 4505SOL    HW125151   3.936   4.364  14.991 -2.5351  3.7182 -0.7725
 4505SOL    HW225152   3.800   4.378  15.038 -0.4677  0.1680  0.1008
 4506SOL     OW25153   3.542   1.669   5.059  0.0924 -0.2333  0.0665
 4506SOL    HW125154   3.449   1.679   5.037  0.5290  0.2908 -1.5891
 4506SOL    HW225155   3.569   1.605   4.993  0.7934  1.3939 -1.2456
 4507SOL     OW25156   3.665   0.580  11.460 -0.3105 -0.4044  0.5950
 4507SOL    HW125157   3.575   0.592  11.490  0.0809  0.5077  1.4202
 4507SOL    HW225158   3.682   0.489  11.485  0.1545 -0.3916  0.3247
 4508SOL     OW25159   0.672   0.167   7.069 -0.3274  0.0740 -0.3598
 4508SOL    HW125160   0.597   0.174   7.129  0.3881  0.5864  0.4883
 4508SOL    HW225161   0.696   0.075   7.071  0.0581  0.1551 -1.4245
 4509SOL     OW25162   2.581   1.843   0.062 -0.0643  0.2453 -0.2724
 4509SOL    HW125163   2.652   1.829   0.125  0.3897 -0.8260 -1.0263
 4509SOL    HW225164   2.629   1.817  17.728 -1.9389 -1.3820 -0.9024
 4510SOL     OW25165   2.517   2.463  17.061 -0.0246 -0.1165 -0.2136
 4510SOL    HW125166   2.562   2.543  17.089 -0.6870  0.7051 -1.5011
 4510SOL    HW225167   2.519   2.410  17.141  0.2881  0.1023 -0.0778
 4511SOL     OW25168   0.642   2.715  14.086 -0.1816 -0.2063 -0.0363
 4511SOL    HW125169   0.720   2.705  14.140 -0.3724  1.5542  0.5599
 4511SOL    HW225170   0.594   2.633  14.099 -0.9313 -0.0983 -2.1428
 4512SOL     OW25171   3.315   1.559  10.222 -0.1092  0.1636 -0.7478
 4512SOL    HW125172   3.274   1.474  10.234  2.5308 -1.0249 -0.1179
 4512SOL    HW225173   3.395   1.532  10.175 -1.0820 -2.1628 -1.0203
 4513SOL     OW25174   3.771   4.377   5.036 -0.1053 -0.4574 -0.2033
 4513SOL    HW125175   3.696   4.398   4.979 -0.1730 -0.6394 -0.1810
 4513SOL    HW225176   3.769   4.431   5.115 -0.8666  3.0045 -2.5526
 4514SOL     OW25177   3.930   1.507   7.081  0.3140  0.3051  0.8110
 4514SOL    HW125178   3.907   1.568   7.151 -1.0007 -1.7191  2.1516
 4514SOL    HW225179   4.005   1.458   7.115  0.7624  0.1177 -0.4464
 4515SOL     OW25180   1.947   4.266   2.735 -0.0494 -0.1761  0.3526
 4515SOL    HW125181   1.869   4.270   2.680  0.9458  1.3378 -0.9372
 4515SOL    HW225182   1.986   4.353   2.724 -2.7885  1.2983  2.2275
 4516SOL     OW25183   2.646   2.141   6.043  0.0126 -0.2119  0.1541
 4516SOL    HW125184   2.704   2.066   6.037 -0.5198 -0.6722  0.6935
 4516SOL    HW225185   2.564   2.106   6.007 -0.7720 -0.3446  2.0510
 4517SOL     OW25186   2.190   2.370   4.351 -0.0032  0.0441  0.2087
 4517SOL    HW125187   2.135   2.428   4.402  1.2499  1.8297 -0.4794
 4517SOL    HW225188   2.254   2.427   4.308 -0.1512 -0.1860 -0.3198
 4518SOL     OW25189   0.051   3.309   6.127 -0.1551  0.5916 -0.6617
 4518SOL    HW125190   0.094   3.297   6.212 -0.5338  0.3853 -0.5007
 4518SOL    HW225191   0.006   3.225   6.118 -0.9228  1.0144 -0.7521
 4519SOL     OW25192   1.185   2.559   6.068 -0.3898  0.4679  0.0306
 4519SOL    HW125193   1.164   2.599   5.984 -0.7485  1.9123  0.8065
 4519SOL    HW225194   1.275   2.532   6.051 -1.1418 -2.7703  1.0657
 4520SOL     OW25195   1.280   3.996  17.439  1.1230 -0.1032 -0.3556
 4520SOL    HW125196   1.198   4.026  17.399 -1.1160 -0.8026  3.7610
 4520SOL    HW225197   1.314   4.075  17.481  0.5732  0.1625 -0.4174
 4521SOL     OW25198   3.317   3.423   8.448 -0.1352  0.6087 -0.1442
 4521SOL    HW125199   3.222   3.423   8.454 -0.0712 -0.0399  0.7779
 4521SOL    HW225200   3.335   3.444   8.540  1.6525  2.2638 -0.8526
 4522SOL     OW25201   1.659   0.182  12.208 -0.0986 -0.3492  0.6106
 4522SOL    HW125202   1.593   0.250  12.194 -0.6335 -0.6541  1.6706
 4522SOL    HW225203   1.621   0.122  12.272  3.0199 -1.4437  1.4329
 4523SOL     OW25204   2.790   4.046   3.089 -0.2892 -0.7604  0.0705
 4523SOL    HW125205   2.804   4.057   3.183  0.2464  0.7611 -0.1968
 4523SOL    HW225206   2.695   4.062   3.085  0.0077  0.4711 -1.7648
 4524SOL     OW25207   3.963   0.940  14.731 -0.0171  0.0606  0.8626
 4524SOL    HW125208   3.989   0.877  14.798 -0.1205  0.6932  1.4955
 4524SOL    HW225209   4.019   0.915  14.658 -2.2995 -0.4853 -0.6893
 4525SOL     OW25210   1.333   3.873   2.700 -0.1879  0.1541  0.6835
 4525SOL    HW125211   1.364   3.786   2.675 -1.7099 -0.8354  2.2047
 4525SOL    HW225212   1.248   3.856   2.658  0.4702 -0.4600 -0.4032
 4526SOL     OW25213   1.242   4.301  10.097  0.6686  0.0766 -0.1178
 4526SOL    HW125214   1.148   4.292  10.114  0.8997 -1.7478  0.2720
 4526SOL    HW225215   1.265   4.319  10.188  0.0033  2.7512 -0.4822
 4527SOL     OW25216   0.459   3.697   8.353 -0.2832 -0.6235  0.0115
 4527SOL    HW125217   0.445   3.612   8.396  0.6582 -0.0805  1.3716
 4527SOL    HW225218   0.455   3.749   8.432 -2.1662 -2.3624  1.0699
 4528SOL     OW25219   3.219   1.775  13.548  0.2926 -0.3756  0.2945
 4528SOL    HW125220   3.209   1.820  13.464 -1.0688 -1.4959 -0.1244
 4528SOL    HW225221   3.155   1.705  13.544  2.4578 -2.3340 -0.0054
 4529SOL     OW25222   0.554   4.654   5.149  0.0934 -0.2664  0.3421
 4529SOL    HW125223   0.507   4.710   5.088 -0.5274 -1.3761 -0.2039
 4529SOL    HW225224   0.540   4.568   5.108 -0.2932  0.6465 -1.4389
 4530SOL     OW25225   4.305   3.434   7.055 -0.1811 -0.4466 -0.0111
 4530SOL    HW125226   4.295   3.379   7.132  2.1995  1.4697  1.6648
 4530SOL    HW225227   4.217   3.465   7.035 -0.1735  0.1611  0.9130
 4531SOL     OW25228   4.697   4.160   3.746 -0.1955 -0.2704 -0.2060
 4531SOL    HW125229   0.042   4.126   3.710 -0.2522 -1.2252  0.5640
 4531SOL    HW225230   4.685   4.241   3.696 -1.1891 -0.6242 -0.5356
 4532SOL     OW25231   2.653   4.412   4.468  0.1472  0.2951  0.1410
 4532SOL    HW125232   2.655   4.316   4.475 -3.5298 -0.0349 -3.3395
 4532SOL    HW225233   2.635   4.413   4.374 -0.6985  1.3134  0.3207
 4533SOL     OW25234   4.214   3.335   7.294 -0.6343 -0.0923  1.0123
 4533SOL    HW125235   4.211   3.268   7.363 -4.3725 -0.5779  0.3922
 4533SOL    HW225236   4.135   3.378   7.327 -0.1515  1.9771 -0.5677
 4534SOL     OW25237   4.034   2.868  10.896  0.0092 -0.3764  0.6042
 4534SOL    HW125238   4.016   2.881  10.989 -0.0595  1.8519  0.2833
 4534SOL    HW225239   3.986   2.943  10.862  1.2640 -0.3312 -1.0324
 4535SOL     OW25240   3.078   3.971   2.958  0.5328  0.5716 -0.6213
 4535SOL    HW125241   3.012   4.035   2.986  2.0106  1.1340  1.5341
 4535SOL    HW225242   3.047   3.939   2.873 -0.3422 -0.6326  0.1475
 4536SOL     OW25243   0.967   1.643  14.513  0.1444 -0.3746  0.1277
 4536SOL    HW125244   0.899   1.624  14.577  0.1664  0.8123  0.4932
 4536SOL    HW225245   0.921   1.613  14.434  0.1871  0.1929 -0.1076
 4537SOL     OW25246   1.080   1.206   2.870  0.5203 -0.3090 -0.5915
 4537SOL    HW125247   1.049   1.133   2.923  1.3996 -0.6111 -0.4873
 4537SOL    HW225248   1.142   1.164   2.810  0.0910 -0.9585 -0.5843
 4538SOL     OW25249   0.230   4.025  12.939  0.0588 -0.5413  0.6777
 4538SOL    HW125250   0.254   3.965  13.010  0.1202 -0.6563  0.5578
 4538SOL    HW225251   0.318   4.034  12.903 -0.4645 -0.7292 -0.6350
 4539SOL     OW25252   3.398   3.950   3.319  0.0365 -0.0854  0.4404
 4539SOL    HW125253   3.311   3.985   3.336  1.2289  3.0986 -0.1466
 4539SOL    HW225254   3.367   3.908   3.239  1.4053  2.0308 -1.2106
 4540SOL     OW25255   2.125   4.254   9.253  0.6489 -0.5509  0.3636
 4540SOL    HW125256   2.192   4.192   9.221  1.3518 -1.6623  4.0454
 4540SOL    HW225257   2.177   4.308   9.313 -0.4674 -0.2173  1.0153
 4541SOL     OW25258   2.183   3.162   5.550 -1.0936 -0.1717  0.6806
 4541SOL    HW125259   2.188   3.138   5.642  1.7941 -0.3654  0.4762
 4541SOL    HW225260   2.189   3.074   5.514  0.3201  1.4050 -2.9356
 4542SOL     OW25261   2.379   0.599  12.301  0.0522  0.0157  0.2368
 4542SOL    HW125262   2.398   0.551  12.221  2.8724  2.2811 -0.4367
 4542SOL    HW225263   2.309   0.655  12.268  1.6377  1.7156 -0.1997
 4543SOL     OW25264   0.406   3.003  11.042  0.2292  0.0573  0.1405
 4543SOL    HW125265   0.379   3.003  10.950 -1.4622  2.1627  0.6348
 4543SOL    HW225266   0.424   2.912  11.064  1.1128 -0.5821 -3.1587
 4544SOL     OW25267   2.889   0.166   6.659  0.1874 -0.0870 -0.4417
 4544SOL    HW125268   2.864   0.245   6.612  2.6913  1.2230  0.4850
 4544SOL    HW225269   2.801   0.133   6.681  0.7263 -1.8043 -0.8128
 4545SOL     OW25270   3.815   3.194   0.982 -0.0280  0.3786 -0.2515
 4545SOL    HW125271   3.731   3.148   0.981  0.2188 -0.0445 -2.1049
 4545SOL    HW225272   3.851   3.164   0.898 -0.0150 -0.6158  0.1141
 4546SOL     OW25273   1.492   1.433   7.956  0.0798  0.0866 -0.3391
 4546SOL    HW125274   1.408   1.423   8.000  1.1943 -2.0639  1.2969
 4546SOL    HW225275   1.512   1.525   7.975 -0.4279  0.2863 -0.7489
 4547SOL     OW25276   2.277   2.645   5.259  0.1572 -0.4059  0.1213
 4547SOL    HW125277   2.254   2.707   5.327  1.4062 -0.0918  0.2596
 4547SOL    HW225278   2.194   2.645   5.210  0.7494  2.1185 -0.8988
 4548SOL     OW25279   2.540   0.285   5.266 -0.5062  0.4822  0.0204
 4548SOL    HW125280   2.557   0.201   5.310 -0.8755  0.8919  0.9515
 4548SOL    HW225281   2.581   0.261   5.183  1.5864 -1.7637  1.7066
 4549SOL     OW25282   3.299   3.112   2.836  0.2749 -0.0186 -0.2772
 4549SOL    HW125283   3.393   3.130   2.837  0.4833 -1.1119 -0.0962
 4549SOL    HW225284   3.261   3.194   2.805 -1.6503  0.2282  2.8482
 4550SOL     OW25285   4.464   4.173   9.024  0.2311  0.0952  0.8638
 4550SOL    HW125286   4.406   4.129   8.962  0.1509  1.4292 -0.0129
 4550SOL    HW225287   4.487   4.108   9.090  2.4228 -0.5735 -0.5524
 4551SOL     OW25288   0.336   2.098   8.393  0.1135  0.6922 -0.3948
 4551SOL    HW125289   0.305   2.184   8.364 -1.8543 -0.0663 -0.5147
 4551SOL    HW225290   0.318   2.099   8.487  0.0630 -1.3714 -0.3851
 4552SOL     OW25291   0.565   0.921  15.502 -0.4394  0.1926 -0.5784
 4552SOL    HW125292   0.638   0.961  15.455  0.6250 -2.2061 -0.9716
 4552SOL    HW225293   0.557   0.835  15.462 -3.3248  0.7675 -1.2087
 4553SOL     OW25294   1.734   2.212   5.047  0.0020  0.8149 -0.3276
 4553SOL    HW125295   1.789   2.158   4.990  1.4363  1.6505  0.2711
 4553SOL    HW225296   1.651   2.212   5.000  1.2235 -2.4803 -2.5320
 4554SOL     OW25297   2.390   0.982  12.640  0.1036 -0.3785 -0.1061
 4554SOL    HW125298   2.370   1.034  12.718 -0.0635  2.0347 -1.7484
 4554SOL    HW225299   2.304   0.990  12.598 -0.8839  0.6652  2.1074
 4555SOL     OW25300   2.779   4.262   6.943 -0.2908 -0.0246  0.2820
 4555SOL    HW125301   2.863   4.221   6.920 -0.0418  1.2687 -1.1024
 4555SOL    HW225302   2.723   4.185   6.954 -0.0148 -0.2260  0.2944
 4556SOL     OW25303   1.182   0.311   0.598  0.1070  0.3422  0.1460
 4556SOL    HW125304   1.272   0.302   0.628  0.8135 -1.7659 -2.6539
 4556SOL    HW225305   1.146   0.222   0.606  0.1940  0.1464 -1.6429
 4557SOL     OW25306   0.052   3.665   9.473  0.2256  0.0120 -0.3410
 4557SOL    HW125307   0.120   3.728   9.451  1.0929  0.2702  3.0970
 4557SOL    HW225308   0.110   3.590   9.484 -0.6529 -0.7425 -0.8892
 4558SOL     OW25309   3.803   2.144   4.900 -0.0416  0.1539  0.3374
 4558SOL    HW125310   3.810   2.091   4.979 -0.6661 -1.8115 -0.9093
 4558SOL    HW225311   3.895   2.170   4.895 -0.3661  0.9784 -1.3260
 4559SOL     OW25312   2.639   0.581   5.623  0.1328 -0.0544 -0.2328
 4559SOL    HW125313   2.554   0.600   5.663 -0.4402 -0.4243 -1.2769
 4559SOL    HW225314   2.689   0.662   5.630  0.5036 -0.3635  0.7129
 4560SOL     OW25315   3.050   1.708   9.130  0.2717 -0.1145 -0.2159
 4560SOL    HW125316   2.994   1.637   9.159  0.4782  0.0012  0.4669
 4560SOL    HW225317   3.106   1.725   9.207  1.6659 -1.0066 -1.0312
 4561SOL     OW25318   1.072   0.125   3.876 -0.5742 -0.0156  0.2151
 4561SOL    HW125319   1.060   0.211   3.835  2.9773  0.8169  0.9418
 4561SOL    HW225320   1.156   0.093   3.844  1.2099  2.5956  2.2964
 4562SOL     OW25321   2.917   3.686   5.462 -0.5302  0.3747  0.2667
 4562SOL    HW125322   2.944   3.613   5.407 -0.4421 -0.8440  1.9230
 4562SOL    HW225323   2.839   3.722   5.420 -0.1100 -0.3607 -1.1399
 4563SOL     OW25324   1.341   1.447   1.678  0.2153 -0.1547  0.2367
 4563SOL    HW125325   1.288   1.472   1.602 -2.2543  2.5190  2.8144
 4563SOL    HW225326   1.359   1.530   1.722 -1.6014  0.5598 -0.3827
 4564SOL     OW25327   1.066   1.427  15.347  0.1488  0.3360  0.4961
 4564SOL    HW125328   1.050   1.425  15.441 -0.3140  3.3533  0.4869
 4564SOL    HW225329   1.019   1.509  15.333 -0.5338 -0.4131 -1.5477
 4565SOL     OW25330   4.449   4.314   6.850 -0.2294  0.4764 -1.2316
 4565SOL    HW125331   4.425   4.242   6.908 -0.6477  0.6038 -1.2475
 4565SOL    HW225332   4.484   4.379   6.912 -0.1787 -0.0260 -0.7349
 4566SOL     OW25333   0.516   4.212   2.139  0.5749  0.2313 -0.1317
 4566SOL    HW125334   0.515   4.192   2.046  0.8546 -0.8258  0.0923
 4566SOL    HW225335   0.423   4.188   2.150  0.7309 -0.3786 -0.1267
 4567SOL     OW25336   0.958   2.781   8.735 -0.0088  0.3664  0.1749
 4567SOL    HW125337   0.986   2.690   8.723 -0.6421 -0.1275  2.4378
 4567SOL    HW225338   0.985   2.820   8.652 -0.8510 -2.1422 -1.2573
 4568SOL     OW25339   0.992   1.677   7.206 -0.2786  1.0064 -0.0958
 4568SOL    HW125340   1.069   1.634   7.169 -0.8655 -0.7070  0.7293
 4568SOL    HW225341   1.032   1.726   7.278 -0.0222  1.5039 -0.5732
 4569SOL     OW25342   4.233   1.740   2.159 -0.2545  0.0861 -0.1771
 4569SOL    HW125343   4.148   1.778   2.133  1.4196  2.8940 -1.5614
 4569SOL    HW225344   4.288   1.788   2.097 -0.1516  0.4353  0.1875
 4570SOL     OW25345   2.198   2.357   5.028  0.1720  0.0762  0.0665
 4570SOL    HW125346   2.103   2.351   5.028  0.2547 -1.3865 -0.2392
 4570SOL    HW225347   2.219   2.425   4.964 -1.2184  1.0012  0.6038
 4571SOL     OW25348   3.797   3.705  14.026 -0.2977  0.2387  0.5619
 4571SOL    HW125349   3.763   3.755  13.952  0.2967 -0.7547 -0.4024
 4571SOL    HW225350   3.825   3.775  14.085  1.5771  0.3815 -0.4767
 4572SOL     OW25351   2.356   0.585  16.025 -0.0803  0.1550  0.2313
 4572SOL    HW125352   2.270   0.606  15.987  0.5528  1.2318 -0.6234
 4572SOL    HW225353   2.412   0.571  15.949 -1.7381  0.4081 -1.0406
 4573SOL     OW25354   2.681   3.110   2.659  0.6948 -0.4536 -0.3379
 4573SOL    HW125355   2.596   3.083   2.696 -0.2701  2.7484 -0.2563
 4573SOL    HW225356   2.659   3.106   2.566  1.8011 -1.4751 -0.5520
 4574SOL     OW25357   3.624   4.403   8.897 -0.0163  0.2945  0.6550
 4574SOL    HW125358   3.598   4.326   8.948  0.2676 -1.6042 -2.0589
 4574SOL    HW225359   3.542   4.411   8.849  0.4567  2.1338  0.1637
 4575SOL     OW25360   1.432   1.537   8.619  0.0550  0.0737 -0.0412
 4575SOL    HW125361   1.456   1.502   8.704  0.4473 -1.7252 -0.8834
 4575SOL    HW225362   1.387   1.462   8.580 -2.5910  1.8721 -0.4155
 4576SOL     OW25363   1.805   1.795   8.278 -0.0441  0.2174  0.4023
 4576SOL    HW125364   1.784   1.836   8.194  0.1334  0.9526  0.7218
 4576SOL    HW225365   1.900   1.798   8.278 -0.0465  0.5609  2.2780
 4577SOL     OW25366   1.607   4.575  14.723  0.2785  0.6014 -0.2354
 4577SOL    HW125367   1.549   4.503  14.699 -0.5953  1.1154  0.3303
 4577SOL    HW225368   1.552   4.649  14.697  0.8788  0.8699 -0.7720
 4578SOL     OW25369   2.852   1.991  17.444 -0.0087 -0.2925 -0.0519
 4578SOL    HW125370   2.850   2.036  17.359  1.4724 -3.4520 -1.7468
 4578SOL    HW225371   2.917   1.924  17.421  0.4098 -0.2608  1.0639
 4579SOL     OW25372   0.156   1.967   0.027  0.0031  0.6814 -0.1649
 4579SOL    HW125373   0.181   1.875   0.041 -0.8320  0.3884 -0.6231
 4579SOL    HW225374   0.182   1.996  17.684 -0.4418 -0.6312 -0.7302
 4580SOL     OW25375   4.718   1.320  15.206 -0.5910 -0.7152  0.1482
 4580SOL    HW125376   0.044   1.370  15.152 -0.4508  0.4072  1.3369
 4580SOL    HW225377   0.030   1.321  15.289 -1.1672 -1.1558  0.4847
 4581SOL     OW25378   2.684   0.795   3.430  0.5708 -0.5578  0.4028
 4581SOL    HW125379   2.708   0.864   3.492  0.4106  0.0629 -0.2360
 4581SOL    HW225380   2.768   0.748   3.429  0.5815 -0.5579  1.2725
 4582SOL     OW25381   2.332   2.661   2.166 -0.3063  0.2760 -0.4718
 4582SOL    HW125382   2.377   2.578   2.151 -1.3576 -0.1223 -1.4199
 4582SOL    HW225383   2.262   2.647   2.103 -0.1419  1.2304 -0.8612
 4583SOL     OW25384   1.247   1.733   4.056  0.3090  0.2237  0.0190
 4583SOL    HW125385   1.157   1.701   4.053  0.1329  0.4574  3.0935
 4583SOL    HW225386   1.285   1.679   3.987 -1.6971 -1.0837 -0.0541
 4584SOL     OW25387   3.098   2.144   3.164  0.0383  0.2344  0.5515
 4584SOL    HW125388   3.160   2.089   3.213  0.9719  1.4490  0.7416
 4584SOL    HW225389   3.021   2.092   3.186 -0.1056  0.2076 -0.0189
 4585SOL     OW25390   3.403   2.912   5.403 -0.4876 -0.6369 -0.3761
 4585SOL    HW125391   3.436   2.969   5.333 -3.8629  0.2132 -1.2656
 4585SOL    HW225392   3.315   2.887   5.376 -0.0012 -0.6026 -1.9924
 4586SOL     OW25393   0.617   0.417   6.248  0.6703 -0.1718  0.0692
 4586SOL    HW125394   0.636   0.405   6.341 -0.6102 -1.5609  0.1497
 4586SOL    HW225395   0.547   0.351   6.249  0.1988  0.2898 -2.2736
 4587SOL     OW25396   1.644   0.705   4.051 -0.5624 -0.0613 -0.2451
 4587SOL    HW125397   1.726   0.721   4.004 -0.4269 -0.8096 -0.2645
 4587SOL    HW225398   1.667   0.644   4.120  2.0137  1.3250  0.1317
 4588SOL     OW25399   2.399   1.151   3.578  0.7483 -0.5254  0.2837
 4588SOL    HW125400   2.420   1.059   3.590 -0.5603 -0.5561  2.4991
 4588SOL    HW225401   2.307   1.144   3.553  0.8346  0.6006 -0.3328
 4589SOL     OW25402   1.509   0.157  15.782  0.3833 -0.1747  0.1163
 4589SOL    HW125403   1.505   0.064  15.807  0.1537 -0.2371 -0.1565
 4589SOL    HW225404   1.586   0.174  15.836 -0.0649 -1.5424  1.1979
 4590SOL     OW25405   0.119   2.623   9.960 -0.3543  0.2136 -0.2897
 4590SOL    HW125406   0.122   2.705   9.912  0.9626  0.0150 -0.5628
 4590SOL    HW225407   0.118   2.558   9.890  0.4780 -1.1963  0.9866
 4591SOL     OW25408   0.848   2.590  14.209  0.0522 -0.2301 -0.6017
 4591SOL    HW125409   0.823   2.623  14.296  0.0707  1.5129 -1.2604
 4591SOL    HW225410   0.944   2.597  14.218  0.1441 -1.2305 -0.7635
 4592SOL     OW25411   3.980   1.007   4.886  0.0639 -0.2472  0.2725
 4592SOL    HW125412   3.892   1.031   4.856  0.0053 -2.2852 -1.1187
 4592SOL    HW225413   3.986   0.914   4.865  0.2948  0.3095 -2.0975
 4593SOL     OW25414   3.550   0.473   8.124 -0.0189  0.0774  0.0935
 4593SOL    HW125415   3.623   0.412   8.114  0.4484  0.8602 -1.2576
 4593SOL    HW225416   3.587   0.552   8.084 -0.3400 -1.2675 -2.7954
 4594SOL     OW25417   0.384   0.632   2.235  0.2025 -0.4235 -0.2729
 4594SOL    HW125418   0.323   0.697   2.200 -0.3205 -1.0408 -0.5067
 4594SOL    HW225419   0.469   0.650   2.195  0.8782 -3.1554 -0.0353
 4595SOL     OW25420   0.664   3.258   5.772 -0.1596 -0.0739  0.5432
 4595SOL    HW125421   0.741   3.285   5.822  1.0623 -0.1911 -1.2611
 4595SOL    HW225422   0.701   3.188   5.718 -0.2175  0.0152  0.3882
 4596SOL     OW25423   3.905   4.042   0.574 -0.3674 -0.1250 -0.4950
 4596SOL    HW125424   3.957   4.083   0.504 -0.8286 -0.6709 -1.1491
 4596SOL    HW225425   3.857   4.116   0.610 -2.9027 -1.5448 -1.0219
 4597SOL     OW25426   2.978   0.514   5.001  0.1524 -0.1178  0.2900
 4597SOL    HW125427   3.026   0.502   5.083  0.1676 -1.0186  0.1500
 4597SOL    HW225428   2.886   0.497   5.019  0.0943 -1.1346 -0.9800
 4598SOL     OW25429   3.323   4.161  17.525 -0.5175  0.7732 -0.2485
 4598SOL    HW125430   3.367   4.185  17.444  1.3949 -0.7587  0.3387
 4598SOL    HW225431   3.277   4.244  17.538 -3.7190 -0.9690 -0.5234
 4599SOL     OW25432   1.851   4.734   7.173  0.1110  0.3880  0.2066
 4599SOL    HW125433   1.923   4.727   7.111 -1.6799 -1.4415 -1.6553
 4599SOL    HW225434   1.787   4.669   7.141  0.2003  0.8238 -0.8576
 4600SOL     OW25435   1.189   2.706   1.936 -0.3383  0.4136 -0.2651
 4600SOL    HW125436   1.154   2.694   2.025 -1.7269  0.7645 -0.7597
 4600SOL    HW225437   1.236   2.624   1.924 -3.1236 -1.3501  0.6773
 4601SOL     OW25438   4.611   2.729   7.478 -0.3175 -0.6684  0.4285
 4601SOL    HW125439   4.516   2.734   7.483 -0.4752 -1.0204 -2.3837
 4601SOL    HW225440   4.636   2.652   7.427 -1.9835 -1.2384  0.4590
 4602SOL     OW25441   0.221   2.046   3.619 -0.3965 -0.5646 -0.0999
 4602SOL    HW125442   0.146   2.000   3.581  0.0024 -1.1243 -0.2194
 4602SOL    HW225443   0.285   1.977   3.600  0.6148  0.0867  0.9065
 4603SOL     OW25444   1.889   0.519   4.215  0.2207  0.4312  0.2446
 4603SOL    HW125445   1.796   0.507   4.201  0.1702 -1.3431  1.9970
 4603SOL    HW225446   1.927   0.437   4.183 -1.6275 -0.8660  1.3634
 4604SOL     OW25447   2.801   3.507  14.329  0.6541 -0.7339  0.1295
 4604SOL    HW125448   2.785   3.497  14.235  4.1460  3.0564 -0.8412
 4604SOL    HW225449   2.873   3.445  14.342  2.1632  1.1900  1.0505
 4605SOL     OW25450   0.804   2.130   4.538  0.2903  0.4255 -0.4496
 4605SOL    HW125451   0.848   2.097   4.459 -0.4669 -1.6872  0.0063
 4605SOL    HW225452   0.730   2.181   4.504 -0.1915 -0.9605 -1.4764
 4606SOL     OW25453   0.677   2.091  16.089 -0.7355 -0.4398  0.2427
 4606SOL    HW125454   0.667   2.005  16.131  2.3019 -1.3670 -0.9921
 4606SOL    HW225455   0.769   2.102  16.068 -0.6624 -1.2028  0.1538
 4607SOL     OW25456   0.902   0.364   6.893 -0.0398 -0.0427 -0.2147
 4607SOL    HW125457   0.813   0.377   6.859 -0.3684 -2.2457 -0.1876
 4607SOL    HW225458   0.892   0.377   6.987 -1.2199 -2.8098  0.0456
 4608SOL     OW25459   0.475   3.529   9.388  0.2873  0.3207 -0.0671
 4608SOL    HW125460   0.471   3.496   9.298  0.6336  0.5478 -0.1657
 4608SOL    HW225461   0.474   3.448   9.440 -0.9543  1.3354  1.5033
 4609SOL     OW25462   0.313   2.994   6.564 -0.0235 -0.6615  0.3746
 4609SOL    HW125463   0.225   3.021   6.592  0.4034 -0.3379  1.3829
 4609SOL    HW225464   0.331   3.051   6.489  0.3475 -1.3250 -0.0385
 4610SOL     OW25465   2.450   1.816  13.454  0.9214  0.0230  0.2652
 4610SOL    HW125466   2.479   1.885  13.395  0.0288  0.0676 -0.1142
 4610SOL    HW225467   2.532   1.783  13.493  0.8189 -0.1720  0.3154
 4611SOL     OW25468   3.671   4.708   0.941 -1.3704 -0.2107 -0.4362
 4611SOL    HW125469   3.728   0.023   0.884 -1.5824  0.5356  0.0238
 4611SOL    HW225470   3.619   4.664   0.874  0.7424  1.1399 -2.9674
 4612SOL     OW25471   3.263   1.001  11.438 -0.1479  0.1185  0.6628
 4612SOL    HW125472   3.290   1.075  11.384  1.0606 -0.6285  0.2333
 4612SOL    HW225473   3.171   1.023  11.454 -1.0333 -1.2844 -2.3908
 4613SOL     OW25474   2.402   4.458  15.262 -0.3837 -0.2585  0.3375
 4613SOL    HW125475   2.368   4.545  15.283  0.8052 -0.2451  2.2082
 4613SOL    HW225476   2.322   4.408  15.245 -1.3312  1.4326 -0.1264
 4614SOL     OW25477   0.204   3.122   6.330  0.7399  0.3216  0.2086
 4614SOL    HW125478   0.156   3.151   6.408  1.0462 -0.8649  0.8425
 4614SOL    HW225479   0.135   3.060   6.307  1.9556 -0.5469 -1.0858
 4615SOL     OW25480   3.462   3.741   3.118 -0.4699  0.0528 -0.2066
 4615SOL    HW125481   3.403   3.670   3.141 -0.0293 -0.1030  0.4402
 4615SOL    HW225482   3.546   3.714   3.154 -0.1397  0.7032 -0.4913
 4616SOL     OW25483   1.626   2.609  14.833 -0.5667 -0.6692 -0.1040
 4616SOL    HW125484   1.535   2.640  14.833 -0.4600 -0.3915  1.2674
 4616SOL    HW225485   1.607   2.524  14.792 -0.8664 -1.4541  1.6938
 4617SOL     OW25486   0.731   2.139  15.463 -0.0814 -0.2464  0.2020
 4617SOL    HW125487   0.820   2.152  15.430 -0.7070 -0.3788 -1.5484
 4617SOL    HW225488   0.705   2.224  15.499  0.4690 -0.7501  1.7897
 4618SOL     OW25489   0.039   2.152   8.504 -0.2493  0.4174 -0.2760
 4618SOL    HW125490   0.060   2.125   8.593 -1.7886  0.8983  0.2283
 4618SOL    HW225491   0.079   2.085   8.448 -0.8852  1.5167 -2.0706
 4619SOL     OW25492   2.786   3.662  17.099  0.0862 -0.0249  0.1739
 4619SOL    HW125493   2.795   3.733  17.163  1.3431 -0.1128  0.0993
 4619SOL    HW225494   2.813   3.712  17.022  0.6339 -1.5632 -0.6182
 4620SOL     OW25495   3.347   0.193   8.976 -0.4915 -0.8234  0.0547
 4620SOL    HW125496   3.291   0.270   8.967  1.7738  0.8455  0.2334
 4620SOL    HW225497   3.393   0.196   8.892  0.0655  2.9415  0.5177
 4621SOL     OW25498   0.886   3.404   7.863 -0.2352  0.2228  0.3059
 4621SOL    HW125499   0.820   3.420   7.796  0.5203 -0.6895 -0.6650
 4621SOL    HW225500   0.940   3.339   7.817 -0.0523  0.7411 -0.2129
 4622SOL     OW25501   0.689   2.943  12.001  0.8243  0.7404 -0.6097
 4622SOL    HW125502   0.670   3.026  11.956 -2.1971 -0.7069 -2.0039
 4622SOL    HW225503   0.669   2.964  12.092 -0.1502  0.3729 -0.7371
 4623SOL     OW25504   1.169   0.341   8.064 -0.3053  0.2558 -0.2390
 4623SOL    HW125505   1.174   0.356   8.158  0.4220 -2.0057  0.0703
 4623SOL    HW225506   1.085   0.378   8.037 -0.8459 -2.5776 -2.4482
 4624SOL     OW25507   3.483   1.822   9.534  0.3902 -0.3847 -0.0552
 4624SOL    HW125508   3.423   1.804   9.462  1.4635 -1.8242 -0.5877
 4624SOL    HW225509   3.478   1.917   9.547 -0.3102 -0.5468  0.8921
 4625SOL     OW25510   4.465   1.717  13.373 -0.0553 -0.3754 -0.7646
 4625SOL    HW125511   4.542   1.752  13.417 -0.3197  0.9210 -1.3259
 4625SOL    HW225512   4.396   1.754  13.428 -0.3744 -0.7805 -0.9007
 4626SOL     OW25513   2.239   0.472   5.620 -0.1107 -0.0855 -0.2882
 4626SOL    HW125514   2.290   0.524   5.682  0.3723 -3.0504  1.8469
 4626SOL    HW225515   2.264   0.386   5.654 -1.7443 -0.9614 -1.2875
 4627SOL     OW25516   4.223   1.382   7.905 -0.2498 -0.1229  0.1260
 4627SOL    HW125517   4.168   1.338   7.840 -2.3846  3.6229 -0.5824
 4627SOL    HW225518   4.272   1.451   7.861 -1.5204  1.7519  1.6446
 4628SOL     OW25519   0.365   4.347   5.165 -0.5255 -0.3724 -0.2536
 4628SOL    HW125520   0.323   4.269   5.128 -0.3436  1.2009 -3.6916
 4628SOL    HW225521   0.458   4.351   5.147 -0.9007  1.0242 -1.8468
 4629SOL     OW25522   3.757   1.821   8.073 -0.6591  0.6201 -0.5142
 4629SOL    HW125523   3.822   1.791   8.136 -2.5881 -0.1859  1.0931
 4629SOL    HW225524   3.799   1.897   8.031  2.7781 -0.7987  0.3910
 4630SOL     OW25525   2.812   2.649   2.425  0.5075 -0.7894 -0.7017
 4630SOL    HW125526   2.741   2.636   2.362 -1.0556  1.1470  0.6897
 4630SOL    HW225527   2.826   2.743   2.416 -1.5601 -0.6119 -2.0196
 4631SOL     OW25528   0.779   3.726   5.154 -0.0543  0.7074 -0.4846
 4631SOL    HW125529   0.874   3.730   5.165 -0.3097 -1.1813  2.3064
 4631SOL    HW225530   0.758   3.811   5.115  2.7046  1.5286 -0.1343
 4632SOL     OW25531   3.429   3.822  13.753  0.2310  0.5098  0.1802
 4632SOL    HW125532   3.393   3.751  13.700 -0.4908  0.3792  0.8458
 4632SOL    HW225533   3.423   3.888  13.684 -2.8910  2.1130  1.9637
 4633SOL     OW25534   0.692   2.050  12.523  0.4840 -0.4558  0.4780
 4633SOL    HW125535   0.681   2.133  12.570  1.5167  0.2811 -0.5832
 4633SOL    HW225536   0.778   2.053  12.481 -0.7746 -0.6744 -2.0573
 4634SOL     OW25537   1.183   2.363   8.517 -0.2003  0.7252 -0.2081
 4634SOL    HW125538   1.108   2.365   8.576  2.1247  1.0691  2.7107
 4634SOL    HW225539   1.224   2.279   8.539  0.9993  0.7602 -2.2915
 4635SOL     OW25540   0.418   1.424   2.629  0.4107 -0.0370 -0.7984
 4635SOL    HW125541   0.409   1.498   2.569 -0.4227  1.6229  1.3877
 4635SOL    HW225542   0.432   1.478   2.706  0.5915 -0.6358 -0.4106
 4636SOL     OW25543   1.977   0.250   9.992  0.1355 -0.3536 -0.2196
 4636SOL    HW125544   2.045   0.315  10.010 -0.1804  0.0916 -0.6116
 4636SOL    HW225545   1.919   0.266  10.067 -1.8989 -1.1757 -1.6137
 4637SOL     OW25546   4.418   1.297   5.033  0.1798  0.1989 -0.3272
 4637SOL    HW125547   4.347   1.290   4.969  0.6125 -2.6778 -0.4647
 4637SOL    HW225548   4.400   1.223   5.092  1.2271  2.6552  3.1052
 4638SOL     OW25549   4.085   3.193   1.800 -0.0527 -0.1785 -0.4496
 4638SOL    HW125550   4.059   3.275   1.756  0.5292  0.0270 -0.4081
 4638SOL    HW225551   4.029   3.190   1.878  0.6450  1.0185  0.0964
 4639SOL     OW25552   3.759   4.117  14.032  0.3900 -0.6974  0.5969
 4639SOL    HW125553   3.793   4.060  14.101  1.5524 -2.3070 -1.2714
 4639SOL    HW225554   3.715   4.050  13.979  0.9147  0.2324 -1.0088
 4640SOL     OW25555   0.504   1.742  13.165  0.5000  0.7339 -0.3136
 4640SOL    HW125556   0.454   1.823  13.173 -1.9119 -0.8375  0.4855
 4640SOL    HW225557   0.553   1.747  13.247 -2.2371 -0.8710  1.3772
 4641SOL     OW25558   4.546   0.782   4.473  0.6464 -0.4417 -0.7077
 4641SOL    HW125559   4.575   0.847   4.409 -1.0098  1.5258  0.5268
 4641SOL    HW225560   4.559   0.699   4.428 -2.4014 -0.5022 -1.4660
 4642SOL     OW25561   3.753   0.218  12.809  0.5563  0.0688  0.1000
 4642SOL    HW125562   3.741   0.218  12.714 -3.0851 -2.3773  0.5488
 4642SOL    HW225563   3.791   0.303  12.829 -0.8177  1.1939 -2.0466
 4643SOL     OW25564   4.175   0.315   5.393 -0.1252  1.1275 -0.4090
 4643SOL    HW125565   4.164   0.245   5.329  1.8181 -1.7129  2.3409
 4643SOL    HW225566   4.106   0.289   5.453  2.8785  1.3465  3.1432
 4644SOL     OW25567   2.361   1.535   7.821  0.1931 -0.4363  0.1882
 4644SOL    HW125568   2.446   1.538   7.779  0.6310 -1.0118  1.0224
 4644SOL    HW225569   2.304   1.522   7.746 -0.5336  0.3501  0.5924
 4645SOL     OW25570   2.963   0.015  13.796  0.0297 -0.1305 -0.4504
 4645SOL    HW125571   2.936   0.103  13.824  1.0934 -0.3301  1.1488
 4645SOL    HW225572   2.928   4.701  13.869 -0.4396  0.1659 -0.4678
 4646SOL     OW25573   3.544   3.759  16.784 -0.0186 -0.0174 -0.1482
 4646SOL    HW125574   3.491   3.762  16.864  1.4219  1.0474  0.7643
 4646SOL    HW225575   3.589   3.844  16.791  0.2897 -0.3028  1.2999
 4647SOL     OW25576   0.889   1.291   4.967 -0.0042 -0.0188 -0.1330
 4647SOL    HW125577   0.969   1.241   4.981  1.6994  2.9094  0.7831
 4647SOL    HW225578   0.914   1.381   4.988  0.3340 -0.0068 -0.5800
 4648SOL     OW25579   1.305   1.393   4.901 -0.4154 -0.2269 -0.2299
 4648SOL    HW125580   1.391   1.358   4.878 -0.0061  0.1233  0.7749
 4648SOL    HW225581   1.267   1.434   4.823 -3.0174 -1.6579  0.2923
 4649SOL     OW25582   0.619   2.821  10.125 -0.4035 -0.5142 -0.0853
 4649SOL    HW125583   0.575   2.739  10.147  1.5623 -0.3652  4.3539
 4649SOL    HW225584   0.667   2.836  10.207 -1.9601 -0.0507  0.7395
 4650SOL     OW25585   4.658   1.345  14.263 -0.1492  0.4450 -0.3544
 4650SOL    HW125586   4.637   1.392  14.182 -0.5725  0.5299 -0.1926
 4650SOL    HW225587   4.667   1.255  14.231  1.9774  0.7162 -0.5467
 4651SOL     OW25588   2.151   3.270   1.345  0.0079  0.0357 -0.1248
 4651SOL    HW125589   2.086   3.264   1.274 -0.2497 -2.4785  0.3361
 4651SOL    HW225590   2.105   3.335   1.398 -0.7468 -0.9860  0.4610
 4652SOL     OW25591   4.328   0.042   5.906 -0.4888 -0.3323 -0.0764
 4652SOL    HW125592   4.400   0.028   5.845  0.5179  1.2762  0.7438
 4652SOL    HW225593   4.255   0.026   5.846 -0.0046  0.3359 -0.8350
 4653SOL     OW25594   1.346   1.652   7.556 -0.3065 -0.1381  0.2653
 4653SOL    HW125595   1.274   1.696   7.511 -1.5436 -3.5355 -1.0963
 4653SOL    HW225596   1.315   1.562   7.549  1.4681 -0.9382  2.6321
 4654SOL     OW25597   1.332   2.552   1.733 -0.0741 -0.1850  0.1814
 4654SOL    HW125598   1.392   2.627   1.735 -0.5226  0.2149 -1.7258
 4654SOL    HW225599   1.295   2.553   1.645  0.8773  0.2722 -0.2184
 4655SOL     OW25600   0.174   2.598   1.369  0.0936  0.0519 -0.8688
 4655SOL    HW125601   0.183   2.663   1.438 -0.2925 -0.1539 -0.6231
 4655SOL    HW225602   0.098   2.548   1.399 -1.1886  2.0320 -0.8525
 4656SOL     OW25603   0.852   2.992   4.698  0.2250 -0.0715  0.3258
 4656SOL    HW125604   0.822   2.995   4.607  2.8636 -2.8209 -0.6672
 4656SOL    HW225605   0.920   3.058   4.710 -0.7799  1.0409 -0.2275
 4657SOL     OW25606   1.509   3.786   0.741  0.1548 -0.1259  0.0189
 4657SOL    HW125607   1.462   3.767   0.659  1.0816  0.8788 -0.7603
 4657SOL    HW225608   1.565   3.709   0.744 -0.1272 -0.3155  0.3607
 4658SOL     OW25609   0.399   1.344  12.983 -0.8110  0.3102  0.1170
 4658SOL    HW125610   0.326   1.364  12.924 -1.4484 -0.1187  0.7701
 4658SOL    HW225611   0.378   1.262  13.027 -0.0679  0.0346 -0.0482
 4659SOL     OW25612   2.541   4.043   1.942  0.1540  0.1923  0.5591
 4659SOL    HW125613   2.621   3.997   1.969 -0.3933  0.3368  2.3568
 4659SOL    HW225614   2.496   4.043   2.026 -1.3278  0.8587 -0.2427
 4660SOL     OW25615   2.043   0.988   1.911  0.0396  0.6473 -0.7470
 4660SOL    HW125616   2.002   0.955   1.991 -0.8588  0.4856 -1.2762
 4660SOL    HW225617   1.984   1.062   1.923  1.1986  1.4877 -0.2307
 4661SOL     OW25618   1.524   1.586  16.650 -0.0183 -0.2141  0.0156
 4661SOL    HW125619   1.544   1.597  16.557  1.5061 -2.2744  0.0945
 4661SOL    HW225620   1.501   1.493  16.652  0.6008 -0.4305 -2.1800
 4662SOL     OW25621   3.703   4.491   6.805 -0.4781  0.2681 -0.4004
 4662SOL    HW125622   3.756   4.435   6.861 -0.7906  0.4158  0.0451
 4662SOL    HW225623   3.631   4.503   6.867  0.3674  2.5955  0.1125
 4663SOL     OW25624   2.313   2.790   3.204 -0.4367  0.3513  0.1285
 4663SOL    HW125625   2.223   2.761   3.220  0.0715 -1.2221  0.1213
 4663SOL    HW225626   2.350   2.718   3.154  1.7235  1.8248 -0.3849
 4664SOL     OW25627   2.787   0.589   9.130 -0.5405  0.1328 -0.7809
 4664SOL    HW125628   2.845   0.627   9.064  1.8702  0.3965  1.5269
 4664SOL    HW225629   2.704   0.580   9.082 -0.8916  0.8655 -0.3157
 4665SOL     OW25630   2.801   4.035   8.667 -0.0569 -0.2944  0.4579
 4665SOL    HW125631   2.761   4.084   8.739  1.7253 -1.3208  2.1449
 4665SOL    HW225632   2.750   4.051   8.588 -1.0460 -0.4613  1.0595
 4666SOL     OW25633   2.505   2.327   2.768 -0.5306  0.6723  0.1218
 4666SOL    HW125634   2.539   2.339   2.679 -1.0145 -1.3284 -0.3469
 4666SOL    HW225635   2.473   2.237   2.767 -0.4533  0.6711 -1.5111
 4667SOL     OW25636   4.047   2.248  13.737  0.4176  0.1037 -0.5847
 4667SOL    HW125637   4.046   2.233  13.642  1.4691  1.9522 -0.8704
 4667SOL    HW225638   4.026   2.161  13.772  0.5474  0.5367  0.5487
 4668SOL     OW25639   4.031   2.072   6.089  0.1888 -0.4349 -0.2239
 4668SOL    HW125640   4.025   2.134   6.016  0.3653 -1.0818 -0.7980
 4668SOL    HW225641   3.979   2.002   6.048 -1.2891  0.5343  0.0081
 4669SOL     OW25642   0.044   2.573   6.522 -0.9030  0.2017  0.3359
 4669SOL    HW125643   0.096   2.503   6.561 -0.9783  0.8475  1.5890
 4669SOL    HW225644   0.106   2.644   6.504 -0.8564  0.1509  0.2943
 4670SOL     OW25645   2.883   2.703   0.761  0.0037 -0.1816 -0.0865
 4670SOL    HW125646   2.817   2.772   0.765  0.0146 -0.1848  0.1752
 4670SOL    HW225647   2.961   2.752   0.787 -0.2600  1.6308 -2.7050
 4671SOL     OW25648   4.442   1.773  12.461 -0.2051 -0.1485 -0.3473
 4671SOL    HW125649   4.504   1.701  12.457  0.5302  0.5986 -2.6361
 4671SOL    HW225650   4.501   1.838  12.421 -1.4423  2.1837  1.6130
 4672SOL     OW25651   1.362   3.495   4.656 -0.0538 -0.1374 -0.4932
 4672SOL    HW125652   1.308   3.445   4.595 -2.0427 -1.8301  2.6128
 4672SOL    HW225653   1.290   3.518   4.716  0.5609 -0.9100  0.5455
 4673SOL     OW25654   4.132   2.843   8.683 -0.3498 -0.1658  0.1678
 4673SOL    HW125655   4.146   2.832   8.777 -0.4773 -1.1710  0.0769
 4673SOL    HW225656   4.041   2.816   8.675 -0.5580 -0.2046  2.6257
 4674SOL     OW25657   2.198   0.175   2.825 -0.1323  0.4220  0.5209
 4674SOL    HW125658   2.251   0.108   2.782 -0.1823 -0.5518  1.9607
 4674SOL    HW225659   2.251   0.255   2.826 -0.6053  0.7439 -0.1093
 4675SOL     OW25660   3.355   3.140   6.479 -0.1498  0.6258 -0.1639
 4675SOL    HW125661   3.416   3.066   6.472 -0.0650  0.4772  2.0086
 4675SOL    HW225662   3.274   3.101   6.448 -0.7094  1.7305 -0.0678
 4676SOL     OW25663   0.293   0.932   3.020 -0.2683 -0.1459 -0.0907
 4676SOL    HW125664   0.231   0.863   3.042 -1.4043  0.8466 -0.1885
 4676SOL    HW225665   0.360   0.874   2.984 -0.0760  0.7211 -1.1498
 4677SOL     OW25666   3.877   1.395   7.398 -0.4484  0.4310  0.3475
 4677SOL    HW125667   3.957   1.344   7.407  0.0125  1.3032  1.2720
 4677SOL    HW225668   3.901   1.475   7.446 -1.5131  1.0894 -0.2323
 4678SOL     OW25669   0.311   1.846   7.026  0.3871  0.5961  0.0018
 4678SOL    HW125670   0.365   1.771   7.001  1.6453  0.9406  1.6909
 4678SOL    HW225671   0.256   1.806   7.093 -2.6077 -0.3250 -2.9773
 4679SOL     OW25672   2.713   3.646   4.912  0.4885 -0.2746  0.0263
 4679SOL    HW125673   2.692   3.738   4.930  2.0853 -0.1367  1.1222
 4679SOL    HW225674   2.658   3.595   4.972  1.1230 -0.3236  0.5586
 4680SOL     OW25675   0.383   0.663   5.047 -0.0120  0.4204 -0.0163
 4680SOL    HW125676   0.313   0.720   5.079 -1.2691 -0.1403 -1.7448
 4680SOL    HW225677   0.445   0.724   5.007  1.3564 -0.1256  1.2849
 4681SOL     OW25678   1.871   2.473  14.516 -0.3883  0.0081 -0.0878
 4681SOL    HW125679   1.821   2.414  14.573  1.7076 -0.7308  0.9586
 4681SOL    HW225680   1.924   2.525  14.576 -1.4511  2.2740 -1.0998
 4682SOL     OW25681   2.797   0.949   4.315 -0.4167 -0.3567  0.1411
 4682SOL    HW125682   2.749   0.871   4.289 -0.7903  0.8503 -2.7709
 4682SOL    HW225683   2.804   0.998   4.233  2.8243  1.6896  1.6119
 4683SOL     OW25684   0.782   3.287   4.778  0.1402  0.2190 -0.5392
 4683SOL    HW125685   0.693   3.301   4.810  0.1920  0.9575 -0.7234
 4683SOL    HW225686   0.770   3.336   4.697 -2.6658  0.2937 -0.0852
 4684SOL     OW25687   4.519   0.201   8.965  0.2614  0.0525  0.0725
 4684SOL    HW125688   4.580   0.166   9.030  0.3496 -0.2273 -0.1601
 4684SOL    HW225689   4.491   0.282   9.009  0.7483 -1.1352  2.5951
 4685SOL     OW25690   2.855   0.241  13.887 -0.7999 -0.2535 -0.2468
 4685SOL    HW125691   2.771   0.253  13.933 -1.4716 -0.6002 -1.3862
 4685SOL    HW225692   2.885   0.332  13.878 -0.6306 -0.1410  1.4516
 4686SOL     OW25693   1.030   4.326  12.755 -0.1575 -0.0894  0.3587
 4686SOL    HW125694   1.004   4.304  12.844  1.8706 -2.7259  0.3003
 4686SOL    HW225695   1.053   4.244  12.711 -0.2648 -0.4713  1.0287
 4687SOL     OW25696   4.010   3.201   9.428 -0.0320 -0.4099 -0.2082
 4687SOL    HW125697   3.977   3.290   9.420  0.1856 -0.1186  2.2116
 4687SOL    HW225698   3.973   3.185   9.515  0.5718  1.0935  0.3324
 4688SOL     OW25699   3.238   4.590  12.495 -0.1646 -0.0519 -0.4346
 4688SOL    HW125700   3.263   4.639  12.574 -0.8717  1.1305 -0.9329
 4688SOL    HW225701   3.298   4.637  12.437 -1.2000  0.6811 -0.9107
 4689SOL     OW25702   4.250   2.889   6.992  1.0188  0.0482  0.2496
 4689SOL    HW125703   4.183   2.934   6.940  0.5381  0.9238  1.6483
 4689SOL    HW225704   4.285   2.820   6.935  1.2804 -0.2511  0.7801
 4690SOL     OW25705   1.966   0.860  12.903  0.0617 -0.0847  0.0188
 4690SOL    HW125706   2.028   0.796  12.871  1.3820  0.8068  0.8155
 4690SOL    HW225707   2.025   0.930  12.932  1.0843 -0.3557 -1.4193
 4691SOL     OW25708   2.893   2.224   6.517  0.0865  0.5758  0.3595
 4691SOL    HW125709   2.875   2.159   6.449  1.0503  0.3531  0.3118
 4691SOL    HW225710   2.888   2.169   6.595 -0.9797  2.0731  1.3409
 4692SOL     OW25711   1.570   1.346  16.996  0.4956 -0.0585 -0.0449
 4692SOL    HW125712   1.510   1.320  17.066  0.0874 -1.1550 -0.7875
 4692SOL    HW225713   1.616   1.264  16.977 -0.1205 -0.4689  0.2163
 4693SOL     OW25714   2.815   3.350   7.475  0.0976  0.7215 -0.2110
 4693SOL    HW125715   2.732   3.376   7.433 -0.1298 -0.6250 -0.5860
 4693SOL    HW225716   2.822   3.419   7.541  0.7507  0.4220  0.0299
 4694SOL     OW25717   3.303   0.577   2.100 -0.3264  0.3905 -0.2716
 4694SOL    HW125718   3.215   0.566   2.136 -0.7829  2.8631 -0.6147
 4694SOL    HW225719   3.289   0.646   2.034 -2.7198  1.7186  1.6342
 4695SOL     OW25720   1.038   0.212  17.440 -0.8376  0.1495 -1.2202
 4695SOL    HW125721   1.030   0.128  17.486 -2.3263  1.0544  0.1886
 4695SOL    HW225722   0.951   0.252  17.441 -0.9086 -0.0501  0.5716
 4696SOL     OW25723   1.593   0.727  15.324 -0.0989  0.3647 -0.4379
 4696SOL    HW125724   1.591   0.808  15.274 -0.0581  1.2305  0.9674
 4696SOL    HW225725   1.511   0.687  15.294 -0.1988 -1.3891  2.2525
 4697SOL     OW25726   0.693   4.333  10.211  0.0806 -0.5297  0.9124
 4697SOL    HW125727   0.655   4.402  10.266 -0.1016 -0.3753  0.5916
 4697SOL    HW225728   0.732   4.286  10.284  0.3119 -2.2905 -0.3561
 4698SOL     OW25729   0.186   0.811   2.143 -0.1249  0.4825  0.2132
 4698SOL    HW125730   0.095   0.782   2.135  0.9945 -3.1380  0.8289
 4698SOL    HW225731   0.199   0.866   2.066  0.0169  0.5562  0.2894
 4699SOL     OW25732   2.041   1.571   7.991  0.4353  0.4267 -0.2285
 4699SOL    HW125733   2.048   1.620   8.073 -0.8866 -1.7709  1.1959
 4699SOL    HW225734   1.984   1.500   8.020 -0.9980  1.7377  0.1898
 4700SOL     OW25735   4.083   1.502   3.871  0.2954  0.3271  0.2777
 4700SOL    HW125736   4.155   1.514   3.933  2.5548  0.0135 -2.2862
 4700SOL    HW225737   4.035   1.426   3.905  2.2254 -0.7072  0.7185
 4701SOL     OW25738   0.433   2.542  13.166 -0.0820  0.2379 -0.0377
 4701SOL    HW125739   0.526   2.563  13.153  0.0311 -0.2335 -0.0063
 4701SOL    HW225740   0.413   2.504  13.081 -0.2753  2.2129 -0.8633
 4702SOL     OW25741   1.184   3.752   4.378 -0.2224 -0.2408  0.1310
 4702SOL    HW125742   1.242   3.690   4.421  0.7919 -0.7373 -1.9781
 4702SOL    HW225743   1.109   3.695   4.361 -0.6392  0.2390  0.3635
 4703SOL     OW25744   1.986   2.541   1.351 -0.3135  0.5046 -0.1232
 4703SOL    HW125745   2.009   2.556   1.443 -1.1037  0.3354  0.0961
 4703SOL    HW225746   1.912   2.481   1.352 -0.8267  1.2118  3.2081
 4704SOL     OW25747   4.428   4.437   7.843  0.1542 -0.7132 -0.2612
 4704SOL    HW125748   4.518   4.442   7.876  0.3086  0.2781 -0.8459
 4704SOL    HW225749   4.426   4.341   7.841 -0.5036 -0.7388  1.6923
 4705SOL     OW25750   3.171   1.695   1.399  0.2948  0.1286  0.2637
 4705SOL    HW125751   3.163   1.696   1.494 -0.8225 -0.6953  0.1771
 4705SOL    HW225752   3.098   1.755   1.381  0.6419  0.4469 -0.0884
 4706SOL     OW25753   2.104   4.190   8.109  0.2636 -0.2078  0.4441
 4706SOL    HW125754   2.165   4.261   8.091  1.0428 -1.3126 -1.2238
 4706SOL    HW225755   2.149   4.130   8.170 -0.6297 -1.3122  0.0241
 4707SOL     OW25756   1.822   4.683  14.513  0.4923  0.0604 -0.2358
 4707SOL    HW125757   1.783   0.030  14.538  2.3257  0.3979  1.5938
 4707SOL    HW225758   1.869   4.668  14.596 -0.5117 -1.2745  0.0869
 4708SOL     OW25759   2.534   3.921   9.645 -0.3071  0.6157  0.4030
 4708SOL    HW125760   2.446   3.918   9.609  0.6391 -1.4192 -1.7765
 4708SOL    HW225761   2.554   4.015   9.649 -0.4961  0.5470  2.7230
 4709SOL     OW25762   2.597   1.503   6.864 -0.8360  0.1561  0.5078
 4709SOL    HW125763   2.531   1.542   6.921 -0.4259  0.8733  0.4816
 4709SOL    HW225764   2.589   1.550   6.781 -3.4920  1.4768  1.5035
 4710SOL     OW25765   4.610   1.210   7.144  0.2935  0.5980 -0.3028
 4710SOL    HW125766   4.694   1.251   7.162  0.5135 -0.8727  2.0351
 4710SOL    HW225767   4.634   1.124   7.109 -0.6268 -0.0931  0.7409
 4711SOL     OW25768   3.627   1.046   7.479  0.1990  0.2848  0.0958
 4711SOL    HW125769   3.568   1.005   7.416 -0.5929  0.9568  0.3964
 4711SOL    HW225770   3.624   0.979   7.546  0.1902  0.5367  0.3487
 4712SOL     OW25771   0.883   2.644   3.294 -0.0849  0.6345 -0.2730
 4712SOL    HW125772   0.830   2.724   3.294  0.7141  1.1562  1.9547
 4712SOL    HW225773   0.931   2.636   3.376 -1.3430  1.1563  0.5223
 4713SOL     OW25774   3.177   2.865   0.808  0.2555 -0.3596 -0.3279
 4713SOL    HW125775   3.224   2.787   0.836 -1.2133 -1.1890 -0.1943
 4713SOL    HW225776   3.159   2.839   0.718 -1.0253 -0.3579 -0.0644
 4714SOL     OW25777   3.038   2.681   4.364  0.0659 -0.4460 -0.5691
 4714SOL    HW125778   3.026   2.587   4.355 -1.5862 -0.3143  0.2264
 4714SOL    HW225779   3.051   2.714   4.275  0.0400  0.7179 -0.1491
 4715SOL     OW25780   1.544   1.210  12.300 -0.0694  0.0050  0.5741
 4715SOL    HW125781   1.616   1.167  12.347  2.1644  2.0444 -1.0155
 4715SOL    HW225782   1.476   1.192  12.365  0.1870 -0.3800  0.7379
 4716SOL     OW25783   0.131   1.684   9.942 -0.5011 -0.3433 -0.3057
 4716SOL    HW125784   0.094   1.684  10.030 -1.8401 -0.2474 -0.8701
 4716SOL    HW225785   0.219   1.651   9.962  0.2031  2.2938  1.0499
 4717SOL     OW25786   0.383   4.451  15.021  0.4390  0.2156 -0.2071
 4717SOL    HW125787   0.465   4.442  14.972 -1.3950 -1.0221 -3.0850
 4717SOL    HW225788   0.399   4.392  15.094  3.4598  0.3209 -0.7697
 4718SOL     OW25789   3.835   2.754   6.251  0.0131 -0.0048  0.1076
 4718SOL    HW125790   3.743   2.776   6.269  0.7314  2.6950  0.5329
 4718SOL    HW225791   3.856   2.822   6.187 -0.7164  0.6763  0.5979
 4719SOL     OW25792   4.166   3.068  12.939 -0.5839 -0.4501 -0.2715
 4719SOL    HW125793   4.194   3.012  12.866  1.2706 -0.6885  0.6126
 4719SOL    HW225794   4.085   3.028  12.970 -0.7512  0.8209  0.9020
 4720SOL     OW25795   4.693   3.566   3.073 -0.1394 -0.4116  0.2741
 4720SOL    HW125796   4.642   3.622   3.015 -1.2075 -0.3447  1.2651
 4720SOL    HW225797   0.000   3.501   3.018  0.1921  0.2281 -0.2213
 4721SOL     OW25798   1.240   0.482   6.657  0.2587 -0.4870 -0.2952
 4721SOL    HW125799   1.301   0.470   6.584 -1.2866  0.1843 -1.6722
 4721SOL    HW225800   1.162   0.516   6.615  0.6829 -0.7797 -1.3211
 4722SOL     OW25801   1.082   1.742   0.765 -0.2179  0.3426 -0.1522
 4722SOL    HW125802   1.127   1.668   0.806 -0.3554  0.3104 -0.0629
 4722SOL    HW225803   1.149   1.775   0.704  0.7679  0.5079  1.0188
 4723SOL     OW25804   1.405   1.642  15.976  0.0845 -0.4963  0.3074
 4723SOL    HW125805   1.415   1.730  16.011  0.9840 -0.4707 -0.0022
 4723SOL    HW225806   1.395   1.586  16.053 -1.5455  0.3751  0.7372
 4724SOL     OW25807   0.037   0.092   6.671 -0.2651 -0.1244  0.7918
 4724SOL    HW125808   4.686   0.131   6.663 -0.0409  0.3864  0.8538
 4724SOL    HW225809   0.018   0.003   6.643  0.6053  0.3085 -1.1450
 4725SOL     OW25810   4.669   1.420   6.508 -0.3759 -0.2793  0.1178
 4725SOL    HW125811   0.002   1.420   6.573 -1.2319 -1.1390  1.0349
 4725SOL    HW225812   4.707   1.485   6.449 -0.7780  0.1335  0.3103
 4726SOL     OW25813   2.948   4.689  12.601  0.0224  0.0067  0.2404
 4726SOL    HW125814   3.008   4.618  12.578 -0.1791  0.6417 -2.3023
 4726SOL    HW225815   2.896   4.692  12.521  1.1390  1.8041 -0.4164
 4727SOL     OW25816   0.651   1.863   2.817 -0.0425  0.4674  0.3061
 4727SOL    HW125817   0.662   1.941   2.870  0.6759  1.5122 -1.3658
 4727SOL    HW225818   0.555   1.864   2.819 -0.0817 -0.8184 -0.6588
 4728SOL     OW25819   4.554   4.134   5.288  0.1733  0.0058 -0.1343
 4728SOL    HW125820   4.459   4.122   5.295  0.0555  0.7939 -0.3381
 4728SOL    HW225821   4.587   4.086   5.364  0.1261 -0.2396 -0.2710
 4729SOL     OW25822   4.170   4.639   3.184  0.0884  0.0683 -0.2943
 4729SOL    HW125823   4.169   4.546   3.159  0.9312  0.6066 -2.3046
 4729SOL    HW225824   4.237   4.674   3.125  1.0226 -1.5875 -0.2311
 4730SOL     OW25825   2.883   3.956   2.174 -0.1260 -0.1845  0.3896
 4730SOL    HW125826   2.871   3.888   2.240  0.1599 -0.0704  0.5575
 4730SOL    HW225827   2.864   3.916   2.089  2.0037  0.2042 -0.2653
 4731SOL     OW25828   3.135   3.835  14.333 -0.4124 -0.4086 -0.0889
 4731SOL    HW125829   3.106   3.757  14.286 -0.1953 -0.0207 -0.8699
 4731SOL    HW225830   3.055   3.851  14.385 -0.4482 -0.7121 -0.0506
 4732SOL     OW25831   2.699   0.238   1.687  0.6531 -0.2658 -0.2249
 4732SOL    HW125832   2.632   0.171   1.706  0.9141  0.0357  1.8242
 4732SOL    HW225833   2.711   0.269   1.777 -0.7127 -1.1495  0.2570
 4733SOL     OW25834   3.313   4.633  16.321 -0.2095  0.3243 -0.5364
 4733SOL    HW125835   3.227   4.604  16.352 -1.5277  0.5053 -3.9719
 4733SOL    HW225836   3.314   4.584  16.239  1.3440  1.2387 -1.0718
 4734SOL     OW25837   1.617   1.273   7.166  0.1221 -0.2113 -0.0445
 4734SOL    HW125838   1.667   1.305   7.091 -0.0468  0.1540 -0.0043
 4734SOL    HW225839   1.580   1.195   7.124 -0.3179  0.7313 -1.4213
 4735SOL     OW25840   0.722   0.682   7.307  0.2989 -0.4470 -0.3399
 4735SOL    HW125841   0.815   0.691   7.289  0.3225 -1.5129 -0.7631
 4735SOL    HW225842   0.693   0.768   7.276  0.6783 -0.5687 -1.0152
 4736SOL     OW25843   1.726   2.445   5.955  0.0853  0.8171 -0.5754
 4736SOL    HW125844   1.744   2.360   5.913 -0.9850  1.0783 -1.5611
 4736SOL    HW225845   1.786   2.432   6.028  2.2402  0.6350 -2.3573
 4737SOL     OW25846   2.313   1.467   2.978  0.3356 -0.4200  0.6112
 4737SOL    HW125847   2.302   1.397   2.914  1.9130 -1.4234  1.4292
 4737SOL    HW225848   2.332   1.543   2.922  2.6385 -0.7365  0.9412
 4738SOL     OW25849   4.700   4.222   4.447 -0.4122 -0.5577  0.5488
 4738SOL    HW125850   4.723   4.316   4.445 -1.8651 -0.2432 -0.4641
 4738SOL    HW225851   4.633   4.224   4.516  2.0970 -0.7114  3.0193
 4739SOL     OW25852   0.609   3.919   1.704 -0.2674 -0.1010  0.1740
 4739SOL    HW125853   0.689   3.910   1.652  0.6060 -0.2641  1.5483
 4739SOL    HW225854   0.583   4.008   1.681  1.0905  0.8250  2.2802
 4740SOL     OW25855   3.467   1.156   6.468 -0.8427 -0.2901 -0.9289
 4740SOL    HW125856   3.558   1.135   6.490 -0.4980  3.1998  0.9639
 4740SOL    HW225857   3.459   1.235   6.521 -1.1130  0.8709 -2.7113
 4741SOL     OW25858   0.557   3.803   7.808 -0.6832  0.2626  0.2214
 4741SOL    HW125859   0.537   3.817   7.900 -0.8888  2.0646 -0.0948
 4741SOL    HW225860   0.646   3.769   7.813  0.0379  1.9908 -0.6415
 4742SOL     OW25861   2.406   4.506  15.939 -0.2016  0.4063 -0.5858
 4742SOL    HW125862   2.415   4.462  16.023 -2.0135  0.1590 -0.5293
 4742SOL    HW225863   2.473   4.572  15.959  0.4996 -0.2398 -0.8147
 4743SOL     OW25864   1.532   0.603  11.228  0.2443  0.5606  0.2134
 4743SOL    HW125865   1.623   0.594  11.258  0.6116 -1.1817 -1.3901
 4743SOL    HW225866   1.497   0.517  11.251  0.7842 -0.2228 -1.8454
 4744SOL     OW25867   0.081   4.325  14.196  0.3351 -0.1310 -0.5560
 4744SOL    HW125868   0.136   4.254  14.229  0.6233 -0.4227 -1.6626
 4744SOL    HW225869   0.013   4.274  14.152  1.7665 -0.8373 -1.9363
 4745SOL     OW25870   2.492   4.030   3.412 -0.2031  0.5354  0.8086
 4745SOL    HW125871   2.494   4.038   3.507  1.1983 -2.5307  1.0437
 4745SOL    HW225872   2.522   3.939   3.410 -1.4918  0.1011  1.1822
 4746SOL     OW25873   3.823   4.647   7.550  0.0850 -0.3712  0.6015
 4746SOL    HW125874   3.791   4.625   7.462 -0.1986  1.0620  0.3404
 4746SOL    HW225875   3.852   0.002   7.539 -0.1045 -0.4293 -0.3436
 4747SOL     OW25876   3.024   0.496  11.511 -0.2068 -0.0698  0.7509
 4747SOL    HW125877   3.071   0.518  11.431 -1.3507  0.7666  0.3024
 4747SOL    HW225878   3.078   0.527  11.584 -0.1835 -0.9297  1.0936
 4748SOL     OW25879   1.383   3.232   3.991  0.1758  0.0551 -0.2823
 4748SOL    HW125880   1.451   3.288   4.030  0.4850 -1.4106  1.3036
 4748SOL    HW225881   1.304   3.282   4.011  0.1339 -1.2231  2.6531
 4749SOL     OW25882   2.626   0.959   9.594  0.1338 -0.1365  0.9004
 4749SOL    HW125883   2.617   0.976   9.688  1.1350 -0.2372  1.0132
 4749SOL    HW225884   2.657   0.868   9.599 -0.0490 -0.3254 -1.2439
 4750SOL     OW25885   2.800   2.292   3.868  0.2963  0.2024 -0.0060
 4750SOL    HW125886   2.728   2.348   3.898 -0.5966 -0.1498 -1.5030
 4750SOL    HW225887   2.773   2.216   3.919  2.2848 -1.5310 -1.5560
 4751SOL     OW25888   3.876   3.357   5.072  0.1002  0.1858  0.2303
 4751SOL    HW125889   3.932   3.394   5.004 -1.3979  0.2652 -0.9517
 4751SOL    HW225890   3.914   3.270   5.077 -0.1340  0.1013  0.5428
 4752SOL     OW25891   2.165   0.021   4.486  0.0568 -0.3990  0.0341
 4752SOL    HW125892   2.126   0.031   4.572  1.3827  1.9119  0.3756
 4752SOL    HW225893   2.101   4.707   4.435 -2.9704  2.2310  1.2013
 4753SOL     OW25894   2.390   4.114  10.248  1.1517 -0.5332 -0.2327
 4753SOL    HW125895   2.379   4.196  10.199 -3.3950 -0.4983  0.7646
 4753SOL    HW225896   2.350   4.051  10.188 -1.2685  1.6387 -0.9393
 4754SOL     OW25897   1.128   4.217   8.925  0.4981 -0.3831 -0.3604
 4754SOL    HW125898   1.206   4.194   8.976 -0.0774 -1.0460  0.2225
 4754SOL    HW225899   1.070   4.182   8.993 -0.6289 -0.0726 -1.1750
 4755SOL     OW25900   4.661   1.757  11.989 -0.1541  0.1496 -0.4299
 4755SOL    HW125901   4.641   1.711  12.071  2.8459 -0.1248  0.1189
 4755SOL    HW225902   4.573   1.762  11.950 -1.7030  1.0339  3.1822
 4756SOL     OW25903   1.352   2.669   7.972 -0.6764  0.6625 -0.4607
 4756SOL    HW125904   1.392   2.611   7.908 -0.3979  2.1065 -1.6093
 4756SOL    HW225905   1.299   2.611   8.026  0.2566  1.9388  1.8713
 4757SOL     OW25906   0.228   3.175   4.107 -0.3323  0.3673 -0.1402
 4757SOL    HW125907   0.298   3.110   4.096 -1.1973 -0.6001  0.0896
 4757SOL    HW225908   0.278   3.256   4.102 -0.0955  0.2138 -0.3072
 4758SOL     OW25909   2.592   3.827   6.725  0.2925 -0.1023  0.1489
 4758SOL    HW125910   2.632   3.870   6.650 -1.3108 -1.5936 -1.5554
 4758SOL    HW225911   2.671   3.808   6.776 -0.4187 -2.4181  0.3708
 4759SOL     OW25912   0.582   0.975  14.889 -0.2015 -0.7363  0.5606
 4759SOL    HW125913   0.626   0.979  14.974  0.0133 -0.5451  0.4388
 4759SOL    HW225914   0.615   0.894  14.850  2.0348  1.8599 -2.9564
 4760SOL     OW25915   1.592   0.574   7.708  0.0595  0.2021  0.0100
 4760SOL    HW125916   1.497   0.574   7.714 -0.0258  2.6551 -1.4553
 4760SOL    HW225917   1.607   0.481   7.729 -1.7386 -0.1068 -0.1259
 4761SOL     OW25918   1.565   2.423  14.168 -0.4092  0.1430  0.2126
 4761SOL    HW125919   1.521   2.352  14.121  2.1431 -0.4507 -1.3503
 4761SOL    HW225920   1.491   2.475  14.198 -0.1261  1.8002 -1.9314
 4762SOL     OW25921   3.409   1.380  12.164 -0.4256 -0.4298 -0.7039
 4762SOL    HW125922   3.483   1.367  12.105 -0.7138  0.0632 -1.1807
 4762SOL    HW225923   3.360   1.446  12.115 -2.2235 -0.2817  1.2718
 4763SOL     OW25924   4.015   0.426  10.265  0.1917 -0.3847 -0.1817
 4763SOL    HW125925   3.939   0.485  10.270 -0.2024 -0.8079 -1.1864
 4763SOL    HW225926   4.062   0.440  10.347 -0.0286 -0.6326 -0.0129
 4764SOL     OW25927   1.876   4.294  12.871  0.3668 -0.4370 -0.8071
 4764SOL    HW125928   1.904   4.261  12.956  0.6065 -3.7217 -2.1437
 4764SOL    HW225929   1.785   4.316  12.891  0.2146 -0.7493 -1.1436
 4765SOL     OW25930   2.309   0.959   2.252 -0.5436 -0.2725  0.0334
 4765SOL    HW125931   2.365   0.901   2.202 -0.5407 -2.8336  2.9758
 4765SOL    HW225932   2.361   1.038   2.241 -0.2017 -0.6031 -0.6884
 4766SOL     OW25933   2.982   4.460   4.560 -0.1906  0.0590 -0.1080
 4766SOL    HW125934   3.076   4.445   4.563 -0.5925 -2.3519  0.3424
 4766SOL    HW225935   2.982   4.534   4.499  0.9620 -0.8901 -1.2675
 4767SOL     OW25936   0.034   1.754   1.382 -0.6551 -0.0825  0.0278
 4767SOL    HW125937   4.701   1.804   1.339  0.3130 -0.2018 -1.6601
 4767SOL    HW225938   0.064   1.823   1.442  1.6016  0.5693 -1.8360
 4768SOL     OW25939   0.693   3.838  12.688  0.5662 -0.4429 -0.3096
 4768SOL    HW125940   0.696   3.910  12.626  1.5317 -1.6463 -1.6624
 4768SOL    HW225941   0.600   3.814  12.693  0.8672 -1.4527  0.5073
 4769SOL     OW25942   3.544   2.476   8.491 -0.0802 -0.0891 -0.0223
 4769SOL    HW125943   3.476   2.424   8.449 -1.4113  0.2697  1.6821
 4769SOL    HW225944   3.560   2.554   8.438  0.9327  1.0605  1.9826
 4770SOL     OW25945   0.811   0.532   2.327 -0.1872 -0.8393 -0.3397
 4770SOL    HW125946   0.749   0.602   2.347  1.4182  1.0077 -1.7508
 4770SOL    HW225947   0.871   0.540   2.401  0.6217  3.9846 -1.5071
 4771SOL     OW25948   4.601   4.102   8.088 -0.3838 -0.0188 -0.5017
 4771SOL    HW125949   4.671   4.125   8.027  0.4551 -0.9838  0.1127
 4771SOL    HW225950   4.573   4.189   8.117 -1.5025 -0.0266 -1.5637
 4772SOL     OW25951   1.610   0.369  17.504  0.1569 -0.2865  0.6557
 4772SOL    HW125952   1.693   0.336  17.471  0.5640  0.6637  0.7517
 4772SOL    HW225953   1.628   0.445  17.559 -0.3358 -0.3431  0.8994
 4773SOL     OW25954   2.017   1.716  11.391 -0.7277 -0.6615 -0.1259
 4773SOL    HW125955   1.984   1.647  11.448 -0.8058 -0.0507  0.5563
 4773SOL    HW225956   2.111   1.702  11.376 -0.8520  0.1126 -1.6085
 4774SOL     OW25957   3.795   0.697   8.763  0.0832 -0.0468 -0.9732
 4774SOL    HW125958   3.796   0.665   8.854  0.5254  0.1219 -0.9176
 4774SOL    HW225959   3.808   0.620   8.708 -0.6467 -1.2103  0.4885
 4775SOL     OW25960   1.715   0.854   5.378 -0.2492 -0.3375 -0.1169
 4775SOL    HW125961   1.799   0.810   5.394 -1.0310 -2.1694 -0.9933
 4775SOL    HW225962   1.737   0.947   5.381  0.3216 -0.4198 -2.2150
 4776SOL     OW25963   2.336   4.121   1.503  0.4740 -0.0637  0.1421
 4776SOL    HW125964   2.405   4.150   1.443 -0.0385  1.3333  0.2365
 4776SOL    HW225965   2.339   4.194   1.565 -0.8066 -1.0878  1.3952
 4777SOL     OW25966   4.169   2.982  11.569  0.9086 -0.3460 -0.1714
 4777SOL    HW125967   4.125   2.953  11.649 -1.2150 -0.6865 -1.4625
 4777SOL    HW225968   4.260   2.972  11.598  0.0185 -2.2458  2.0416
 4778SOL     OW25969   2.984   3.499   8.996  0.7411 -0.2832 -0.6245
 4778SOL    HW125970   2.923   3.462   8.932 -0.4173  2.7972 -1.2937
 4778SOL    HW225971   3.003   3.416   9.040 -0.1311 -0.4658 -0.5772
 4779SOL     OW25972   3.544   3.308  16.148  0.1692  0.2373 -0.0256
 4779SOL    HW125973   3.526   3.358  16.228  2.4731 -0.5131  0.9458
 4779SOL    HW225974   3.638   3.292  16.140  0.2660  0.0658  1.5179
 4780SOL     OW25975   4.147   1.227   1.454  0.4808  0.9561 -0.5276
 4780SOL    HW125976   4.134   1.321   1.438 -0.1256  0.8169 -0.8349
 4780SOL    HW225977   4.058   1.201   1.433  0.9410 -0.3511 -0.8122
 4781SOL     OW25978   4.729   0.435   0.917 -0.6925  0.4175 -0.4587
 4781SOL    HW125979   0.076   0.456   0.875 -0.1685  0.8417  0.7794
 4781SOL    HW225980   4.717   0.515   0.969  2.4572 -0.3862  1.4807
 4782SOL     OW25981   1.888   1.254  15.277  0.6047  0.6731 -0.5727
 4782SOL    HW125982   1.827   1.181  15.277 -0.8570  1.8852  1.0362
 4782SOL    HW225983   1.923   1.244  15.366 -1.2386  0.7509  0.1611
 4783SOL     OW25984   1.393   4.032   9.551  0.3040  0.2161  0.4363
 4783SOL    HW125985   1.478   4.008   9.516 -0.0945 -0.3553 -0.1400
 4783SOL    HW225986   1.328   3.973   9.512  2.2151 -1.5385 -0.1001
 4784SOL     OW25987   0.087   4.677   4.170 -0.4094  0.0004  0.1419
 4784SOL    HW125988   0.084   4.708   4.261 -1.0693  0.5800 -0.0807
 4784SOL    HW225989   4.732   4.671   4.141  0.0521 -1.3010 -1.0603
 4785SOL     OW25990   1.891   1.068   8.207  0.2657  0.3948  0.3139
 4785SOL    HW125991   1.815   1.126   8.218  1.1412  1.3907  1.1210
 4785SOL    HW225992   1.907   1.057   8.301  1.3583  4.3782  0.5877
 4786SOL     OW25993   1.306   4.045   3.574  0.1282  0.4386  0.4203
 4786SOL    HW125994   1.387   4.092   3.591 -0.8441  2.6760 -1.1142
 4786SOL    HW225995   1.320   3.959   3.613 -3.4832 -0.9072 -1.2102
 4787SOL     OW25996   3.143   4.596   8.641  0.6630  0.6630 -0.0839
 4787SOL    HW125997   3.232   4.629   8.651  0.4580  1.0935  0.2966
 4787SOL    HW225998   3.084   4.656   8.687 -0.0103 -0.6604  0.7730
 4788SOL     OW25999   3.130   3.443   9.975 -0.7622  0.3652  0.1297
 4788SOL    HW126000   3.133   3.474   9.885  0.4076  0.0000  0.0424
 4788SOL    HW226001   3.224   3.442   9.993 -0.7667  3.7671  0.2674
 4789SOL     OW26002   0.483   0.498   4.185  0.6321 -0.3842 -0.1873
 4789SOL    HW126003   0.465   0.588   4.212 -0.7729 -0.7558  0.1187
 4789SOL    HW226004   0.520   0.460   4.265  0.1671  1.7579  1.0376
 4790SOL     OW26005   1.830   4.453   0.315 -0.4298  0.0498 -0.4202
 4790SOL    HW126006   1.882   4.520   0.360  1.5486 -1.7448 -0.0451
 4790SOL    HW226007   1.742   4.489   0.328 -0.5405 -0.1982 -0.4923
 4791SOL     OW26008   2.934   2.978   8.636  0.3149 -0.0378  0.5835
 4791SOL    HW126009   2.887   2.991   8.553 -0.1284  1.2819  1.0416
 4791SOL    HW226010   2.941   2.883   8.646  0.4496 -0.2799 -1.7829
 4792SOL     OW26011   3.734   3.023  12.611  0.0427 -0.2336 -0.1536
 4792SOL    HW126012   3.759   3.056  12.697 -0.2245 -2.2974  0.7291
 4792SOL    HW226013   3.814   3.037  12.560  2.0106 -2.7891  2.2218
 4793SOL     OW26014   1.335   2.918   5.245  0.0851  0.0281 -0.4732
 4793SOL    HW126015   1.384   2.883   5.319 -0.9997 -0.4948  0.0032
 4793SOL    HW226016   1.334   3.012   5.265  1.0638 -0.5150  2.0633
 4794SOL     OW26017   0.221   1.287   3.691 -0.0365  0.2926  0.4358
 4794SOL    HW126018   0.137   1.273   3.648  1.2809  0.1694 -2.1026
 4794SOL    HW226019   0.275   1.247   3.623  0.6194 -0.8261  1.6024
 4795SOL     OW26020   3.086   3.894   1.792  0.0533 -0.0953  0.5473
 4795SOL    HW126021   3.173   3.886   1.833  0.3453 -1.9989 -0.4554
 4795SOL    HW226022   3.048   3.807   1.800  1.7159 -0.7260  1.7164
 4796SOL     OW26023   2.229   2.107   4.321  0.2823  0.1083 -0.3873
 4796SOL    HW126024   2.318   2.090   4.351  0.3079 -1.6871 -1.5076
 4796SOL    HW226025   2.232   2.203   4.321  1.0091  0.0791 -1.8372
 4797SOL     OW26026   1.335   1.070  17.344  0.4290  0.1491  0.0716
 4797SOL    HW126027   1.247   1.077  17.381 -0.4319 -1.4045 -1.6572
 4797SOL    HW226028   1.320   1.018  17.265 -1.3356  1.7449 -0.6284
 4798SOL     OW26029   1.469   0.201  16.641  0.2127 -0.5166 -0.5648
 4798SOL    HW126030   1.559   0.173  16.623  0.1945 -2.0667  1.7896
 4798SOL    HW226031   1.468   0.167  16.730  1.6206  0.8291 -0.0295
 4799SOL     OW26032   4.254   3.320  15.158  0.1585 -0.2737 -0.5224
 4799SOL    HW126033   4.241   3.262  15.233  0.2826  0.3206 -0.0362
 4799SOL    HW226034   4.347   3.302  15.145  0.5121  0.9329  0.3349
 4800SOL     OW26035   0.216   3.083   7.860  0.6106  0.1188 -0.1515
 4800SOL    HW126036   0.169   3.054   7.782  2.0748 -0.4687 -0.8036
 4800SOL    HW226037   0.158   3.062   7.934 -1.0561  0.4210 -1.3680
 4801SOL     OW26038   0.943   3.129  12.119  0.1578  0.4708 -0.2861
 4801SOL    HW126039   0.900   3.044  12.107 -0.4027  0.6417  0.4331
 4801SOL    HW226040   0.926   3.171  12.035 -0.6437  2.5955  0.9182
 4802SOL     OW26041   3.802   3.989  10.721 -0.0988 -0.1950  0.4277
 4802SOL    HW126042   3.746   4.052  10.767  3.0527  2.5391  0.5178
 4802SOL    HW226043   3.733   3.963  10.660 -1.0123  0.9118  0.9855
 4803SOL     OW26044   0.255   0.708   8.414 -0.9484  0.2521 -0.2386
 4803SOL    HW126045   0.276   0.791   8.455  0.0629 -0.7626  1.3015
 4803SOL    HW226046   0.311   0.711   8.336 -0.1017 -2.8285  0.2272
 4804SOL     OW26047   4.608   4.203   8.737 -0.0077  0.4618 -0.3389
 4804SOL    HW126048   4.572   4.209   8.826 -0.0495 -0.8010 -0.2676
 4804SOL    HW226049   4.612   4.296   8.719  0.1220  0.2493 -1.3831
 4805SOL     OW26050   3.416   3.263   7.838 -0.7854 -0.1964 -0.1235
 4805SOL    HW126051   3.494   3.288   7.889 -0.4760 -1.5102  0.0476
 4805SOL    HW226052   3.350   3.242   7.904 -0.6726  0.6985  0.2799
 4806SOL     OW26053   4.669   3.430   8.202  0.0973 -0.5717  0.0064
 4806SOL    HW126054   0.019   3.468   8.212  0.3335 -0.5572 -2.1947
 4806SOL    HW226055   4.637   3.432   8.293  0.5516  0.3115  0.1476
 4807SOL     OW26056   0.373   1.661   5.539 -0.4532  0.9008  0.1279
 4807SOL    HW126057   0.398   1.657   5.447  1.8936  0.7673  0.7536
 4807SOL    HW226058   0.447   1.621   5.585 -0.8454  0.3324  0.2693
 4808SOL     OW26059   3.614   1.098   0.473  0.3252  0.0292 -0.0230
 4808SOL    HW126060   3.646   1.172   0.421  1.3743 -0.6488 -0.3399
 4808SOL    HW226061   3.521   1.118   0.463 -0.1730 -1.6225  1.3074
 4809SOL     OW26062   2.874   3.183   3.608  0.2697  0.0696 -0.2288
 4809SOL    HW126063   2.921   3.207   3.688 -2.3191  0.4704  1.1795
 4809SOL    HW226064   2.861   3.090   3.626  2.3985 -0.3682 -0.9235
 4810SOL     OW26065   3.194   0.044   4.025  0.2635  0.4079 -0.1285
 4810SOL    HW126066   3.278   0.074   3.990  0.7221 -0.3297  0.3358
 4810SOL    HW226067   3.177   0.121   4.081 -0.0285  1.9070 -2.2610
 4811SOL     OW26068   0.054   3.319   6.896  0.1599  0.1967  0.2284
 4811SOL    HW126069   0.067   3.340   6.803 -2.0420  0.9083  0.0939
 4811SOL    HW226070   4.700   3.348   6.907  0.7792  2.2594 -0.1582
 4812SOL     OW26071   1.688   1.024   5.650  0.0002 -0.0111  0.5970
 4812SOL    HW126072   1.658   1.018   5.559  0.7937  1.9031  0.2036
 4812SOL    HW226073   1.720   0.937   5.672  1.5806  0.8599  1.7433
 4813SOL     OW26074   1.252   2.126  16.042 -0.8261 -0.2511  0.0941
 4813SOL    HW126075   1.186   2.191  16.064 -0.8434 -0.5667  0.9762
 4813SOL    HW226076   1.286   2.093  16.125 -1.1238 -0.5782  0.0836
 4814SOL     OW26077   2.482   0.625  15.522 -0.1696 -0.1063  0.1236
 4814SOL    HW126078   2.468   0.717  15.502 -0.3581  0.0331  0.9114
 4814SOL    HW226079   2.393   0.592  15.538 -0.2991 -0.0819 -0.5605
 4815SOL     OW26080   2.582   0.001   6.485  0.3143  0.2635 -0.3539
 4815SOL    HW126081   2.523   4.662   6.482  0.3217  0.1833  1.7906
 4815SOL    HW226082   2.544   0.054   6.415 -1.1086  1.7122  1.5324
 4816SOL     OW26083   1.111   1.929   0.978  0.1646  0.2404 -0.4428
 4816SOL    HW126084   1.040   1.910   1.039  0.5798 -1.6484 -0.5302
 4816SOL    HW226085   1.090   1.863   0.911  0.5542 -0.9163  0.5844
 4817SOL     OW26086   1.767   3.079   4.911  0.1404 -0.6984 -0.3008
 4817SOL    HW126087   1.828   3.109   4.844 -3.0724  2.4033 -1.8084
 4817SOL    HW226088   1.686   3.125   4.893  0.0823 -0.2241  1.1821
 4818SOL     OW26089   0.299   0.911   7.958 -0.0325 -0.5437 -0.0323
 4818SOL    HW126090   0.309   0.912   8.053  0.0157 -1.5228 -0.0195
 4818SOL    HW226091   0.358   0.837   7.941  0.3671 -0.1809 -0.2132
 4819SOL     OW26092   3.793   1.616   7.909  0.1431 -0.4735 -0.5118
 4819SOL    HW126093   3.876   1.605   7.954 -0.2729  1.4358  0.7059
 4819SOL    HW226094   3.768   1.699   7.949  0.1565  0.8073 -3.1466
 4820SOL     OW26095   0.498   4.143   6.821  0.2538 -0.1687 -0.2820
 4820SOL    HW126096   0.446   4.195   6.882  0.7614 -0.1704  0.1472
 4820SOL    HW226097   0.585   4.166   6.854  0.3675 -0.5631 -0.3062
 4821SOL     OW26098   2.200   2.737   8.365  0.4582  0.2181  0.0304
 4821SOL    HW126099   2.231   2.715   8.277 -2.9277 -0.9014 -0.9024
 4821SOL    HW226100   2.114   2.778   8.352 -0.3428 -0.7288  2.2437
 4822SOL     OW26101   2.094   3.622   7.207 -0.4749  0.7223  0.0436
 4822SOL    HW126102   2.064   3.688   7.145 -1.1366  0.8743  0.5202
 4822SOL    HW226103   2.013   3.578   7.232  0.1382  1.0615  2.6854
 4823SOL     OW26104   1.891   2.255   2.217 -0.3073  0.0098  0.3556
 4823SOL    HW126105   1.939   2.313   2.158  0.5683  2.5978  3.5823
 4823SOL    HW226106   1.940   2.258   2.299  1.6514  1.8752 -0.8823
 4824SOL     OW26107   4.570   2.597   9.053  0.3883  0.0107 -0.2499
 4824SOL    HW126108   4.524   2.677   9.029 -0.7435 -0.7944 -0.7383
 4824SOL    HW226109   4.600   2.615   9.142  0.4173  0.8206 -0.4250
 4825SOL     OW26110   2.382   2.292   6.194  0.1102 -0.0217  0.2712
 4825SOL    HW126111   2.363   2.305   6.101  0.3633 -0.7799  0.1203
 4825SOL    HW226112   2.435   2.213   6.192  0.6013  0.3372 -0.8243
 4826SOL     OW26113   0.063   1.124   4.829  0.1728 -0.3109 -0.5564
 4826SOL    HW126114   0.055   1.091   4.739 -0.7985  0.1655 -0.6431
 4826SOL    HW226115   4.727   1.186   4.829 -0.6456 -1.2410 -2.8525
 4827SOL     OW26116   4.091   3.766  13.162 -0.6160 -0.4372 -0.2695
 4827SOL    HW126117   4.106   3.803  13.075 -1.2870 -2.8162 -1.4204
 4827SOL    HW226118   4.072   3.674  13.140  0.2000 -0.7622  0.3981
 4828SOL     OW26119   2.511   1.172   5.667  0.1855 -0.2415 -0.0745
 4828SOL    HW126120   2.421   1.199   5.647 -0.8828 -0.8761  3.8803
 4828SOL    HW226121   2.557   1.252   5.694  1.3025 -0.1657 -2.1944
 4829SOL     OW26122   4.165   0.913  16.238  0.6117  0.2638  0.0189
 4829SOL    HW126123   4.101   0.909  16.309  0.3584  1.4314 -0.1448
 4829SOL    HW226124   4.124   0.973  16.176 -0.1665  0.7449  1.0090
 4830SOL     OW26125   1.137   4.492   9.923 -0.2155 -0.3153 -0.0729
 4830SOL    HW126126   1.193   4.417   9.942  0.0224 -0.1263 -0.0264
 4830SOL    HW226127   1.049   4.456   9.928  0.3083 -1.9103 -2.3437
 4831SOL     OW26128   4.053   0.745   4.754  0.6117 -0.3612 -0.0740
 4831SOL    HW126129   4.076   0.671   4.810  1.1977 -1.2827 -1.5191
 4831SOL    HW226130   4.138   0.775   4.722  0.2625  0.0575 -0.6051
 4832SOL     OW26131   4.455   1.578   6.015  0.3354  0.7468 -0.0006
 4832SOL    HW126132   4.427   1.669   6.013 -1.7869  0.0465 -1.8237
 4832SOL    HW226133   4.454   1.571   6.111 -1.0207  1.8672  0.0631
 4833SOL     OW26134   2.357   2.582   4.208 -0.5668  0.5030 -0.3364
 4833SOL    HW126135   2.305   2.651   4.249 -1.7422  0.3119 -1.5141
 4833SOL    HW226136   2.305   2.569   4.129 -0.5560  1.4993 -0.5006
 4834SOL     OW26137   1.265   4.361   7.277 -1.0478  0.4315 -0.3456
 4834SOL    HW126138   1.211   4.398   7.208  0.7683 -0.3033 -2.1549
 4834SOL    HW226139   1.352   4.392   7.251 -0.7128  0.3001  0.5995
 4835SOL     OW26140   3.690   1.810   1.380  0.3534  0.0291 -0.0451
 4835SOL    HW126141   3.595   1.807   1.394  0.5029 -0.3108  0.8964
 4835SOL    HW226142   3.725   1.756   1.451  3.3195  1.7909 -0.1871
 4836SOL     OW26143   0.260   2.757  16.891 -0.3299  0.0403  0.2093
 4836SOL    HW126144   0.330   2.768  16.827 -3.5141  0.5685 -3.1596
 4836SOL    HW226145   0.183   2.764  16.834  0.0919 -0.7970 -0.4605
 4837SOL     OW26146   1.534   3.799  15.802 -0.0239 -0.5609  0.9337
 4837SOL    HW126147   1.594   3.756  15.741 -0.8783  1.0420 -0.9960
 4837SOL    HW226148   1.476   3.839  15.738  1.9283  2.8508  1.3319
 4838SOL     OW26149   4.014   3.845   8.854 -0.8172  0.1765 -0.4137
 4838SOL    HW126150   3.922   3.830   8.873 -0.3421 -0.3489  1.4433
 4838SOL    HW226151   3.992   3.900   8.778 -0.6784 -1.7346 -1.8333
 4839SOL     OW26152   0.606   3.028   9.773  0.4648 -0.3365  0.1291
 4839SOL    HW126153   0.602   3.086   9.849  2.1920 -1.0059  0.7230
 4839SOL    HW226154   0.612   3.100   9.709 -2.4122 -1.8689 -1.8508
 4840SOL     OW26155   4.430   4.211   1.443 -0.0264  0.1814  0.0459
 4840SOL    HW126156   4.383   4.270   1.385 -0.1286  0.9256  0.8804
 4840SOL    HW226157   4.375   4.133   1.433 -0.9735  0.7092  1.1587
 4841SOL     OW26158   2.397   1.348   5.430 -0.2642 -0.1214  0.1360
 4841SOL    HW126159   2.347   1.287   5.485 -1.1363 -0.8732 -1.4906
 4841SOL    HW226160   2.451   1.295   5.372  0.0109  0.7965 -0.4519
 4842SOL     OW26161   3.174   4.296   2.045  0.2233 -0.1851 -0.2544
 4842SOL    HW126162   3.105   4.256   2.099  0.3108  2.5741  1.9391
 4842SOL    HW226163   3.144   4.262   1.961 -2.9912 -2.4472  1.8023
 4843SOL     OW26164   0.909   4.597   6.880  0.2932  0.3344 -0.2414
 4843SOL    HW126165   0.907   4.662   6.809  0.4920 -0.3943 -0.9173
 4843SOL    HW226166   0.860   4.525   6.839  0.4188 -0.7316  1.5141
 4844SOL     OW26167   4.677   1.362   4.474  0.3123  0.0026 -0.7031
 4844SOL    HW126168   4.618   1.435   4.453 -2.7094 -2.5377 -1.1252
 4844SOL    HW226169   4.712   1.407   4.551 -1.3891  0.6796 -0.3094
 4845SOL     OW26170   2.839   1.715   5.029 -0.1294  0.2165  0.2812
 4845SOL    HW126171   2.751   1.736   4.997  0.2735  0.3117 -0.7457
 4845SOL    HW226172   2.878   1.682   4.949  0.5884  4.4376 -1.1147
 4846SOL     OW26173   0.273   0.613   7.602 -0.0741  0.0260 -0.5528
 4846SOL    HW126174   0.306   0.536   7.647 -1.3949  1.6529  3.2451
 4846SOL    HW226175   0.346   0.633   7.544 -0.1968  1.2518 -0.2827
 4847SOL     OW26176   3.368   0.753   2.576 -0.0329  0.0599 -0.4328
 4847SOL    HW126177   3.446   0.809   2.583  1.5889 -2.4239  1.2770
 4847SOL    HW226178   3.347   0.734   2.667  1.6462 -0.5715 -0.1779
 4848SOL     OW26179   1.728   1.230   7.556  0.0190  0.3050  0.6587
 4848SOL    HW126180   1.765   1.142   7.557  2.8088  1.4661  1.6519
 4848SOL    HW226181   1.810   1.280   7.557  0.6361 -0.6469 -2.0989
 4849SOL     OW26182   3.674   0.116   2.150 -0.1274  0.2069  0.0393
 4849SOL    HW126183   3.695   0.043   2.092  0.9194 -1.4690  2.5152
 4849SOL    HW226184   3.635   0.177   2.087 -0.4003  0.0440  0.0512
 4850SOL     OW26185   0.033   4.681   2.093  0.5196  0.1862 -0.0766
 4850SOL    HW126186   0.035   0.040   2.085 -0.0817  0.0394 -1.7753
 4850SOL    HW226187   4.713   4.673   2.171 -1.4782 -0.1452 -1.5623
 4851SOL     OW26188   0.485   3.476   5.655  0.5503  0.2557 -0.7252
 4851SOL    HW126189   0.440   3.407   5.705 -0.2608  0.7913 -0.7168
 4851SOL    HW226190   0.574   3.478   5.688  0.8384  0.5776 -1.5119
 4852SOL     OW26191   1.778   0.819  14.891  0.6154 -0.0966 -0.3815
 4852SOL    HW126192   1.776   0.914  14.908  2.3343  0.0836 -1.2275
 4852SOL    HW226193   1.742   0.810  14.803 -2.3002  0.0783  0.7937
 4853SOL     OW26194   0.364   2.833   7.819 -0.0558  0.1492 -0.0529
 4853SOL    HW126195   0.409   2.785   7.889  1.3798 -0.8102 -1.6209
 4853SOL    HW226196   0.368   2.923   7.850  0.0798  0.0568  0.1979
 4854SOL     OW26197   3.886   1.478   6.515 -0.2735  0.8369  0.5521
 4854SOL    HW126198   3.899   1.472   6.610 -1.8556  0.6764  0.7599
 4854SOL    HW226199   3.977   1.495   6.492 -0.5735 -0.1572 -1.3660
 4855SOL     OW26200   3.187   2.274   3.623 -0.1049  0.3750  0.4324
 4855SOL    HW126201   3.226   2.335   3.560 -2.0361  0.4036 -0.7548
 4855SOL    HW226202   3.096   2.304   3.622 -0.1074  0.3218 -1.6394
 4856SOL     OW26203   1.149   1.725   2.847  0.1093 -0.0833 -1.2669
 4856SOL    HW126204   1.098   1.779   2.908 -1.5688 -1.9635 -1.0319
 4856SOL    HW226205   1.189   1.791   2.790  3.0297 -1.4433 -0.7545
 4857SOL     OW26206   4.085   3.539   3.115 -0.1315 -0.3097 -0.1549
 4857SOL    HW126207   4.066   3.621   3.161 -0.4557 -0.2548 -0.3882
 4857SOL    HW226208   4.000   3.514   3.080 -2.4056  3.5798  2.6539
 4858SOL     OW26209   2.424   2.086   6.890 -0.4606  0.1760 -0.5737
 4858SOL    HW126210   2.406   1.992   6.889 -1.9767  0.4769 -1.1640
 4858SOL    HW226211   2.356   2.129   6.942  0.5402  1.1373 -0.0551
 4859SOL     OW26212   0.779   2.804  12.426  0.0632 -0.0297  0.0264
 4859SOL    HW126213   0.866   2.807  12.387  0.5762 -3.7556  0.8580
 4859SOL    HW226214   0.731   2.750  12.363 -0.8230  1.6612 -0.7536
 4860SOL     OW26215   3.482   4.254   8.025  0.6627  0.1833  0.5097
 4860SOL    HW126216   3.428   4.327   8.052  0.0735 -0.4805  1.1253
 4860SOL    HW226217   3.456   4.177   8.077  2.1461  0.1701  1.2414
 4861SOL     OW26218   2.204   3.462   8.319  0.8032  0.5219 -0.1503
 4861SOL    HW126219   2.150   3.532   8.283 -0.2198 -0.7790 -1.1540
 4861SOL    HW226220   2.271   3.429   8.259 -0.6514 -2.1228 -0.3332
 4862SOL     OW26221   3.849   1.006   2.907 -0.4498  0.2876  0.0537
 4862SOL    HW126222   3.831   0.979   2.818  1.8311 -0.3522 -0.2135
 4862SOL    HW226223   3.907   1.082   2.898  0.9707 -0.9491 -1.2332
 4863SOL     OW26224   1.245   0.076   2.117  0.2549  0.4209  0.4603
 4863SOL    HW126225   1.269   0.031   2.198  0.1977 -0.8349 -0.2275
 4863SOL    HW226226   1.281   0.163   2.135 -1.3492  0.9787  0.9568
 4864SOL     OW26227   0.950   2.684   7.999  0.1457  0.5975 -0.0685
 4864SOL    HW126228   0.984   2.649   7.917 -0.0995 -0.3427  0.2248
 4864SOL    HW226229   0.990   2.770   8.010  0.7860  0.1504  0.9993
 4865SOL     OW26230   0.223   1.804   5.734  0.1278  0.3665 -0.5359
 4865SOL    HW126231   0.285   1.877   5.738 -0.2325  0.6036  0.6808
 4865SOL    HW226232   0.273   1.746   5.677 -1.9113 -0.4326 -1.4959
 4866SOL     OW26233   0.244   1.646   8.432 -0.0902  0.2879  0.3068
 4866SOL    HW126234   0.284   1.564   8.461  0.6416  1.2312  2.0200
 4866SOL    HW226235   0.240   1.630   8.338 -1.1940 -1.4594  0.6457
 4867SOL     OW26236   2.376   3.899   7.168  0.0794  0.0063 -0.7926
 4867SOL    HW126237   2.426   3.840   7.225 -1.1756 -1.3923 -1.1488
 4867SOL    HW226238   2.336   3.846   7.100 -1.5351  0.2273 -0.0104
 4868SOL     OW26239   3.738   0.517   7.170 -0.7328  0.0281  0.1174
 4868SOL    HW126240   3.758   0.530   7.263  0.4556  0.1271 -0.1618
 4868SOL    HW226241   3.802   0.574   7.127  0.1217 -0.6535  0.4884
 4869SOL     OW26242   0.631   0.983  12.922 -0.4313 -0.3772 -0.4911
 4869SOL    HW126243   0.664   0.905  12.968 -1.4422  0.1434  1.1075
 4869SOL    HW226244   0.664   1.056  12.974  0.8820 -1.0484 -0.3655
 4870SOL     OW26245   1.330   3.463  13.483 -0.3771 -0.4302  0.5627
 4870SOL    HW126246   1.239   3.489  13.495  0.0746  0.4945  2.0187
 4870SOL    HW226247   1.361   3.542  13.438  0.1301  0.1145  1.8593
 4871SOL     OW26248   2.074   0.369   7.691  0.5811 -0.2466  0.6296
 4871SOL    HW126249   2.024   0.297   7.729 -2.1304  1.0829 -0.3559
 4871SOL    HW226250   2.023   0.446   7.718  1.1435  0.2265  0.3411
 4872SOL     OW26251   2.061   3.355  16.473 -0.7602  0.1981  0.2853
 4872SOL    HW126252   2.002   3.313  16.536  0.8184 -2.3802  0.0642
 4872SOL    HW226253   2.046   3.442  16.510 -2.4380  0.4602 -1.0325
 4873SOL     OW26254   3.683   2.745   4.703 -0.0990  0.9622 -0.3909
 4873SOL    HW126255   3.767   2.789   4.713  1.6239 -2.1144 -1.1853
 4873SOL    HW226256   3.708   2.665   4.749  0.2719  1.9230  1.0824
 4874SOL     OW26257   1.388   1.781   8.698  0.4092 -0.2869 -0.0603
 4874SOL    HW126258   1.400   1.705   8.641  0.4765 -0.4953  0.2322
 4874SOL    HW226259   1.422   1.743   8.779 -1.2050 -2.8014 -0.5340
 4875SOL     OW26260   0.910   4.542   0.807 -0.7163 -0.2395  0.0206
 4875SOL    HW126261   0.959   4.511   0.731  0.5331  1.0500  0.3134
 4875SOL    HW226262   0.911   4.467   0.867 -0.7052 -1.2814 -1.2807
 4876SOL     OW26263   0.105   1.913   9.755 -0.7064 -0.0242  0.2974
 4876SOL    HW126264   0.135   1.836   9.802  1.8487  1.3566  0.9196
 4876SOL    HW226265   0.164   1.981   9.788 -1.1018  0.2736  0.3982
 4877SOL     OW26266   1.763   3.220  17.360  0.0848 -0.8216 -0.0976
 4877SOL    HW126267   1.848   3.202  17.401 -0.0082  0.8904  0.8634
 4877SOL    HW226268   1.774   3.212  17.266  0.3770 -0.1534 -0.1199
 4878SOL     OW26269   1.671   3.536  16.679 -0.3501 -0.0783 -0.1050
 4878SOL    HW126270   1.680   3.575  16.591 -0.4475  1.0801  0.4032
 4878SOL    HW226271   1.585   3.573  16.697 -0.2641  0.6981 -1.2508
 4879SOL     OW26272   1.484   2.569   4.844 -0.3982 -0.1323  0.0922
 4879SOL    HW126273   1.549   2.631   4.877  0.7583 -0.9861 -0.5743
 4879SOL    HW226274   1.409   2.599   4.896  0.3500  0.1748  0.9817
 4880SOL     OW26275   2.122   2.828   6.445  0.3164 -0.5872 -1.1059
 4880SOL    HW126276   2.030   2.819   6.420  0.6136  0.3480 -2.5246
 4880SOL    HW226277   2.135   2.742   6.485  3.1001  0.6474  0.6289
 4881SOL     OW26278   3.981   2.253   4.218 -0.0149 -0.1579  0.0706
 4881SOL    HW126279   4.030   2.327   4.252  0.5540 -1.0820  1.2896
 4881SOL    HW226280   3.910   2.311   4.192  2.7860  2.5133 -1.5237
 4882SOL     OW26281   3.483   1.061   4.974  0.3531 -0.9806 -0.2378
 4882SOL    HW126282   3.449   0.981   4.934 -1.3616 -0.4409  0.1373
 4882SOL    HW226283   3.426   1.128   4.937 -0.6664 -2.2209 -0.9120
 4883SOL     OW26284   3.916   2.050   7.453  0.1429 -0.5259  0.9013
 4883SOL    HW126285   4.003   2.013   7.438  0.2397  0.3780 -0.6531
 4883SOL    HW226286   3.932   2.117   7.520  1.9518  0.4316 -0.5135
 4884SOL     OW26287   1.344   0.482   4.647 -0.1269  0.2218  0.0961
 4884SOL    HW126288   1.290   0.421   4.698 -1.9143  1.0675 -0.8143
 4884SOL    HW226289   1.285   0.556   4.638  1.7653  1.6738 -0.4526
 4885SOL     OW26290   1.605   0.866   5.984  0.2468  0.0634 -0.3678
 4885SOL    HW126291   1.623   0.871   5.890  1.9909 -0.8865 -0.0826
 4885SOL    HW226292   1.545   0.792   5.984  1.9350 -1.2881 -0.1993
 4886SOL     OW26293   2.342   1.937  11.467  0.5757  0.1240 -0.0235
 4886SOL    HW126294   2.298   1.988  11.534 -0.6583  0.3739 -1.0354
 4886SOL    HW226295   2.435   1.958  11.477  1.0063 -1.4849 -0.6349
 4887SOL     OW26296   3.173   4.450   1.713 -0.1891  0.0599  0.5312
 4887SOL    HW126297   3.108   4.521   1.711  0.2872  0.4440 -2.1226
 4887SOL    HW226298   3.120   4.374   1.736 -0.6732 -0.1069 -1.1201
 4888SOL     OW26299   0.143   2.556   8.563 -0.4040 -0.5951 -0.0075
 4888SOL    HW126300   0.174   2.641   8.531 -0.1382 -0.5337  0.4141
 4888SOL    HW226301   0.171   2.576   8.652 -3.2605 -1.1083  0.9949
 4889SOL     OW26302   1.503   3.873   8.402  0.4805  0.0716  0.9016
 4889SOL    HW126303   1.472   3.838   8.318  0.1526  0.1690  0.9816
 4889SOL    HW226304   1.499   3.968   8.391  1.7305 -0.0255 -0.4252
 4890SOL     OW26305   4.333   1.253   4.311  0.3786  0.1656 -0.0615
 4890SOL    HW126306   4.320   1.272   4.404  1.4247 -0.5935  0.2421
 4890SOL    HW226307   4.391   1.326   4.291  0.0185  0.1718 -1.0538
 4891SOL     OW26308   4.343   2.844   3.553  0.6234  0.0117  0.2721
 4891SOL    HW126309   4.416   2.849   3.492 -0.4835 -1.3391 -1.1441
 4891SOL    HW226310   4.317   2.935   3.569  0.7783 -0.1512  1.4568
 4892SOL     OW26311   4.218   3.300   3.240  0.1966  0.0319  0.3519
 4892SOL    HW126312   4.147   3.275   3.299 -1.3329  2.5346 -0.4334
 4892SOL    HW226313   4.179   3.345   3.165 -0.5539 -0.5569  0.3835
 4893SOL     OW26314   2.924   1.023   7.176 -0.5894 -0.1271 -0.3927
 4893SOL    HW126315   2.868   0.947   7.159  2.0135 -1.8420 -1.3360
 4893SOL    HW226316   2.861   1.094   7.185  0.9610  1.3054 -0.7829
 4894SOL     OW26317   1.482   2.212   3.665  0.2831 -0.0191  0.1469
 4894SOL    HW126318   1.521   2.158   3.734 -1.4235 -0.5149  0.7386
 4894SOL    HW226319   1.508   2.160   3.589 -1.8834 -1.4139  0.3606
 4895SOL     OW26320   0.845   3.954  17.518  0.2107 -0.0361  0.5169
 4895SOL    HW126321   0.878   3.996  17.597  1.2472 -0.3150  0.2299
 4895SOL    HW226322   0.754   3.985  17.510  0.3673  0.4609  0.6933
 4896SOL     OW26323   3.128   2.575  16.741 -0.1194  0.5113  0.1719
 4896SOL    HW126324   3.215   2.569  16.701  0.1157  0.8358  0.6367
 4896SOL    HW226325   3.080   2.632  16.681 -0.3897 -0.8724 -0.9485
 4897SOL     OW26326   1.789   0.687  17.194 -0.6910 -0.5413  0.1125
 4897SOL    HW126327   1.884   0.702  17.188 -1.1311  2.1991  0.0085
 4897SOL    HW226328   1.764   0.744  17.267 -1.2244 -0.3378 -0.2303
 4898SOL     OW26329   0.571   0.360   3.127  0.1830  0.0556  0.2167
 4898SOL    HW126330   0.563   0.292   3.059 -2.1766  2.2232 -1.6320
 4898SOL    HW226331   0.508   0.417   3.083 -0.0683  0.7359  1.4688
 4899SOL     OW26332   0.821   3.132  15.127  0.0466  0.1222  0.9694
 4899SOL    HW126333   0.749   3.189  15.101  0.0025  0.4646  1.8546
 4899SOL    HW226334   0.774   3.050  15.141  0.8748 -0.5874 -0.4351
 4900SOL     OW26335   1.235   3.820  10.056  0.4254 -0.0920 -0.5036
 4900SOL    HW126336   1.314   3.867  10.083  0.3096  0.4640 -1.1533
 4900SOL    HW226337   1.174   3.868  10.113  1.1135  0.8396 -0.5489
 4901SOL     OW26338   0.018   0.840   8.176  0.5257  0.6672  0.3891
 4901SOL    HW126339   0.101   0.852   8.222  1.2615  0.7264 -0.9560
 4901SOL    HW226340   0.040   0.859   8.085  2.4393  1.5325  1.0411
 4902SOL     OW26341   0.573   4.681   8.133  0.1021  0.0942  0.0038
 4902SOL    HW126342   0.604   4.591   8.133  2.5932  0.9423 -0.2040
 4902SOL    HW226343   0.655   4.729   8.146  0.7421 -0.8160 -0.6564
 4903SOL     OW26344   3.144   0.511   7.305  0.3624  0.1023 -0.1212
 4903SOL    HW126345   3.195   0.507   7.224  0.7728  1.7029  0.0469
 4903SOL    HW226346   3.206   0.503   7.378  1.2266 -0.3390 -0.9023
 4904SOL     OW26347   1.387   0.267  11.825 -0.0453  0.4672 -0.3969
 4904SOL    HW126348   1.370   0.359  11.842 -0.1029  0.7820 -2.1222
 4904SOL    HW226349   1.298   0.234  11.842 -0.3432  0.9838 -0.9696
 4905SOL     OW26350   0.098   1.376   2.854  0.3406 -0.7019  0.3418
 4905SOL    HW126351   0.167   1.360   2.790  0.3975 -2.9294  0.9550
 4905SOL    HW226352   0.080   1.288   2.888  1.3293 -1.1335 -0.2559
 4906SOL     OW26353   0.130   2.844   4.157 -0.1563 -0.4779  0.3636
 4906SOL    HW126354   0.218   2.876   4.135  0.4709 -1.3474  1.6302
 4906SOL    HW226355   0.085   2.926   4.177 -0.0423 -0.2851 -0.1562
 4907SOL     OW26356   4.206   3.090   3.506  0.3843 -0.1382  0.1886
 4907SOL    HW126357   4.250   3.174   3.523  0.5537  0.1240 -1.5849
 4907SOL    HW226358   4.122   3.123   3.474  1.4480  2.1063 -0.3016
 4908SOL     OW26359   3.349   2.762   7.522  0.0937  0.2498 -0.2783
 4908SOL    HW126360   3.415   2.763   7.453 -0.9811 -1.5007 -1.3124
 4908SOL    HW226361   3.275   2.726   7.473  0.0856 -0.6401  0.4002
 4909SOL     OW26362   0.963   4.466   9.619  0.2905  0.4805  0.3803
 4909SOL    HW126363   0.934   4.556   9.604 -0.8056 -0.4515 -3.0965
 4909SOL    HW226364   1.056   4.473   9.598  0.0317  1.3625 -0.4567
 4910SOL     OW26365   1.912   3.749   7.427  0.0244 -0.3516 -0.4471
 4910SOL    HW126366   1.837   3.696   7.455 -0.6925  0.2158 -1.2579
 4910SOL    HW226367   1.948   3.769   7.513  1.0935 -1.7897 -0.5666
 4911SOL     OW26368   2.714   1.276  16.464 -0.1388 -0.0173  0.1363
 4911SOL    HW126369   2.679   1.332  16.534  0.9989  0.9843 -0.0804
 4911SOL    HW226370   2.799   1.252  16.502  0.4491 -1.4490 -2.1050
 4912SOL     OW26371   0.358   1.302   8.203  0.2123  0.0398 -0.2332
 4912SOL    HW126372   0.311   1.377   8.166  2.3021  2.1391  1.3190
 4912SOL    HW226373   0.290   1.259   8.256  1.2556 -1.0113  0.2553
 4913SOL     OW26374   3.526   3.143   8.210  0.3612 -0.0001 -0.4359
 4913SOL    HW126375   3.525   3.238   8.204 -1.2048 -0.0776 -1.4382
 4913SOL    HW226376   3.614   3.140   8.248 -0.3545  0.7446  1.2891
 4914SOL     OW26377   1.954   2.062   2.749 -0.3020 -0.8490  0.0288
 4914SOL    HW126378   1.935   2.096   2.661 -1.1914  3.0876  1.7145
 4914SOL    HW226379   1.901   2.125   2.798 -0.3932 -1.3072  0.5089
 4915SOL     OW26380   1.749   1.684   6.764 -0.7336  0.2399  0.1765
 4915SOL    HW126381   1.698   1.622   6.712  0.2726  0.3055 -0.8827
 4915SOL    HW226382   1.776   1.638   6.844 -0.0513  0.3247 -0.0025
 4916SOL     OW26383   1.686   0.281   8.413  0.2707 -0.3071 -0.2693
 4916SOL    HW126384   1.757   0.221   8.391  0.6874 -0.1863  0.7627
 4916SOL    HW226385   1.627   0.216   8.451 -0.7052  0.4946 -0.4013
 4917SOL     OW26386   1.970   3.117  17.200 -0.0762  0.4754 -0.5846
 4917SOL    HW126387   2.035   3.050  17.222 -0.9075 -0.0038  0.4223
 4917SOL    HW226388   1.985   3.193  17.256  1.1901 -0.2525  0.0671
 4918SOL     OW26389   2.679   2.682   6.929 -0.1264 -0.1020 -0.0324
 4918SOL    HW126390   2.701   2.589   6.922  0.4776 -0.0529  1.1518
 4918SOL    HW226391   2.672   2.695   7.024 -4.6992  0.2592 -0.3969
 4919SOL     OW26392   2.130   0.343   3.876  0.0059 -0.5956 -0.1065
 4919SOL    HW126393   2.172   0.258   3.865 -1.0813 -1.1745  0.2514
 4919SOL    HW226394   2.109   0.337   3.969 -1.3728 -1.9886 -0.5051
 4920SOL     OW26395   3.240   1.899   1.918 -0.4230  0.2539 -0.0387
 4920SOL    HW126396   3.183   1.962   1.963  1.6268  2.6797 -0.8442
 4920SOL    HW226397   3.235   1.838   1.992 -1.2447 -1.1447 -1.2486
 4921SOL     OW26398   4.027   4.279   4.230  0.3355  0.6312 -0.0091
 4921SOL    HW126399   3.975   4.352   4.263  0.3361  0.5505  0.1685
 4921SOL    HW226400   3.994   4.217   4.295 -0.1704  0.6793 -0.2173
 4922SOL     OW26401   1.483   1.101  11.638  0.0320  0.1955  0.1269
 4922SOL    HW126402   1.515   1.108  11.728  0.1126 -3.3644  0.4089
 4922SOL    HW226403   1.504   1.184  11.597 -2.8260 -0.1041 -1.9048
 4923SOL     OW26404   2.698   1.617   4.196  0.2120  0.5271  0.0177
 4923SOL    HW126405   2.611   1.652   4.179  1.2810  2.3790 -1.6758
 4923SOL    HW226406   2.707   1.563   4.118  1.4832  0.7951 -0.0307
 4924SOL     OW26407   2.293   0.072   9.921  0.6400 -0.1831  0.4792
 4924SOL    HW126408   2.269   0.097   9.832  1.9629 -2.9926 -0.6575
 4924SOL    HW226409   2.274   4.715   9.913 -2.4612  0.5886 -1.2513
 4925SOL     OW26410   0.543   4.476   1.271 -0.1673  0.2918 -0.1109
 4925SOL    HW126411   0.544   4.536   1.196  2.4216 -0.4329 -0.6452
 4925SOL    HW226412   0.601   4.521   1.333  1.7567 -1.0537 -0.9499
 4926SOL     OW26413   4.227   4.110   8.740  1.2445  0.7391  0.1769
 4926SOL    HW126414   4.282   4.062   8.801 -0.1446 -1.4595 -0.2985
 4926SOL    HW226415   4.162   4.149   8.797  3.6122  3.1906  1.2192
 4927SOL     OW26416   1.073   3.451   3.302 -0.1710 -0.0633 -0.4882
 4927SOL    HW126417   1.126   3.473   3.226 -2.0384  1.2351 -1.3950
 4927SOL    HW226418   0.990   3.445   3.254 -0.3624 -0.7062 -0.0834
 4928SOL     OW26419   3.978   3.725   3.269  0.3993 -0.2446 -0.1836
 4928SOL    HW126420   3.977   3.817   3.241  0.2245  0.2625  1.4501
 4928SOL    HW226421   4.006   3.740   3.360 -0.1762  1.6372 -0.3241
 4929SOL     OW26422   4.362   4.734   2.061 -0.1487 -0.1568 -0.7031
 4929SOL    HW126423   4.411   4.658   2.029  0.5112 -0.4371  0.9378
 4929SOL    HW226424   4.367   0.062   1.990 -0.1269 -0.6667 -1.1627
 4930SOL     OW26425   1.017   2.825   8.480  0.2036  0.3284  0.0370
 4930SOL    HW126426   1.063   2.750   8.442  0.0290 -0.6068  1.6874
 4930SOL    HW226427   0.933   2.795   8.447 -0.0379  1.6480 -0.5330
 4931SOL     OW26428   1.887   2.671   7.247  0.4415 -0.1577  0.4916
 4931SOL    HW126429   1.917   2.744   7.300  1.8872 -1.2634  1.2079
 4931SOL    HW226430   1.856   2.719   7.171  0.7095  1.9620  1.7300
 4932SOL     OW26431   4.425   2.458   8.472  0.3920 -0.1537 -0.2553
 4932SOL    HW126432   4.357   2.523   8.490  0.4335 -0.0642 -0.4195
 4932SOL    HW226433   4.507   2.490   8.508  0.2459  0.5523 -0.5440
 4933SOL     OW26434   3.746   4.611   1.755 -0.0314 -0.9160 -0.0276
 4933SOL    HW126435   3.783   4.524   1.768 -1.5797 -1.7042 -0.7851
 4933SOL    HW226436   3.808   4.650   1.694 -2.1699 -0.4340 -1.8992
 4934SOL     OW26437   3.288   3.073   3.885 -0.4616  0.0904 -0.2950
 4934SOL    HW126438   3.203   3.058   3.845  0.2297 -1.9179 -1.0000
 4934SOL    HW226439   3.339   2.996   3.861 -0.2032  0.3605 -0.6141
 4935SOL     OW26440   2.202   0.249   4.815 -0.1696 -0.6841 -0.0819
 4935SOL    HW126441   2.292   0.267   4.788 -0.4849  2.0313  0.6268
 4935SOL    HW226442   2.171   0.330   4.857  1.6156 -0.3107  0.4932
 4936SOL     OW26443   1.986   2.843   8.294  0.0278 -0.1063 -0.0050
 4936SOL    HW126444   1.990   2.905   8.221 -1.5169 -0.7265 -0.6241
 4936SOL    HW226445   1.910   2.873   8.343  0.4313  1.9092 -0.5975
 4937SOL     OW26446   0.228   3.254  12.106  0.2923 -0.0760 -0.2760
 4937SOL    HW126447   0.221   3.224  12.196  2.5002  0.1837 -0.0114
 4937SOL    HW226448   0.144   3.300  12.106  2.1492  3.3745 -1.1259
 4938SOL     OW26449   2.506   0.684   8.510 -0.2105 -0.1705 -0.2353
 4938SOL    HW126450   2.427   0.671   8.458  0.6164  0.2659 -1.6033
 4938SOL    HW226451   2.529   0.771   8.477 -0.0230  0.6067  2.0118
 4939SOL     OW26452   1.565   0.783  10.755 -0.0269  0.5012  0.3354
 4939SOL    HW126453   1.571   0.731  10.835 -1.4841 -0.5679 -0.2474
 4939SOL    HW226454   1.472   0.796  10.737 -0.0609  0.0950  0.2228
 4940SOL     OW26455   1.403   1.514  10.428 -0.4419 -0.2070 -0.4368
 4940SOL    HW126456   1.324   1.524  10.375  1.2749  0.3504 -2.9358
 4940SOL    HW226457   1.376   1.509  10.519  1.2665 -0.4755  0.0626
 4941SOL     OW26458   1.768   1.147  12.441  0.3979  0.2882 -0.0242
 4941SOL    HW126459   1.758   1.089  12.517  1.0833  0.4066  0.1658
 4941SOL    HW226460   1.837   1.207  12.470  0.1818  1.0268 -1.0486
 4942SOL     OW26461   0.027   2.549   7.322 -0.3908 -0.0491  0.1647
 4942SOL    HW126462   0.043   2.455   7.335  0.2816  0.0753  0.2620
 4942SOL    HW226463   0.119   2.577   7.320  0.1042 -1.6207  0.7538
 4943SOL     OW26464   0.803   2.166   8.780  0.1523  1.1262  0.0863
 4943SOL    HW126465   0.888   2.121   8.778 -0.2637  0.3748 -0.9700
 4943SOL    HW226466   0.785   2.196   8.869 -4.4069 -0.7116 -0.1977
 4944SOL     OW26467   4.017   3.979   4.154 -0.2382  0.0108 -1.0242
 4944SOL    HW126468   4.007   3.917   4.082  0.2778 -0.5615 -0.5992
 4944SOL    HW226469   3.942   4.039   4.153  0.4153  0.8568  1.9754
 4945SOL     OW26470   3.331   0.410   0.163  0.4201  0.3066  0.0337
 4945SOL    HW126471   3.338   0.386   0.256  0.0426 -0.4509 -0.1286
 4945SOL    HW226472   3.263   0.349   0.135 -0.4021  1.1719  0.1453
 4946SOL     OW26473   1.284   2.490   2.711  0.4169 -0.3893  0.4402
 4946SOL    HW126474   1.314   2.499   2.801  1.4483 -0.0170  0.0530
 4946SOL    HW226475   1.280   2.583   2.690 -1.4933 -0.3789  0.7921
 4947SOL     OW26476   3.917   4.215   7.953 -0.0678  0.0177  0.2053
 4947SOL    HW126477   3.879   4.240   7.869  1.1001  0.0561 -0.3092
 4947SOL    HW226478   4.002   4.188   7.919 -0.6046  2.1622 -2.7385
 4948SOL     OW26479   3.686   3.278   5.976  0.3761 -0.5311  0.2209
 4948SOL    HW126480   3.697   3.261   6.070  0.3442 -0.9997  0.1425
 4948SOL    HW226481   3.595   3.252   5.959  0.2875  1.2771 -1.9160
 4949SOL     OW26482   1.760   0.673   7.917  0.2122  0.0464  0.0380
 4949SOL    HW126483   1.698   0.636   7.855 -3.6355  0.3696  3.6268
 4949SOL    HW226484   1.841   0.643   7.878  0.6582  1.4075 -0.0935
 4950SOL     OW26485   4.193   1.859   3.330  0.0850  0.3941  0.4060
 4950SOL    HW126486   4.167   1.924   3.265  2.3506 -0.4306 -1.3327
 4950SOL    HW226487   4.105   1.830   3.354 -0.6006  0.9120 -1.4921
 4951SOL     OW26488   4.082   4.095  10.173  0.3017 -0.4411  0.1494
 4951SOL    HW126489   4.122   4.030  10.115 -0.7930 -2.5842  1.7858
 4951SOL    HW226490   4.161   4.142  10.200 -0.2621  1.1650 -0.9438
 4952SOL     OW26491   4.374   1.485   1.351 -0.3321  0.0624  1.1957
 4952SOL    HW126492   4.318   1.433   1.294  1.9221  0.4863 -1.3848
 4952SOL    HW226493   4.433   1.528   1.289  1.9465 -2.3275  1.7101
 4953SOL     OW26494   4.477   1.515   5.180 -0.0322 -0.2988 -0.0745
 4953SOL    HW126495   4.462   1.434   5.130 -0.9894 -0.3670  0.3235
 4953SOL    HW226496   4.570   1.534   5.169  0.0810 -1.3360 -0.9325
 4954SOL     OW26497   3.761   3.268  16.655 -0.1606 -0.6415 -1.0955
 4954SOL    HW126498   3.776   3.348  16.705 -4.1969 -2.2752  2.7190
 4954SOL    HW226499   3.667   3.253  16.661 -0.0792 -0.8473 -0.3721
 4955SOL     OW26500   4.581   0.263   2.090 -0.3705  0.0105 -0.6326
 4955SOL    HW126501   4.489   0.274   2.115 -0.2442 -1.7971  0.5753
 4955SOL    HW226502   4.618   0.310   2.164 -2.8615  1.3115 -0.2061
 4956SOL     OW26503   4.175   2.481   9.990 -0.2147 -0.1737 -0.1635
 4956SOL    HW126504   4.207   2.391   9.983  1.3702  0.4226 -0.8392
 4956SOL    HW226505   4.204   2.512   9.904  1.8900  0.6654  0.8375
 4957SOL     OW26506   0.955   4.614   8.066  0.2376  0.7051  0.1545
 4957SOL    HW126507   1.038   4.633   8.110  0.5025 -0.5961  0.2061
 4957SOL    HW226508   0.899   4.671   8.119 -2.3102 -0.7598 -0.9366
 4958SOL     OW26509   2.414   0.348  13.394  0.0336 -0.2589  0.2551
 4958SOL    HW126510   2.330   0.349  13.441 -1.3359  2.0808 -2.1720
 4958SOL    HW226511   2.411   0.256  13.368 -0.3705  0.4487 -2.1996
 4959SOL     OW26512   3.606   3.371  11.878 -0.4347  0.1123 -0.2835
 4959SOL    HW126513   3.689   3.380  11.832  0.4820 -0.0479  1.3380
 4959SOL    HW226514   3.601   3.463  11.906 -0.3693  0.3915 -1.1928
 4960SOL     OW26515   0.983   0.414   9.294 -0.1214 -0.4199 -0.0564
 4960SOL    HW126516   1.044   0.421   9.367  0.1443 -0.1198 -0.3040
 4960SOL    HW226517   0.897   0.421   9.335 -1.1092 -0.3927 -2.1117
 4961SOL     OW26518   1.579   4.537   2.962  0.4928  0.6039 -0.3540
 4961SOL    HW126519   1.536   4.465   2.917  2.6183 -2.3800  2.4046
 4961SOL    HW226520   1.539   4.537   3.049  0.0902  0.3527 -0.5402
 4962SOL     OW26521   3.028   3.709  10.952 -0.4583  0.2091  0.1258
 4962SOL    HW126522   2.972   3.770  11.001 -0.6210 -0.2125  0.4655
 4962SOL    HW226523   3.101   3.694  11.013 -1.6372 -0.5745  1.3399
 4963SOL     OW26524   0.587   0.404  11.083 -0.6687  0.0556 -0.2709
 4963SOL    HW126525   0.556   0.481  11.034  3.0081  0.8862 -1.3239
 4963SOL    HW226526   0.537   0.423  11.162 -2.4271  1.3000 -1.6902
 4964SOL     OW26527   0.152   2.718   5.052  0.3088 -0.1534  0.0566
 4964SOL    HW126528   0.147   2.733   5.146  2.2066  0.9873 -0.0252
 4964SOL    HW226529   0.242   2.688   5.040 -0.1052 -0.8942 -1.2456
 4965SOL     OW26530   2.661   4.017   7.028 -0.2617  0.3434 -0.4670
 4965SOL    HW126531   2.606   3.948   7.065  0.9242 -1.2037 -1.6421
 4965SOL    HW226532   2.613   4.096   7.054  2.1623  1.3808  0.8863
 4966SOL     OW26533   0.163   2.251   7.714  0.3791 -0.2093  0.2306
 4966SOL    HW126534   0.089   2.311   7.715 -0.5773 -1.3765 -0.6224
 4966SOL    HW226535   0.235   2.309   7.739  0.5687 -1.6378  2.9471
 4967SOL     OW26536   3.658   0.296   6.539  0.1882 -0.1269 -0.6285
 4967SOL    HW126537   3.615   0.310   6.454  0.7451 -0.7321 -1.0100
 4967SOL    HW226538   3.669   0.385   6.574  0.0971 -0.0343 -0.8334
 4968SOL     OW26539   2.186   4.109   2.811  0.0243 -0.3406 -0.5617
 4968SOL    HW126540   2.131   4.185   2.830 -0.0455 -0.8690  1.3674
 4968SOL    HW226541   2.167   4.089   2.720  0.3194  1.0475 -0.9212
 4969SOL     OW26542   4.705   3.974  13.190 -0.0482 -0.1247 -0.0347
 4969SOL    HW126543   0.056   3.939  13.174 -1.0399 -2.8897  0.5150
 4969SOL    HW226544   4.725   4.066  13.176 -1.5769  0.1834 -0.1402
 4970SOL     OW26545   2.851   1.647   3.084  0.3948 -0.3786  0.0397
 4970SOL    HW126546   2.792   1.649   3.160  3.0450 -0.4183  2.0990
 4970SOL    HW226547   2.811   1.577   3.033  1.5184  0.4343 -1.9465
 4971SOL     OW26548   3.390   3.386   2.376 -0.2999  0.3537 -0.2565
 4971SOL    HW126549   3.403   3.455   2.442 -3.9160  0.4080  0.4205
 4971SOL    HW226550   3.306   3.419   2.342  0.8842 -0.1032 -3.6131
 4972SOL     OW26551   0.160   4.460   4.412  0.1549 -0.3232 -0.1056
 4972SOL    HW126552   0.122   4.532   4.462  0.7712  2.4637 -3.6274
 4972SOL    HW226553   0.244   4.457   4.459  0.5710  2.8278 -0.6658
 4973SOL     OW26554   4.132   3.371   2.651  0.2101  0.0253  0.0181
 4973SOL    HW126555   4.185   3.353   2.729 -2.4363 -1.5603  1.4591
 4973SOL    HW226556   4.141   3.291   2.600  1.3063 -0.9639  1.7623
 4974SOL     OW26557   0.279   3.654   9.208  0.5941  0.4302 -0.0116
 4974SOL    HW126558   0.276   3.666   9.303  1.9679  2.2323 -0.1935
 4974SOL    HW226559   0.368   3.678   9.183 -0.1154  0.4662 -2.5091
 4975SOL     OW26560   3.179   1.769   3.598  0.3156 -0.2284  0.0332
 4975SOL    HW126561   3.132   1.735   3.522  1.0703  1.7904 -1.3577
 4975SOL    HW226562   3.163   1.862   3.582 -1.0872 -0.3418  0.7487
 4976SOL     OW26563   3.590   1.988   6.060  0.1948  0.3633 -0.0117
 4976SOL    HW126564   3.519   1.974   5.997  1.9030 -0.8772 -1.6595
 4976SOL    HW226565   3.600   1.912   6.117 -0.2632 -0.0962 -0.5452
 4977SOL     OW26566   4.649   4.181   9.342 -0.4222 -0.4804  0.0966
 4977SOL    HW126567   4.565   4.226   9.352 -0.0800  0.1270  0.2624
 4977SOL    HW226568   4.662   4.144   9.429  0.5753  1.2947  0.7090
 4978SOL     OW26569   3.065   3.978   4.566 -0.1879 -0.0986 -0.1883
 4978SOL    HW126570   3.016   4.045   4.518 -1.0196 -0.2092  0.4913
 4978SOL    HW226571   3.073   4.024   4.649 -2.1700  0.2899 -0.2036
 4979SOL     OW26572   1.876   3.381   7.831 -0.0607  0.6858 -0.2936
 4979SOL    HW126573   1.926   3.312   7.874 -1.5826  1.1461  2.2144
 4979SOL    HW226574   1.922   3.394   7.748  0.8428 -4.7948 -0.6571
 4980SOL     OW26575   4.214   3.415   5.745  0.6141 -0.0299 -0.7667
 4980SOL    HW126576   4.261   3.489   5.706 -0.5819  1.8636  1.3495
 4980SOL    HW226577   4.221   3.344   5.682  1.8807  0.4862 -1.2134
 4981SOL     OW26578   2.696   1.819   6.248  0.4595  0.4543  0.2382
 4981SOL    HW126579   2.603   1.826   6.226  0.2636  1.3497  1.3115
 4981SOL    HW226580   2.676   1.767   6.327  1.8158 -1.4349 -0.6744
 4982SOL     OW26581   3.118   1.970   9.478  0.0591 -0.0239  0.9107
 4982SOL    HW126582   3.178   1.976   9.553  2.5149  0.9751 -1.1522
 4982SOL    HW226583   3.035   1.948   9.520 -1.9948 -1.1143 -3.7166
 4983SOL     OW26584   1.610   4.392   9.947  0.2528  0.0039 -0.6183
 4983SOL    HW126585   1.515   4.393   9.959  0.6019 -0.9007  2.0523
 4983SOL    HW226586   1.637   4.412  10.036 -1.5465  0.7442 -0.2356
 4984SOL     OW26587   4.092   2.938   5.838  0.6099 -0.3705 -0.2617
 4984SOL    HW126588   4.034   3.007   5.805 -0.2873  0.3846  2.9139
 4984SOL    HW226589   4.035   2.863   5.848 -1.1366  1.1740  1.3510
 4985SOL     OW26590   1.974   2.613   0.906  0.0994  0.6961 -0.4358
 4985SOL    HW126591   1.997   2.548   0.972  2.1313  1.6682 -0.1924
 4985SOL    HW226592   2.047   2.602   0.846 -0.1371 -2.8363 -0.0544
 4986SOL     OW26593   4.343   2.186   7.191 -0.4693  0.0281  0.3285
 4986SOL    HW126594   4.415   2.205   7.132 -1.1750 -0.8001 -0.7841
 4986SOL    HW226595   4.389   2.133   7.256 -0.4819 -0.1543  0.1886
 4987SOL     OW26596   4.276   3.043   7.383  0.0812 -0.0685  0.1675
 4987SOL    HW126597   4.208   2.988   7.344  0.1044  0.9351 -1.3169
 4987SOL    HW226598   4.273   3.019   7.475  0.7509  0.7113  0.3935
 4988SOL     OW26599   3.666   0.895  16.435 -0.4593  0.1681  0.0263
 4988SOL    HW126600   3.707   0.845  16.364 -1.5206 -0.5782 -0.0617
 4988SOL    HW226601   3.659   0.978  16.388  1.4245 -0.1552 -0.8422
 4989SOL     OW26602   3.523   0.671  11.986 -0.3846 -0.6410 -0.2500
 4989SOL    HW126603   3.526   0.749  12.041 -0.6243 -1.0582  0.3588
 4989SOL    HW226604   3.433   0.644  12.002 -1.1512  2.1057  0.0864
 4990SOL     OW26605   3.103   3.276   6.298 -0.0970  0.4579 -0.2573
 4990SOL    HW126606   3.037   3.208   6.315 -0.7130  1.7636  2.5500
 4990SOL    HW226607   3.052   3.325   6.234  0.6386 -0.2192 -1.3652
 4991SOL     OW26608   4.357   3.086  15.782  0.8127 -0.2294 -0.3348
 4991SOL    HW126609   4.347   3.112  15.690  1.0350  1.8090  0.2191
 4991SOL    HW226610   4.424   3.151  15.802  0.7072 -0.1926 -0.1092
 4992SOL     OW26611   1.991   0.701   8.356 -0.0537 -0.6520  0.3317
 4992SOL    HW126612   2.014   0.733   8.269 -3.2125  0.5738 -0.0464
 4992SOL    HW226613   1.909   0.658   8.335  1.2332 -2.7778 -0.3956
 4993SOL     OW26614   0.663   3.189   7.318 -0.2740  0.5419  0.4917
 4993SOL    HW126615   0.583   3.227   7.354 -0.3399 -1.1351  2.1026
 4993SOL    HW226616   0.633   3.099   7.302  1.4389  0.2018 -0.7460
 4994SOL     OW26617   1.236   1.997   9.973  0.3955 -0.2129  0.0982
 4994SOL    HW126618   1.145   2.015   9.950  0.7377  1.3337 -0.0525
 4994SOL    HW226619   1.239   1.901   9.976  0.8379 -0.0917  3.8492
 4995SOL     OW26620   3.691   2.518   9.267  0.2639  0.0007 -0.0881
 4995SOL    HW126621   3.681   2.612   9.281  3.1272  0.1838  0.6856
 4995SOL    HW226622   3.774   2.509   9.220  0.1830 -0.0349 -0.2255
 4996SOL     OW26623   3.893   3.240   6.853  0.6920  0.2891  0.4160
 4996SOL    HW126624   3.961   3.273   6.911 -0.4615 -0.3423  2.1208
 4996SOL    HW226625   3.813   3.255   6.904  0.4745  2.7781 -0.6332
 4997SOL     OW26626   1.238   2.743   2.599  0.5351  0.3882 -0.3391
 4997SOL    HW126627   1.156   2.735   2.646 -1.0717  0.1018 -3.1777
 4997SOL    HW226628   1.238   2.818   2.539 -0.8336 -0.3038 -1.2089
 4998SOL     OW26629   3.424   1.508  12.545  0.0815 -0.5265 -0.1371
 4998SOL    HW126630   3.381   1.509  12.459 -1.0735  2.5640  0.4957
 4998SOL    HW226631   3.425   1.412  12.553 -1.8256 -0.5901 -0.6230
 4999SOL     OW26632   1.700   1.284   8.244 -0.1832 -0.3940  0.1969
 4999SOL    HW126633   1.688   1.379   8.248 -2.4002 -0.6562 -0.7559
 4999SOL    HW226634   1.679   1.266   8.336 -0.9629 -0.5860 -0.0194
 5000SOL     OW26635   2.075   0.756   3.581 -0.1814 -0.2199 -0.4457
 5000SOL    HW126636   2.125   0.677   3.603  0.7611 -0.1371 -2.2886
 5000SOL    HW226637   2.112   0.755   3.493 -0.2349 -1.2945 -0.4569
 5001SOL     OW26638   3.803   3.534  10.918  0.0838 -0.5821  0.5920
 5001SOL    HW126639   3.846   3.565  10.838 -2.2197  2.1394  0.3970
 5001SOL    HW226640   3.819   3.611  10.973 -1.8260  0.2786 -0.0720
 5002SOL     OW26641   1.929   2.749   4.147  0.2578 -0.6230 -0.2696
 5002SOL    HW126642   1.838   2.732   4.122 -0.1070 -0.2334  0.8124
 5002SOL    HW226643   1.944   2.671   4.200  1.6527 -1.3734 -1.7680
 5003SOL     OW26644   3.541   3.710   7.815 -0.0603  0.2028 -0.3103
 5003SOL    HW126645   3.475   3.648   7.784  0.7953 -0.5618 -0.6080
 5003SOL    HW226646   3.499   3.792   7.788 -0.6483  0.0957  0.2711
 5004SOL     OW26647   1.904   1.468   4.186  0.1558  0.3570  0.0570
 5004SOL    HW126648   1.955   1.392   4.158 -1.6950 -0.6320 -0.5554
 5004SOL    HW226649   1.857   1.495   4.107  2.7424  2.1180 -0.9138
 5005SOL     OW26650   4.132   1.415   8.660 -0.1753  1.0660 -0.0876
 5005SOL    HW126651   4.084   1.333   8.658  1.1550  0.2394  1.5582
 5005SOL    HW226652   4.221   1.386   8.642 -1.0381 -1.0909 -0.8159
 5006SOL     OW26653   3.103   1.418  14.498 -0.4070 -0.2770 -0.2647
 5006SOL    HW126654   3.114   1.394  14.406 -1.3971  2.1342 -1.0226
 5006SOL    HW226655   3.012   1.392  14.514 -0.6125 -0.6964 -2.0774
 5007SOL     OW26656   2.456   4.656   8.161 -0.3742 -0.1210  0.1796
 5007SOL    HW126657   2.546   4.689   8.162 -1.2593  2.3468 -1.2641
 5007SOL    HW226658   2.429   4.673   8.251  2.7781  1.2176  0.8756
 5008SOL     OW26659   0.471   1.710   9.221 -0.1185  0.2322 -0.5679
 5008SOL    HW126660   0.538   1.769   9.255  0.4937  0.1948 -1.6828
 5008SOL    HW226661   0.502   1.634   9.270 -1.1811  0.4097  0.3801
 5009SOL     OW26662   3.191   0.779   5.281 -0.0647  0.5672  0.1520
 5009SOL    HW126663   3.110   0.825   5.258 -0.3903 -0.3249 -0.5049
 5009SOL    HW226664   3.222   0.825   5.359 -0.5450 -1.2659  1.4452
 5010SOL     OW26665   0.897   3.768  15.986  0.0603 -0.4382 -0.1514
 5010SOL    HW126666   0.955   3.721  16.047 -0.4626 -1.2265 -0.2626
 5010SOL    HW226667   0.883   3.703  15.918 -0.5653  0.0221 -0.4670
 5011SOL     OW26668   4.606   3.575  13.027 -0.1409  0.2190  0.5970
 5011SOL    HW126669   4.518   3.613  13.021  0.4052  1.3911  0.1752
 5011SOL    HW226670   4.666   3.646  13.004 -1.0323  0.8635  0.2589
 5012SOL     OW26671   4.210   0.011   6.178 -0.7622  0.3090  0.1232
 5012SOL    HW126672   4.223   4.735   6.084  0.3049 -2.2309  0.6187
 5012SOL    HW226673   4.260   0.093   6.188  1.1166 -0.8887  0.5746
 5013SOL     OW26674   0.988   2.487   9.053 -0.3192  0.2908 -0.1554
 5013SOL    HW126675   1.001   2.462   8.961  1.7765  0.2569  0.1621
 5013SOL    HW226676   1.062   2.544   9.074 -0.4284  0.5417 -0.4479
 5014SOL     OW26677   4.522   1.441   4.230  0.0948 -0.9244 -0.0048
 5014SOL    HW126678   4.519   1.415   4.138  0.7962 -1.1193  0.0340
 5014SOL    HW226679   4.556   1.531   4.227 -2.0928 -0.0234  1.9370
 5015SOL     OW26680   3.717   2.505   1.463 -0.1287  0.6665  0.2468
 5015SOL    HW126681   3.699   2.411   1.471 -0.9696  0.7410 -0.7688
 5015SOL    HW226682   3.722   2.520   1.369 -0.3271 -0.8535  0.0051
 5016SOL     OW26683   4.334   2.728   7.582 -0.1666  0.0424 -0.2818
 5016SOL    HW126684   4.277   2.671   7.531  0.3729  0.6471 -1.5630
 5016SOL    HW226685   4.333   2.688   7.669 -0.2869  2.5113  0.8476
 5017SOL     OW26686   1.456   0.682  14.804  0.2367 -0.4929 -0.3940
 5017SOL    HW126687   1.491   0.729  14.879  1.5607  0.3161 -1.5079
 5017SOL    HW226688   1.518   0.709  14.736  0.4422  0.1865  0.0689
 5018SOL     OW26689   0.037   0.854   9.451 -0.9570 -0.4683  0.5252
 5018SOL    HW126690   4.735   0.924   9.505 -0.2774 -0.5152  1.0743
 5018SOL    HW226691   0.016   0.774   9.499 -0.5567  0.5228  2.3521
 5019SOL     OW26692   0.939   4.118  11.057 -0.2629  0.0266  0.1156
 5019SOL    HW126693   0.954   4.060  10.982 -0.1135  1.6616 -1.1146
 5019SOL    HW226694   1.019   4.164  11.082 -0.0896 -0.7509  0.9818
 5020SOL     OW26695   2.144   1.301  12.737  0.6284 -0.2672 -0.0489
 5020SOL    HW126696   2.131   1.390  12.770 -0.8081 -0.1430 -0.9683
 5020SOL    HW226697   2.239   1.303  12.736  0.6174 -0.2543 -1.2651
 5021SOL     OW26698   0.003   1.364   1.022 -0.2872  0.2882  0.4218
 5021SOL    HW126699   0.052   1.441   0.992 -1.8833  1.5480  1.0572
 5021SOL    HW226700   4.678   1.348   0.951 -0.0895 -1.3572  0.6329
 5022SOL     OW26701   1.336   3.407   5.571 -0.0279 -0.4797  0.4555
 5022SOL    HW126702   1.351   3.492   5.531  2.0910 -0.9832  0.2221
 5022SOL    HW226703   1.260   3.371   5.525 -0.4997  0.1029  0.7827
 5023SOL     OW26704   3.355   2.792   3.525 -0.1230  0.1970 -0.3432
 5023SOL    HW126705   3.434   2.818   3.476  0.0064  0.5624  0.0549
 5023SOL    HW226706   3.295   2.863   3.502 -1.7026 -1.1070 -0.1506
 5024SOL     OW26707   0.462   1.260  12.489  0.1360  0.2696  0.4360
 5024SOL    HW126708   0.529   1.227  12.549  1.2339 -1.9804 -2.0525
 5024SOL    HW226709   0.488   1.237  12.400  0.2647 -1.3317  0.8948
 5025SOL     OW26710   3.155   4.489   9.189 -0.5778 -0.7062  0.7135
 5025SOL    HW126711   3.128   4.516   9.101  0.1924 -1.2867  0.2975
 5025SOL    HW226712   3.192   4.576   9.204 -0.0225 -0.9875  0.9595
 5026SOL     OW26713   4.704   3.499   8.693  0.1055 -0.3586  0.8113
 5026SOL    HW126714   0.060   3.477   8.680  0.5147  0.9604  1.4722
 5026SOL    HW226715   4.668   3.420   8.734 -0.0943  1.3918  3.9642
 5027SOL     OW26716   0.964   2.806  15.223 -0.1337 -0.1072 -0.0020
 5027SOL    HW126717   0.919   2.740  15.276  2.5187 -1.1060  1.0410
 5027SOL    HW226718   0.892   2.857  15.186  0.6495  0.7647 -0.3266
 5028SOL     OW26719   0.424   3.270   5.236 -0.4293  0.0328  0.1027
 5028SOL    HW126720   0.410   3.220   5.316  2.6820  1.4779  1.5489
 5028SOL    HW226721   0.490   3.335   5.260 -0.5854 -0.4462  1.8604
 5029SOL     OW26722   2.243   2.551   4.825 -0.4423 -0.2903  0.2917
 5029SOL    HW126723   2.208   2.487   4.764  0.6515 -0.1738 -0.4733
 5029SOL    HW226724   2.200   2.632   4.797 -1.2771 -1.0620 -0.6272
 5030SOL     OW26725   0.013   1.938  12.631  0.2064 -0.3165 -0.6058
 5030SOL    HW126726   0.021   1.879  12.556  0.8789  2.1298 -2.4368
 5030SOL    HW226727   0.062   2.009  12.590 -1.3811  0.2746 -1.5051
 5031SOL     OW26728   2.628   1.104  15.558  0.0652  0.0783 -1.1946
 5031SOL    HW126729   2.612   1.172  15.623  1.6754 -1.3499  0.6630
 5031SOL    HW226730   2.722   1.113  15.543  0.2909 -0.0037  0.2514
 5032SOL     OW26731   3.348   3.175  17.552 -0.5688 -0.5374  0.3648
 5032SOL    HW126732   3.412   3.218  17.496  0.0790 -3.1465 -0.9366
 5032SOL    HW226733   3.313   3.246  17.605 -1.6829 -0.3017 -0.6766
 5033SOL     OW26734   2.309   2.013   1.885 -0.2228  0.0224  0.5554
 5033SOL    HW126735   2.219   1.982   1.875  0.0465 -0.0416 -1.6706
 5033SOL    HW226736   2.359   1.933   1.896  0.0270  0.0615 -0.3046
 5034SOL     OW26737   4.316   1.403   5.874  1.0353 -0.1164 -0.2617
 5034SOL    HW126738   4.372   1.477   5.895  2.0231 -0.6799 -0.9429
 5034SOL    HW226739   4.247   1.455   5.832 -1.2744 -1.8589  1.3906
 5035SOL     OW26740   1.957   2.739  13.789 -0.0771  0.3806  0.3636
 5035SOL    HW126741   1.938   2.690  13.869 -4.2284  1.6181  0.1183
 5035SOL    HW226742   1.897   2.813  13.797 -0.5733  0.0435 -0.2713
 5036SOL     OW26743   4.537   4.330   6.580  0.2768  0.5794  0.1724
 5036SOL    HW126744   4.521   4.239   6.554 -2.3438  1.3835 -1.0722
 5036SOL    HW226745   4.500   4.339   6.668 -2.4493  0.3891 -0.9482
 5037SOL     OW26746   0.108   3.802   5.550 -0.3825 -1.5492  0.7844
 5037SOL    HW126747   0.080   3.805   5.459 -1.0197  0.4322  1.0496
 5037SOL    HW226748   0.201   3.781   5.544 -0.2546 -0.5461 -0.7055
 5038SOL     OW26749   2.883   1.381  12.346  0.3393  0.1500 -0.0424
 5038SOL    HW126750   2.910   1.436  12.420  0.0223 -0.9146  0.8643
 5038SOL    HW226751   2.929   1.425  12.274 -1.9338  1.7350 -0.5314
 5039SOL     OW26752   3.289   2.395   2.823 -0.1672 -0.0137  0.0095
 5039SOL    HW126753   3.195   2.397   2.843  0.1323 -2.3156  1.7157
 5039SOL    HW226754   3.297   2.458   2.752 -3.2138 -0.6429 -0.8888
 5040SOL     OW26755   0.963   3.664   6.619  0.2669 -1.0447 -0.2182
 5040SOL    HW126756   1.023   3.637   6.690 -1.2814  0.5121  1.6816
 5040SOL    HW226757   0.950   3.756   6.642 -1.2665 -0.7610 -2.2322
 5041SOL     OW26758   2.598   2.536   6.319 -0.0553  0.1432  0.5839
 5041SOL    HW126759   2.605   2.522   6.225 -2.5196 -1.9400  0.7038
 5041SOL    HW226760   2.613   2.630   6.332  0.7647  0.0885  0.0484
 5042SOL     OW26761   2.223   2.980  13.161  0.0234 -0.1324  0.2022
 5042SOL    HW126762   2.175   3.036  13.223  0.1164 -1.7237  1.7174
 5042SOL    HW226763   2.304   2.976  13.211  2.6515  0.1975 -4.0591
 5043SOL     OW26764   3.961   4.466   1.399 -0.2608 -0.6592 -0.0764
 5043SOL    HW126765   3.979   4.437   1.309  2.6109  1.8515 -0.3359
 5043SOL    HW226766   3.935   4.554   1.371  1.9584 -0.5720 -1.8802
 5044SOL     OW26767   3.454   4.014   2.718  0.0245 -0.3456  0.3865
 5044SOL    HW126768   3.413   3.963   2.788 -0.4045  1.2976  1.3345
 5044SOL    HW226769   3.516   4.068   2.766  0.7175 -0.7090 -0.1097
 5045SOL     OW26770   3.683   3.765  13.594 -0.2087  0.1799 -0.1598
 5045SOL    HW126771   3.717   3.801  13.512  0.6575 -0.2593  0.0003
 5045SOL    HW226772   3.592   3.792  13.585 -0.2845  0.6099  1.9205
 5046SOL     OW26773   0.311   1.896   3.385 -0.4935  0.0087  0.2962
 5046SOL    HW126774   0.321   1.806   3.414 -0.8125  0.4550  1.8309
 5046SOL    HW226775   0.230   1.904   3.334 -0.8924  0.2753  0.9628
 5047SOL     OW26776   4.609   1.735   3.056  0.6442  0.4214  0.3176
 5047SOL    HW126777   4.535   1.756   3.113 -0.6408  2.2198 -2.0295
 5047SOL    HW226778   4.627   1.826   3.033  0.5392  0.5912  0.8963
 5048SOL     OW26779   0.420   1.221   4.354 -0.3410 -0.2939 -0.1638
 5048SOL    HW126780   0.426   1.304   4.403  3.1194  0.3524 -1.6365
 5048SOL    HW226781   0.383   1.162   4.419 -1.6186  1.1766  0.4232
 5049SOL     OW26782   2.762   3.663   8.580  0.0475 -0.6555 -0.0356
 5049SOL    HW126783   2.668   3.651   8.593 -0.0783 -2.5349 -2.7792
 5049SOL    HW226784   2.760   3.723   8.505 -0.6121  0.4446  0.8644
 5050SOL     OW26785   2.353   0.027  12.366 -0.1390 -0.6065  0.2746
 5050SOL    HW126786   2.363   4.692  12.303  1.1349  0.0626 -0.2756
 5050SOL    HW226787   2.341   4.721  12.451 -0.5255  0.4908  0.7638
 5051SOL     OW26788   4.090   0.001  16.118 -0.1970  0.1120 -0.0812
 5051SOL    HW126789   4.121   4.654  16.083 -0.7900 -0.3954  0.6066
 5051SOL    HW226790   4.068   0.045  16.036  0.8206  1.5454  0.4082
 5052SOL     OW26791   3.460   3.412   8.215 -0.6234 -0.0396  0.0497
 5052SOL    HW126792   3.527   3.479   8.219 -1.3795  0.7333 -0.2446
 5052SOL    HW226793   3.403   3.434   8.288  0.8851  3.5985  0.1128
 5053SOL     OW26794   2.659   1.384   1.707 -0.1772 -0.3475  0.1954
 5053SOL    HW126795   2.616   1.302   1.730  0.9849 -0.5106  1.8260
 5053SOL    HW226796   2.603   1.429   1.645 -1.4420 -3.7537 -1.1082
 5054SOL     OW26797   1.766   2.284   7.054 -0.7963 -0.3701  0.6392
 5054SOL    HW126798   1.784   2.268   6.962 -3.7170  1.9994 -0.3210
 5054SOL    HW226799   1.843   2.336   7.076  0.5896 -1.8009 -0.8618
 5055SOL     OW26800   3.486   4.715   0.727 -0.5256  0.1778 -0.1763
 5055SOL    HW126801   3.431   0.053   0.704  0.5415  0.6362 -1.2524
 5055SOL    HW226802   3.434   4.655   0.780  0.7553 -0.6012  0.2083
 5056SOL     OW26803   1.347   3.172   4.686  0.1582  0.1745 -0.1262
 5056SOL    HW126804   1.272   3.217   4.724  0.1166  1.2169 -1.4531
 5056SOL    HW226805   1.322   3.080   4.692  0.0135  0.2968  1.3372
 5057SOL     OW26806   0.104   1.931   6.365 -0.0858  0.0273 -0.1865
 5057SOL    HW126807   0.117   1.924   6.460 -0.1843  2.9763  0.0244
 5057SOL    HW226808   0.193   1.946   6.336  0.3951 -0.0979  1.2011
 5058SOL     OW26809   3.348   0.393  15.142 -0.0082  0.5021  0.1315
 5058SOL    HW126810   3.437   0.390  15.108  0.2004 -0.0117  0.7405
 5058SOL    HW226811   3.344   0.488  15.151  0.9999  0.5341  0.2087
 5059SOL     OW26812   4.493   0.505  17.471  0.3988 -0.3442  0.1430
 5059SOL    HW126813   4.470   0.543  17.386 -0.3775  1.4367  1.1760
 5059SOL    HW226814   4.404   0.508  17.504  0.7649 -0.6606  1.1544
 5060SOL     OW26815   3.993   2.390   6.697 -0.1335 -0.1685 -0.0971
 5060SOL    HW126816   4.025   2.464   6.645 -2.4840  0.9620  0.0636
 5060SOL    HW226817   4.063   2.330   6.672 -0.7961 -0.8302 -0.3593
 5061SOL     OW26818   0.388   3.256   5.832  0.8247 -0.0650  0.1077
 5061SOL    HW126819   0.483   3.261   5.819  0.7149  2.4022  0.2981
 5061SOL    HW226820   0.383   3.165   5.804 -0.0895  0.1159 -0.3082
 5062SOL     OW26821   3.875   4.605   7.023  0.6192 -0.5658  0.4237
 5062SOL    HW126822   3.856   4.523   6.978  1.9298  0.3811 -1.9048
 5062SOL    HW226823   3.967   4.612   6.998 -0.1681  1.0188 -1.9972
 5063SOL     OW26824   1.683   3.360   5.785  0.4574  0.0798  0.0504
 5063SOL    HW126825   1.733   3.294   5.832  1.2369  0.5281 -0.1505
 5063SOL    HW226826   1.591   3.342   5.803  1.3714 -2.3953  2.1623
 5064SOL     OW26827   4.017   4.055   1.292  0.2375 -0.0572 -0.3855
 5064SOL    HW126828   4.002   4.093   1.205  0.4061 -2.1210 -1.2947
 5064SOL    HW226829   3.937   4.071   1.343  0.2012 -0.9966 -0.1553
 5065SOL     OW26830   2.353   0.836  15.804 -0.3755  0.0055  0.6807
 5065SOL    HW126831   2.443   0.864  15.784 -0.5610  0.8098  0.9660
 5065SOL    HW226832   2.314   0.822  15.718  0.9122  0.5244  0.0099
 5066SOL     OW26833   1.204   4.615   4.090  0.5719 -0.8729 -0.1549
 5066SOL    HW126834   1.290   4.585   4.061  0.8291  1.5361 -1.8753
 5066SOL    HW226835   1.152   4.615   4.010 -0.4527 -2.8125  0.5176
 5067SOL     OW26836   3.396   2.330   1.490 -0.0396  0.5605 -0.1102
 5067SOL    HW126837   3.469   2.278   1.522  0.7438  0.4880 -1.9883
 5067SOL    HW226838   3.345   2.356   1.567 -0.9107 -0.0841 -0.4663
 5068SOL     OW26839   2.750   3.052  14.289  0.1540 -0.1875  0.6731
 5068SOL    HW126840   2.768   3.073  14.197 -2.1242 -1.5674 -0.0994
 5068SOL    HW226841   2.807   2.976  14.296 -0.2219 -0.4577  0.7866
 5069SOL     OW26842   0.811   1.239  10.518  0.1340  0.2448 -0.3650
 5069SOL    HW126843   0.842   1.325  10.547 -0.7399  0.0399  1.1669
 5069SOL    HW226844   0.779   1.205  10.601  3.0763 -2.0125 -0.1795
 5070SOL     OW26845   3.874   4.011  11.105  0.3857 -0.2266  0.4199
 5070SOL    HW126846   3.934   4.081  11.080 -2.0665  1.8250  0.2411
 5070SOL    HW226847   3.815   4.058  11.165 -1.8919 -0.0261 -1.9632
 5071SOL     OW26848   2.311   2.039   7.649  0.4971  0.5423  0.4536
 5071SOL    HW126849   2.236   1.987   7.676  1.1761  0.4001  2.0663
 5071SOL    HW226850   2.278   2.127   7.664  0.0847  0.8478 -2.3422
 5072SOL     OW26851   1.459   0.318   6.803  0.0077  0.3536  0.3093
 5072SOL    HW126852   1.371   0.350   6.824 -0.2836 -0.2783  0.0736
 5072SOL    HW226853   1.497   0.332   6.889  0.1434 -1.9158  0.6362
 5073SOL     OW26854   0.662   1.753   8.008 -0.5551 -0.4910  0.6125
 5073SOL    HW126855   0.726   1.729   8.075 -0.1674 -1.2829 -0.0394
 5073SOL    HW226856   0.650   1.847   8.020 -0.2688 -0.3816  0.0534
 5074SOL     OW26857   0.210   3.882   6.032 -0.0108  0.3201  0.2350
 5074SOL    HW126858   0.128   3.898   6.078 -1.4617  0.1806 -2.2451
 5074SOL    HW226859   0.269   3.946   6.070  1.7030 -1.1236  0.0357
 5075SOL     OW26860   2.912   2.311   4.603 -0.1190 -0.2318 -0.2037
 5075SOL    HW126861   2.951   2.233   4.642  0.7086  1.8191  3.0405
 5075SOL    HW226862   2.822   2.287   4.581 -0.3801 -0.1398  0.7761
 5076SOL     OW26863   1.918   1.886   7.125 -0.0906 -0.3588  0.0203
 5076SOL    HW126864   1.841   1.874   7.181 -0.4406  1.4367 -0.0803
 5076SOL    HW226865   1.952   1.964   7.168 -2.3076  0.1833  0.8040
 5077SOL     OW26866   1.008   1.518   0.265 -0.1165  0.1379 -0.4820
 5077SOL    HW126867   1.067   1.452   0.227 -0.2605 -0.3514  0.1471
 5077SOL    HW226868   0.940   1.462   0.301 -0.4664  1.5974  1.1192
 5078SOL     OW26869   3.501   3.472   5.719  0.0576  0.3093  0.1067
 5078SOL    HW126870   3.423   3.423   5.743  0.6359 -0.7832 -0.2402
 5078SOL    HW226871   3.512   3.530   5.795 -1.1556  1.8502 -0.8962
 5079SOL     OW26872   1.628   1.597   1.642 -0.3188  0.0401 -0.4645
 5079SOL    HW126873   1.557   1.612   1.704  0.2556  1.6479 -0.2040
 5079SOL    HW226874   1.583   1.573   1.561  1.1020 -1.8297 -0.7033
 5080SOL     OW26875   1.765   0.629   8.691 -0.5138  0.1447  0.0615
 5080SOL    HW126876   1.851   0.671   8.689 -1.2683  1.6520 -1.4047
 5080SOL    HW226877   1.717   0.682   8.755  0.0837 -0.2410  0.8357
 5081SOL     OW26878   0.628   2.212   4.163  0.1513 -0.6135  0.2096
 5081SOL    HW126879   0.581   2.135   4.196 -1.8398  0.8634  0.8465
 5081SOL    HW226880   0.571   2.282   4.194 -0.4552 -0.2873 -1.6821
 5082SOL     OW26881   1.801   0.442  12.512  0.2596 -0.4125 -0.3242
 5082SOL    HW126882   1.742   0.378  12.472 -1.9514 -0.0644  2.3172
 5082SOL    HW226883   1.760   0.458  12.598 -1.1356 -1.2068 -0.8472
 5083SOL     OW26884   3.260   4.512   6.770 -0.2005  0.2409  0.6712
 5083SOL    HW126885   3.329   4.569   6.736  0.4464 -2.6129 -2.7022
 5083SOL    HW226886   3.199   4.509   6.696  0.0506  0.2936  0.4624
 5084SOL     OW26887   3.051   2.283   5.969 -0.3505  0.0607  0.3283
 5084SOL    HW126888   3.016   2.297   6.058 -0.9397 -0.5094  0.1830
 5084SOL    HW226889   3.075   2.374   5.952  1.1812 -0.5024 -0.4641
 5085SOL     OW26890   4.206   1.848   6.698 -0.2741 -0.3245  0.5206
 5085SOL    HW126891   4.113   1.870   6.692 -0.2688 -0.3877  0.1749
 5085SOL    HW226892   4.243   1.917   6.643 -0.8411 -0.1677  0.3340
 5086SOL     OW26893   4.447   3.337   8.050 -0.4850  0.1644  0.0931
 5086SOL    HW126894   4.505   3.301   7.982 -1.2706  0.1631 -0.5830
 5086SOL    HW226895   4.506   3.372   8.117 -0.7148  0.0907  0.3288
 5087SOL     OW26896   2.818   4.598  14.361 -0.3489 -0.5091  0.2275
 5087SOL    HW126897   2.893   4.539  14.364  0.2355  0.2351  0.3820
 5087SOL    HW226898   2.818   4.638  14.448  0.6611  0.5819 -0.2576
 5088SOL     OW26899   1.881   4.095   0.072  0.3489 -0.3292  0.1411
 5088SOL    HW126900   1.817   4.125   0.137 -0.0949  0.4444 -0.6669
 5088SOL    HW226901   1.964   4.106   0.119 -0.5381  0.7114  1.4268
 5089SOL     OW26902   2.212   2.589   2.582  0.3249 -0.1025  0.2374
 5089SOL    HW126903   2.215   2.677   2.618  0.8767 -0.8509  2.0287
 5089SOL    HW226904   2.301   2.569   2.551  0.5615  0.1109  0.7958
 5090SOL     OW26905   3.569   4.182   4.552 -0.1888  1.0168  0.3046
 5090SOL    HW126906   3.512   4.124   4.603 -2.1464  0.5868 -2.3858
 5090SOL    HW226907   3.506   4.219   4.490 -2.5484  0.0815  2.1315
 5091SOL     OW26908   1.804   3.922  17.233 -0.0821  0.1753  0.0808
 5091SOL    HW126909   1.744   3.882  17.171 -0.1007 -1.9834  1.4591
 5091SOL    HW226910   1.873   3.856  17.238  0.0282  0.2710 -0.1930
 5092SOL     OW26911   2.735   1.805   7.355 -0.6101  0.1732  0.5000
 5092SOL    HW126912   2.831   1.807   7.351 -0.5656 -0.2715  1.3797
 5092SOL    HW226913   2.724   1.806   7.450 -0.6091  2.8489  0.4660
 5093SOL     OW26914   1.279   2.569   1.431 -0.2457  0.4085  0.4567
 5093SOL    HW126915   1.279   2.475   1.411 -0.6890  0.0123  2.3017
 5093SOL    HW226916   1.305   2.607   1.348 -1.4096 -0.3575 -0.2672
 5094SOL     OW26917   1.131   2.517  12.576  0.1535 -0.3302  0.0831
 5094SOL    HW126918   1.213   2.517  12.527 -0.8151  1.6794 -1.5419
 5094SOL    HW226919   1.095   2.435  12.541  0.2979  0.6960 -2.4450
 5095SOL     OW26920   1.513   4.028   0.119  0.0557 -0.4056  0.1559
 5095SOL    HW126921   1.578   4.059   0.181  1.8593 -0.6307 -1.6253
 5095SOL    HW226922   1.568   3.985   0.053  1.4225 -0.5280  1.3834
 5096SOL     OW26923   0.474   2.333  15.365  0.1542 -0.4463  0.1460
 5096SOL    HW126924   0.439   2.244  15.366 -3.8147  1.1380  1.0021
 5096SOL    HW226925   0.521   2.333  15.448  0.8352 -1.5197 -0.2394
 5097SOL     OW26926   1.053   0.473   4.182  0.3119 -0.8860 -0.8922
 5097SOL    HW126927   1.034   0.560   4.218  0.2927 -2.5221  3.0264
 5097SOL    HW226928   0.984   0.415   4.213 -0.5928  0.0647 -1.1186
 5098SOL     OW26929   1.623   4.446  16.547  0.1800  0.0358  0.2856
 5098SOL    HW126930   1.690   4.379  16.560  1.2277  1.5083  2.3714
 5098SOL    HW226931   1.565   4.408  16.481  1.1580 -0.8990 -0.0245
 5099SOL     OW26932   0.033   3.861   0.930 -0.0471  0.0292 -0.0271
 5099SOL    HW126933   0.013   3.787   0.873  0.5947  0.9612 -1.4471
 5099SOL    HW226934   0.059   3.932   0.872  0.2549 -2.4740 -2.9385
 5100SOL     OW26935   3.171   3.746   2.037 -0.5331 -0.7202 -0.4542
 5100SOL    HW126936   3.124   3.712   1.961 -1.1704 -0.7185 -0.0662
 5100SOL    HW226937   3.187   3.671   2.095 -0.3423 -1.2912 -1.2581
 5101SOL     OW26938   2.290   1.310  11.813 -0.4907  0.2259 -0.6935
 5101SOL    HW126939   2.371   1.330  11.765  0.3127  0.7454  0.8621
 5101SOL    HW226940   2.234   1.286  11.739  2.2962 -3.6244 -1.5893
 5102SOL     OW26941   1.248   4.711  15.929  0.7322 -0.7625 -0.0086
 5102SOL    HW126942   1.177   4.660  15.893  1.5281 -0.8834 -1.4025
 5102SOL    HW226943   1.322   4.675  15.880 -0.5398 -2.5658 -0.6029
 5103SOL     OW26944   1.138   0.358   9.568 -0.4466 -0.7318 -0.1078
 5103SOL    HW126945   1.126   0.263   9.573  0.7673 -0.9279 -0.9394
 5103SOL    HW226946   1.098   0.390   9.649 -1.7823 -0.5087 -0.8599
 5104SOL     OW26947   1.766   2.266  16.998  0.3964 -0.2579 -0.7287
 5104SOL    HW126948   1.744   2.209  16.924 -0.2140 -1.9263  0.7435
 5104SOL    HW226949   1.702   2.224  17.056  0.5604 -0.2235 -0.5223
 5105SOL     OW26950   3.593   3.788   4.706  0.2343  0.0706 -0.3528
 5105SOL    HW126951   3.533   3.855   4.673 -0.5437 -0.5665 -0.2186
 5105SOL    HW226952   3.583   3.718   4.642 -1.0298  0.7147 -0.8445
 5106SOL     OW26953   4.077   1.777   6.269  0.4412 -0.1180  0.2067
 5106SOL    HW126954   4.111   1.831   6.198  0.3359  0.7774  0.8323
 5106SOL    HW226955   3.989   1.817   6.273  0.8882  1.0479 -1.4206
 5107SOL     OW26956   2.475   3.423  12.755 -0.3575 -0.2414 -0.1832
 5107SOL    HW126957   2.561   3.431  12.796 -0.8105  0.5911  0.5962
 5107SOL    HW226958   2.432   3.491  12.807  1.3212 -0.1802  1.1262
 5108SOL     OW26959   1.432   0.905  12.540 -0.3118  1.0384  0.0379
 5108SOL    HW126960   1.506   0.845  12.533 -0.8841  0.2134  1.1713
 5108SOL    HW226961   1.407   0.906  12.447 -1.2332  0.4791  0.2898
 5109SOL     OW26962   0.592   1.715  10.429  0.5150  0.6386 -0.1559
 5109SOL    HW126963   0.517   1.771  10.445  0.7191  0.0532  2.8029
 5109SOL    HW226964   0.594   1.717  10.333 -0.8966  1.2912 -0.1722
 5110SOL     OW26965   1.800   0.271  17.219  0.0600  0.2125  0.0103
 5110SOL    HW126966   1.833   0.210  17.153  0.9253 -1.0073  1.5648
 5110SOL    HW226967   1.711   0.297  17.197 -0.6503 -1.3543  1.0185
 5111SOL     OW26968   0.290   2.281   8.112  0.6718  0.0225  0.0908
 5111SOL    HW126969   0.293   2.199   8.061  2.0798  0.0858  0.0551
 5111SOL    HW226970   0.212   2.265   8.165  0.1548 -1.4211 -1.0901
 5112SOL     OW26971   4.695   1.621   9.740  0.3445  0.4836 -0.0232
 5112SOL    HW126972   4.626   1.608   9.805 -0.3665 -3.0024 -1.4886
 5112SOL    HW226973   0.030   1.607   9.802  0.9072  0.6379 -0.6296
 5113SOL     OW26974   1.707   2.684   8.357 -0.1686 -0.4545  0.1032
 5113SOL    HW126975   1.675   2.594   8.366  0.4076 -0.7008 -0.2508
 5113SOL    HW226976   1.658   2.715   8.282  0.3263 -0.3785 -0.1880
 5114SOL     OW26977   3.504   0.020   1.169  0.1839 -0.0617 -0.4962
 5114SOL    HW126978   3.549   0.041   1.251  2.9329 -1.0241 -1.7648
 5114SOL    HW226979   3.574   0.002   1.107 -0.6349 -4.8584  0.0047
 5115SOL     OW26980   3.078   4.509   5.955  0.3947 -0.2118  0.6118
 5115SOL    HW126981   3.114   4.575   6.014  2.8913 -1.3596  0.3552
 5115SOL    HW226982   3.153   4.502   5.896 -0.8697 -0.0684 -1.0345
 5116SOL     OW26983   1.346   1.440  11.625  0.0806  1.0147  0.0221
 5116SOL    HW126984   1.267   1.459  11.574  0.1416 -0.3593 -0.5911
 5116SOL    HW226985   1.409   1.414  11.557  1.3857  0.6051  1.3792
 5117SOL     OW26986   3.828   2.993   5.332  0.2299 -0.0007 -0.2689
 5117SOL    HW126987   3.919   3.016   5.311  0.9673 -2.5459  0.2300
 5117SOL    HW226988   3.807   3.037   5.415  0.8405  1.4533 -0.8755
 5118SOL     OW26989   0.609   1.566   4.471  0.8769 -0.4237  0.2435
 5118SOL    HW126990   0.540   1.541   4.410 -0.0349  0.4546  0.9314
 5118SOL    HW226991   0.561   1.610   4.541  0.3721  0.2083 -0.5116
 5119SOL     OW26992   3.129   0.409   2.432 -0.4630  0.5341  0.1878
 5119SOL    HW126993   3.221   0.431   2.447 -0.0453 -0.2046 -1.2832
 5119SOL    HW226994   3.099   0.346   2.498  3.2749 -2.2088 -0.7112
 5120SOL     OW26995   2.667   1.910   6.842 -0.1378  0.5108 -0.3175
 5120SOL    HW126996   2.577   1.899   6.812 -1.0666  4.0523  1.2115
 5120SOL    HW226997   2.662   1.899   6.937 -2.2279  1.6460 -0.3034
 5121SOL     OW26998   0.930   1.516   4.529  0.7202 -0.0760 -0.5589
 5121SOL    HW126999   0.888   1.557   4.454 -0.6998  1.3032  1.0150
 5121SOL    HW227000   0.855   1.499   4.585  0.8139  1.9279  0.1867
 5122SOL     OW27001   1.219   0.544  14.827  0.3907  0.3331 -0.2892
 5122SOL    HW127002   1.314   0.556  14.830  0.1435  3.0395 -2.9001
 5122SOL    HW227003   1.187   0.555  14.916 -0.8720 -1.2325 -0.5659
 5123SOL     OW27004   1.889   1.860   5.073 -0.0639 -0.2105  0.2148
 5123SOL    HW127005   1.950   1.853   5.146  0.2861 -1.2975 -0.1819
 5123SOL    HW227006   1.914   1.780   5.027  1.6884  1.1679 -1.2741
 5124SOL     OW27007   3.667   4.428   7.950  0.0171 -0.8988 -0.7493
 5124SOL    HW127008   3.735   4.382   8.000 -0.9311 -0.5685  0.8304
 5124SOL    HW227009   3.600   4.373   7.990  0.2232  1.6384  3.0806
 5125SOL     OW27010   2.008   1.193  12.121 -0.4448  0.0527  0.0936
 5125SOL    HW127011   2.095   1.232  12.115 -0.7122  0.8003  1.1375
 5125SOL    HW227012   1.982   1.188  12.029 -0.0676  2.6085 -0.1455
 5126SOL     OW27013   2.451   2.818   3.749 -0.5916  0.4303  0.0998
 5126SOL    HW127014   2.524   2.795   3.691 -0.3351  1.0008  0.1932
 5126SOL    HW227015   2.383   2.778   3.695  0.7431  0.1370 -1.3746
 5127SOL     OW27016   3.154   4.680   6.157 -0.1135  0.2686 -0.0873
 5127SOL    HW127017   3.077   4.733   6.176  1.1499  2.1303 -0.2039
 5127SOL    HW227018   3.151   4.614   6.227 -3.9563 -0.4148 -0.8610
 5128SOL     OW27019   1.305   1.622   5.813 -0.0986 -0.0743  0.0616
 5128SOL    HW127020   1.397   1.649   5.818  0.2291 -1.0858 -0.5819
 5128SOL    HW227021   1.270   1.683   5.878  2.2700  2.5281 -1.1056
 5129SOL     OW27022   1.988   3.279   9.116 -0.5836  0.5363  0.0827
 5129SOL    HW127023   2.022   3.329   9.190  1.1985  1.3696 -1.3221
 5129SOL    HW227024   2.044   3.203   9.133  0.4962  1.7077  1.7814
 5130SOL     OW27025   4.512   4.437   7.103  0.0281 -0.0049  0.0973
 5130SOL    HW127026   4.590   4.401   7.146 -0.2900 -0.9159 -0.0821
 5130SOL    HW227027   4.450   4.445   7.175 -1.1491 -1.7165 -0.7246
 5131SOL     OW27028   2.227   1.455   4.028 -0.2051 -0.0764  0.1612
 5131SOL    HW127029   2.245   1.362   4.036  2.7969  0.4329 -0.5841
 5131SOL    HW227030   2.139   1.448   3.991 -0.5998  1.4108  0.8018
 5132SOL     OW27031   4.729   3.672  12.096  0.3028 -0.2377  0.1164
 5132SOL    HW127032   0.011   3.588  12.138 -0.0578 -0.0357  0.6853
 5132SOL    HW227033   4.736   3.655  12.002  0.0319 -0.5160  0.1478
 5133SOL     OW27034   3.214   1.288   7.004 -0.7723  0.1913  0.3179
 5133SOL    HW127035   3.197   1.206   7.052  3.2584 -1.5791 -1.3362
 5133SOL    HW227036   3.233   1.342   7.080  0.3309  1.1318 -0.6381
 5134SOL     OW27037   0.170   2.236   4.364  0.3173  0.0319 -0.2433
 5134SOL    HW127038   0.124   2.304   4.413 -0.0913 -0.7889  0.5169
 5134SOL    HW227039   0.126   2.246   4.279 -0.6133  1.9720  0.4731
 5135SOL     OW27040   2.437   4.535   4.260  0.1381 -0.5927 -0.1738
 5135SOL    HW127041   2.405   4.478   4.330 -1.0717  0.1146 -0.1490
 5135SOL    HW227042   2.504   4.584   4.307  0.4905 -1.4365  0.1972
 5136SOL     OW27043   3.769   3.387   1.164  0.5807  0.1552 -0.2289
 5136SOL    HW127044   3.682   3.422   1.146  0.4047 -0.3786 -0.4259
 5136SOL    HW227045   3.804   3.333   1.093 -1.5286 -0.2333 -0.9687
 5137SOL     OW27046   2.927   3.145   3.350  0.4927  0.0232  0.2205
 5137SOL    HW127047   2.839   3.119   3.323  0.3276 -0.0748  0.8431
 5137SOL    HW227048   2.909   3.162   3.442  1.1786 -0.4843  0.4473
 5138SOL     OW27049   1.096   3.731  17.377  0.7109 -0.4313 -0.2140
 5138SOL    HW127050   1.162   3.733  17.308  1.1527  1.6539  0.2542
 5138SOL    HW227051   1.033   3.799  17.350 -0.1147 -0.4523  1.6680
 5139SOL     OW27052   1.943   3.552   4.674  0.5772  0.1426  0.1744
 5139SOL    HW127053   1.881   3.611   4.717 -0.8492 -0.2059 -1.4123
 5139SOL    HW227054   2.025   3.600   4.683 -1.4761  4.1044 -2.2302
 5140SOL     OW27055   1.436   2.962   9.748  0.3558  0.0813  0.3148
 5140SOL    HW127056   1.408   3.052   9.732 -0.1367 -0.1649 -0.2001
 5140SOL    HW227057   1.373   2.934   9.815  0.7791  0.2242  0.7718
 5141SOL     OW27058   1.914   3.330   9.537 -0.1489 -0.5010  0.9258
 5141SOL    HW127059   1.821   3.311   9.554 -0.3528 -0.9600 -0.6987
 5141SOL    HW227060   1.938   3.247   9.497  1.7921  0.2869  0.4494
 5142SOL     OW27061   1.463   0.625  13.353  0.3837 -0.3186  0.0991
 5142SOL    HW127062   1.453   0.670  13.270 -1.2758 -0.4883  0.2150
 5142SOL    HW227063   1.408   0.684  13.404 -0.7337 -1.9301  0.7846
 5143SOL     OW27064   0.887   2.241   9.669 -0.2230 -0.2745 -0.0461
 5143SOL    HW127065   0.811   2.237   9.727  1.4512  2.1904  2.3127
 5143SOL    HW227066   0.940   2.165   9.693 -0.1006 -0.5025 -1.0260
 5144SOL     OW27067   3.301   1.070  17.165  0.3569  0.3367  0.0444
 5144SOL    HW127068   3.243   1.054  17.239  1.2145  1.7167  1.0070
 5144SOL    HW227069   3.258   1.141  17.116  0.2511  1.1119  1.2555
 5145SOL     OW27070   4.517   3.717   6.904  0.7878  0.2578  0.3608
 5145SOL    HW127071   4.428   3.722   6.869  1.0848  0.2732 -0.3928
 5145SOL    HW227072   4.494   3.743   6.993  2.8475 -0.9215  1.2463
 5146SOL     OW27073   2.441   0.664   4.735 -0.1444  0.4355  0.3334
 5146SOL    HW127074   2.380   0.736   4.753 -1.8169 -0.6956 -0.8698
 5146SOL    HW227075   2.385   0.595   4.700  0.4053  0.6629 -1.0080
 5147SOL     OW27076   0.433   4.115   1.901  0.1207 -0.7871 -0.4447
 5147SOL    HW127077   0.450   4.152   1.814  1.7798 -0.9714 -0.1984
 5147SOL    HW227078   0.338   4.123   1.900  0.3073  1.8911  0.6804
 5148SOL     OW27079   0.943   3.924   6.812  0.6303 -0.3962  0.3836
 5148SOL    HW127080   0.890   3.885   6.881 -1.2621 -1.1090 -1.4664
 5148SOL    HW227081   0.864   3.932   6.758  0.8051 -2.1012 -0.1238
 5149SOL     OW27082   0.011   3.530   3.884 -0.2181 -0.4740  0.2302
 5149SOL    HW127083   0.078   3.588   3.849 -3.3880  2.4412 -1.0960
 5149SOL    HW227084   4.677   3.553   3.822  0.4880 -0.0342 -0.4077
 5150SOL     OW27085   2.556   1.849  15.690  0.0205  0.1461  0.4596
 5150SOL    HW127086   2.545   1.932  15.645  1.4470 -0.5916 -1.2711
 5150SOL    HW227087   2.492   1.798  15.639  0.4820  1.4579 -1.4296
 5151SOL     OW27088   2.698   1.725  11.535 -0.2208 -0.1971 -0.1089
 5151SOL    HW127089   2.728   1.691  11.619  1.0486  0.9124 -0.1140
 5151SOL    HW227090   2.679   1.815  11.562 -0.7801 -0.2510 -0.3203
 5152SOL     OW27091   1.164   2.461   2.088 -0.5278  0.2199  0.1165
 5152SOL    HW127092   1.090   2.401   2.100  0.0565 -0.7188 -0.8839
 5152SOL    HW227093   1.184   2.504   2.171  3.9251 -1.2923 -0.1352
 5153SOL     OW27094   4.482   3.286   4.995  0.1716 -0.7174 -0.3212
 5153SOL    HW127095   4.446   3.356   4.939 -0.6962 -1.5621 -0.8195
 5153SOL    HW227096   4.441   3.210   4.954 -2.9264  0.7379  0.1345
 5154SOL     OW27097   0.821   0.523   8.258 -0.2513 -0.2930  0.1000
 5154SOL    HW127098   0.833   0.497   8.167 -1.8101 -0.1640 -0.1433
 5154SOL    HW227099   0.736   0.564   8.243 -1.1054 -2.6105 -1.3977
 5155SOL     OW27100   3.561   1.042   3.019  0.5803 -0.2187  0.2494
 5155SOL    HW127101   3.494   1.070   2.957 -0.0646  0.2957  1.1786
 5155SOL    HW227102   3.639   1.046   2.964  1.5058  2.2154  1.7258
 5156SOL     OW27103   4.478   3.313   9.735  0.1020 -0.2965  0.1660
 5156SOL    HW127104   4.389   3.341   9.752  0.1010 -0.7474  0.9112
 5156SOL    HW227105   4.480   3.294   9.641  2.0726  0.2045  0.0954
 5157SOL     OW27106   2.397   1.609   6.602  0.1379 -0.2146 -0.0614
 5157SOL    HW127107   2.372   1.517   6.612 -0.5022 -0.1291 -0.9246
 5157SOL    HW227108   2.351   1.613   6.518 -1.9847 -1.5222  1.0183
 5158SOL     OW27109   1.316   2.147   6.563  0.4291  0.3307 -0.5332
 5158SOL    HW127110   1.407   2.172   6.545  0.4379 -0.2000 -1.2186
 5158SOL    HW227111   1.336   2.058   6.592 -0.6798  0.8210  1.7574
 5159SOL     OW27112   2.687   0.638  15.351 -0.7383  0.1465 -0.2474
 5159SOL    HW127113   2.700   0.639  15.446 -0.1887  1.0636 -0.3274
 5159SOL    HW227114   2.606   0.587  15.354 -2.4249  2.9340  1.2946
 5160SOL     OW27115   1.990   3.013   2.645  0.0755 -0.3293  0.5754
 5160SOL    HW127116   1.965   3.049   2.730 -2.7454 -0.8849 -0.0331
 5160SOL    HW227117   2.058   3.073   2.615 -0.4182  0.3028  0.7277
 5161SOL     OW27118   3.242   3.436  15.504  0.1741 -0.1678 -0.1425
 5161SOL    HW127119   3.267   3.433  15.596  0.3727  1.8503 -0.1381
 5161SOL    HW227120   3.146   3.437  15.510  0.2369  0.2190  0.7779
 5162SOL     OW27121   3.984   2.564   9.299  1.1505  0.1606 -0.3068
 5162SOL    HW127122   3.924   2.628   9.336 -1.1274 -1.5283 -1.0423
 5162SOL    HW227123   4.001   2.504   9.372 -1.0423  0.8190  0.7367
 5163SOL     OW27124   2.323   4.392   2.391  0.3146 -0.0752 -0.0159
 5163SOL    HW127125   2.246   4.338   2.377 -0.8013  0.9482  2.1518
 5163SOL    HW227126   2.369   4.341   2.458  0.8057  0.8598  0.3636
 5164SOL     OW27127   0.555   4.595   2.728 -0.1303 -0.2572 -0.0237
 5164SOL    HW127128   0.616   4.667   2.713 -1.6311  1.5142  2.3501
 5164SOL    HW227129   0.569   4.525   2.664  0.1094  1.8836 -2.3330
 5165SOL     OW27130   2.319   1.537   5.645  0.6145  0.3906  0.0750
 5165SOL    HW127131   2.358   1.475   5.582  4.8374  1.1759  1.9258
 5165SOL    HW227132   2.341   1.497   5.730 -1.9737 -1.1506  0.0131
 5166SOL     OW27133   1.237   3.933   6.801 -0.3032  0.2247  0.4093
 5166SOL    HW127134   1.228   3.911   6.709 -1.3578  0.2539  0.5091
 5166SOL    HW227135   1.143   3.940   6.821 -0.3525  1.5473 -0.2805
 5167SOL     OW27136   1.079   4.430   8.770  0.7124  0.2777 -0.3693
 5167SOL    HW127137   1.053   4.489   8.841 -1.2099 -0.0577 -0.7936
 5167SOL    HW227138   1.093   4.348   8.818 -1.9034 -0.6608 -1.1680
 5168SOL     OW27139   0.259   4.444   4.164  0.0609 -0.0995  0.0171
 5168SOL    HW127140   0.203   4.519   4.144 -0.9414 -1.2790 -1.6095
 5168SOL    HW227141   0.222   4.432   4.252 -0.6602 -2.7037 -0.6517
 5169SOL     OW27142   0.993   2.527  17.142  0.0045 -0.0303 -0.9298
 5169SOL    HW127143   1.071   2.580  17.154 -0.6614  0.5869  0.7227
 5169SOL    HW227144   0.921   2.572  17.188  0.2120  1.2368 -1.8648
 5170SOL     OW27145   4.627   2.964   3.667 -1.0407  0.7682 -0.5198
 5170SOL    HW127146   4.590   2.913   3.595  0.8242  0.8959 -1.5685
 5170SOL    HW227147   4.690   2.905   3.709 -1.3293  1.4366  0.8528
 5171SOL     OW27148   3.257   3.651   5.691 -0.2539 -0.2270 -0.3343
 5171SOL    HW127149   3.237   3.598   5.614  3.3773  2.9683 -3.4957
 5171SOL    HW227150   3.239   3.588   5.760  0.3773 -0.6184 -0.5293
 5172SOL     OW27151   1.605   3.931  16.105  0.0261  0.5619  0.3261
 5172SOL    HW127152   1.527   3.968  16.147  0.0513 -0.2801  1.1325
 5172SOL    HW227153   1.603   3.972  16.019 -0.5551 -0.2445 -0.0531
 5173SOL     OW27154   4.532   0.110   3.856 -0.0166  0.4656  0.3383
 5173SOL    HW127155   4.616   0.153   3.867  1.7356 -2.6986 -0.6660
 5173SOL    HW227156   4.531   0.059   3.938 -0.2131 -1.1787 -0.6801
 5174SOL     OW27157   2.424   0.286   4.085  0.0952 -0.3080  0.1587
 5174SOL    HW127158   2.369   0.239   4.147 -1.3054  1.3091  0.1588
 5174SOL    HW227159   2.432   0.239   4.002 -2.3640 -1.5459  0.6092
 5175SOL     OW27160   3.817   2.875   4.401  0.0590 -0.0508 -0.1174
 5175SOL    HW127161   3.883   2.935   4.436  0.1633 -0.5885  0.6095
 5175SOL    HW227162   3.763   2.854   4.477 -0.4144 -2.8270 -1.2448
 5176SOL     OW27163   0.305   1.481  16.660  0.0053 -0.2950 -0.4737
 5176SOL    HW127164   0.226   1.451  16.614 -0.8727  1.8408 -0.3306
 5176SOL    HW227165   0.266   1.536  16.728  3.1189  0.2885  0.8207
 5177SOL     OW27166   4.658   0.974   1.606 -0.2509 -0.1577  0.8203
 5177SOL    HW127167   0.003   1.022   1.595  0.8318 -1.8054  1.6052
 5177SOL    HW227168   4.628   0.971   1.515  3.1791 -2.2722 -0.2494
 5178SOL     OW27169   2.494   0.565   1.735  0.1614  0.2551  0.1132
 5178SOL    HW127170   2.529   0.530   1.817 -2.6110  0.4405  1.3691
 5178SOL    HW227171   2.425   0.504   1.708  0.9368 -0.8684  0.6588
 5179SOL     OW27172   1.028   4.211  15.249 -0.4136 -0.0810  0.7744
 5179SOL    HW127173   0.995   4.202  15.160 -0.9592 -1.0313  1.0830
 5179SOL    HW227174   1.073   4.127  15.255  0.2959  0.4454  3.0022
 5180SOL     OW27175   1.375   0.588  17.335  0.5025  0.3552 -0.2927
 5180SOL    HW127176   1.340   0.662  17.285 -0.2549 -0.2793 -0.7026
 5180SOL    HW227177   1.300   0.557  17.386  1.0583 -0.7886 -0.1718
 5181SOL     OW27178   2.878   2.004   3.310 -0.0280  0.4154 -0.1773
 5181SOL    HW127179   2.904   1.959   3.391  3.5580  0.0619 -1.5136
 5181SOL    HW227180   2.786   2.025   3.326  0.1657  0.0516  1.3550
 5182SOL     OW27181   2.397   1.282  12.679  0.6676 -0.7193 -0.3095
 5182SOL    HW127182   2.418   1.374  12.695 -1.7052 -0.2645  0.1344
 5182SOL    HW227183   2.391   1.298  12.584 -0.2169  1.8393  0.1740
 5183SOL     OW27184   4.519   0.168   6.730  0.6034 -0.3222  0.0323
 5183SOL    HW127185   4.515   0.129   6.817  0.5141  2.2241  1.1758
 5183SOL    HW227186   4.461   0.105   6.686  0.1650  1.2926 -1.6841
 5184SOL     OW27187   4.552   1.862   6.436 -0.2702  0.3904  0.3421
 5184SOL    HW127188   4.604   1.828   6.509  1.8766 -0.7380 -1.7181
 5184SOL    HW227189   4.621   1.871   6.371 -0.3065  1.0027  0.3874
 5185SOL     OW27190   0.575   1.506  12.342  0.0634 -0.0356 -0.2606
 5185SOL    HW127191   0.598   1.509  12.435  0.4555 -0.1527 -0.3513
 5185SOL    HW227192   0.627   1.428  12.321  0.6827 -0.1022  1.4940
 5186SOL     OW27193   4.236   0.048   8.160 -0.2726  0.4318  0.1476
 5186SOL    HW127194   4.294   0.044   8.236  1.3276 -0.8967 -1.1225
 5186SOL    HW227195   4.303   0.055   8.092 -0.5482  0.3881 -0.1296
 5187SOL     OW27196   1.822   3.773   1.505  0.0091 -0.3414  0.2616
 5187SOL    HW127197   1.752   3.762   1.440  0.3628 -2.6554  0.2396
 5187SOL    HW227198   1.813   3.697   1.563  0.6281  1.5275  2.7634
 5188SOL     OW27199   3.303   0.755   3.368 -0.5365  0.0842 -0.0685
 5188SOL    HW127200   3.366   0.823   3.346 -0.1634  0.0280  0.8510
 5188SOL    HW227201   3.266   0.747   3.280 -2.1938 -0.9090  0.7291
 5189SOL     OW27202   0.552   0.055   6.278  0.3219  0.1885 -0.5694
 5189SOL    HW127203   0.642   0.077   6.252  0.4596  2.2805  1.7734
 5189SOL    HW227204   0.547   0.028   6.369 -2.0782 -2.2561 -1.4202
 5190SOL     OW27205   0.740   1.602   2.149  0.3230 -0.5061 -0.0791
 5190SOL    HW127206   0.734   1.556   2.233  0.7631 -0.6640 -0.1357
 5190SOL    HW227207   0.655   1.587   2.107  0.2771 -0.5828  0.0404
 5191SOL     OW27208   1.460   0.812   0.140 -0.0057  0.2127 -0.5044
 5191SOL    HW127209   1.417   0.728   0.122  0.6911 -0.1248 -0.5678
 5191SOL    HW227210   1.414   0.885   0.097 -1.9248 -0.6673  0.0645
 5192SOL     OW27211   2.917   1.687   4.327 -0.6427 -0.7513  0.2700
 5192SOL    HW127212   2.835   1.658   4.287 -0.4339  0.6438 -1.1813
 5192SOL    HW227213   2.918   1.781   4.312 -2.8845 -0.5511  1.4749
 5193SOL     OW27214   0.900   2.665  10.080  0.6511  0.5886 -0.0423
 5193SOL    HW127215   0.847   2.732  10.036 -1.8207 -1.6518 -0.4728
 5193SOL    HW227216   0.967   2.645  10.014  0.9662  3.4660 -0.6093
 5194SOL     OW27217   4.393   0.034   7.304  0.3308  0.2437  0.1360
 5194SOL    HW127218   4.327   4.731   7.360 -1.5025  2.4628 -0.4805
 5194SOL    HW227219   4.332   0.101   7.272  1.8141  1.9938  0.9676
 5195SOL     OW27220   4.208   0.312   8.756  1.0411 -0.2513 -0.2509
 5195SOL    HW127221   4.297   0.287   8.779  1.2884  1.3992  0.5208
 5195SOL    HW227222   4.224   0.406   8.748  0.2507 -0.3673 -3.2759
 5196SOL     OW27223   0.289   1.894   4.181 -0.0079 -0.5360 -0.5111
 5196SOL    HW127224   0.296   1.803   4.209  1.7545 -0.0170  0.7229
 5196SOL    HW227225   0.213   1.923   4.232 -1.2650  0.8017 -3.1266
 5197SOL     OW27226   2.772   3.663  10.296  0.1871  0.6046 -0.8096
 5197SOL    HW127227   2.789   3.698  10.209  2.3977 -0.7398 -0.9035
 5197SOL    HW227228   2.852   3.668  10.348 -1.1896 -1.7608  1.5767
 5198SOL     OW27229   3.239   3.472   5.892 -0.2629 -0.2925  0.0395
 5198SOL    HW127230   3.190   3.391   5.878 -1.3560  0.5640 -1.1574
 5198SOL    HW227231   3.270   3.470   5.982 -0.9840  0.0996  0.3008
 5199SOL     OW27232   1.501   1.730  14.880  0.3357  0.9340 -0.2077
 5199SOL    HW127233   1.458   1.659  14.832  2.4760 -1.5051  1.4771
 5199SOL    HW227234   1.524   1.696  14.966  1.5086 -0.9260 -1.2495
 5200SOL     OW27235   0.145   3.065   3.842  1.1341 -0.3892  0.4260
 5200SOL    HW127236   0.103   3.085   3.926 -3.2039 -2.5590 -1.1805
 5200SOL    HW227237   0.088   3.114   3.783 -1.1790 -1.2129  1.9596
 5201SOL     OW27238   3.110   2.732   6.969  0.2777 -0.3506 -0.4643
 5201SOL    HW127239   3.128   2.765   6.882  2.5291  0.9571  0.4920
 5201SOL    HW227240   3.037   2.788   6.995  0.7968 -1.1735  2.7863
 5202SOL     OW27241   3.671   3.921   4.429  0.4948 -0.0948 -0.3291
 5202SOL    HW127242   3.593   3.874   4.401  0.9224 -0.3563 -1.0870
 5202SOL    HW227243   3.648   4.006   4.390  0.9809  0.3998  0.4518
 5203SOL     OW27244   0.414   1.191   6.214 -0.1389 -0.4072  0.0197
 5203SOL    HW127245   0.418   1.103   6.176 -2.5390 -0.3230 -0.4178
 5203SOL    HW227246   0.477   1.242   6.162  0.2689  0.7211  1.6396
 5204SOL     OW27247   2.866   3.141  16.924 -0.2985  0.0370  0.4891
 5204SOL    HW127248   2.868   3.099  17.011 -1.7116  0.7742  0.8802
 5204SOL    HW227249   2.801   3.211  16.928  1.3737  1.6681 -1.2737
 5205SOL     OW27250   1.109   3.524  11.226 -0.0080 -0.1857  0.3518
 5205SOL    HW127251   1.102   3.459  11.156 -2.9043  0.8005 -0.2797
 5205SOL    HW227252   1.198   3.515  11.260  0.2587  0.7758 -0.1049
 5206SOL     OW27253   0.255   0.727  17.010  0.2018  0.5711 -0.8067
 5206SOL    HW127254   0.282   0.646  16.967 -1.1853  0.1943 -0.9504
 5206SOL    HW227255   0.216   0.698  17.092  2.8622 -2.2277 -0.5349
 5207SOL     OW27256   2.692   0.958   2.634 -0.1326 -0.3842 -0.1173
 5207SOL    HW127257   2.781   0.943   2.602 -0.2053 -0.2082 -0.4059
 5207SOL    HW227258   2.687   0.895   2.706  1.0968  0.2491  0.5361
 5208SOL     OW27259   0.387   1.711  12.273 -0.1483  0.0641  0.9949
 5208SOL    HW127260   0.415   1.793  12.314 -1.2507  0.0180  1.8226
 5208SOL    HW227261   0.464   1.656  12.286 -0.2902  0.1137  2.0397
 5209SOL     OW27262   4.702   0.065   7.759  0.1361  0.0442 -0.1350
 5209SOL    HW127263   4.682   0.094   7.670  1.1091  0.4145 -0.2286
 5209SOL    HW227264   4.615   0.048   7.794  0.3242 -0.0949  0.2704
 5210SOL     OW27265   3.644   0.402  13.168 -0.1100 -0.0186  0.0505
 5210SOL    HW127266   3.561   0.369  13.132  1.0366 -0.8732 -1.7953
 5210SOL    HW227267   3.625   0.495  13.174  1.9033  0.3600  0.3620
 5211SOL     OW27268   3.205   2.384   7.366 -0.1467 -0.7556 -1.1147
 5211SOL    HW127269   3.201   2.353   7.457  1.9016  1.3712 -0.3080
 5211SOL    HW227270   3.223   2.300   7.324  2.9837 -0.1462 -0.9720
 5212SOL     OW27271   4.344   0.893  13.903 -0.3969 -0.5542  0.3349
 5212SOL    HW127272   4.384   0.980  13.907 -1.7655  0.1902 -1.9854
 5212SOL    HW227273   4.412   0.841  13.859 -1.4962 -2.2683  0.6636
 5213SOL     OW27274   1.738   1.569  13.443 -0.0666  0.1006  0.0342
 5213SOL    HW127275   1.727   1.561  13.349  0.3307 -0.4903  0.0378
 5213SOL    HW227276   1.704   1.659  13.445 -1.4646 -0.4507  1.4871
 5214SOL     OW27277   4.202   2.601   4.245  0.1530  0.0662  0.6490
 5214SOL    HW127278   4.184   2.658   4.319  1.2787  2.1689 -0.6754
 5214SOL    HW227279   4.160   2.644   4.170 -0.8404 -0.7535  0.7351
 5215SOL     OW27280   2.728   3.071   5.787  0.0423 -0.3155 -0.2001
 5215SOL    HW127281   2.648   3.039   5.746 -0.2253  0.0791  0.0021
 5215SOL    HW227282   2.693   3.159   5.805  0.2677 -0.3700  0.5189
 5216SOL     OW27283   1.813   0.328  16.298 -0.3894 -0.5202 -0.0334
 5216SOL    HW127284   1.851   0.410  16.267  0.7486 -0.5918  1.1458
 5216SOL    HW227285   1.888   0.282  16.334 -0.2091 -0.6645 -0.5990
 5217SOL     OW27286   1.327   2.553  14.852 -0.3958 -0.1838  0.2441
 5217SOL    HW127287   1.269   2.481  14.877 -0.6095  0.4419  1.5208
 5217SOL    HW227288   1.328   2.541  14.757 -0.6193 -2.6419  0.5492
 5218SOL     OW27289   1.873   1.256  17.101 -0.3558 -0.9340  0.4318
 5218SOL    HW127290   1.800   1.265  17.163 -2.2596 -0.8114 -1.8159
 5218SOL    HW227291   1.827   1.188  17.052  0.4111 -1.0832 -0.0689
 5219SOL     OW27292   3.160   0.172  15.054 -0.3583  0.6318  0.5006
 5219SOL    HW127293   3.220   0.117  15.003  0.0103  0.2059  1.4010
 5219SOL    HW227294   3.217   0.245  15.076 -0.8714  1.6810 -1.6536
 5220SOL     OW27295   0.669   3.183  11.911 -0.4163  0.0812 -0.2615
 5220SOL    HW127296   0.662   3.266  11.957 -0.6072 -0.7890  1.2867
 5220SOL    HW227297   0.756   3.202  11.876  0.0165 -0.0867  0.7253
 5221SOL     OW27298   0.436   2.834   5.275 -0.4337 -1.0767  0.6659
 5221SOL    HW127299   0.437   2.867   5.185  0.6832 -2.3490  0.2177
 5221SOL    HW227300   0.348   2.799   5.292 -1.1344  0.4625  0.1618
 5222SOL     OW27301   2.195   1.888   3.187 -0.0823  0.0367 -0.1330
 5222SOL    HW127302   2.185   1.887   3.092 -1.5751  0.6509  0.0064
 5222SOL    HW227303   2.211   1.798   3.212 -1.0866 -0.0235  0.3053
 5223SOL     OW27304   1.831   2.218   0.137 -0.3796  0.0582 -0.0321
 5223SOL    HW127305   1.815   2.143   0.080  1.9264  1.1221 -2.0968
 5223SOL    HW227306   1.899   2.262   0.086  0.8408 -0.2645  1.2751
 5224SOL     OW27307   1.369   1.119  12.759 -0.8168 -0.1976 -0.8823
 5224SOL    HW127308   1.374   1.024  12.769  0.4075 -0.1183 -0.7094
 5224SOL    HW227309   1.435   1.143  12.824 -2.2522  0.4628  0.3113
 5225SOL     OW27310   4.356   3.358   2.214  0.1325  0.2136  0.0379
 5225SOL    HW127311   4.396   3.281   2.255 -1.2897 -1.5669 -1.9139
 5225SOL    HW227312   4.376   3.420   2.285  0.1258 -1.0187  1.1076
 5226SOL     OW27313   1.513   1.287   6.627  0.2476 -0.2083 -0.4637
 5226SOL    HW127314   1.483   1.220   6.566  0.2495 -0.2222 -0.4492
 5226SOL    HW227315   1.591   1.237   6.650  1.0587  0.9394 -0.7206
 5227SOL     OW27316   4.006   3.257  13.268 -0.1411  0.4128  0.9064
 5227SOL    HW127317   3.947   3.313  13.319 -0.3642  0.7993  0.2321
 5227SOL    HW227318   3.964   3.172  13.283 -2.2927  0.8766 -2.3721
 5228SOL     OW27319   3.398   2.012   8.111 -0.6331 -0.3693 -0.7456
 5228SOL    HW127320   3.306   1.995   8.133 -0.8127  2.0474  0.3576
 5228SOL    HW227321   3.385   2.098   8.073  1.3770 -0.1888 -1.0002
 5229SOL     OW27322   4.682   0.544   2.871  0.2427  0.2361 -0.3856
 5229SOL    HW127323   4.715   0.560   2.782  1.9279 -1.8999 -0.1538
 5229SOL    HW227324   4.616   0.613   2.872 -0.2271 -0.2323  0.8402
 5230SOL     OW27325   4.216   0.314  15.436  0.1897 -0.2870 -0.0379
 5230SOL    HW127326   4.286   0.372  15.463 -0.2031  0.7375 -1.1812
 5230SOL    HW227327   4.150   0.384  15.432  0.2932 -0.0956  1.6265
 5231SOL     OW27328   2.990   4.030   4.844 -0.7302 -0.0749  0.2881
 5231SOL    HW127329   2.992   4.116   4.886  0.9140 -0.5954  1.2721
 5231SOL    HW227330   3.036   3.972   4.904 -0.9028 -0.1563  0.3396
 5232SOL     OW27331   0.287   3.900   1.734 -0.1230  0.0839  0.0539
 5232SOL    HW127332   0.377   3.932   1.746 -0.6650  2.1294 -1.3530
 5232SOL    HW227333   0.242   3.983   1.747  2.2529  1.1693  1.4808
 5233SOL     OW27334   1.576   0.720   1.533  0.2513 -0.4050  0.1956
 5233SOL    HW127335   1.649   0.660   1.518  1.5039  0.9262  1.0093
 5233SOL    HW227336   1.619   0.771   1.601 -0.7916  0.6684  0.0512
 5234SOL     OW27337   0.425   2.792   9.768  0.0033 -0.0632 -0.1097
 5234SOL    HW127338   0.493   2.729   9.744  0.1685  0.5930 -1.3700
 5234SOL    HW227339   0.477   2.872   9.771 -0.8524  0.4057  2.1489
 5235SOL     OW27340   2.057   2.463   2.819 -0.1109  0.3666 -0.3313
 5235SOL    HW127341   1.982   2.403   2.812  0.2340  0.2400 -2.8265
 5235SOL    HW227342   2.039   2.522   2.746  0.8455 -1.2862 -1.8997
 5236SOL     OW27343   0.720   3.317  15.847  0.2888  0.4039  0.5908
 5236SOL    HW127344   0.806   3.277  15.833 -0.8135 -1.3444 -1.2508
 5236SOL    HW227345   0.661   3.259  15.799  0.5271  2.0746 -1.7598
 5237SOL     OW27346   1.471   2.105  15.912  0.1330  0.2964  0.0716
 5237SOL    HW127347   1.386   2.127  15.951 -0.3760 -2.1831  0.3889
 5237SOL    HW227348   1.512   2.191  15.907  0.3580  0.0479 -2.2472
 5238SOL     OW27349   1.180   1.189   8.048  0.0292  0.0548  0.6065
 5238SOL    HW127350   1.188   1.280   8.022  0.9858  0.5509  2.6054
 5238SOL    HW227351   1.266   1.180   8.091  0.2326  1.8433  0.5728
 5239SOL     OW27352   0.119   1.349  16.915  0.4828 -0.1880  0.4351
 5239SOL    HW127353   0.162   1.431  16.940 -1.1981  1.2603 -1.3927
 5239SOL    HW227354   0.188   1.308  16.863  1.8075  1.4555  0.9048
 5240SOL     OW27355   1.074   3.326  11.008 -0.1731  0.3475  0.2289
 5240SOL    HW127356   1.013   3.376  10.952  1.7602  2.6565  0.1688
 5240SOL    HW227357   1.135   3.290  10.944 -1.6421 -0.0944 -0.9252
 5241SOL     OW27358   1.390   4.263  17.455  0.2698  0.7822 -0.7289
 5241SOL    HW127359   1.411   4.300  17.540 -2.3477  1.8319 -0.5567
 5241SOL    HW227360   1.471   4.288  17.410  0.9797  0.9872  0.6771
 5242SOL     OW27361   3.898   1.638  15.533  0.1830 -0.2035 -0.5999
 5242SOL    HW127362   3.865   1.552  15.507 -1.6575  0.1216  0.6408
 5242SOL    HW227363   3.820   1.680  15.570 -1.1709 -3.8942  0.6899
 5243SOL     OW27364   1.707   0.637   6.479  0.2847  0.5793 -0.1131
 5243SOL    HW127365   1.720   0.719   6.525  0.0691  0.9019 -0.6280
 5243SOL    HW227366   1.707   0.667   6.388  1.0864 -0.0345 -0.3189
 5244SOL     OW27367   2.982   3.184  14.085  0.2486  0.0555  0.1205
 5244SOL    HW127368   3.065   3.189  14.039 -0.2139  0.3738 -0.6689
 5244SOL    HW227369   2.944   3.114  14.031 -0.8023 -0.9323  2.1138
 5245SOL     OW27370   4.594   4.713   5.862  0.0377  0.0031 -0.1527
 5245SOL    HW127371   4.649   4.639   5.888 -0.7845 -0.6762 -0.3268
 5245SOL    HW227372   4.609   4.707   5.768 -2.2616 -1.2131 -0.4565
 5246SOL     OW27373   1.496   1.979  16.553  0.3552 -0.4048  0.0497
 5246SOL    HW127374   1.584   2.017  16.546 -1.2847  3.5080  0.2660
 5246SOL    HW227375   1.453   2.062  16.576 -0.6730 -0.9884  0.2231
 5247SOL     OW27376   2.988   0.252   5.912  0.3554 -0.5774 -0.0855
 5247SOL    HW127377   3.060   0.314   5.921  0.7119 -0.9467 -0.3784
 5247SOL    HW227378   2.981   0.252   5.817 -0.3809 -3.0431 -0.0306
 5248SOL     OW27379   0.732   4.548   4.815  0.0711 -0.3748  1.0906
 5248SOL    HW127380   0.797   4.618   4.820  0.6643 -0.8612  0.1328
 5248SOL    HW227381   0.693   4.578   4.733 -0.2408  0.0668  1.4080
 5249SOL     OW27382   1.536   2.069   2.089  0.1077 -0.0978  0.3667
 5249SOL    HW127383   1.601   2.097   2.153 -0.2001 -0.5084  0.8624
 5249SOL    HW227384   1.565   2.121   2.014 -1.5304  1.6100  0.9131
 5250SOL     OW27385   0.631   1.498  12.606 -0.4833 -0.2252 -0.1667
 5250SOL    HW127386   0.644   1.582  12.651  1.3226 -0.1124 -0.8965
 5250SOL    HW227387   0.651   1.433  12.672  1.0236  1.9274  1.5148
 5251SOL     OW27388   3.633   0.183   5.928  1.1943  0.6137 -0.1936
 5251SOL    HW127389   3.553   0.232   5.947  0.7811  0.5762 -1.8082
 5251SOL    HW227390   3.643   0.184   5.832  0.6738 -2.0268 -0.2618
 5252SOL     OW27391   2.060   4.320   9.901  0.5240  0.8406 -0.0913
 5252SOL    HW127392   1.976   4.283   9.927  1.6778 -0.4510  1.7335
 5252SOL    HW227393   2.039   4.357   9.815  2.7216 -0.6852 -1.3034
 5253SOL     OW27394   3.319   0.907   7.624 -0.5851  0.3540  0.0156
 5253SOL    HW127395   3.228   0.903   7.654 -0.6181 -1.5219 -0.3171
 5253SOL    HW227396   3.365   0.963   7.687  0.2185  0.9601 -1.0983
 5254SOL     OW27397   3.558   0.807   3.682  0.2132  0.2955  0.4732
 5254SOL    HW127398   3.604   0.847   3.756 -1.7758  1.5937  1.0146
 5254SOL    HW227399   3.515   0.884   3.644  0.4797  0.8559  1.2992
 5255SOL     OW27400   1.268   1.070   7.592  0.7316 -0.4508 -0.5968
 5255SOL    HW127401   1.270   1.099   7.683 -1.7023 -0.1953 -0.6465
 5255SOL    HW227402   1.332   1.128   7.550 -0.1224 -0.2566 -1.6405
 5256SOL     OW27403   0.984   1.818   6.135 -0.3533  0.3965 -0.5360
 5256SOL    HW127404   0.959   1.909   6.151 -1.5328  0.2451 -1.5222
 5256SOL    HW227405   1.035   1.835   6.055 -0.3779  0.9211 -0.4368
 5257SOL     OW27406   2.428   0.095   7.161 -0.3971  0.1418  1.1695
 5257SOL    HW127407   2.422   0.036   7.236 -2.2108 -0.0193  0.9074
 5257SOL    HW227408   2.409   0.174   7.212 -0.8970  1.2490 -0.7499
 5258SOL     OW27409   0.888   2.038   2.701 -0.5739 -0.4777 -0.1146
 5258SOL    HW127410   0.878   2.103   2.771  0.7509  1.9356 -2.1313
 5258SOL    HW227411   0.887   1.956   2.750 -0.7631  0.0208  0.7176
 5259SOL     OW27412   3.060   3.989  11.685  0.0116  0.2484 -0.3627
 5259SOL    HW127413   2.995   3.928  11.649 -0.0554 -0.0231  0.2179
 5259SOL    HW227414   3.056   3.966  11.778 -1.9899 -0.5908 -0.6586
 5260SOL     OW27415   3.842   2.655  10.833  0.3274 -0.2563 -0.4183
 5260SOL    HW127416   3.765   2.710  10.845 -0.1303 -0.5348 -2.0001
 5260SOL    HW227417   3.910   2.691  10.889  0.1316 -0.6303  0.0624
 5261SOL     OW27418   3.009   1.273   2.020  0.2367  0.2395 -0.3323
 5261SOL    HW127419   2.956   1.239   2.092  0.8373 -2.0223 -0.9457
 5261SOL    HW227420   2.972   1.361   2.011  0.7803  0.3934 -1.1215
 5262SOL     OW27421   1.591   2.133   7.613 -0.0454 -0.7016  0.3731
 5262SOL    HW127422   1.651   2.201   7.583  2.2962 -2.5437  0.8877
 5262SOL    HW227423   1.510   2.182   7.626  0.6139 -0.1864  2.4325
 5263SOL     OW27424   1.623   3.434   3.435  0.3390  0.7133  0.0025
 5263SOL    HW127425   1.665   3.520   3.435  0.0238  0.8601  1.6158
 5263SOL    HW227426   1.684   3.394   3.497 -0.1537  1.2200  0.8148
 5264SOL     OW27427   2.537   3.158   5.483 -0.0774  0.7982 -0.4920
 5264SOL    HW127428   2.540   3.246   5.519  0.2032  0.4613  0.3088
 5264SOL    HW227429   2.515   3.171   5.391  0.0195  0.2764 -0.5909
 5265SOL     OW27430   0.176   3.944   3.900 -0.0998 -0.3499  0.4964
 5265SOL    HW127431   0.180   3.875   3.834 -1.2930 -0.8197  0.9201
 5265SOL    HW227432   0.084   3.946   3.924  0.0379  0.0677  0.9966
 5266SOL     OW27433   4.284   0.536   7.502 -0.0725  0.0804 -0.5068
 5266SOL    HW127434   4.232   0.575   7.572  1.2403 -1.2689  1.2064
 5266SOL    HW227435   4.245   0.583   7.429  1.5897 -2.0247 -2.7451
 5267SOL     OW27436   2.867   4.392   8.904  0.4984  0.2605 -0.4677
 5267SOL    HW127437   2.823   4.402   8.819  3.1452  0.8255 -1.7737
 5267SOL    HW227438   2.912   4.475   8.919 -1.2202  1.3783 -1.5037
 5268SOL     OW27439   3.267   2.687   6.112  1.0708  0.0641 -0.6487
 5268SOL    HW127440   3.270   2.706   6.019  0.8855  1.9977 -0.2592
 5268SOL    HW227441   3.318   2.607   6.123 -0.8309 -0.9411  0.7942
 5269SOL     OW27442   4.731   0.235   1.876 -0.5224  0.1809  0.0590
 5269SOL    HW127443   4.671   0.259   1.947  0.0604 -0.1006  0.6428
 5269SOL    HW227444   4.672   0.210   1.805  0.8577 -3.1392  0.0770
 5270SOL     OW27445   3.433   3.086   5.162  0.6123  0.2698 -0.1854
 5270SOL    HW127446   3.366   3.042   5.110  0.9770  0.0552 -0.4763
 5270SOL    HW227447   3.506   3.100   5.101  0.9071 -0.7710 -0.0699
 5271SOL     OW27448   2.307   3.681   9.252 -0.0994  0.3498 -0.0170
 5271SOL    HW127449   2.358   3.600   9.260 -2.0474 -0.8282  0.3987
 5271SOL    HW227450   2.346   3.726   9.177 -2.1179 -0.4328 -1.5323
 5272SOL     OW27451   3.498   4.348   7.742 -0.6271  0.4468  0.1683
 5272SOL    HW127452   3.500   4.307   7.828 -1.9652  1.9691  0.9437
 5272SOL    HW227453   3.488   4.439   7.770 -3.0498  0.4551 -0.7456
 5273SOL     OW27454   1.260   0.371   8.590 -0.1311  0.2154  0.2774
 5273SOL    HW127455   1.252   0.337   8.501  0.3811  0.2115  0.2321
 5273SOL    HW227456   1.261   0.292   8.645  0.3055  1.7311  2.4601
 5274SOL     OW27457   4.332   1.785   4.497  0.3534 -0.0370  0.0236
 5274SOL    HW127458   4.303   1.857   4.441 -1.2253  0.8859  2.0343
 5274SOL    HW227459   4.258   1.725   4.494  0.5333 -0.3361  1.4915
 5275SOL     OW27460   1.928   2.658  16.786 -0.4053 -0.1276  0.2735
 5275SOL    HW127461   1.851   2.643  16.732 -0.2222 -0.3364  0.0692
 5275SOL    HW227462   1.965   2.740  16.752  1.7543 -1.8164 -1.4418
 5276SOL     OW27463   4.296   1.700   7.609  0.0523  0.3226 -0.2205
 5276SOL    HW127464   4.323   1.629   7.668  1.2735  0.5937 -0.4721
 5276SOL    HW227465   4.378   1.726   7.569  0.4201  0.7649  0.8224
 5277SOL     OW27466   3.375   0.166   4.511  0.4994 -0.2472  0.2157
 5277SOL    HW127467   3.406   0.153   4.600  2.1048  0.7146 -0.1956
 5277SOL    HW227468   3.428   0.093   4.477  0.6311  0.2283 -0.6122
 5278SOL     OW27469   3.172   1.522   7.530 -0.1823 -0.4402 -0.1281
 5278SOL    HW127470   3.169   1.594   7.467 -1.4097  0.7567  1.2896
 5278SOL    HW227471   3.264   1.526   7.554 -0.3724  0.0502  0.5386
 5279SOL     OW27472   2.969   2.995   7.006  0.3358 -0.3994  0.3317
 5279SOL    HW127473   2.972   3.090   7.017 -1.8843 -0.1511 -1.2098
 5279SOL    HW227474   2.937   2.984   6.917 -2.2654 -0.0013  1.2228
 5280SOL     OW27475   2.619   2.600   7.653 -0.4873 -0.3332 -0.3599
 5280SOL    HW127476   2.648   2.667   7.590  0.6329  0.6063  1.1531
 5280SOL    HW227477   2.681   2.531   7.629  0.6176  1.5796 -3.0683
 5281SOL     OW27478   0.312   0.457   8.562  0.1209  0.2140 -0.4405
 5281SOL    HW127479   0.404   0.468   8.536 -0.7065  3.0765 -2.1916
 5281SOL    HW227480   0.279   0.544   8.540  0.0322  0.3101  0.0708
 5282SOL     OW27481   0.485   3.570   2.804 -0.1257  0.0202  0.2308
 5282SOL    HW127482   0.431   3.636   2.762 -0.6737 -0.1366  0.6851
 5282SOL    HW227483   0.489   3.616   2.888 -0.1754  2.0961 -0.9087
 5283SOL     OW27484   2.411   1.886   6.172 -0.3324  0.0606 -0.1214
 5283SOL    HW127485   2.382   1.946   6.103  0.4667 -0.2443 -0.7251
 5283SOL    HW227486   2.345   1.905   6.239  0.6204  1.7649  0.3371
 5284SOL     OW27487   1.243   0.378   2.044 -0.3655  0.5560 -0.3547
 5284SOL    HW127488   1.253   0.352   2.135 -0.9309 -1.2503 -0.8071
 5284SOL    HW227489   1.285   0.464   2.042 -0.4017  0.5983  0.7998
 5285SOL     OW27490   1.150   0.872   3.515  0.0230  0.5089  0.2517
 5285SOL    HW127491   1.220   0.836   3.461 -0.4661 -0.6373  0.3665
 5285SOL    HW227492   1.105   0.787   3.521  0.6605  0.1748  0.3432
 5286SOL     OW27493   1.190   0.259  14.720  0.2489  0.0321  0.3584
 5286SOL    HW127494   1.192   0.199  14.794 -1.4403 -1.0012 -0.4162
 5286SOL    HW227495   1.197   0.342  14.766  1.8332 -0.1250  0.4014
 5287SOL     OW27496   1.981   2.401   1.706 -0.8396  0.0123  0.2473
 5287SOL    HW127497   1.902   2.403   1.652 -1.0410  2.1994  0.5965
 5287SOL    HW227498   2.036   2.471   1.670  1.4509 -2.4170 -0.9765
 5288SOL     OW27499   0.109   0.782   6.883 -0.5273  0.0780  0.1485
 5288SOL    HW127500   0.191   0.734   6.875 -0.7633 -0.4713  0.9964
 5288SOL    HW227501   0.055   0.708   6.914 -0.1321 -0.0526  0.5223
 5289SOL     OW27502   1.749   1.103  16.913  0.4976 -0.2963  0.1799
 5289SOL    HW127503   1.725   1.011  16.921 -0.7778 -0.1288 -1.6120
 5289SOL    HW227504   1.807   1.107  16.837  2.1636 -2.8065  1.3126
 5290SOL     OW27505   3.913   4.194  12.530  0.2505 -0.1557 -0.1042
 5290SOL    HW127506   3.905   4.215  12.623  1.3813 -2.5002  0.5169
 5290SOL    HW227507   3.828   4.150  12.520 -0.6275  0.8904  2.8930
 5291SOL     OW27508   3.147   2.768   9.258  0.2981 -0.3879 -0.0155
 5291SOL    HW127509   3.149   2.683   9.302  1.2678  0.0731  0.8524
 5291SOL    HW227510   3.240   2.789   9.268  0.3145 -0.4539 -0.0357
 5292SOL     OW27511   3.358   3.268   4.451  0.2953 -0.4479  0.2740
 5292SOL    HW127512   3.293   3.198   4.438 -1.7471  1.4074  0.4156
 5292SOL    HW227513   3.317   3.333   4.509  0.0615 -0.3428 -0.0098
 5293SOL     OW27514   2.975   4.637   4.850  0.0305 -0.3601  0.2264
 5293SOL    HW127515   3.012   4.721   4.877 -0.7502  0.2440 -0.5870
 5293SOL    HW227516   2.930   4.660   4.769 -2.0786 -3.0385  0.6081
 5294SOL     OW27517   4.468   2.655   1.275 -0.0238  0.7405 -0.0268
 5294SOL    HW127518   4.531   2.696   1.334  0.6107  0.0365 -0.2202
 5294SOL    HW227519   4.454   2.728   1.214 -1.8590  2.0905  2.0076
 5295SOL     OW27520   3.636   0.623   0.735  0.1852  0.3028  0.1296
 5295SOL    HW127521   3.544   0.620   0.764  0.2781  1.3566  0.5571
 5295SOL    HW227522   3.637   0.715   0.707  2.1172  0.2078 -0.0735
 5296SOL     OW27523   0.985   4.393   2.213 -0.2726  0.4679  0.3290
 5296SOL    HW127524   0.956   4.483   2.223 -0.8474  0.6155 -2.7920
 5296SOL    HW227525   0.925   4.347   2.271  0.9035 -1.5188 -0.0164
 5297SOL     OW27526   4.057   0.196   7.762 -0.7629 -0.2286 -0.0442
 5297SOL    HW127527   4.099   0.224   7.843 -2.8968  3.7842 -0.3098
 5297SOL    HW227528   4.132   0.176   7.706 -1.2076 -0.7851 -0.4378
 5298SOL     OW27529   2.671   3.579   6.524  0.1456  0.0261 -0.2362
 5298SOL    HW127530   2.730   3.524   6.576  1.3490  2.4753  0.9896
 5298SOL    HW227531   2.640   3.647   6.584  0.1157 -0.3062  0.1273
 5299SOL     OW27532   4.703   4.042   6.117 -0.0833  0.1001 -0.0270
 5299SOL    HW127533   4.651   4.102   6.063 -0.7503  0.1887  0.7167
 5299SOL    HW227534   0.011   4.104   6.175  0.1560 -1.9372  1.9548
 5300SOL     OW27535   2.657   2.694   5.779 -0.2123  0.0659  0.6280
 5300SOL    HW127536   2.653   2.614   5.830 -0.2667  0.5983  1.4574
 5300SOL    HW227537   2.577   2.739   5.806 -1.1470 -0.4216 -1.3011
 5301SOL     OW27538   0.964   2.327   7.760  0.2183  1.1157 -0.3509
 5301SOL    HW127539   1.049   2.325   7.716  0.5791  0.4810  0.3709
 5301SOL    HW227540   0.963   2.412   7.805 -2.0040  0.3612  1.0450
 5302SOL     OW27541   2.878   0.137   6.149 -0.5082 -0.1608  0.0981
 5302SOL    HW127542   2.922   0.181   6.076 -1.0610 -2.0875 -1.4282
 5302SOL    HW227543   2.793   0.179   6.133  0.0708  0.3230 -1.8078
 5303SOL     OW27544   1.216   1.465   7.097  0.2173 -0.6250  0.0401
 5303SOL    HW127545   1.272   1.424   7.032  0.7026 -0.0888  0.1220
 5303SOL    HW227546   1.162   1.393   7.132 -1.5288 -0.0339 -1.4251
 5304SOL     OW27547   3.408   0.988  10.761  0.0042  0.0921 -0.4031
 5304SOL    HW127548   3.320   1.016  10.783  1.0276  2.2784  0.8533
 5304SOL    HW227549   3.400   0.980  10.665 -0.7276 -0.3642 -0.3055
 5305SOL     OW27550   3.950   4.646   2.603 -0.1707 -0.3338  0.1288
 5305SOL    HW127551   3.957   4.555   2.633 -0.8584 -0.7409 -0.9564
 5305SOL    HW227552   3.875   4.642   2.544  0.1654 -1.6678 -0.2066
 5306SOL     OW27553   0.234   3.951   8.636 -0.1642  0.3875  0.0828
 5306SOL    HW127554   0.288   3.913   8.706 -0.4436 -1.0237 -0.4707
 5306SOL    HW227555   0.298   3.955   8.565 -0.4446 -0.5108 -0.2158
 5307SOL     OW27556   1.161   1.134   4.983 -0.1282  0.2107  0.1311
 5307SOL    HW127557   1.144   1.129   4.889 -0.5388  0.6662  0.1759
 5307SOL    HW227558   1.246   1.178   4.980  0.7842 -1.7346 -1.6696
 5308SOL     OW27559   3.993   3.848   5.490  0.3911  0.4132  0.3370
 5308SOL    HW127560   3.957   3.764   5.519  1.6347 -1.2020 -2.7438
 5308SOL    HW227561   4.016   3.830   5.399 -1.0170  0.6176 -0.0535
 5309SOL     OW27562   0.528   3.866  15.998  0.0936 -0.3372  0.4792
 5309SOL    HW127563   0.500   3.958  16.003  0.8822 -0.0572 -0.3722
 5309SOL    HW227564   0.513   3.843  15.907 -0.3511  1.3808  0.1112
 5310SOL     OW27565   3.152   2.746   8.947  0.3319  0.7191 -0.2955
 5310SOL    HW127566   3.117   2.661   8.973 -2.3727  1.4532 -1.5303
 5310SOL    HW227567   3.244   2.733   8.970  0.0765  1.3865  1.0898
 5311SOL     OW27568   1.866   4.362   4.710  0.0959 -0.0252 -0.2210
 5311SOL    HW127569   1.938   4.402   4.758 -0.9644 -1.0944  2.2825
 5311SOL    HW227570   1.804   4.355   4.783 -0.4826  1.3569 -0.5903
 5312SOL     OW27571   1.175   3.339   1.416  0.2947 -1.1689 -0.2364
 5312SOL    HW127572   1.201   3.264   1.469  1.8014 -0.8360 -0.5003
 5312SOL    HW227573   1.201   3.309   1.328 -0.8294  0.0415 -0.9750
 5313SOL     OW27574   0.432   1.164   1.060 -0.3590 -0.6936  0.1542
 5313SOL    HW127575   0.428   1.214   1.141  1.3615 -0.5050  0.1232
 5313SOL    HW227576   0.402   1.233   1.001  0.2787 -0.3622  0.2181
 5314SOL     OW27577   1.008   0.598   6.569  0.3072 -0.0054  0.2382
 5314SOL    HW127578   1.040   0.687   6.584  2.0309 -0.4224 -1.0154
 5314SOL    HW227579   0.919   0.607   6.602  0.6983  0.1244  1.2511
 5315SOL     OW27580   2.648   1.424   5.775  0.2726  0.1826  0.1867
 5315SOL    HW127581   2.729   1.413   5.824  1.5413  0.3060 -1.8589
 5315SOL    HW227582   2.681   1.426   5.685 -0.9488 -2.1901 -0.3187
 5316SOL     OW27583   2.422   1.590   3.874 -0.3316  0.0004  0.5774
 5316SOL    HW127584   2.358   1.545   3.929  2.3704 -0.4830  3.3609
 5316SOL    HW227585   2.420   1.542   3.791 -1.1302 -0.3963  0.8161
 5317SOL     OW27586   1.163   0.979  11.435 -0.0887  0.0401 -0.4314
 5317SOL    HW127587   1.178   1.071  11.415 -1.8779 -0.0189 -2.1444
 5317SOL    HW227588   1.138   0.946  11.348  0.1826  0.4841 -0.6750
 5318SOL     OW27589   4.589   2.702   6.821 -0.2977 -0.4875  0.4559
 5318SOL    HW127590   4.640   2.776   6.854  0.2093 -0.2558 -0.8477
 5318SOL    HW227591   4.516   2.751   6.782 -1.5032 -1.7108  1.1903
 5319SOL     OW27592   1.296   3.720   5.386 -0.2437 -0.2683 -0.3714
 5319SOL    HW127593   1.325   3.800   5.342 -0.6632 -0.6462 -1.3307
 5319SOL    HW227594   1.300   3.747   5.478  2.5276 -0.0298 -0.5683
 5320SOL     OW27595   0.433   3.756  10.890  0.2021 -0.1048 -0.0178
 5320SOL    HW127596   0.482   3.794  10.817  0.8366  3.9985  2.4905
 5320SOL    HW227597   0.450   3.816  10.963  0.5559 -0.7592  0.4341
 5321SOL     OW27598   2.872   0.563   6.747  0.2340  0.1060 -0.0367
 5321SOL    HW127599   2.808   0.493   6.729  1.2757 -0.8923  0.1184
 5321SOL    HW227600   2.837   0.610   6.823 -0.0487  1.6086 -1.1049
 5322SOL     OW27601   2.876   1.091   5.927  0.1086  0.4097  0.4216
 5322SOL    HW127602   2.784   1.066   5.929  0.0731  0.6094  1.1047
 5322SOL    HW227603   2.869   1.185   5.947  3.0409  0.5927  0.6541
 5323SOL     OW27604   2.404   2.250  15.365  0.3414  0.1754 -0.3703
 5323SOL    HW127605   2.355   2.227  15.286 -1.6298  2.3489  0.2228
 5323SOL    HW227606   2.349   2.320  15.401 -3.0683 -1.6174 -2.0611
 5324SOL     OW27607   4.193   4.173   5.644  0.1308 -0.3414  0.4960
 5324SOL    HW127608   4.124   4.167   5.710  1.4555  1.7631  2.0939
 5324SOL    HW227609   4.146   4.231   5.584 -0.3463 -0.0501  1.1501
 5325SOL     OW27610   2.441   3.599   3.768 -0.3145 -0.2246  0.3541
 5325SOL    HW127611   2.522   3.557   3.738  1.1175  1.5928  1.7463
 5325SOL    HW227612   2.438   3.573   3.860  1.7844 -2.6472 -0.2264
 5326SOL     OW27613   0.315   2.746   5.626 -0.2344 -0.0380 -0.0018
 5326SOL    HW127614   0.300   2.658   5.592  2.0166  0.3902 -2.0905
 5326SOL    HW227615   0.251   2.792   5.572  0.4127  0.2771 -0.4932
 5327SOL     OW27616   0.009   1.771   9.241  0.0500 -0.3872 -0.1225
 5327SOL    HW127617   0.094   1.777   9.284 -0.3387 -0.1440  0.6052
 5327SOL    HW227618   0.024   1.807   9.153  0.3359 -1.7708 -0.6394
 5328SOL     OW27619   0.173   2.283   7.384  0.0494  0.0121  0.2186
 5328SOL    HW127620   0.117   2.262   7.309 -0.2009 -1.8130  0.9104
 5328SOL    HW227621   0.245   2.235   7.344  1.1294  1.8310 -0.0394
 5329SOL     OW27622   3.850   3.921  14.210  0.6563  0.0888 -0.2321
 5329SOL    HW127623   3.777   3.888  14.262 -0.4679  0.6816 -1.4613
 5329SOL    HW227624   3.913   3.946  14.278  2.2322 -0.6424 -1.4204
 5330SOL     OW27625   1.611   3.495   7.242 -0.3093  0.0925 -0.3989
 5330SOL    HW127626   1.610   3.588   7.264 -0.6982  0.0167 -0.0789
 5330SOL    HW227627   1.562   3.470   7.321 -0.6974  3.1271  0.3359
 5331SOL     OW27628   4.734   2.849   1.200  0.1847 -0.0331  0.0982
 5331SOL    HW127629   0.018   2.941   1.219  1.2004 -0.6653  2.0141
 5331SOL    HW227630   0.002   2.801   1.282  2.5673  0.9643  0.5701
 5332SOL     OW27631   4.171   1.824  14.020  0.4858 -0.3492  0.5186
 5332SOL    HW127632   4.184   1.741  14.066  2.1001 -0.5246 -0.2552
 5332SOL    HW227633   4.252   1.817  13.968 -1.4529  1.3241 -2.6800
 5333SOL     OW27634   3.418   1.623   4.193  0.2984 -0.5301  0.6868
 5333SOL    HW127635   3.377   1.703   4.161  1.6974 -0.4593 -0.8974
 5333SOL    HW227636   3.360   1.611   4.269 -0.0574  1.0877  0.6552
 5334SOL     OW27637   2.779   1.184  16.227 -0.2618 -0.4305  0.0716
 5334SOL    HW127638   2.767   1.234  16.308 -4.4213 -1.1150 -0.1012
 5334SOL    HW227639   2.726   1.229  16.161  1.1517  2.1911  0.7289
 5335SOL     OW27640   4.163   1.941   2.455  0.0348 -0.1303  0.0830
 5335SOL    HW127641   4.173   1.904   2.543 -2.1340 -0.8521  0.0247
 5335SOL    HW227642   4.127   2.025   2.485 -0.3354  0.2206 -1.3768
 5336SOL     OW27643   2.255   1.202   6.311 -0.1712 -0.0541 -0.0203
 5336SOL    HW127644   2.198   1.245   6.247  1.8899  0.1480 -1.6865
 5336SOL    HW227645   2.203   1.122   6.320  1.0290 -0.9235 -0.9685
 5337SOL     OW27646   4.577   4.670  15.465 -0.3787 -0.3762  0.3082
 5337SOL    HW127647   4.578   4.652  15.559  0.7945 -0.0434  0.3603
 5337SOL    HW227648   4.489   4.706  15.457  0.6248  2.7550  3.3389
 5338SOL     OW27649   0.059   0.441   8.134 -0.0775 -0.7864 -0.0192
 5338SOL    HW127650   0.113   0.378   8.182  0.9821 -1.5314 -2.2210
 5338SOL    HW227651   0.039   0.499   8.208 -1.4011 -5.4914  3.3508
 5339SOL     OW27652   0.251   2.063   9.242  0.0289  0.6050 -0.1685
 5339SOL    HW127653   0.174   2.118   9.231 -0.1614  0.3238 -0.2281
 5339SOL    HW227654   0.309   2.105   9.178  2.2587 -0.8660  0.8870
 5340SOL     OW27655   0.846   0.220   2.228  0.7093  0.5901 -0.2081
 5340SOL    HW127656   0.883   0.253   2.146  1.4671 -2.2935 -1.0284
 5340SOL    HW227657   0.843   0.302   2.276  3.4125  0.4157  0.2436
 5341SOL     OW27658   4.091   0.569   6.392 -0.2984 -0.1941 -0.4959
 5341SOL    HW127659   4.159   0.537   6.451  0.1184 -0.3126 -1.0299
 5341SOL    HW227660   4.018   0.571   6.454 -1.1152 -0.9339 -1.4360
 5342SOL     OW27661   0.562   3.479   7.802 -0.1615 -0.1880  0.1878
 5342SOL    HW127662   0.510   3.518   7.872 -1.1205 -0.1575 -0.5245
 5342SOL    HW227663   0.501   3.409   7.779 -1.8680  1.2563  0.3320
 5343SOL     OW27664   3.305   0.857  12.963 -0.3086  0.2440 -0.0676
 5343SOL    HW127665   3.242   0.885  12.897  0.0873 -1.5581 -1.1934
 5343SOL    HW227666   3.278   0.906  13.041 -2.0268 -1.9013  0.6712
 5344SOL     OW27667   1.536   2.084   4.183  0.2762  0.0713  0.3959
 5344SOL    HW127668   1.607   2.025   4.209  0.3306 -0.0425 -0.0228
 5344SOL    HW227669   1.463   2.027   4.207 -2.1267  2.3126 -1.5914
 5345SOL     OW27670   4.568   3.890  11.746  0.0631 -0.4454  0.2112
 5345SOL    HW127671   4.512   3.817  11.770  1.6170 -1.6630  0.1082
 5345SOL    HW227672   4.523   3.926  11.669  3.0755  3.8586  0.4328
 5346SOL     OW27673   2.859   4.094   3.338  0.2818 -0.5529  0.7532
 5346SOL    HW127674   2.807   4.070   3.414  0.5862  0.9445  1.4270
 5346SOL    HW227675   2.836   4.186   3.327 -0.5330 -1.0027 -1.4990
 5347SOL     OW27676   3.979   4.258   6.197  0.0593  0.2048 -0.2830
 5347SOL    HW127677   4.029   4.179   6.177 -1.0618 -0.2025 -1.4885
 5347SOL    HW227678   3.967   4.239   6.290 -0.4357  1.4279 -0.0976
 5348SOL     OW27679   4.004   4.497   5.693  0.4406 -0.1473  0.2405
 5348SOL    HW127680   4.046   4.491   5.608  0.5087 -1.1364  0.3442
 5348SOL    HW227681   3.999   4.407   5.727 -1.1812  0.0882  0.6425
 5349SOL     OW27682   2.554   4.274   2.970  0.3210 -0.0252 -0.1318
 5349SOL    HW127683   2.520   4.206   3.028 -0.0387  0.7945  0.6130
 5349SOL    HW227684   2.559   4.218   2.892 -0.5529 -1.3024  0.7178
 5350SOL     OW27685   2.704   0.399  14.173 -0.2823  0.4601  0.1039
 5350SOL    HW127686   2.672   0.409  14.263  3.0310 -1.5907  1.5379
 5350SOL    HW227687   2.652   0.328  14.134 -0.4324  0.0656  1.0123
 5351SOL     OW27688   1.232   4.390  14.437  0.1461 -0.8934  0.2675
 5351SOL    HW127689   1.300   4.434  14.489  0.9664 -2.8414  0.8478
 5351SOL    HW227690   1.234   4.300  14.469 -0.1992 -0.6870  0.8700
 5352SOL     OW27691   4.272   2.452  15.899  0.0024  0.0199 -0.2705
 5352SOL    HW127692   4.262   2.432  15.992 -2.4781  1.1462 -0.2797
 5352SOL    HW227693   4.332   2.526  15.908  0.9166 -0.7450 -0.1094
 5353SOL     OW27694   4.233   3.785   8.711  0.3175  0.4045 -0.4548
 5353SOL    HW127695   4.152   3.800   8.760 -1.0041 -3.4504 -1.4209
 5353SOL    HW227696   4.198   3.795   8.622 -1.9273  0.8355  0.4715
 5354SOL     OW27697   0.226   1.191  11.552 -0.6628  0.5618  0.0765
 5354SOL    HW127698   0.317   1.188  11.522 -0.4494 -1.1611  0.9001
 5354SOL    HW227699   0.222   1.276  11.596  1.6397  0.5176  0.3540
 5355SOL     OW27700   3.757   1.449   1.380  0.4425 -0.0839 -0.4178
 5355SOL    HW127701   3.686   1.463   1.318 -1.2788 -0.9233  1.3478
 5355SOL    HW227702   3.715   1.482   1.459 -0.9016 -0.5319 -0.9519
 5356SOL     OW27703   3.183   0.560   9.418  0.1218  0.1150 -0.1134
 5356SOL    HW127704   3.134   0.622   9.365 -0.5566  1.0831  1.6415
 5356SOL    HW227705   3.274   0.566   9.390  1.0804 -1.7362  2.6072
 5357SOL     OW27706   0.488   4.077  12.878  0.0989 -0.0025  0.2722
 5357SOL    HW127707   0.580   4.087  12.857  0.2866 -1.3144  0.4847
 5357SOL    HW227708   0.457   4.105  12.791 -1.7384  0.0822  0.9520
 5358SOL     OW27709   1.017   2.399   2.782 -0.1104 -0.2608  0.0639
 5358SOL    HW127710   1.012   2.449   2.864  0.7079  0.7151 -0.4817
 5358SOL    HW227711   1.110   2.410   2.763  0.4846  0.1540  3.1610
 5359SOL     OW27712   3.676   2.188   5.909  0.0338  0.2843  0.0497
 5359SOL    HW127713   3.672   2.119   5.976  0.9647  1.0822  0.9503
 5359SOL    HW227714   3.627   2.149   5.837  0.0093 -0.4574  0.4666
 5360SOL     OW27715   3.548   3.539  11.248 -0.7988  0.1527 -0.6269
 5360SOL    HW127716   3.591   3.585  11.320  2.5721  0.3597 -2.7527
 5360SOL    HW227717   3.532   3.613  11.189  0.3185  0.1050 -0.9803
 5361SOL     OW27718   0.700   3.700   5.423  0.2053 -0.1043 -0.3440
 5361SOL    HW127719   0.673   3.792   5.425  0.1726 -0.0963 -1.1389
 5361SOL    HW227720   0.730   3.699   5.332 -0.2245  2.7572 -0.5220
 5362SOL     OW27721   3.215   4.079   7.888 -0.0668 -0.0175 -0.7992
 5362SOL    HW127722   3.213   4.158   7.834 -0.8028  0.3471 -0.2485
 5362SOL    HW227723   3.301   4.049   7.860 -0.2464 -1.2683 -0.0068
 5363SOL     OW27724   2.415   3.352  16.410 -0.0832  0.0996  0.2976
 5363SOL    HW127725   2.334   3.335  16.362  1.6791 -1.1255 -2.2447
 5363SOL    HW227726   2.395   3.439  16.444 -0.9738  0.7393 -1.8833
 5364SOL     OW27727   2.222   2.263   7.795 -0.3310 -0.8104  0.4194
 5364SOL    HW127728   2.138   2.218   7.811 -0.8698 -0.9948 -2.9346
 5364SOL    HW227729   2.263   2.266   7.881 -0.3203  1.1024  0.3419
 5365SOL     OW27730   2.119   0.387   0.371 -0.3663 -0.4490 -0.0210
 5365SOL    HW127731   2.207   0.353   0.351  0.1248  1.0099 -0.3494
 5365SOL    HW227732   2.113   0.354   0.460  2.2451  0.7602  0.5972
 5366SOL     OW27733   2.609   0.888  10.700  0.6037 -0.5745 -1.1075
 5366SOL    HW127734   2.596   0.825  10.770  0.0345 -0.7607 -1.3766
 5366SOL    HW227735   2.696   0.857  10.673  1.2572 -0.0049  0.3492
 5367SOL     OW27736   1.431   3.340   9.089  0.4376 -0.5954 -0.6125
 5367SOL    HW127737   1.466   3.253   9.071 -2.6853 -1.0103 -4.5677
 5367SOL    HW227738   1.445   3.341   9.184  0.7881 -0.0803 -0.6714
 5368SOL     OW27739   3.615   2.712   8.341 -0.4526 -1.1123 -0.2724
 5368SOL    HW127740   3.544   2.746   8.287 -0.8239 -1.9536 -0.3107
 5368SOL    HW227741   3.635   2.797   8.382  0.8993 -2.2514  1.4428
 5369SOL     OW27742   3.643   0.267   0.564 -0.0155 -0.0556 -0.5772
 5369SOL    HW127743   3.670   0.211   0.491  0.9820 -0.6806  0.2556
 5369SOL    HW227744   3.597   0.340   0.523  1.1470  0.6940 -0.5603
 5370SOL     OW27745   2.435   1.291   4.740  0.6349 -0.1112  0.0723
 5370SOL    HW127746   2.451   1.382   4.716 -0.0663  0.2030  0.7815
 5370SOL    HW227747   2.439   1.265   4.648 -1.7760  1.6330 -0.5335
 5371SOL     OW27748   2.535   1.565   1.543  0.4966  0.3273 -0.3597
 5371SOL    HW127749   2.504   1.654   1.559 -0.1874  0.2019 -0.9539
 5371SOL    HW227750   2.494   1.538   1.461 -0.3028 -1.2382  0.5575
 5372SOL     OW27751   1.993   1.709   6.591  0.4863  0.8490  0.0751
 5372SOL    HW127752   1.904   1.737   6.614  1.3313  1.2640  2.9515
 5372SOL    HW227753   2.048   1.772   6.638  1.3990 -0.4720  0.7822
 5373SOL     OW27754   1.328   3.639   0.538 -0.0302 -0.6183  0.2573
 5373SOL    HW127755   1.255   3.699   0.518 -2.3610 -3.0638  1.3703
 5373SOL    HW227756   1.370   3.625   0.453  1.0634  0.8379  0.5724
 5374SOL     OW27757   0.752   1.694   4.849  0.0006 -0.2836 -0.1911
 5374SOL    HW127758   0.749   1.634   4.774  0.9548 -1.6900  0.8994
 5374SOL    HW227759   0.847   1.690   4.860  0.2869  1.4450 -2.0406
 5375SOL     OW27760   1.359   0.515   5.270 -0.3004  0.0979 -0.0135
 5375SOL    HW127761   1.329   0.468   5.348 -2.9928 -0.8474 -1.5881
 5375SOL    HW227762   1.314   0.599   5.272  0.5646  0.5833 -0.8450
 5376SOL     OW27763   2.973   2.182   7.800 -0.3457 -0.0119 -0.2246
 5376SOL    HW127764   2.879   2.196   7.788 -0.7377 -0.9924  1.6699
 5376SOL    HW227765   2.953   2.097   7.840  0.9677  0.0003  0.4240
 5377SOL     OW27766   4.695   0.942   6.116  0.6938  0.4945  0.0764
 5377SOL    HW127767   4.606   0.940   6.153  0.2603  1.3275 -0.9255
 5377SOL    HW227768   4.714   1.034   6.135  0.4887  0.6323 -0.4014
 5378SOL     OW27769   3.989   0.595   6.148  0.0861  0.1392  0.0604
 5378SOL    HW127770   4.022   0.581   6.236  2.1605 -0.4175 -0.8150
 5378SOL    HW227771   3.939   0.675   6.161  0.2977  0.5729 -1.8789
 5379SOL     OW27772   2.981   4.634   5.686 -0.6590  0.3651  0.2016
 5379SOL    HW127773   2.962   4.568   5.752  0.6211 -0.8049 -0.6047
 5379SOL    HW227774   2.902   4.689   5.690 -1.4938 -0.6913 -1.5922
 5380SOL     OW27775   2.283   0.734   6.802 -0.2023  0.4278  1.1636
 5380SOL    HW127776   2.363   0.722   6.751 -1.5512  1.4126 -1.2194
 5380SOL    HW227777   2.296   0.678   6.878  0.4416 -2.3831 -1.0024
 5381SOL     OW27778   4.256   2.086   3.887 -0.0388 -0.8074  0.0696
 5381SOL    HW127779   4.298   2.016   3.837  0.2814 -1.0319  0.6493
 5381SOL    HW227780   4.167   2.050   3.893 -0.1420 -0.4541  0.6654
 5382SOL     OW27781   4.094   4.598   3.609 -0.2169 -0.7440 -0.1477
 5382SOL    HW127782   4.060   4.660   3.545  0.7184 -1.4868 -1.3428
 5382SOL    HW227783   4.113   4.658   3.681  3.0054  0.2559 -1.8406
 5383SOL     OW27784   0.763   2.592   3.907  0.7334 -0.5848 -0.7486
 5383SOL    HW127785   0.769   2.511   3.957  0.4121  1.2048  2.2014
 5383SOL    HW227786   0.732   2.567   3.820  1.3229 -0.8003 -0.8980
 5384SOL     OW27787   0.387   2.609   3.414  0.1901  0.2103  0.4513
 5384SOL    HW127788   0.348   2.641   3.333 -0.8518  0.2819  0.9822
 5384SOL    HW227789   0.391   2.692   3.460 -2.2430 -0.2925  1.5209
 5385SOL     OW27790   1.191   2.124   3.572  0.0910  0.2418  0.1394
 5385SOL    HW127791   1.200   2.140   3.666  1.2542  0.4040 -0.0017
 5385SOL    HW227792   1.155   2.036   3.580  0.7499 -0.0963 -0.5711
 5386SOL     OW27793   4.473   1.961  16.972 -0.1094  0.1143 -0.3181
 5386SOL    HW127794   4.530   1.909  16.915  0.3312  0.9279 -0.6228
 5386SOL    HW227795   4.438   1.897  17.034  0.4831 -0.2866 -0.3904
 5387SOL     OW27796   0.895   3.506  10.492  0.1970  0.4160 -0.2147
 5387SOL    HW127797   0.977   3.532  10.449  0.5172  2.0918  1.4483
 5387SOL    HW227798   0.908   3.424  10.539  0.1499  0.2300 -0.5230
 5388SOL     OW27799   4.330   1.741   5.046  0.3042  0.0547  0.3776
 5388SOL    HW127800   4.372   1.716   4.963  0.1130  2.0589 -0.3073
 5388SOL    HW227801   4.343   1.670   5.109  0.1599 -0.5624 -0.2749
 5389SOL     OW27802   3.089   4.418   8.025  0.6030  0.4378 -0.8892
 5389SOL    HW127803   3.090   4.400   7.931  0.9985  3.2409 -1.4289
 5389SOL    HW227804   3.027   4.353   8.058  1.8121  0.4485  1.4038
 5390SOL     OW27805   4.075   3.093   9.023  0.5446 -0.1744 -0.3993
 5390SOL    HW127806   3.990   3.061   8.993 -0.3376 -0.0915  1.9863
 5390SOL    HW227807   4.087   3.012   9.074  0.2704 -0.4259 -0.7309
 5391SOL     OW27808   3.915   3.383   4.795  0.4229 -0.3094  0.3921
 5391SOL    HW127809   3.951   3.464   4.760 -1.9805  1.4292  2.0169
 5391SOL    HW227810   3.837   3.375   4.741  0.1863  0.2425  0.6604
 5392SOL     OW27811   2.694   4.449   2.755  0.0861  0.5895  0.2561
 5392SOL    HW127812   2.607   4.411   2.743 -0.1989  1.3547 -0.1105
 5392SOL    HW227813   2.670   4.524   2.809 -0.6806 -0.6204  1.5880
 5393SOL     OW27814   3.997   3.149   7.544 -0.1348  0.0091  0.6154
 5393SOL    HW127815   4.019   3.056   7.549  0.6276  0.0728 -1.5393
 5393SOL    HW227816   3.904   3.154   7.562 -0.2256 -0.7644  0.3825
 5394SOL     OW27817   0.196   1.640   2.926  0.6151 -0.0062 -0.4842
 5394SOL    HW127818   0.262   1.572   2.916  1.5890  0.6705  1.3819
 5394SOL    HW227819   0.175   1.615   3.016 -1.0475  0.7074 -0.6587
 5395SOL     OW27820   0.868   3.828   2.415 -0.2179 -0.5745 -0.2534
 5395SOL    HW127821   0.824   3.911   2.396 -1.9668 -0.9611  2.0449
 5395SOL    HW227822   0.808   3.764   2.377 -2.2469  0.7734  0.6414
 5396SOL     OW27823   3.379   3.414  12.903 -0.1202 -0.3965  0.1002
 5396SOL    HW127824   3.446   3.482  12.911  0.0314 -0.7339  1.7200
 5396SOL    HW227825   3.425   3.344  12.949 -1.2685 -2.6041 -2.1126
 5397SOL     OW27826   1.259   4.682   5.078  0.0463 -0.2240 -0.2382
 5397SOL    HW127827   1.237   4.605   5.026  0.7956 -0.6964  0.1435
 5397SOL    HW227828   1.316   0.000   5.024  0.8924 -1.7814 -0.9037
 5398SOL     OW27829   3.445   0.341   3.252  0.0318  0.6701 -0.2372
 5398SOL    HW127830   3.381   0.406   3.223 -1.7379 -1.1531 -0.4367
 5398SOL    HW227831   3.506   0.351   3.180  1.7996 -2.1200  0.8661
 5399SOL     OW27832   1.062   4.230  17.346 -0.1214  0.2716  0.3345
 5399SOL    HW127833   1.043   4.281  17.424  0.0606  0.9918 -0.0887
 5399SOL    HW227834   1.061   4.298  17.278 -0.7833 -1.6305 -1.5443
 5400SOL     OW27835   2.541   2.316   7.937 -0.7019 -0.3173 -0.0845
 5400SOL    HW127836   2.542   2.380   8.009  3.5138  1.1197 -1.3785
 5400SOL    HW227837   2.496   2.243   7.979  0.4718 -1.4472 -0.7838
 5401SOL     OW27838   0.118   3.888  10.656 -0.8293 -0.3691 -0.5104
 5401SOL    HW127839   0.178   3.936  10.599 -1.1859 -2.0560 -2.3397
 5401SOL    HW227840   0.109   3.955  10.724 -0.2092 -1.7464  0.9201
 5402SOL     OW27841   3.788   0.778   4.666 -0.0387  0.6343 -0.3454
 5402SOL    HW127842   3.869   0.762   4.716  0.7140  0.1133 -1.7350
 5402SOL    HW227843   3.757   0.859   4.706 -3.2387 -1.2713  1.0434
 5403SOL     OW27844   3.681   3.939   3.260 -0.3817  0.3113  0.3385
 5403SOL    HW127845   3.732   4.019   3.253  0.5856 -0.2268  1.2627
 5403SOL    HW227846   3.591   3.968   3.278 -0.5204  1.5036 -2.3682
 5404SOL     OW27847   3.958   4.730   5.986  0.4460 -0.2956 -0.3487
 5404SOL    HW127848   3.938   0.006   6.078 -0.4209 -0.2111 -0.5467
 5404SOL    HW227849   3.968   4.635   5.992  2.0760  0.1156  3.0787
 5405SOL     OW27850   2.423   3.925  13.043  0.0191  0.1548  0.1078
 5405SOL    HW127851   2.486   3.919  13.115  1.2821 -2.3821 -1.2169
 5405SOL    HW227852   2.371   3.845  13.047 -1.0527  0.8103 -0.5855
 5406SOL     OW27853   2.451   3.177   7.941  0.1632  0.5226  0.3381
 5406SOL    HW127854   2.457   3.201   7.848  0.6088 -0.2400  0.1724
 5406SOL    HW227855   2.543   3.177   7.966  0.4907 -2.0320 -0.8682
 5407SOL     OW27856   3.325   1.109   9.388 -0.8732 -0.2280  0.3492
 5407SOL    HW127857   3.380   1.126   9.464  0.7016  0.7970 -1.0113
 5407SOL    HW227858   3.355   1.175   9.325  0.4172 -2.2680 -1.1746
 5408SOL     OW27859   0.506   0.489   0.881  0.0366  0.3840 -0.0068
 5408SOL    HW127860   0.550   0.441   0.951 -1.2812 -0.8651 -0.0490
 5408SOL    HW227861   0.439   0.537   0.930 -1.1898 -0.7506 -0.5723
 5409SOL     OW27862   3.304   3.043   8.071  0.1529  0.5887  0.0157
 5409SOL    HW127863   3.304   2.947   8.065  2.6926  0.6000 -0.3742
 5409SOL    HW227864   3.386   3.072   8.110 -0.2353  2.1245 -0.2940
 5410SOL     OW27865   4.616   4.596   2.307 -0.2474  0.4155  0.3167
 5410SOL    HW127866   4.553   4.571   2.240  0.8174  0.3920 -0.6902
 5410SOL    HW227867   4.556   4.613   2.379 -1.0395  0.7520 -0.4227
 5411SOL     OW27868   3.506   2.341   3.952  0.3168  0.4131 -0.0425
 5411SOL    HW127869   3.515   2.305   3.864  0.9924 -0.4296  0.3772
 5411SOL    HW227870   3.538   2.268   4.004  0.7689  0.0041 -0.8999
 5412SOL     OW27871   4.050   0.220   0.680  0.5946  0.6878 -0.7472
 5412SOL    HW127872   4.114   0.207   0.751  0.4206 -0.3331 -0.7791
 5412SOL    HW227873   4.088   0.162   0.614  2.8811  0.3511  0.8411
 5413SOL     OW27874   2.714   0.777   8.033 -0.2698  0.2812 -0.2617
 5413SOL    HW127875   2.741   0.848   7.975  1.6259 -1.0925 -1.0511
 5413SOL    HW227876   2.712   0.701   7.975 -1.3348  0.4977 -0.5125
 5414SOL     OW27877   1.869   1.722   4.561  0.5667  0.3578 -0.2111
 5414SOL    HW127878   1.851   1.664   4.487  0.2058 -0.9410  0.8991
 5414SOL    HW227879   1.878   1.649   4.623  0.0112  2.1066  1.9022
 5415SOL     OW27880   4.202   3.836  10.062 -0.3287 -0.4625  0.2081
 5415SOL    HW127881   4.119   3.800  10.031  0.0133 -1.4118  0.3858
 5415SOL    HW227882   4.274   3.793  10.015  0.0169  0.0846  0.2321
 5416SOL     OW27883   2.894   4.334   4.802  0.3881 -0.1366  0.1969
 5416SOL    HW127884   2.915   4.376   4.718  1.6638  0.9996  1.0999
 5416SOL    HW227885   2.874   4.407   4.860 -2.5218 -0.9611  0.2280
 5417SOL     OW27886   4.148   3.258   7.965 -0.6860 -0.3255  0.0765
 5417SOL    HW127887   4.236   3.294   7.976 -1.2551  1.0576  0.1674
 5417SOL    HW227888   4.169   3.169   7.936  0.6200 -0.6801  2.1510
 5418SOL     OW27889   2.104   1.432   7.774  0.2193  0.0582  0.4709
 5418SOL    HW127890   2.144   1.356   7.815 -0.6766  0.1309  1.4783
 5418SOL    HW227891   2.091   1.497   7.843 -0.5783  1.4812 -1.0061
 5419SOL     OW27892   2.383   3.251   7.233 -0.0713  0.0750 -0.3454
 5419SOL    HW127893   2.463   3.303   7.246 -0.2769  0.1908  0.4434
 5419SOL    HW227894   2.377   3.191   7.308  0.3055  0.7571  0.2316
 5420SOL     OW27895   3.943   3.767   2.895 -0.1900  0.3964 -0.4756
 5420SOL    HW127896   3.918   3.702   2.960  2.1848 -0.5944 -0.5531
 5420SOL    HW227897   3.988   3.715   2.828  0.4462 -0.1868  0.4130
 5421SOL     OW27898   4.222   3.509   2.038  0.4746  0.4570 -0.6990
 5421SOL    HW127899   4.273   3.441   2.081 -1.5998  0.3633  1.6244
 5421SOL    HW227900   4.285   3.580   2.044 -2.1743  2.8758 -1.7475
 5422SOL     OW27901   2.041   2.061   7.324 -0.0048 -0.3293 -1.2846
 5422SOL    HW127902   1.983   2.130   7.358 -0.0559 -0.1004 -1.8321
 5422SOL    HW227903   2.062   2.018   7.407  0.1718  2.1349 -0.0371
 5423SOL     OW27904   0.670   1.565  15.520  0.0401 -0.0106  0.1388
 5423SOL    HW127905   0.632   1.646  15.556  1.9241  0.8459  0.1785
 5423SOL    HW227906   0.600   1.537  15.461  0.6670  0.4827 -0.8343
 5424SOL     OW27907   0.440   3.925   3.974  0.0634 -0.1496  0.1759
 5424SOL    HW127908   0.474   3.894   3.890  0.3384  0.7373 -0.0417
 5424SOL    HW227909   0.353   3.951   3.941  0.4642  0.5910 -0.2863
 5425SOL     OW27910   3.752   1.006   9.355  0.2932 -0.1269  0.5882
 5425SOL    HW127911   3.691   0.935   9.337  1.1891 -0.4336 -1.3119
 5425SOL    HW227912   3.704   1.050   9.425 -0.3219  0.6327 -0.3057
 5426SOL     OW27913   1.094   1.257   7.224 -0.0348 -0.2946  0.0159
 5426SOL    HW127914   1.074   1.210   7.305  0.0894 -0.9728 -0.3480
 5426SOL    HW227915   1.041   1.210   7.159 -2.5674 -0.8546  2.4726
 5427SOL     OW27916   1.391   0.951   7.234  0.3737  0.3971 -0.6669
 5427SOL    HW127917   1.300   0.925   7.222  0.2161 -0.0820  1.5785
 5427SOL    HW227918   1.398   1.028   7.178 -1.4384  1.2261  0.2653
 5428SOL     OW27919   3.474   0.231   8.423  0.2098 -0.2441  0.0360
 5428SOL    HW127920   3.500   0.318   8.453 -0.0110 -0.9762  2.2954
 5428SOL    HW227921   3.406   0.249   8.359 -1.5727 -0.1323  1.9803
 5429SOL     OW27922   4.322   4.029   5.446 -0.4450  0.0887 -0.5211
 5429SOL    HW127923   4.390   4.005   5.508 -0.1098  2.2368 -0.0570
 5429SOL    HW227924   4.269   4.091   5.496  0.5643  1.8861 -1.6574
 5430SOL     OW27925   4.647   2.939   6.954  0.1851  0.4807 -0.6149
 5430SOL    HW127926   4.680   2.919   7.042 -1.3771  1.7155  0.2413
 5430SOL    HW227927   4.577   3.002   6.967  1.6086  1.8898  0.1318
 5431SOL     OW27928   2.839   1.394   6.691 -0.2884 -0.3442  0.2640
 5431SOL    HW127929   2.889   1.359   6.765  1.7057  0.2551 -0.8101
 5431SOL    HW227930   2.793   1.467   6.731  0.0924  0.0770 -0.0612
 5432SOL     OW27931   4.559   2.820   3.402  0.3903 -0.1767 -0.3609
 5432SOL    HW127932   4.570   2.898   3.347 -5.2264  0.7109 -0.1645
 5432SOL    HW227933   4.608   2.752   3.354  0.5023  1.1940 -2.1935
 5433SOL     OW27934   1.440   2.697   3.718  0.0618 -1.0390 -0.7538
 5433SOL    HW127935   1.452   2.614   3.672  1.2940 -1.6542  0.7105
 5433SOL    HW227936   1.530   2.718   3.744 -0.7142  2.3136 -0.6762
 5434SOL     OW27937   1.149   0.188  15.359  0.4126  0.0963  0.5552
 5434SOL    HW127938   1.187   0.111  15.316  1.5251  0.9765 -0.0207
 5434SOL    HW227939   1.207   0.257  15.326  1.3907 -0.3852  1.2336
 5435SOL     OW27940   4.341   3.786   1.262 -1.2487 -0.1538 -0.0650
 5435SOL    HW127941   4.334   3.880   1.246  0.5481 -0.1145 -0.5874
 5435SOL    HW227942   4.258   3.773   1.309 -0.8398  0.2568  0.7721
 5436SOL     OW27943   1.147   2.911   0.374  0.5448  0.8262 -0.6751
 5436SOL    HW127944   1.152   2.952   0.461  1.6493 -1.9318  0.5541
 5436SOL    HW227945   1.176   2.981   0.315  2.0413  0.9842  0.2441
 5437SOL     OW27946   1.526   1.044   2.241 -0.6233 -0.5127  0.4504
 5437SOL    HW127947   1.567   1.129   2.228 -0.1532 -0.6958  0.7438
 5437SOL    HW227948   1.440   1.059   2.203 -0.3143  2.3869  0.9062
 5438SOL     OW27949   1.029   3.902   6.024 -0.4057  0.3531  0.3289
 5438SOL    HW127950   0.950   3.902   6.078 -1.1805 -1.1204 -0.8142
 5438SOL    HW227951   0.988   3.945   5.949 -2.3440 -1.7343  0.1949
 5439SOL     OW27952   1.481   0.845  15.028 -0.0779  0.6546  0.0568
 5439SOL    HW127953   1.390   0.833  15.056  0.6468 -0.8686  1.6982
 5439SOL    HW227954   1.510   0.925  15.072  0.0177  0.6671 -0.0285
 5440SOL     OW27955   1.911   2.806   7.000  0.3344  0.3175 -0.1090
 5440SOL    HW127956   1.996   2.845   7.023  0.7549 -1.7585  1.8012
 5440SOL    HW227957   1.863   2.869   6.945  2.5313  0.9935 -1.2468
 5441SOL     OW27958   2.688   0.924   6.860 -0.4325 -0.1080  0.4320
 5441SOL    HW127959   2.750   0.956   6.794 -1.0718  0.4783  0.1175
 5441SOL    HW227960   2.638   0.859   6.811  0.2516  0.1055 -0.5672
 5442SOL     OW27961   0.916   1.995  14.054 -0.5123  0.3091  0.2238
 5442SOL    HW127962   0.911   1.995  14.149 -2.1600  1.6912  0.1447
 5442SOL    HW227963   0.852   1.924  14.048 -0.0525 -0.1068  0.2826
 5443SOL     OW27964   1.608   4.557   6.079 -0.5266  0.3856 -0.4480
 5443SOL    HW127965   1.543   4.504   6.125  0.1657  1.7313  2.0957
 5443SOL    HW227966   1.632   4.505   6.002 -0.7098  0.3934 -0.5091
 5444SOL     OW27967   1.259   2.872   3.639 -0.6741 -0.4404 -0.4952
 5444SOL    HW127968   1.345   2.833   3.657 -0.6975 -0.7242 -1.0118
 5444SOL    HW227969   1.265   2.947   3.698 -0.0925 -2.5661  2.1712
 5445SOL     OW27970   2.936   2.187   4.146  0.0200  0.1905  0.3746
 5445SOL    HW127971   2.948   2.260   4.207  3.0193 -1.3090  1.6497
 5445SOL    HW227972   2.997   2.207   4.075 -1.0547  1.1833 -0.2639
 5446SOL     OW27973   2.137   4.023   5.318  0.6325 -0.2888 -0.2426
 5446SOL    HW127974   2.046   3.995   5.306  0.5632  0.7780 -2.1836
 5446SOL    HW227975   2.188   3.981   5.249 -0.5731 -0.0034 -1.3084
 5447SOL     OW27976   2.017   1.505   1.954  0.3383  0.1943  0.3766
 5447SOL    HW127977   2.031   1.450   1.876 -0.3160 -0.4213  0.6956
 5447SOL    HW227978   1.927   1.484   1.979 -0.0555  0.7128 -0.6243
 5448SOL     OW27979   4.697   1.950   8.689  0.2072  0.1767  0.0453
 5448SOL    HW127980   4.620   1.932   8.634 -0.0338  1.0257  0.1061
 5448SOL    HW227981   4.708   1.861   8.724 -0.6507  0.4379  0.9659
 5449SOL     OW27982   4.537   3.888   6.252  0.1233  0.3088 -0.2337
 5449SOL    HW127983   4.606   3.930   6.201  1.6794 -2.1600 -0.1436
 5449SOL    HW227984   4.460   3.880   6.195 -1.7586 -0.0098  2.3450
 5450SOL     OW27985   0.639   1.704  12.777 -0.6241 -0.5150 -0.3762
 5450SOL    HW127986   0.648   1.708  12.872  0.2098  0.3925 -0.4924
 5450SOL    HW227987   0.709   1.759  12.741  0.1986 -0.5469  1.2010
 5451SOL     OW27988   3.114   2.974   2.369 -0.3544  0.2897  0.0306
 5451SOL    HW127989   3.165   3.034   2.423  0.2929 -0.4855  0.2860
 5451SOL    HW227990   3.175   2.900   2.364  1.6893  1.9455  0.4832
 5452SOL     OW27991   1.154   2.185   8.209  0.2022 -0.2451 -0.2437
 5452SOL    HW127992   1.112   2.100   8.196  0.8525 -0.9064  2.0995
 5452SOL    HW227993   1.228   2.170   8.268  0.1801  1.7471  0.2870
 5453SOL     OW27994   3.292   2.451   5.087 -0.1046 -0.2536 -0.3420
 5453SOL    HW127995   3.216   2.502   5.059 -0.7391 -0.0293  1.7447
 5453SOL    HW227996   3.346   2.523   5.119  0.6794 -0.1295 -1.9999
 5454SOL     OW27997   4.327   4.052  12.351  0.1942  0.1117  0.2605
 5454SOL    HW127998   4.330   3.961  12.380  1.5133 -0.0033 -0.2244
 5454SOL    HW227999   4.263   4.094  12.408  1.8404 -0.7995  2.7550
 5455SOL     OW28000   4.309   4.404   3.284 -0.5432  0.5532 -0.2097
 5455SOL    HW128001   4.254   4.327   3.298  2.0872 -1.2384  0.2369
 5455SOL    HW228002   4.301   4.454   3.365  3.3598 -2.4838  2.0858
 5456SOL     OW28003   2.885   1.696   6.836 -0.2512 -0.4178  0.3550
 5456SOL    HW128004   2.810   1.751   6.859 -0.0127 -0.0466  0.2491
 5456SOL    HW228005   2.956   1.757   6.855  0.3694 -0.7437 -0.9114
 5457SOL     OW28006   4.479   1.876   7.501 -0.4290  0.4736 -0.4488
 5457SOL    HW128007   4.402   1.933   7.499 -1.4030 -0.8184  0.5104
 5457SOL    HW228008   4.546   1.939   7.527  2.7157 -2.6455 -1.0021
 5458SOL     OW28009   0.255   2.867   7.195  0.0617 -0.2101  0.6110
 5458SOL    HW128010   0.166   2.901   7.186  0.6328  0.5599 -2.0329
 5458SOL    HW228011   0.281   2.912   7.276  1.6918 -0.2493  0.1256
 5459SOL     OW28012   2.032   4.102   7.867  0.0128  0.1916  0.3816
 5459SOL    HW128013   1.994   4.174   7.817  0.5696  1.3268  1.6047
 5459SOL    HW228014   2.060   4.150   7.945 -2.5806  1.4451  0.5182
 5460SOL     OW28015   2.340   1.901   9.010 -0.5114  0.3660  0.2619
 5460SOL    HW128016   2.414   1.952   9.044 -1.0932 -0.3284  2.5499
 5460SOL    HW228017   2.379   1.814   9.018  1.2897  1.2051  0.5367
 5461SOL     OW28018   3.505   3.513   1.090  0.9656 -0.2004  0.1970
 5461SOL    HW128019   3.493   3.421   1.064  2.5154 -0.2519 -0.3984
 5461SOL    HW228020   3.460   3.517   1.174  1.8713 -0.0676  0.6773
 5462SOL     OW28021   3.111   2.030   3.563  0.5915 -0.2505  0.3210
 5462SOL    HW128022   3.029   2.019   3.612  0.1332 -0.2163 -0.4402
 5462SOL    HW228023   3.140   2.115   3.593 -1.1714 -0.0394  1.4314
 5463SOL     OW28024   1.533   0.220  12.547 -0.3178 -0.4060 -0.1649
 5463SOL    HW128025   1.531   0.147  12.485  0.8158 -0.0662 -0.6024
 5463SOL    HW228026   1.526   0.174  12.631 -1.2331 -2.2196 -1.2573
 5464SOL     OW28027   3.200   3.889   2.275 -0.2644  0.0108  0.2678
 5464SOL    HW128028   3.198   3.844   2.190 -0.1469  0.4095  0.0557
 5464SOL    HW228029   3.226   3.977   2.249  1.1951 -0.8278 -1.1166
 5465SOL     OW28030   0.999   2.421  10.674 -0.5837  0.0494 -0.4754
 5465SOL    HW128031   0.969   2.399  10.762 -0.3528  0.4516 -0.2914
 5465SOL    HW228032   1.078   2.473  10.693  0.0505 -2.0943  2.7781
 5466SOL     OW28033   0.502   2.457   4.285 -0.1149  0.1850  0.3547
 5466SOL    HW128034   0.492   2.534   4.341 -2.2610 -0.7399  1.2478
 5466SOL    HW228035   0.444   2.479   4.212  1.5254 -2.3196 -1.7480
 5467SOL     OW28036   2.716   0.934   4.603 -0.2976  0.3175 -0.8638
 5467SOL    HW128037   2.757   0.971   4.525  0.4417  0.0748 -0.5947
 5467SOL    HW228038   2.673   0.860   4.559  2.4844 -2.1769  0.5842
 5468SOL     OW28039   1.118   4.652   6.107 -0.1975 -0.9287 -0.0691
 5468SOL    HW128040   1.063   4.715   6.153 -0.7124 -0.5367 -1.2354
 5468SOL    HW228041   1.170   4.701   6.044 -0.5586  0.1695  0.4956
 5469SOL     OW28042   0.660   4.412   3.901  0.2758 -0.0728  0.3152
 5469SOL    HW128043   0.716   4.387   3.827 -0.7722 -0.3042 -0.4110
 5469SOL    HW228044   0.721   4.417   3.974 -0.0427 -1.0231  0.6609
 5470SOL     OW28045   2.513   4.257   4.045  1.0814 -0.1400  0.1952
 5470SOL    HW128046   2.540   4.334   4.095  0.3664 -0.6290  1.3504
 5470SOL    HW228047   2.516   4.180   4.102 -2.2214 -0.9553 -0.7002
 5471SOL     OW28048   0.031   0.053   2.532 -0.4516 -0.4100 -0.1425
 5471SOL    HW128049   0.076   4.723   2.584  3.3811  0.6033 -2.1393
 5471SOL    HW228050   0.078   0.128   2.569 -0.4850  0.2589 -1.4596
 5472SOL     OW28051   1.290   4.214   2.445  0.3196 -0.1372 -0.2937
 5472SOL    HW128052   1.266   4.299   2.481  2.5196  0.6070 -0.5821
 5472SOL    HW228053   1.328   4.225   2.358 -0.5908 -3.3006 -1.0924
 5473SOL     OW28054   1.723   3.642  11.778 -0.1594 -0.4635 -0.1042
 5473SOL    HW128055   1.721   3.590  11.858 -1.3913 -1.6211 -0.8720
 5473SOL    HW228056   1.679   3.583  11.716  0.5216 -0.9647 -0.1232
 5474SOL     OW28057   1.919   0.088   8.011 -0.1753 -0.2803  0.2791
 5474SOL    HW128058   1.926   0.107   7.917  0.3286 -2.4953 -0.1390
 5474SOL    HW228059   1.826   0.078   8.034 -0.6903  0.4123 -1.4682
 5475SOL     OW28060   3.182   3.467   4.606  0.0881  0.3042 -0.3524
 5475SOL    HW128061   3.128   3.534   4.650  0.4390 -0.6646  1.5456
 5475SOL    HW228062   3.212   3.413   4.679 -0.2661 -0.9346 -1.1445
 5476SOL     OW28063   1.205   2.576   6.906  0.1483  0.3930 -0.0281
 5476SOL    HW128064   1.120   2.574   6.950 -0.1674  0.5397 -0.6368
 5476SOL    HW228065   1.197   2.662   6.865 -0.2116  0.1987 -0.3582
 5477SOL     OW28066   0.374   4.284   5.707 -0.1484  0.0165  0.2285
 5477SOL    HW128067   0.396   4.192   5.721  0.6408  0.1636 -0.0117
 5477SOL    HW228068   0.436   4.295   5.634 -0.0379  0.0547  0.3264
 5478SOL     OW28069   2.901   3.955  10.370 -0.1774  0.2151  0.0798
 5478SOL    HW128070   2.937   3.867  10.383 -1.4380 -0.5089 -1.3893
 5478SOL    HW228071   2.806   3.948  10.366  0.0826 -2.5412 -1.3507
 5479SOL     OW28072   3.832   1.876   9.842  0.2508 -0.4858 -0.0566
 5479SOL    HW128073   3.774   1.869   9.917 -0.2733 -1.1732 -0.5148
 5479SOL    HW228074   3.874   1.790   9.842  2.2100  0.4933  1.4691
 5480SOL     OW28075   1.997   2.933   4.608  0.4048 -0.0024  0.6194
 5480SOL    HW128076   2.009   3.003   4.543 -0.3915 -0.2761  0.1821
 5480SOL    HW228077   1.906   2.961   4.618 -0.2440 -1.9919  0.3019
 5481SOL     OW28078   2.877   0.793   3.192  0.5419  0.0322 -0.9115
 5481SOL    HW128079   2.804   0.790   3.129 -1.4282  1.7781  1.2747
 5481SOL    HW228080   2.882   0.706   3.230  0.1549  0.2303 -0.4112
 5482SOL     OW28081   2.039   2.903   2.060  0.0023 -0.6362  1.0783
 5482SOL    HW128082   1.991   2.884   2.141 -2.7543  1.3021 -0.1190
 5482SOL    HW228083   2.076   2.820   2.030  0.4146  0.6855 -2.0411
 5483SOL     OW28084   0.303   1.046   5.182  0.6442  0.3232 -0.3190
 5483SOL    HW128085   0.283   0.971   5.238 -2.6723 -0.8420 -3.0369
 5483SOL    HW228086   0.394   1.054   5.208  0.1615  0.0643  1.4360
 5484SOL     OW28087   4.702   1.848   5.628  0.1832  0.1971 -0.0726
 5484SOL    HW128088   0.044   1.824   5.676 -1.0538  0.2187  1.9393
 5484SOL    HW228089   4.635   1.781   5.639  1.3254 -0.8185  0.6747
 5485SOL     OW28090   3.759   4.569  16.536 -0.1071  0.2839 -0.1263
 5485SOL    HW128091   3.790   4.582  16.447 -1.6964 -0.5741 -0.8201
 5485SOL    HW228092   3.677   4.618  16.537  0.1891  0.7448  1.0255
 5486SOL     OW28093   3.553   4.719  11.260 -0.3208  0.6157 -0.0947
 5486SOL    HW128094   3.551   0.024  11.174 -1.2961 -0.4433 -0.5889
 5486SOL    HW228095   3.468   4.675  11.269 -0.5778  0.8829 -1.2630
 5487SOL     OW28096   0.011   0.983   5.513  0.1872  0.3754 -0.3274
 5487SOL    HW128097   0.014   0.887   5.510  0.2139  0.3496  0.6019
 5487SOL    HW228098   0.051   1.002   5.598 -1.9430 -2.0478  1.2122
 5488SOL     OW28099   1.303   0.219   5.728 -0.1656 -0.3207 -0.1174
 5488SOL    HW128100   1.359   0.242   5.655  0.3102  0.3531  0.4538
 5488SOL    HW228101   1.216   0.222   5.689 -0.4608  1.0706  0.6277
 5489SOL     OW28102   2.248   4.299   7.087  0.2583  0.3762  0.1918
 5489SOL    HW128103   2.192   4.374   7.107 -0.2285  0.0382  0.0799
 5489SOL    HW228104   2.227   4.235   7.155 -2.2617  1.6181  0.5795
 5490SOL     OW28105   2.595   3.087   7.010 -0.3324 -0.0940  0.2910
 5490SOL    HW128106   2.584   3.171   6.967 -3.4933 -0.5007  0.3065
 5490SOL    HW228107   2.629   3.036   6.936 -3.1758 -2.5396  0.6889
 5491SOL     OW28108   0.204   1.804   5.130  0.1150 -0.1024 -0.4153
 5491SOL    HW128109   0.149   1.793   5.208  1.0830  0.7532  0.3994
 5491SOL    HW228110   0.282   1.839   5.174  0.2159 -0.4691 -0.3002
 5492SOL     OW28111   4.466   4.071  10.003 -0.1535  0.2281  0.1219
 5492SOL    HW128112   4.412   4.083  10.081 -1.7088 -0.0979 -0.8939
 5492SOL    HW228113   4.423   4.000   9.956  1.1080 -0.3056 -0.2125
 5493SOL     OW28114   4.298   1.937   1.089 -0.2573  0.3400 -0.3907
 5493SOL    HW128115   4.308   2.027   1.120 -1.0077  0.2331  0.1529
 5493SOL    HW228116   4.204   1.922   1.094 -0.7651  3.9837  1.4097
 5494SOL     OW28117   2.847   3.225  16.042  0.4814  0.2773 -0.0163
 5494SOL    HW128118   2.832   3.288  16.112 -0.3667  0.9775 -0.8312
 5494SOL    HW228119   2.932   3.196  16.076  0.9613  0.3354 -1.1397
 5495SOL     OW28120   3.159   0.303  10.428  0.2909  0.0637  0.3172
 5495SOL    HW128121   3.202   0.218  10.426  0.8768  0.2516  3.5961
 5495SOL    HW228122   3.112   0.307  10.512  0.6974  1.0664  0.5067
 5496SOL     OW28123   1.718   1.516   7.254 -0.4711  0.3880  0.3100
 5496SOL    HW128124   1.670   1.570   7.317 -2.0366 -0.9494  0.2756
 5496SOL    HW228125   1.666   1.438   7.235  0.4792 -0.1711 -0.0089
 5497SOL     OW28126   2.893   0.035   9.455 -0.5217 -0.4388  0.6638
 5497SOL    HW128127   2.849   0.085   9.524  1.7205  0.4129  1.4626
 5497SOL    HW228128   2.938   4.713   9.516 -1.0817 -1.9035 -0.3316
 5498SOL     OW28129   2.462   0.464   7.843 -0.5179  0.5964  0.7156
 5498SOL    HW128130   2.505   0.461   7.758 -1.6809  1.0130  0.1121
 5498SOL    HW228131   2.536   0.490   7.898  1.4015 -1.8191 -0.7142
 5499SOL     OW28132   3.590   1.415  14.991 -0.5819  0.3785 -0.3282
 5499SOL    HW128133   3.589   1.489  14.931  0.3991  1.6278  1.1702
 5499SOL    HW228134   3.677   1.420  15.032 -1.6425  1.5767  1.7876
 5500SOL     OW28135   1.360   1.659   6.420  0.1166 -0.5384 -0.7033
 5500SOL    HW128136   1.278   1.676   6.373 -0.1452 -0.1761 -0.1082
 5500SOL    HW228137   1.428   1.671   6.353  0.2275 -0.7889 -0.6362
 5501SOL     OW28138   3.614   2.896   5.885  0.6444 -0.0804  0.0145
 5501SOL    HW128139   3.540   2.956   5.897  2.5409  2.3668 -0.4317
 5501SOL    HW228140   3.619   2.865   5.795  1.6109  2.5007 -0.8220
 5502SOL     OW28141   0.451   0.199   4.555  0.1571 -0.0723  0.7726
 5502SOL    HW128142   0.389   0.219   4.625 -0.4220 -1.0542  0.5393
 5502SOL    HW228143   0.393   0.191   4.479 -0.3812 -1.1437  1.2886
 5503SOL     OW28144   4.665   2.229  15.930 -0.2179 -0.7588 -0.3517
 5503SOL    HW128145   4.729   2.229  15.859 -2.0618  1.2901 -2.0198
 5503SOL    HW228146   4.661   2.323  15.950 -0.3111 -1.1993  1.6469
 5504SOL     OW28147   3.030   1.791  17.300  0.3426  1.0564 -0.3615
 5504SOL    HW128148   3.022   1.726  17.231 -1.0828  0.9473 -0.1121
 5504SOL    HW228149   3.123   1.808  17.308  0.4619 -0.2988  1.0741
 5505SOL     OW28150   1.746   1.754   1.295 -0.2892 -0.1858  0.6599
 5505SOL    HW128151   1.788   1.771   1.211 -0.8914  0.6579  0.5390
 5505SOL    HW228152   1.661   1.721   1.264 -0.0361  0.4397 -0.7192
 5506SOL     OW28153   0.726   2.432   6.468 -0.5056 -0.3912 -0.2133
 5506SOL    HW128154   0.681   2.515   6.484  0.1036 -0.4086  1.5466
 5506SOL    HW228155   0.723   2.441   6.373  0.0763 -1.1438 -0.2977
 5507SOL     OW28156   3.827   3.981   6.833  0.2789 -0.0792  0.2316
 5507SOL    HW128157   3.892   4.041   6.796  1.0038 -1.3566 -0.5706
 5507SOL    HW228158   3.766   3.975   6.760  1.1763  1.5887 -0.6483
 5508SOL     OW28159   0.954   3.127   3.288 -0.2947 -0.0180  0.6428
 5508SOL    HW128160   0.985   3.179   3.362  1.6146 -0.1021 -0.0841
 5508SOL    HW228161   0.946   3.044   3.334 -1.7293  0.5190  1.3804
 5509SOL     OW28162   3.700   1.223   3.811  0.0289 -0.1638 -0.1383
 5509SOL    HW128163   3.724   1.202   3.721 -3.2801 -0.9280 -0.8602
 5509SOL    HW228164   3.686   1.134   3.845 -0.0377  0.5456  1.6370
 5510SOL     OW28165   0.965   0.079   6.729 -0.1413 -0.4425 -0.5429
 5510SOL    HW128166   1.049   0.113   6.761 -0.5011 -0.7500  0.7354
 5510SOL    HW228167   0.987   0.067   6.636 -1.3107 -2.8731 -0.5017
 5511SOL     OW28168   3.217   4.584   4.451 -0.4395 -0.7535 -0.7785
 5511SOL    HW128169   3.180   4.583   4.362  0.4802  0.4117 -1.1765
 5511SOL    HW228170   3.274   4.661   4.445 -0.6494 -0.6139 -1.0278
 5512SOL     OW28171   0.638   1.543   4.120  0.1168 -0.4718  0.1559
 5512SOL    HW128172   0.646   1.448   4.129  0.5001 -0.3973  0.5806
 5512SOL    HW228173   0.547   1.563   4.141 -0.2527 -0.4563 -1.4083
 5513SOL     OW28174   1.117   2.339   6.472  0.0048  0.0210 -0.3435
 5513SOL    HW128175   1.186   2.279   6.501 -0.0733  1.1746  2.2143
 5513SOL    HW228176   1.056   2.300   6.534  2.9207 -0.0040  2.5001
 5514SOL     OW28177   1.936   3.661  17.223  0.3425  0.3402 -0.0735
 5514SOL    HW128178   2.030   3.663  17.207  0.2649  0.2057 -0.5606
 5514SOL    HW228179   1.911   3.582  17.174  0.2189 -0.4509  1.2549
 5515SOL     OW28180   3.387   4.490   9.703 -0.4840 -0.5887 -0.5029
 5515SOL    HW128181   3.383   4.398   9.676 -1.1506 -0.9107  0.6767
 5515SOL    HW228182   3.298   4.498   9.737 -0.6715 -0.6281 -0.9818
 5516SOL     OW28183   2.757   3.955   1.480  0.2635 -0.2347  0.0985
 5516SOL    HW128184   2.688   3.980   1.542  0.9837  1.1680  0.3342
 5516SOL    HW228185   2.789   3.871   1.513  0.7372  0.2654  0.9368
 5517SOL     OW28186   3.920   0.582  16.758 -0.0462 -1.1761  0.0835
 5517SOL    HW128187   3.904   0.674  16.738  0.4217 -1.1292 -0.0912
 5517SOL    HW228188   4.001   0.586  16.810  1.5841  3.0810 -2.7368
 5518SOL     OW28189   3.281   2.370   8.799 -0.3968  0.1122  0.4720
 5518SOL    HW128190   3.275   2.381   8.894  0.9902  2.4263  0.2814
 5518SOL    HW228191   3.346   2.300   8.789 -0.4561 -0.1216  1.6813
 5519SOL     OW28192   1.846   2.828   6.445 -0.8136  0.1171 -0.3807
 5519SOL    HW128193   1.756   2.851   6.424 -0.6730  0.6457 -0.4037
 5519SOL    HW228194   1.889   2.914   6.451 -0.2306 -0.0269 -2.4947
 5520SOL     OW28195   2.732   3.851  15.640  0.7999  0.2229 -0.8332
 5520SOL    HW128196   2.794   3.786  15.675  0.9592  0.7091 -0.2008
 5520SOL    HW228197   2.699   3.808  15.561  0.7874 -2.4328  0.5892
 5521SOL     OW28198   0.592   4.535  15.192  0.2150 -0.8342 -0.0630
 5521SOL    HW128199   0.642   4.492  15.123 -1.7128 -2.2788 -0.5642
 5521SOL    HW228200   0.542   4.465  15.232  0.6458 -0.8898  0.3795
 5522SOL     OW28201   0.148   0.107   3.728 -0.7361  0.1702  0.3873
 5522SOL    HW128202   0.212   0.126   3.797  0.1397 -1.3327 -0.0308
 5522SOL    HW228203   0.218   0.076   3.671 -2.0176 -1.3813 -0.3565
 5523SOL     OW28204   3.808   3.140   3.609  0.4488 -0.0629  0.1182
 5523SOL    HW128205   3.732   3.082   3.609  0.1105  0.3844 -1.8398
 5523SOL    HW228206   3.872   3.108   3.672  0.4071  0.6961  0.5522
 5524SOL     OW28207   2.750   0.096  13.103  0.0229 -0.0180  0.2481
 5524SOL    HW128208   2.777   0.180  13.067 -1.3030 -0.4917 -1.8473
 5524SOL    HW228209   2.792   0.036  13.041  0.7574  0.0852  0.6498
 5525SOL     OW28210   1.639   3.029   2.774  0.2817 -0.4681  0.1920
 5525SOL    HW128211   1.644   2.964   2.704 -1.4714  0.4342 -0.7818
 5525SOL    HW228212   1.545   3.024   2.792  0.1628 -0.7632 -0.5080
 5526SOL     OW28213   3.938   2.678  15.359 -0.4683  0.4350  0.2176
 5526SOL    HW128214   3.986   2.596  15.369 -2.5118 -0.8485 -0.4285
 5526SOL    HW228215   3.997   2.740  15.317 -1.2507  1.0035 -0.0522
 5527SOL     OW28216   3.343   4.135   3.667  0.6081 -0.0470 -0.0825
 5527SOL    HW128217   3.403   4.142   3.592  1.2098  0.5394  0.4563
 5527SOL    HW228218   3.412   4.128   3.733 -1.4800 -2.3005  1.8349
 5528SOL     OW28219   1.983   4.672   0.388  0.2140  0.3808 -0.4944
 5528SOL    HW128220   1.945   0.019   0.414 -1.7816 -0.2427 -1.4341
 5528SOL    HW228221   2.064   4.687   0.436  0.1964  0.0891 -0.3677
 5529SOL     OW28222   1.017   2.672   0.454 -0.1599  0.4255  0.4389
 5529SOL    HW128223   0.990   2.654   0.364 -0.5867 -2.5471  1.1619
 5529SOL    HW228224   1.083   2.738   0.437 -1.9257  2.2695  0.6784
 5530SOL     OW28225   3.442   2.062  13.219 -0.1818  0.1999  0.4180
 5530SOL    HW128226   3.533   2.078  13.246 -0.1004  2.0433 -0.9418
 5530SOL    HW228227   3.454   2.022  13.133 -0.5168 -0.1994  0.5596
 5531SOL     OW28228   3.620   0.105  16.949 -0.8428 -0.7554 -0.4008
 5531SOL    HW128229   3.666   0.151  17.019 -2.3079  1.0451 -0.6282
 5531SOL    HW228230   3.680   0.056  16.893  1.4020  0.9753  0.4951
 5532SOL     OW28231   4.725   2.102   5.514  0.6279 -0.1186  0.0443
 5532SOL    HW128232   4.630   2.118   5.507  0.6396 -1.1928 -2.4281
 5532SOL    HW228233   4.726   2.015   5.553 -3.5807 -1.3441 -2.5383
 5533SOL     OW28234   1.291   1.436  17.398  0.3908  0.0351 -0.0716
 5533SOL    HW128235   1.281   1.531  17.403 -0.1952  0.0135 -0.9017
 5533SOL    HW228236   1.208   1.421  17.444  0.5707 -0.7243  0.0091
 5534SOL     OW28237   4.638   3.739   2.859 -0.1245  0.4488 -0.6348
 5534SOL    HW128238   4.671   3.781   2.779  0.8979 -1.1762 -1.0651
 5534SOL    HW228239   4.578   3.803   2.897  3.2259  2.1991  1.7058
 5535SOL     OW28240   1.407   1.580  10.935 -0.2312 -0.1785 -0.0787
 5535SOL    HW128241   1.381   1.575  11.027  1.6435  1.3919  0.5283
 5535SOL    HW228242   1.416   1.675  10.938  0.0316 -0.1911 -0.5163
 5536SOL     OW28243   0.601   1.485  10.229 -0.3469  0.0342  0.5932
 5536SOL    HW128244   0.607   1.396  10.264  2.2251 -0.7257 -1.7077
 5536SOL    HW228245   0.513   1.476  10.194  0.7177  0.9312 -2.3629
 5537SOL     OW28246   3.185   3.028   4.464  0.0150  0.5975  0.0794
 5537SOL    HW128247   3.096   2.993   4.457  0.3287 -0.0024 -0.8372
 5537SOL    HW228248   3.234   2.957   4.422  1.0255  1.6964 -0.5840
 5538SOL     OW28249   0.662   2.331   5.445  0.3012 -0.4483 -0.2276
 5538SOL    HW128250   0.631   2.399   5.505 -0.2742  0.8279 -1.9776
 5538SOL    HW228251   0.703   2.270   5.507  1.1094 -0.7817 -1.0998
 5539SOL     OW28252   0.339   2.016   8.888 -0.4038 -0.2382  0.4794
 5539SOL    HW128253   0.313   1.943   8.944 -1.1485 -0.5320 -0.2498
 5539SOL    HW228254   0.373   2.078   8.953  1.7985  0.4674 -1.3588
 5540SOL     OW28255   3.725   1.660   5.906 -0.6344 -0.3974 -0.3825
 5540SOL    HW128256   3.683   1.628   5.986  0.9369  2.3583  1.5406
 5540SOL    HW228257   3.761   1.582   5.864  0.5614 -0.1003  0.1086
 5541SOL     OW28258   2.108   3.359  13.211 -0.3725  0.1587  0.5286
 5541SOL    HW128259   2.106   3.306  13.290 -2.0463  2.4075  2.0021
 5541SOL    HW228260   2.013   3.369  13.201 -0.6574 -3.4174 -0.3298
 5542SOL     OW28261   0.326   3.723  11.885  0.1322 -0.0828  0.0559
 5542SOL    HW128262   0.232   3.706  11.892 -0.0087  1.5409  1.8351
 5542SOL    HW228263   0.349   3.655  11.820  0.3082  0.9433 -0.9497
 5543SOL     OW28264   0.107   1.855   8.466 -0.2268 -0.1210  0.1433
 5543SOL    HW128265   0.150   1.773   8.445 -0.1827 -0.3369  1.0504
 5543SOL    HW228266   0.090   1.836   8.558 -1.4097 -0.0297 -0.0552
 5544SOL     OW28267   1.171   0.999   4.713  0.1604  0.3984  0.5063
 5544SOL    HW128268   1.168   0.917   4.762 -0.9906  1.3127  1.9630
 5544SOL    HW228269   1.087   1.000   4.668  0.9404 -3.0672 -0.9893
 5545SOL     OW28270   3.913   1.799  14.182 -0.8470 -0.2472 -0.6928
 5545SOL    HW128271   3.895   1.845  14.264 -0.2552  1.0941 -1.3133
 5545SOL    HW228272   3.852   1.845  14.124 -2.0466 -0.0550  0.7261
 5546SOL     OW28273   1.774   0.147   4.730 -0.6682  0.6423  0.2367
 5546SOL    HW128274   1.704   0.199   4.769 -0.1835  1.2008  0.3659
 5546SOL    HW228275   1.721   0.073   4.700  1.1915 -0.6097  0.0888
 5547SOL     OW28276   0.011   2.372  17.074 -0.6259 -0.1039 -0.4701
 5547SOL    HW128277   0.021   2.432  17.000 -1.0520 -0.3654 -0.7442
 5547SOL    HW228278   0.100   2.374  17.110 -1.2398  0.5599  1.0214
 5548SOL     OW28279   1.861   3.153   2.874 -0.1179  0.3021 -0.2671
 5548SOL    HW128280   1.785   3.128   2.822 -0.0400 -0.9421  0.2281
 5548SOL    HW228281   1.871   3.240   2.836 -1.3077 -0.3662 -2.1337
 5549SOL     OW28282   1.393   2.468  14.593 -0.1286 -0.1113  0.5414
 5549SOL    HW128283   1.443   2.536  14.548  1.8205 -1.3148  0.8700
 5549SOL    HW228284   1.465   2.407  14.613 -0.9238 -2.1350 -2.7519
 5550SOL     OW28285   2.976   0.501  13.900  0.2842 -0.7217 -0.4491
 5550SOL    HW128286   3.038   0.568  13.873  0.0876  0.6567  2.4701
 5550SOL    HW228287   3.006   0.472  13.987 -1.1667 -0.2477  0.2157
 5551SOL     OW28288   0.685   0.993  15.142  0.4192  0.0911 -0.1347
 5551SOL    HW128289   0.744   1.068  15.150  1.6077 -0.9300  0.5524
 5551SOL    HW228290   0.685   0.972  15.236  0.4342  2.1688  0.3382
 5552SOL     OW28291   1.742   3.191  12.597 -0.0012 -0.0636  0.1285
 5552SOL    HW128292   1.722   3.099  12.614  0.7950 -0.9205 -3.5895
 5552SOL    HW228293   1.829   3.184  12.559 -0.8370  0.4523 -1.8698
 5553SOL     OW28294   0.954   3.066   1.811 -0.2052 -0.2373  0.2456
 5553SOL    HW128295   1.002   2.995   1.768 -0.7122 -0.2559 -0.2812
 5553SOL    HW228296   0.961   3.030   1.900  2.0430  0.3257  0.2956
 5554SOL     OW28297   4.458   3.826   1.665 -0.0382  0.0398  0.2380
 5554SOL    HW128298   4.534   3.852   1.614 -0.5593 -1.9252 -1.5890
 5554SOL    HW228299   4.400   3.897   1.638 -0.3443 -0.2626  0.0883
 5555SOL     OW28300   1.947   0.781   6.629  0.4542  0.0434 -0.2524
 5555SOL    HW128301   1.929   0.702   6.680  1.1998 -0.6454 -1.0500
 5555SOL    HW228302   2.003   0.751   6.558  1.1891 -1.4571  0.9631
 5556SOL     OW28303   3.975   3.600   7.577 -0.2310  0.2836 -0.2216
 5556SOL    HW128304   3.930   3.527   7.537 -2.0695  1.9291 -1.1485
 5556SOL    HW228305   4.039   3.559   7.636 -0.1020  2.6232  1.2905
 5557SOL     OW28306   0.022   4.622   4.580  0.8906  0.1313 -0.4711
 5557SOL    HW128307   4.667   4.639   4.603  0.2190 -4.1934  0.1898
 5557SOL    HW228308   0.067   4.640   4.663  0.8812 -1.4784 -0.1026
 5558SOL     OW28309   2.521   0.768   5.295  0.6410  0.5396  0.4508
 5558SOL    HW128310   2.564   0.690   5.328  0.6704  0.4988  0.3158
 5558SOL    HW228311   2.589   0.807   5.240 -0.4810  1.1892 -0.4777
 5559SOL     OW28312   3.419   3.782   9.035 -0.1673  0.6635  0.2229
 5559SOL    HW128313   3.426   3.691   9.064  1.5837  0.9211  0.5817
 5559SOL    HW228314   3.492   3.819   9.085 -0.1083 -0.3697  0.9063
 5560SOL     OW28315   3.801   2.334   8.556  0.2074 -0.0456  0.1077
 5560SOL    HW128316   3.865   2.405   8.561  1.0828 -0.7898 -0.4239
 5560SOL    HW228317   3.722   2.385   8.541  0.3470 -0.5192 -2.2344
 5561SOL     OW28318   1.595   3.682  16.442  0.2144 -0.2966  0.0957
 5561SOL    HW128319   1.619   3.771  16.469  2.7112 -0.6063 -1.0915
 5561SOL    HW228320   1.515   3.698  16.393  1.2680 -0.0761 -1.5666
 5562SOL     OW28321   0.645   1.939   6.222  0.7225  0.3369  0.1176
 5562SOL    HW128322   0.739   1.921   6.222  1.1615  2.7252 -2.8950
 5562SOL    HW228323   0.611   1.866   6.171  0.8274 -0.7536  1.5942
 5563SOL     OW28324   2.135   0.599   6.083  0.4601 -0.1631  0.7104
 5563SOL    HW128325   2.228   0.617   6.069  0.5602 -2.2124 -1.2815
 5563SOL    HW228326   2.129   0.504   6.075 -0.7431  0.2116 -2.8902
 5564SOL     OW28327   1.864   4.186   4.510 -0.3242  0.0553  0.0482
 5564SOL    HW128328   1.831   4.252   4.571  0.2525 -0.0837  0.5104
 5564SOL    HW228329   1.957   4.209   4.511  0.3743 -2.7833  0.8791
 5565SOL     OW28330   1.235   2.835   6.875 -0.2993  0.0286  0.3510
 5565SOL    HW128331   1.219   2.883   6.956 -0.2121  0.1150  0.3178
 5565SOL    HW228332   1.306   2.884   6.832 -0.8561  2.1534  1.8625
 5566SOL     OW28333   1.492   2.046   1.073  0.0028  0.4324  0.1075
 5566SOL    HW128334   1.559   2.100   1.031  0.0012  0.3431 -0.0073
 5566SOL    HW228335   1.432   2.032   1.001  1.0627  0.1327 -0.7188
 5567SOL     OW28336   3.548   3.685   8.242  0.1025 -0.5546  0.6581
 5567SOL    HW128337   3.575   3.680   8.334  1.5844 -1.3456  0.1856
 5567SOL    HW228338   3.617   3.743   8.210  0.2602 -0.8654  0.4339
 5568SOL     OW28339   3.734   3.389   4.557  0.2320  0.1177  0.8252
 5568SOL    HW128340   3.696   3.315   4.510 -2.6257  0.8806  1.9167
 5568SOL    HW228341   3.706   3.464   4.504 -2.0262 -0.7856  0.7111
 5569SOL     OW28342   2.010   1.249   3.552  0.1661  0.1381 -0.0401
 5569SOL    HW128343   2.059   1.242   3.470  0.1460  0.0571 -0.0448
 5569SOL    HW228344   1.956   1.174   3.530  1.3104 -0.5158 -0.6567
 5570SOL     OW28345   1.581   0.467  17.163  0.7631 -0.0959  0.0309
 5570SOL    HW128346   1.491   0.492  17.185  0.1976 -1.6855 -0.4667
 5570SOL    HW228347   1.627   0.544  17.196 -0.6708  0.5463  0.5206
 5571SOL     OW28348   0.629   1.495   3.527  0.7330 -0.5032  0.2430
 5571SOL    HW128349   0.706   1.464   3.480 -0.3011 -0.1556 -1.7040
 5571SOL    HW228350   0.611   1.426   3.591 -0.0522 -2.3889 -1.9713
 5572SOL     OW28351   1.301   2.185   3.330  0.1086 -0.1329  0.0490
 5572SOL    HW128352   1.225   2.242   3.322  0.7451  1.0441  2.4442
 5572SOL    HW228353   1.274   2.151   3.415 -2.9908  2.4477  0.1006
 5573SOL     OW28354   3.772   0.423  10.901  0.3125  0.0070 -0.3052
 5573SOL    HW128355   3.827   0.423  10.823  1.7815 -0.7976  0.7269
 5573SOL    HW228356   3.723   0.503  10.883 -2.7613 -1.9026 -0.3576
 5574SOL     OW28357   0.241   3.351   8.068 -0.1204  0.1999  0.2850
 5574SOL    HW128358   0.177   3.307   8.013  0.1546  0.1023  0.0431
 5574SOL    HW228359   0.294   3.394   8.002 -1.7773 -1.3777 -2.0508
 5575SOL     OW28360   3.058   1.176  13.304 -0.1398 -0.3611  0.1788
 5575SOL    HW128361   3.075   1.167  13.398  0.4560  0.9956  0.1999
 5575SOL    HW228362   2.962   1.169  13.301 -0.1372 -0.5199  0.4146
 5576SOL     OW28363   1.336   1.201   4.616  0.4550 -0.0251  0.5175
 5576SOL    HW128364   1.280   1.127   4.596 -1.4710  1.2802  1.1415
 5576SOL    HW228365   1.340   1.246   4.532 -1.8799 -1.7709 -0.5060
 5577SOL     OW28366   1.361   0.597   7.093 -0.3861 -0.4782 -0.1488
 5577SOL    HW128367   1.286   0.656   7.097 -0.4105 -0.4636 -0.9578
 5577SOL    HW228368   1.416   0.622   7.168 -0.2986  0.2378 -0.4483
 5578SOL     OW28369   2.813   1.643  13.767  0.5400 -0.2766  0.4375
 5578SOL    HW128370   2.876   1.714  13.759  0.3820 -0.2443 -0.5439
 5578SOL    HW228371   2.872   1.581  13.811 -2.4454 -0.6656  3.8501
 5579SOL     OW28372   3.006   0.728  14.413 -0.4215  0.3945  0.4797
 5579SOL    HW128373   3.004   0.786  14.337 -1.6613  0.2760  0.4247
 5579SOL    HW228374   3.098   0.733  14.439 -0.2409  3.2746 -0.7437
 5580SOL     OW28375   1.171   2.409  12.188  0.1718  0.1383 -0.6234
 5580SOL    HW128376   1.077   2.411  12.209  0.2302 -0.7196 -0.2542
 5580SOL    HW228377   1.207   2.437  12.272 -0.1133  2.5716 -1.3324
 5581SOL     OW28378   1.430   1.411  10.046 -0.3592  0.1737 -0.5932
 5581SOL    HW128379   1.378   1.383  10.121  0.5041  0.3832  0.0933
 5581SOL    HW228380   1.460   1.493  10.087 -1.7159  1.7029 -2.6433
 5582SOL     OW28381   1.852   4.339  14.618  0.5187  0.3348  0.0373
 5582SOL    HW128382   1.891   4.288  14.547 -0.4652  0.4390 -0.5824
 5582SOL    HW228383   1.779   4.284  14.645 -0.5757  0.8158 -1.8819
 5583SOL     OW28384   4.486   0.736  13.706  0.1798  0.2157 -0.0459
 5583SOL    HW128385   4.535   0.792  13.646 -2.3027  1.7784 -0.6111
 5583SOL    HW228386   4.545   0.668  13.740 -1.3255 -0.1607  1.7974
 5584SOL     OW28387   1.717   2.930   5.799 -0.3436  0.0624  0.1853
 5584SOL    HW128388   1.705   2.837   5.781  0.6204  0.5221 -2.9555
 5584SOL    HW228389   1.658   2.964   5.732 -1.0842 -1.3548  0.1288
 5585SOL     OW28390   0.871   3.756   8.756  0.5784  0.1557 -0.1861
 5585SOL    HW128391   0.850   3.664   8.774 -0.2351  0.6523  1.3447
 5585SOL    HW228392   0.827   3.795   8.831  0.7122  0.3924 -0.2293
 5586SOL     OW28393   1.625   3.898   6.730 -0.3544 -0.0600 -0.5331
 5586SOL    HW128394   1.560   3.862   6.791 -0.6074  0.0876 -0.7129
 5586SOL    HW228395   1.578   3.975   6.698 -1.9359 -1.0484 -0.6182
 5587SOL     OW28396   0.640   4.534   2.407  0.3995 -0.2985  0.1007
 5587SOL    HW128397   0.663   4.626   2.397  1.0830 -0.4921 -0.1245
 5587SOL    HW228398   0.602   4.523   2.320  0.1249  0.3701  0.1392
 5588SOL     OW28399   4.253   1.005   6.581  0.9323  0.5230  0.4229
 5588SOL    HW128400   4.230   1.097   6.571  0.3579  0.4061  0.6964
 5588SOL    HW228401   4.253   0.982   6.488 -1.4778  1.0799  0.2985
 5589SOL     OW28402   0.165   3.614   8.925 -0.7427 -0.6359  0.4915
 5589SOL    HW128403   0.077   3.640   8.951 -1.2586  0.4338 -2.3797
 5589SOL    HW228404   0.211   3.656   8.998 -0.3429  1.9453 -1.2491
 5590SOL     OW28405   2.917   2.377   8.255 -0.0133  0.2743  0.3642
 5590SOL    HW128406   3.002   2.361   8.297 -0.3361  0.1271  0.9657
 5590SOL    HW228407   2.936   2.322   8.179  0.8214  0.9297  0.0960
 5591SOL     OW28408   2.502   2.464   8.237 -0.7385 -0.0865  0.4071
 5591SOL    HW128409   2.540   2.538   8.285 -0.9540  1.4302 -1.7537
 5591SOL    HW228410   2.407   2.471   8.247 -0.7779  0.7869 -0.5764
 5592SOL     OW28411   2.953   0.526   1.870  0.0872  0.1492  0.1577
 5592SOL    HW128412   2.997   0.546   1.952 -0.1333 -2.2016  0.8603
 5592SOL    HW228413   2.860   0.542   1.889 -0.0359 -2.4455  1.7328
 5593SOL     OW28414   4.736   3.625  14.402  0.1874  0.0169 -0.4445
 5593SOL    HW128415   4.725   3.553  14.340 -1.2885  0.6958 -0.9560
 5593SOL    HW228416   4.663   3.685  14.386 -0.5124 -0.9941 -1.0235
 5594SOL     OW28417   3.688   4.258   5.465  0.1643  0.5570  0.0150
 5594SOL    HW128418   3.747   4.183   5.474 -0.1376  0.1212 -1.6401
 5594SOL    HW228419   3.604   4.219   5.490 -0.4910  2.8367  1.3516
 5595SOL     OW28420   1.813   0.529   0.722 -0.0671  0.4495 -0.0879
 5595SOL    HW128421   1.900   0.567   0.711  0.2137 -0.0117  0.5401
 5595SOL    HW228422   1.796   0.483   0.640 -0.9594  1.8935 -0.7056
 5596SOL     OW28423   0.492   3.823   2.999  0.0702 -0.1453 -0.2357
 5596SOL    HW128424   0.576   3.862   2.974 -0.9155  2.6068  0.7427
 5596SOL    HW228425   0.445   3.902   3.025 -1.3962 -0.7273 -1.0949
 5597SOL     OW28426   1.298   1.309   8.512  0.1636  0.6600  0.1161
 5597SOL    HW128427   1.333   1.306   8.423 -2.7903 -0.1933 -1.0027
 5597SOL    HW228428   1.219   1.256   8.500 -0.3688  1.1845  1.2862
 5598SOL     OW28429   4.032   1.588   8.022  0.2932  0.1433  0.0980
 5598SOL    HW128430   4.072   1.547   7.946 -1.1390  2.0353 -1.6849
 5598SOL    HW228431   4.047   1.533   8.099 -0.2539  1.5068  1.1728
 5599SOL     OW28432   2.410   1.960   8.277 -0.3203 -0.2445 -0.4438
 5599SOL    HW128433   2.316   1.943   8.271 -0.0017 -2.2502  0.3942
 5599SOL    HW228434   2.454   1.877   8.293  3.3837  1.6364 -0.9139
 5600SOL     OW28435   4.230   3.420   6.596 -0.2554  0.1967 -0.3923
 5600SOL    HW128436   4.151   3.474   6.597  0.3258  1.0550 -1.4706
 5600SOL    HW228437   4.293   3.492   6.591 -2.2252  2.0125  1.0342
 5601SOL     OW28438   3.850   4.316   8.471  0.2855  0.0362  0.2456
 5601SOL    HW128439   3.937   4.338   8.502  0.4042  0.3320 -0.3026
 5601SOL    HW228440   3.863   4.296   8.379 -0.0181  1.6204 -0.1414
 5602SOL     OW28441   2.856   3.798   8.785 -0.2120  0.1027  0.0183
 5602SOL    HW128442   2.818   3.751   8.712 -0.2209 -0.3859  0.3362
 5602SOL    HW228443   2.844   3.884   8.746 -1.6518  0.1211  0.4703
 5603SOL     OW28444   2.400   2.304   3.243 -0.3421 -0.4213 -0.2125
 5603SOL    HW128445   2.428   2.388   3.280  2.7802 -1.4554 -0.2089
 5603SOL    HW228446   2.447   2.244   3.300 -2.8150 -0.1697  2.0956
 5604SOL     OW28447   0.996   2.406   5.091  0.2756  0.1087  0.5374
 5604SOL    HW128448   0.968   2.492   5.121  1.1069  0.3898  0.5106
 5604SOL    HW228449   0.964   2.343   5.155 -0.3677  1.0643  1.1581
 5605SOL     OW28450   0.615   2.085  14.137 -0.1103 -0.0157 -0.0329
 5605SOL    HW128451   0.524   2.057  14.122  0.5594 -2.0983 -0.2386
 5605SOL    HW228452   0.640   2.049  14.222 -1.8988  1.2498  1.0341
 5606SOL     OW28453   3.649   0.955   3.935 -0.4878  0.6745  0.4300
 5606SOL    HW128454   3.582   0.983   3.998  0.3326 -0.8445  1.9868
 5606SOL    HW228455   3.703   0.912   4.002 -0.1856  0.2647 -0.0804
 5607SOL     OW28456   2.785   3.446   7.054  0.0413 -0.0210 -0.9499
 5607SOL    HW128457   2.878   3.465   7.065 -0.5736  0.9588  2.4597
 5607SOL    HW228458   2.766   3.374   7.113 -0.5531  2.1576  1.5402
 5608SOL     OW28459   1.708   3.602   8.692  0.0771 -0.0206  0.1477
 5608SOL    HW128460   1.799   3.628   8.684 -0.1154  0.9849  1.2482
 5608SOL    HW228461   1.706   3.538   8.620  2.1822 -1.2632  1.1728
 5609SOL     OW28462   3.423   2.673   5.190 -0.1634 -0.2872 -0.7318
 5609SOL    HW128463   3.420   2.636   5.278  0.2842  1.6627  0.1180
 5609SOL    HW228464   3.362   2.746   5.203 -0.3074 -0.1589 -2.1519
 5610SOL     OW28465   4.708   2.663  16.839  0.0264 -1.1696 -0.0138
 5610SOL    HW128466   4.695   2.720  16.764  0.7388 -0.3672  0.4781
 5610SOL    HW228467   4.680   2.578  16.806 -3.7462 -0.6811  1.9630
 5611SOL     OW28468   2.520   0.776   1.465 -0.1697  0.0642 -0.1140
 5611SOL    HW128469   2.611   0.805   1.470 -0.3124  0.2695  1.3276
 5611SOL    HW228470   2.484   0.862   1.443  1.3710  0.4198 -1.2202
 5612SOL     OW28471   2.276   3.576   2.195 -0.0586 -0.3967 -0.7765
 5612SOL    HW128472   2.303   3.551   2.283 -0.9065 -0.0696 -0.4149
 5612SOL    HW228473   2.201   3.516   2.190  0.1196 -0.6199 -0.7217
 5613SOL     OW28474   0.643   1.882  16.984 -0.2442  0.1550 -0.0366
 5613SOL    HW128475   0.621   1.805  17.036 -0.0914 -0.6595 -1.1731
 5613SOL    HW228476   0.732   1.851  16.970  0.7529  2.6911  0.5670
 5614SOL     OW28477   2.021   1.974  15.565 -0.1263  0.0400 -0.7404
 5614SOL    HW128478   2.115   1.954  15.563 -0.2599 -0.8172  1.4760
 5614SOL    HW228479   2.006   2.011  15.478 -2.0361  0.9313 -0.0446
 5615SOL     OW28480   2.009   1.803   2.652  0.3003 -0.1427  0.0547
 5615SOL    HW128481   1.953   1.876   2.680  0.7731  0.3396 -0.2599
 5615SOL    HW228482   1.957   1.764   2.581 -0.7375  0.3727  0.5257
 5616SOL     OW28483   0.987   1.206   3.439 -0.1046  0.2868 -0.1325
 5616SOL    HW128484   0.959   1.187   3.529  1.7742  1.9974  0.8248
 5616SOL    HW228485   0.973   1.122   3.397  2.5414  0.1120 -0.6504
 5617SOL     OW28486   3.868   1.347   5.440 -0.3077 -0.3663  0.0605
 5617SOL    HW128487   3.845   1.372   5.529 -0.6453  0.0212 -0.1333
 5617SOL    HW228488   3.901   1.260   5.462  0.6228  0.4372  1.8521
 5618SOL     OW28489   0.626   1.889  15.557  0.1454  0.0807 -0.0265
 5618SOL    HW128490   0.662   1.976  15.541 -1.4421  0.9506  1.2382
 5618SOL    HW228491   0.535   1.907  15.536 -0.6213 -1.9848  1.5134
 5619SOL     OW28492   2.437   1.334   4.214 -0.2936 -0.2797 -0.8886
 5619SOL    HW128493   2.393   1.253   4.185  0.4133 -0.6086 -1.0420
 5619SOL    HW228494   2.472   1.382   4.139  1.7631 -2.7626 -1.5117
 5620SOL     OW28495   3.700   2.129   9.053 -0.3187  0.1210  0.4239
 5620SOL    HW128496   3.631   2.192   9.074 -1.8922 -1.1873 -0.8305
 5620SOL    HW228497   3.727   2.110   9.143  1.6802 -0.0566 -0.2171
 5621SOL     OW28498   1.904   2.806   7.874 -0.1340  0.0903  0.0535
 5621SOL    HW128499   1.837   2.754   7.830 -0.6411  1.5188 -0.8625
 5621SOL    HW228500   1.979   2.785   7.819  0.6689  3.3464 -0.0808
 5622SOL     OW28501   3.516   2.232   3.673  0.2402  0.1832 -0.2234
 5622SOL    HW128502   3.422   2.234   3.660 -0.0469 -2.1248  1.4203
 5622SOL    HW228503   3.540   2.145   3.640  0.7275  0.3327 -0.2735
 5623SOL     OW28504   0.712   2.864   3.332 -0.1035 -0.3439  0.0858
 5623SOL    HW128505   0.796   2.863   3.379 -0.0094 -0.7063 -0.0915
 5623SOL    HW228506   0.674   2.931   3.388  4.1694  1.8293  0.3784
 5624SOL     OW28507   4.659   2.431   8.620  0.7716 -0.1758 -0.1396
 5624SOL    HW128508   4.725   2.500   8.607  0.7890 -0.3194 -0.7645
 5624SOL    HW228509   4.706   2.348   8.616  1.5457  0.2229  0.6022
 5625SOL     OW28510   4.123   1.201  11.221 -0.1565  0.3309  0.0216
 5625SOL    HW128511   4.206   1.156  11.236  0.0663  0.2421 -1.4617
 5625SOL    HW228512   4.138   1.290  11.255 -1.2329  0.4763  0.1267
 5626SOL     OW28513   3.979   2.771   5.040 -0.1060  0.2716 -0.3367
 5626SOL    HW128514   3.991   2.787   5.134  2.4960  0.1046 -0.6289
 5626SOL    HW228515   3.885   2.759   5.048 -0.1236  0.2602 -0.5789
 5627SOL     OW28516   3.251   1.503   8.829  0.2728  0.1362  0.5805
 5627SOL    HW128517   3.221   1.579   8.780 -3.2219 -2.3805 -1.1272
 5627SOL    HW228518   3.166   1.459   8.835 -0.0186  1.0180  2.8101
 5628SOL     OW28519   4.255   4.298  12.747 -0.0099 -0.2336 -0.2321
 5628SOL    HW128520   4.223   4.383  12.775 -1.3585 -0.3237 -1.5057
 5628SOL    HW228521   4.236   4.247  12.825  3.9558 -1.3721  0.0070
 5629SOL     OW28522   2.382   3.075   3.520 -0.6940  0.4232  0.0077
 5629SOL    HW128523   2.392   3.168   3.540  1.1190  0.5163 -1.3203
 5629SOL    HW228524   2.405   3.036   3.605 -2.1663  1.4973  0.8939
 5630SOL     OW28525   4.299   4.730   5.585  0.3704 -0.1573 -0.0619
 5630SOL    HW128526   4.330   0.057   5.520  1.6842  0.4868  1.2026
 5630SOL    HW228527   4.329   4.647   5.548  0.1679 -0.3412  0.1868
 5631SOL     OW28528   0.001   1.166   3.465  0.4164  0.1397 -0.0791
 5631SOL    HW128529   4.693   1.197   3.387 -1.3295  0.8407  1.1897
 5631SOL    HW228530   0.069   1.107   3.431  0.9361 -0.3921  1.8762
 5632SOL     OW28531   4.020   1.590  15.776 -0.1845 -0.0911  0.2460
 5632SOL    HW128532   4.094   1.567  15.720 -1.8314 -0.5511 -1.7596
 5632SOL    HW228533   3.956   1.624  15.713  0.8927  0.2944 -0.6483
 5633SOL     OW28534   3.019   3.071   2.863  0.0716 -0.3524 -0.0606
 5633SOL    HW128535   3.009   3.099   2.953 -0.3308  1.3381 -0.6403
 5633SOL    HW228536   3.114   3.071   2.850  0.3841  1.9750  2.4655
 5634SOL     OW28537   3.707   3.983  12.809 -0.2756  0.2732 -0.2190
 5634SOL    HW128538   3.754   4.013  12.887 -0.1252  0.8064 -0.5182
 5634SOL    HW228539   3.749   4.015  12.729  0.0074  0.0203 -0.1667
 5635SOL     OW28540   1.418   4.336   2.847  0.3506 -0.3598 -0.4157
 5635SOL    HW128541   1.327   4.366   2.844 -0.2010 -1.9460  0.9978
 5635SOL    HW228542   1.411   4.255   2.797 -0.0406 -0.7928  0.3535
 5636SOL     OW28543   0.980   2.552   5.617 -0.1529  0.4150  0.4588
 5636SOL    HW128544   0.906   2.612   5.606 -0.1753  0.1689 -0.8277
 5636SOL    HW228545   0.982   2.506   5.533 -0.1549  0.9704  0.1537
 5637SOL     OW28546   0.749   3.797   6.275  0.2874 -0.3385 -0.1481
 5637SOL    HW128547   0.712   3.711   6.294 -0.0762 -0.1329  0.0803
 5637SOL    HW228548   0.672   3.846   6.246 -0.1830  0.9885  3.3297
 5638SOL     OW28549   1.870   0.247   7.002 -0.3276  0.0114 -0.2606
 5638SOL    HW128550   1.964   0.259   7.019 -0.9013  2.3510  1.3128
 5638SOL    HW228551   1.845   0.168   7.050  0.7954  0.8004  1.6364
 5639SOL     OW28552   3.343   1.321   2.789 -0.3511 -0.6104 -0.1619
 5639SOL    HW128553   3.428   1.364   2.779  0.9931 -2.9123  1.2299
 5639SOL    HW228554   3.290   1.390   2.830  2.1697  1.2643 -0.0566
 5640SOL     OW28555   1.013   1.467   8.478  0.3477  0.1164 -0.5532
 5640SOL    HW128556   1.076   1.427   8.418  1.1726 -0.9722  1.0366
 5640SOL    HW228557   0.934   1.414   8.468  0.7178 -0.4548 -0.4407
 5641SOL     OW28558   4.667   3.530  16.022 -0.3813 -0.0885  0.1396
 5641SOL    HW128559   4.686   3.441  16.053  0.2285  0.5838  1.6598
 5641SOL    HW228560   4.586   3.559  16.062 -0.1045  0.6908  0.1361
 5642SOL     OW28561   1.968   1.437   5.942 -0.0243 -0.0369  0.5166
 5642SOL    HW128562   2.009   1.513   5.902  0.0517 -1.4065 -2.0238
 5642SOL    HW228563   1.880   1.474   5.948  0.6629  1.8622 -1.1495
 5643SOL     OW28564   4.040   2.213   8.777  0.0186  0.1765  0.3378
 5643SOL    HW128565   4.105   2.227   8.845 -0.0816 -0.0804  0.4865
 5643SOL    HW228566   4.097   2.232   8.703 -1.1346  1.1886 -0.2998
 5644SOL     OW28567   0.893   1.406   3.281  0.3067 -0.3599 -0.0941
 5644SOL    HW128568   0.815   1.352   3.291 -1.0339  1.0242 -3.1997
 5644SOL    HW228569   0.958   1.364   3.339  3.1096  0.1935 -2.8176
 5645SOL     OW28570   4.050   3.424   1.667 -0.1297 -0.0611 -0.0001
 5645SOL    HW128571   4.073   3.516   1.680  0.6554 -0.4082  1.0424
 5645SOL    HW228572   4.126   3.403   1.612  0.5509  1.9943  0.1699
 5646SOL     OW28573   2.190   3.984   9.723  0.0049 -0.2825  0.1261
 5646SOL    HW128574   2.247   3.919   9.682  3.2820  3.1416 -0.7010
 5646SOL    HW228575   2.117   3.936   9.761  0.5776 -0.7165  0.6756
 5647SOL     OW28576   0.166   4.431   6.915 -0.0132  0.4773 -1.1642
 5647SOL    HW128577   0.143   4.400   6.827 -1.0678  0.3750 -0.8598
 5647SOL    HW228578   0.136   4.521   6.907 -1.2570 -0.1014 -3.1392
 5648SOL     OW28579   2.009   3.499   9.724  0.2364 -0.1399 -0.1440
 5648SOL    HW128580   1.993   3.442   9.799 -3.3958 -2.1723 -2.4547
 5648SOL    HW228581   1.993   3.439   9.652  0.4204  2.0499 -2.0348
 5649SOL     OW28582   4.426   1.331   1.573  0.2642  0.4333  0.7558
 5649SOL    HW128583   4.420   1.403   1.509  2.5048 -0.8219 -0.8605
 5649SOL    HW228584   4.394   1.260   1.517 -0.4317  0.5219  1.0372
 5650SOL     OW28585   3.005   0.062   6.389 -0.3737 -0.1632 -0.0983
 5650SOL    HW128586   3.009   0.102   6.476 -2.8531 -0.0935  0.0086
 5650SOL    HW228587   2.954   0.124   6.336  1.1458  0.8627 -0.3445
 5651SOL     OW28588   0.064   1.282  17.292 -0.2548  0.3601  0.1646
 5651SOL    HW128589   0.124   1.266  17.365  0.4020  1.4481 -0.1418
 5651SOL    HW228590   0.075   1.205  17.236 -2.9012 -0.9707  1.4531
 5652SOL     OW28591   3.883   3.458   9.505  0.2215 -0.0253 -0.1603
 5652SOL    HW128592   3.938   3.512   9.562 -0.0795 -0.6255  0.7017
 5652SOL    HW228593   3.801   3.464   9.554 -0.2221  1.2902 -1.0600
 5653SOL     OW28594   0.888   0.982  16.805 -0.1501  0.0239 -0.3076
 5653SOL    HW128595   0.873   0.984  16.710 -1.5979 -2.4128 -0.1217
 5653SOL    HW228596   0.822   0.917  16.827  1.3348 -1.8872 -1.4517
 5654SOL     OW28597   2.458   0.219   5.873  0.7422 -0.6682 -0.4509
 5654SOL    HW128598   2.385   0.206   5.813 -1.5703  0.6157  2.0905
 5654SOL    HW228599   2.527   0.245   5.812  0.9146  0.4586  0.2250
 5655SOL     OW28600   4.620   0.218   8.705 -0.1944  0.0964 -0.3770
 5655SOL    HW128601   4.661   0.132   8.693 -1.9254 -0.5491 -1.5666
 5655SOL    HW228602   4.587   0.221   8.795  1.9169  1.6873  0.3641
 5656SOL     OW28603   1.610   1.710   8.017 -0.4022  0.2510  0.1416
 5656SOL    HW128604   1.677   1.777   8.027  2.6088 -2.8501  0.7957
 5656SOL    HW228605   1.549   1.751   7.956  0.9053 -1.0436 -2.0366
 5657SOL     OW28606   2.819   2.426  10.427 -0.2987  0.0084 -0.2614
 5657SOL    HW128607   2.833   2.517  10.402 -2.3091  0.3391 -0.1937
 5657SOL    HW228608   2.895   2.382  10.390 -1.8066  0.4377 -3.8451
 5658SOL     OW28609   2.796   1.171   5.106  0.8860  0.3386  0.4207
 5658SOL    HW128610   2.794   1.192   5.013 -0.4015 -1.8282 -0.0422
 5658SOL    HW228611   2.884   1.204   5.126  1.4626 -0.3964 -0.9112
 5659SOL     OW28612   1.646   0.008   3.936 -0.1423  0.1507 -0.3339
 5659SOL    HW128613   1.671   4.680   3.869  2.6446 -1.2654  2.0519
 5659SOL    HW228614   1.646   4.692   4.017 -0.2665  0.3148 -0.2278
 5660SOL     OW28615   4.346   0.356   2.545 -0.4329 -0.5367  0.0468
 5660SOL    HW128616   4.372   0.359   2.637 -2.2187 -1.0025  0.5687
 5660SOL    HW228617   4.284   0.427   2.537  0.8831  0.5713 -0.2762
 5661SOL     OW28618   1.010   3.426  10.777 -0.4804 -0.1355  0.4523
 5661SOL    HW128619   1.056   3.380  10.706  1.1876  2.7741 -0.3535
 5661SOL    HW228620   1.084   3.475  10.814 -0.0952 -1.3631  1.2912
 5662SOL     OW28621   0.705   1.907   7.262  0.0181  0.3140  0.7671
 5662SOL    HW128622   0.646   1.949   7.199  1.0430 -1.1475 -1.1821
 5662SOL    HW228623   0.746   1.977   7.312 -0.4062  1.1735 -0.0850
 5663SOL     OW28624   1.344   2.852   1.519 -0.1293  0.1446  0.3536
 5663SOL    HW128625   1.348   2.798   1.440 -0.6743 -1.2784  1.3077
 5663SOL    HW228626   1.435   2.879   1.532 -0.8580  1.6080  2.4465
 5664SOL     OW28627   1.957   3.985  10.011 -0.1662 -0.6644 -0.4567
 5664SOL    HW128628   1.908   4.036   9.946  1.1204  0.7208 -0.3287
 5664SOL    HW228629   2.045   4.023  10.006 -0.1926 -0.5544 -0.1066
 5665SOL     OW28630   0.879   4.341   0.990 -0.5852 -0.1441  0.3632
 5665SOL    HW128631   0.879   4.381   1.077  1.9913  2.8071 -1.0264
 5665SOL    HW228632   0.882   4.251   1.023  0.4820 -0.2287  0.0496
 5666SOL     OW28633   3.847   2.695   7.380  0.1069  0.2849 -0.3962
 5666SOL    HW128634   3.794   2.668   7.456 -0.8123  0.8501 -0.8343
 5666SOL    HW228635   3.853   2.609   7.339  0.8621 -1.3070  3.0777
 5667SOL     OW28636   4.140   1.722  15.419  0.4381 -0.2644  0.4444
 5667SOL    HW128637   4.065   1.726  15.478 -0.7057 -1.7394 -0.9150
 5667SOL    HW228638   4.182   1.642  15.451 -0.3679 -0.3599  1.2579
 5668SOL     OW28639   2.606   0.282  12.121 -0.0658 -0.1751 -0.5611
 5668SOL    HW128640   2.550   0.291  12.198 -0.0387  0.5091 -0.6136
 5668SOL    HW228641   2.543   0.312  12.056 -3.2612 -1.9891  1.7347
 5669SOL     OW28642   3.486   1.171   3.303 -0.6432 -0.2117 -0.0557
 5669SOL    HW128643   3.518   1.200   3.218  0.7498 -1.9634 -0.1123
 5669SOL    HW228644   3.504   1.078   3.302 -1.3815 -0.3471 -1.9536
 5670SOL     OW28645   3.459   2.963  17.693 -0.2753 -0.1191 -0.1057
 5670SOL    HW128646   3.405   3.033  17.656 -2.2252 -0.9462  1.1807
 5670SOL    HW228647   3.448   2.904  17.619  1.3429  0.2726 -0.6590
 5671SOL     OW28648   2.812   2.369   7.280  0.2805 -0.2205 -0.1692
 5671SOL    HW128649   2.759   2.289   7.282  0.2866 -0.2084  0.7299
 5671SOL    HW228650   2.874   2.335   7.216  1.4117  0.0230  0.7892
 5672SOL     OW28651   1.385   3.882   5.197  0.6432 -0.1771  0.0512
 5672SOL    HW128652   1.423   3.958   5.153 -0.1988  0.3081  0.1661
 5672SOL    HW228653   1.390   3.813   5.131  0.9549  0.6492 -0.7915
 5673SOL     OW28654   2.949   0.881  14.186  0.2297  0.0676 -0.0910
 5673SOL    HW128655   2.873   0.878  14.128 -0.0850  0.4692  0.3008
 5673SOL    HW228656   2.945   0.971  14.216  0.2015  0.7197 -2.0651
 5674SOL     OW28657   0.985   4.024   2.196  0.1057  0.0464 -0.2028
 5674SOL    HW128658   0.994   4.056   2.285  0.5911 -0.6077 -0.0151
 5674SOL    HW228659   1.071   4.057   2.171  0.1322  0.4899  0.4864
 5675SOL     OW28660   3.853   2.017   2.757 -0.2728 -0.0794  0.3197
 5675SOL    HW128661   3.888   2.045   2.842 -0.0250 -0.4761  0.3496
 5675SOL    HW228662   3.913   2.054   2.692 -0.4882  0.4389  0.4138
 5676SOL     OW28663   4.487   1.013   6.909  0.3690 -0.0903 -0.7526
 5676SOL    HW128664   4.581   1.000   6.926  0.3005 -1.7011 -1.6110
 5676SOL    HW228665   4.474   0.954   6.835 -0.7929 -1.9363  0.9151
 5677SOL     OW28666   1.596   3.497   9.628  0.3764  0.5148 -0.1273
 5677SOL    HW128667   1.621   3.405   9.639  0.6750  0.6303  0.1399
 5677SOL    HW228668   1.506   3.496   9.661  0.0473 -0.2442 -1.0450
 5678SOL     OW28669   3.572   3.630  12.892 -0.3851  0.3857  0.0389
 5678SOL    HW128670   3.537   3.689  12.826  0.0459 -0.0295 -0.5673
 5678SOL    HW228671   3.635   3.684  12.939 -0.9338 -0.0961  1.3200
 5679SOL     OW28672   3.469   0.081   3.917  0.0315  0.2068 -0.4704
 5679SOL    HW128673   3.518   0.144   3.971 -1.0004  0.9861 -0.4429
 5679SOL    HW228674   3.496   0.112   3.831  0.7265  2.8442  0.6786
 5680SOL     OW28675   1.653   3.085   3.093 -0.4816  0.0054 -0.0703
 5680SOL    HW128676   1.650   3.100   2.999  1.2865 -2.4396 -0.5304
 5680SOL    HW228677   1.691   3.163   3.132 -2.2430  1.8331 -2.0771
 5681SOL     OW28678   1.875   0.467   1.159 -0.1545  0.3421 -0.1140
 5681SOL    HW128679   1.869   0.442   1.067 -2.8561  1.6128 -0.2850
 5681SOL    HW228680   1.783   0.485   1.178  0.0737  0.2217  1.1115
 5682SOL     OW28681   3.198   2.193   5.147  0.0471  0.2037  0.2816
 5682SOL    HW128682   3.213   2.287   5.149  1.3050  0.0184  0.0138
 5682SOL    HW228683   3.147   2.186   5.227  0.6437 -0.8556  0.5793
 5683SOL     OW28684   0.242   1.090   6.744 -0.4644  0.1322 -0.3737
 5683SOL    HW128685   0.309   1.136   6.693  0.8646  0.4151  1.6743
 5683SOL    HW228686   0.264   1.103   6.836 -0.2236  0.1053 -0.4297
 5684SOL     OW28687   3.711   2.619  13.315  0.0219  0.9662  0.3346
 5684SOL    HW128688   3.725   2.630  13.409  0.9164 -0.1198  0.3196
 5684SOL    HW228689   3.764   2.688  13.275 -1.1307  1.3252 -0.6099
 5685SOL     OW28690   1.579   2.446  12.542 -0.4549  0.1189 -0.2001
 5685SOL    HW128691   1.561   2.366  12.592 -0.0640 -0.8167 -1.5620
 5685SOL    HW228692   1.666   2.472  12.572 -1.5923 -0.5892  3.7260
 5686SOL     OW28693   2.310   4.597  15.658  0.5334 -0.1879  0.3287
 5686SOL    HW128694   2.245   4.651  15.704  0.3317  0.8145 -1.1048
 5686SOL    HW228695   2.253   4.531  15.617 -0.1161  1.5044 -1.4935
 5687SOL     OW28696   1.450   0.371  12.150  0.2473 -0.1828 -0.0783
 5687SOL    HW128697   1.400   0.451  12.168 -3.0845 -2.1137 -0.7296
 5687SOL    HW228698   1.474   0.404  12.063 -0.5057 -0.2710 -0.3176
 5688SOL     OW28699   3.033   3.263   3.879  0.3241  0.5675  0.1503
 5688SOL    HW128700   3.107   3.287   3.823 -0.6716  2.5908 -0.2965
 5688SOL    HW228701   3.039   3.335   3.942  2.7436  0.4292  0.0551
 5689SOL     OW28702   0.608   1.259   7.764  0.6723 -0.2595  0.1369
 5689SOL    HW128703   0.678   1.324   7.753 -0.5398  0.8955 -0.7391
 5689SOL    HW228704   0.665   1.183   7.773 -0.5671 -1.1791  0.2891
 5690SOL     OW28705   1.463   3.792  14.789 -0.3216  0.5474 -0.6250
 5690SOL    HW128706   1.530   3.732  14.821 -1.4204 -0.3797 -0.0838
 5690SOL    HW228707   1.435   3.818  14.877 -0.5017  0.7046 -0.7292
 5691SOL     OW28708   1.161   2.275   0.678 -0.3585 -0.5281  0.1961
 5691SOL    HW128709   1.186   2.356   0.634 -0.9558  1.1398  2.9691
 5691SOL    HW228710   1.079   2.260   0.630  0.2051  1.1174 -1.2788
 5692SOL     OW28711   2.673   1.786  17.548 -0.4325 -0.2803 -0.3309
 5692SOL    HW128712   2.737   1.841  17.505  0.1376 -1.0914 -0.5188
 5692SOL    HW228713   2.598   1.821  17.501 -0.6499  0.4463  0.5503
 5693SOL     OW28714   4.000   0.721   4.268  0.5197  0.4410  0.3633
 5693SOL    HW128715   3.968   0.670   4.342 -0.6818  3.1901  1.7379
 5693SOL    HW228716   4.083   0.673   4.262  0.3313  0.1783 -0.0618
 5694SOL     OW28717   1.834   3.803   6.535  0.8950  0.6378 -0.6490
 5694SOL    HW128718   1.764   3.852   6.579 -0.1590 -0.3073 -1.2661
 5694SOL    HW228719   1.907   3.845   6.580  0.9121  1.3031 -1.3122
 5695SOL     OW28720   4.690   2.391   7.636 -0.4450 -0.6954 -0.2565
 5695SOL    HW128721   4.666   2.465   7.692  0.9658 -1.0366  0.7996
 5695SOL    HW228722   4.606   2.389   7.591  0.5362  1.3001 -2.1587
 5696SOL     OW28723   0.162   3.956   2.388  0.3886 -0.4053 -0.3956
 5696SOL    HW128724   0.137   3.868   2.416  0.5123  0.7698  3.3701
 5696SOL    HW228725   0.081   4.007   2.392  0.3810 -0.3827 -0.8459
 5697SOL     OW28726   4.548   0.041  13.038 -0.3354 -0.0711 -0.0708
 5697SOL    HW128727   4.562   0.134  13.020  0.1878 -0.3199 -0.9228
 5697SOL    HW228728   4.628   0.011  13.082 -1.4794 -1.5698  1.0103
 5698SOL     OW28729   3.923   2.614   7.735  0.6120  0.1412  0.0142
 5698SOL    HW128730   3.926   2.709   7.718  2.2215  0.2063  0.6994
 5698SOL    HW228731   3.899   2.620   7.828 -0.4969 -0.1819 -0.2483
 5699SOL     OW28732   3.758   4.512   5.505  0.3416 -0.5899 -0.2426
 5699SOL    HW128733   3.735   4.419   5.499  1.0499 -0.8296  0.9181
 5699SOL    HW228734   3.813   4.518   5.583 -1.2261  0.1677  0.8037
 5700SOL     OW28735   4.382   0.410   2.812 -0.0347  0.3241  0.0689
 5700SOL    HW128736   4.402   0.503   2.808 -0.8698  0.4702 -0.8494
 5700SOL    HW228737   4.453   0.370   2.862 -1.2180 -0.2629  1.2705
 5701SOL     OW28738   1.542   3.470   6.116 -0.0740  0.3615  0.0851
 5701SOL    HW128739   1.473   3.479   6.050  0.4669 -0.0365 -0.5410
 5701SOL    HW228740   1.560   3.561   6.137  2.8389 -0.6196  1.9108
 5702SOL     OW28741   1.708   4.484  17.731  0.0417  0.5767 -1.0613
 5702SOL    HW128742   1.732   4.553   0.048 -1.9019  0.2499  0.0866
 5702SOL    HW228743   1.785   4.456  17.682  0.2109  1.2124 -1.1587
 5703SOL     OW28744   0.044   3.684  11.819  0.5270 -0.0036 -0.0684
 5703SOL    HW128745   4.706   3.736  11.791  0.6189  0.8234  1.2251
 5703SOL    HW228746   0.076   3.668  11.730  0.6498  1.8910 -0.3674
 5704SOL     OW28747   2.248   2.668   3.970 -0.2052  0.2052  0.0425
 5704SOL    HW128748   2.198   2.750   3.972 -0.1977  0.1686  1.6620
 5704SOL    HW228749   2.329   2.710   3.942 -0.2128  0.5418  0.5156
 5705SOL     OW28750   3.711   2.787  11.983 -0.4766 -0.2214  0.0923
 5705SOL    HW128751   3.709   2.756  12.073  1.2677  0.9746  0.5523
 5705SOL    HW228752   3.767   2.865  11.986 -0.8022  0.0535 -0.7162
 5706SOL     OW28753   2.253   0.826  13.061  0.2042 -0.4466 -0.4283
 5706SOL    HW128754   2.246   0.763  13.133 -0.6352  1.1089  0.8348
 5706SOL    HW228755   2.331   0.806  13.009  1.2069  1.1268  0.4818
 5707SOL     OW28756   1.951   1.047   6.559  0.4653 -0.4793 -0.3591
 5707SOL    HW128757   2.009   0.974   6.583  1.4325  0.6683  0.7571
 5707SOL    HW228758   1.973   1.041   6.466  0.5530  0.4157 -0.3893
 5708SOL     OW28759   1.266   4.649   0.800 -0.5855 -0.2687 -0.2309
 5708SOL    HW128760   1.203   4.600   0.746  0.1011 -0.9443 -0.4269
 5708SOL    HW228761   1.229   4.639   0.888 -1.5813  2.0236 -0.3922
 5709SOL     OW28762   1.760   1.961   5.849 -0.3492  0.3068 -0.3519
 5709SOL    HW128763   1.757   2.050   5.814 -0.5151 -1.0980 -3.8389
 5709SOL    HW228764   1.792   1.913   5.773  0.0551  0.4389 -0.2653
 5710SOL     OW28765   1.608   1.692   4.246 -0.0270 -0.4256  0.0257
 5710SOL    HW128766   1.641   1.664   4.161 -0.9499 -0.2247 -0.3958
 5710SOL    HW228767   1.660   1.772   4.254 -2.2372  0.6708  3.5645
 5711SOL     OW28768   1.915   1.871   3.333  0.0883 -0.8274 -0.2133
 5711SOL    HW128769   1.958   1.786   3.343  2.2160  0.1716 -1.0360
 5711SOL    HW228770   1.953   1.894   3.248 -1.2496  3.0721  0.2677
 5712SOL     OW28771   0.415   3.916   7.166 -0.0329  0.4455 -0.1782
 5712SOL    HW128772   0.381   3.844   7.219 -0.5843 -0.4519 -1.7700
 5712SOL    HW228773   0.390   3.891   7.078  0.3849  0.8016 -0.4009
 5713SOL     OW28774   4.155   0.654   7.676  0.3987 -0.2030  0.4052
 5713SOL    HW128775   4.067   0.616   7.684  1.0274 -1.8426 -0.3222
 5713SOL    HW228776   4.132   0.746   7.685 -1.1683 -0.7262  1.8056
 5714SOL     OW28777   2.500   0.941   0.667  0.1542 -0.2068  0.7245
 5714SOL    HW128778   2.552   0.885   0.610  0.5280  1.3119 -0.4502
 5714SOL    HW228779   2.432   0.969   0.606 -0.5999 -2.0221  0.7284
 5715SOL     OW28780   3.230   0.523   3.185  0.1075  1.1581  0.2610
 5715SOL    HW128781   3.268   0.517   3.097  1.3825  0.8248  0.8514
 5715SOL    HW228782   3.170   0.596   3.166  0.4292  1.4127  0.2088
 5716SOL     OW28783   0.450   4.313   2.679  0.2759  0.5364  0.0082
 5716SOL    HW128784   0.383   4.355   2.625 -0.1776  1.6591  1.4501
 5716SOL    HW228785   0.485   4.252   2.613  1.3253 -0.9490  1.9546
 5717SOL     OW28786   1.442   3.278   6.660 -0.2551 -0.0480  0.1412
 5717SOL    HW128787   1.451   3.288   6.755 -2.0906 -0.9642  0.4062
 5717SOL    HW228788   1.415   3.187   6.651 -0.5311  0.0139  0.3463
 5718SOL     OW28789   1.903   0.564  16.223  0.2715 -0.2415  0.0727
 5718SOL    HW128790   1.876   0.633  16.162  3.1757  0.0886 -0.8502
 5718SOL    HW228791   1.883   0.607  16.306 -1.9643 -1.8568  0.3764
 5719SOL     OW28792   0.850   1.063   2.459  0.7938 -0.3690  0.8769
 5719SOL    HW128793   0.798   1.055   2.539 -1.2570 -0.1211 -0.4506
 5719SOL    HW228794   0.922   1.114   2.497  1.0598 -1.2240  1.5356
 5720SOL     OW28795   1.496   0.421   8.733 -0.3535 -0.3718 -0.3224
 5720SOL    HW128796   1.495   0.341   8.785 -0.9799  0.0354  0.2987
 5720SOL    HW228797   1.406   0.418   8.702 -0.1137  0.0114 -1.0655
 5721SOL     OW28798   1.807   1.522   6.258  0.2038  0.2114 -0.0759
 5721SOL    HW128799   1.797   1.527   6.163 -1.4366 -1.7824 -0.0115
 5721SOL    HW228800   1.726   1.562   6.290  0.3037 -0.7962  1.4328
 5722SOL     OW28801   1.769   0.642   3.555 -0.4351 -0.0878 -0.5797
 5722SOL    HW128802   1.745   0.700   3.627 -2.0115 -0.6761 -0.6267
 5722SOL    HW228803   1.850   0.603   3.586 -0.8886 -0.0412  0.6542
 5723SOL     OW28804   2.116   2.643   1.965  0.2623 -0.1975  0.3731
 5723SOL    HW128805   2.108   2.549   1.955 -3.0314 -0.0536  1.7428
 5723SOL    HW228806   2.149   2.668   1.879  4.0456 -0.7862  1.6419
 5724SOL     OW28807   3.732   3.784   5.637  0.5691 -0.3212 -0.0255
 5724SOL    HW128808   3.647   3.752   5.609  1.4405 -3.8923  1.4082
 5724SOL    HW228809   3.788   3.707   5.629 -0.6780 -1.5557  2.8888
 5725SOL     OW28810   1.752   2.939  16.907 -0.2077 -0.2318  0.2610
 5725SOL    HW128811   1.827   2.911  16.855 -0.7993  2.6401 -2.1251
 5725SOL    HW228812   1.753   2.884  16.986 -1.2010 -1.2228 -0.4181
 5726SOL     OW28813   3.708   0.468   3.440 -0.2423 -0.4920  0.2718
 5726SOL    HW128814   3.620   0.499   3.461  0.7812  1.1514  2.1452
 5726SOL    HW228815   3.683   0.379   3.418  0.9154 -1.3156  2.3573
 5727SOL     OW28816   1.289   1.069   8.690 -0.6470  0.0242  0.4609
 5727SOL    HW128817   1.374   1.079   8.647 -0.0649 -0.3054  1.5220
 5727SOL    HW228818   1.225   1.033   8.629 -0.8822  0.0433  0.6968
 5728SOL     OW28819   0.781   3.146   9.034 -0.0637  0.4973  0.0255
 5728SOL    HW128820   0.775   3.169   9.127  0.3890  0.4217  0.0722
 5728SOL    HW228821   0.794   3.052   9.026  2.1897  0.6965  1.3871
 5729SOL     OW28822   1.630   0.346   1.786  0.3879 -0.2652 -0.0603
 5729SOL    HW128823   1.664   0.339   1.875  0.7757  0.4688 -0.1502
 5729SOL    HW228824   1.666   0.434   1.771 -0.5153 -0.2692 -2.3557
 5730SOL     OW28825   2.442   0.257   9.715  0.4746  0.6496 -0.4132
 5730SOL    HW128826   2.478   0.328   9.662  0.9586  0.9860  0.3607
 5730SOL    HW228827   2.510   0.246   9.782 -1.7701  0.2895  1.8000
 5731SOL     OW28828   0.364   2.550   2.160  0.3258  0.6026 -0.0671
 5731SOL    HW128829   0.345   2.553   2.253  1.7011  2.3279  0.1517
 5731SOL    HW228830   0.289   2.499   2.129 -0.1555  0.7257  0.9217
 5732SOL     OW28831   4.628   1.931   2.094 -0.8398 -0.2181  0.1730
 5732SOL    HW128832   4.547   1.915   2.045  0.3411  0.7086 -2.0837
 5732SOL    HW228833   4.670   2.004   2.049 -1.8337  1.6041  2.1785
 5733SOL     OW28834   2.039   2.914   1.679  0.1758 -0.3905 -0.0189
 5733SOL    HW128835   2.075   3.002   1.670  0.0909 -0.5305 -1.6153
 5733SOL    HW228836   2.113   2.862   1.708 -1.0428 -0.9768  2.0715
 5734SOL     OW28837   2.256   0.920   6.550  0.1164  0.0328  0.2273
 5734SOL    HW128838   2.311   0.993   6.577  2.2605 -1.2819 -0.6372
 5734SOL    HW228839   2.287   0.852   6.610 -0.5837 -0.1079  0.4362
 5735SOL     OW28840   4.598   3.372  11.159 -0.6601  0.2606  0.0586
 5735SOL    HW128841   4.652   3.438  11.202 -1.1555  0.9715 -0.4159
 5735SOL    HW228842   4.648   3.353  11.080  1.3581  1.0369  1.1420
 5736SOL     OW28843   1.636   2.961   7.975  0.4809  0.1619 -0.2710
 5736SOL    HW128844   1.626   2.874   8.016  0.0188  0.3960  0.1159
 5736SOL    HW228845   1.573   3.011   8.028  2.2185  1.5715  0.4499
 5737SOL     OW28846   4.257   4.156   4.073  0.2408 -0.1214 -0.6284
 5737SOL    HW128847   4.331   4.096   4.076  0.2357  0.0441  2.3516
 5737SOL    HW228848   4.177   4.104   4.061  1.2258 -1.1040 -2.8570
 5738SOL     OW28849   3.429   2.135  11.554  0.5517 -1.0918  0.2437
 5738SOL    HW128850   3.468   2.210  11.509 -0.7072 -2.0280 -2.4063
 5738SOL    HW228851   3.345   2.178  11.571  1.9202  1.2261  1.0640
 5739SOL     OW28852   3.752   0.174   4.070  0.0340 -0.7247  0.0158
 5739SOL    HW128853   3.685   0.221   4.119 -0.4430 -1.8631  0.4468
 5739SOL    HW228854   3.822   0.238   4.085  1.4076 -2.6924  1.9945
 5740SOL     OW28855   4.162   4.649   7.874  0.0059 -0.2928 -0.6641
 5740SOL    HW128856   4.091   4.619   7.818 -2.1069  4.0001 -0.3232
 5740SOL    HW228857   4.129   4.731   7.912 -0.2818 -0.7631  0.1064
 5741SOL     OW28858   0.359   2.983   9.504 -0.6981  0.1711 -0.0970
 5741SOL    HW128859   0.362   3.060   9.561  0.1233 -0.8350  1.2362
 5741SOL    HW228860   0.423   2.995   9.433 -1.2699 -0.0238 -0.6444
 5742SOL     OW28861   3.781   2.488  16.671  0.6548  0.3751 -0.0456
 5742SOL    HW128862   3.856   2.532  16.711  1.8515 -0.1535 -1.7134
 5742SOL    HW228863   3.832   2.422  16.625  2.7360  2.2303 -0.3835
 5743SOL     OW28864   3.777   2.170   1.935 -0.2889  0.4552 -0.3229
 5743SOL    HW128865   3.683   2.149   1.935 -0.0207 -0.7399 -0.2866
 5743SOL    HW228866   3.812   2.093   1.979  0.0234  1.0249  0.4235
 5744SOL     OW28867   1.440   2.269   1.727 -0.0104  0.5403  0.1683
 5744SOL    HW128868   1.345   2.262   1.715  0.2577 -0.8723 -1.0636
 5744SOL    HW228869   1.441   2.335   1.796  0.3569  1.4277 -0.6777
 5745SOL     OW28870   4.700   0.118  12.578  0.0207 -0.4705 -0.7798
 5745SOL    HW128871   4.699   0.114  12.482  1.1424  0.3641 -0.8144
 5745SOL    HW228872   4.697   0.214  12.585 -1.8723 -0.9621  5.2161
 5746SOL     OW28873   1.078   3.666  16.152 -0.4792 -0.0920 -0.5493
 5746SOL    HW128874   1.071   3.695  16.243 -1.0972 -0.7765 -0.3772
 5746SOL    HW228875   1.154   3.712  16.117  0.2004 -1.1249 -0.4312
 5747SOL     OW28876   4.179   4.483   2.120  0.2069  0.1129 -0.4548
 5747SOL    HW128877   4.095   4.512   2.154 -0.4641  0.3270 -2.3022
 5747SOL    HW228878   4.170   4.503   2.027 -0.3334 -0.0144 -0.4322
 5748SOL     OW28879   1.385   1.846   2.030  0.0902  0.6107  0.0745
 5748SOL    HW128880   1.299   1.860   2.068  0.0363  0.5100 -0.0129
 5748SOL    HW228881   1.439   1.914   2.071  0.4899  1.1594 -1.3563
 5749SOL     OW28882   0.731   0.768   4.787  0.2690  0.2315  0.0204
 5749SOL    HW128883   0.679   0.796   4.863 -0.2385  0.1085 -0.2821
 5749SOL    HW228884   0.730   0.847   4.734  1.3128  1.6116  2.0543
 5750SOL     OW28885   0.571   2.200   7.464  0.8987 -0.5199  0.0110
 5750SOL    HW128886   0.594   2.278   7.514 -0.6123  0.3247 -0.5717
 5750SOL    HW228887   0.656   2.181   7.425 -0.1602 -1.9298 -1.6498
 5751SOL     OW28888   3.432   1.643   4.560 -0.1668  0.0950  0.0405
 5751SOL    HW128889   3.526   1.661   4.553 -0.0778 -0.1211  0.6855
 5751SOL    HW228890   3.393   1.699   4.493 -0.4365  0.4574  0.5038
 5752SOL     OW28891   1.458   2.842   4.577  0.2598  0.5165  0.1461
 5752SOL    HW128892   1.441   2.748   4.567 -1.0404  0.7265  0.3893
 5752SOL    HW228893   1.396   2.868   4.645 -0.8490 -1.4354 -0.1091
 5753SOL     OW28894   4.147   4.545   7.243 -0.3780 -0.4114  0.0284
 5753SOL    HW128895   4.170   4.637   7.236  0.0252 -0.7185 -2.9734
 5753SOL    HW228896   4.121   4.545   7.335 -1.7612  3.5077 -0.3771
 5754SOL     OW28897   1.238   2.676   5.537  0.3893 -0.5814  0.1274
 5754SOL    HW128898   1.271   2.719   5.616  4.2501 -2.3918 -0.4963
 5754SOL    HW228899   1.162   2.734   5.526  1.1521  0.0606 -1.7937
 5755SOL     OW28900   2.332   2.035   5.927  0.5907 -0.0674  0.3081
 5755SOL    HW128901   2.377   2.051   5.844  1.5455 -0.3671  0.7735
 5755SOL    HW228902   2.262   2.100   5.926 -0.8686 -1.6817 -3.1084
 5756SOL     OW28903   3.490   4.266   9.246  0.0801  0.1027 -0.0765
 5756SOL    HW128904   3.581   4.267   9.218  0.1012 -0.6030 -0.0256
 5756SOL    HW228905   3.445   4.228   9.170 -1.1486  0.7339  0.3368
 5757SOL     OW28906   3.891   4.407   1.863 -0.1087  0.4234  0.1084
 5757SOL    HW128907   3.986   4.422   1.866  0.0562 -0.4712 -0.6615
 5757SOL    HW228908   3.887   4.362   1.948 -2.7837 -0.9339 -0.7448
 5758SOL     OW28909   4.314   3.528  15.916 -0.2905 -0.3666 -0.0349
 5758SOL    HW128910   4.233   3.528  15.968 -0.2766  0.0532 -0.0061
 5758SOL    HW228911   4.376   3.579  15.968 -0.8132  1.9135 -1.6312
 5759SOL     OW28912   1.369   3.084   8.893  0.6219  0.1770 -0.4832
 5759SOL    HW128913   1.292   3.091   8.949  0.9110 -0.5250  0.0030
 5759SOL    HW228914   1.344   3.003   8.848  1.0733  1.0709 -2.3488
 5760SOL     OW28915   0.905   0.003   3.670 -0.0852  0.0219  0.0996
 5760SOL    HW128916   1.000   0.015   3.664 -0.1384  0.7564  0.6945
 5760SOL    HW228917   0.888   0.020   3.763  1.5315  0.0191  0.3990
 5761SOL     OW28918   0.906   2.074   6.138  0.0411  0.1331 -0.3207
 5761SOL    HW128919   0.945   2.139   6.197 -1.1709 -1.3322  2.1190
 5761SOL    HW228920   0.851   2.130   6.083  1.7625  2.5065  0.3709
 5762SOL     OW28921   3.367   1.269   7.285 -0.5569 -0.1283 -0.1039
 5762SOL    HW128922   3.456   1.302   7.270 -0.6532  0.3033  0.2752
 5762SOL    HW228923   3.333   1.345   7.331 -1.7207 -1.3936  1.1151
 5763SOL     OW28924   4.646   2.075   0.656  0.0715  0.4604  0.1997
 5763SOL    HW128925   4.663   2.004   0.718 -2.1163  0.6975  1.0959
 5763SOL    HW228926   4.562   2.049   0.618 -1.0876  0.3767  2.7849
 5764SOL     OW28927   4.704   1.555   8.358  0.1895 -0.2444 -0.3418
 5764SOL    HW128928   4.734   1.539   8.447  1.0232  2.9385 -0.0526
 5764SOL    HW228929   4.629   1.496   8.349  0.8989 -1.3693  1.0857
 5765SOL     OW28930   2.895   1.376   5.668  0.2697  0.1847 -0.0554
 5765SOL    HW128931   2.965   1.318   5.640 -0.5114  0.7301 -3.1752
 5765SOL    HW228932   2.842   1.389   5.589  0.6443 -1.3072 -0.5512
 5766SOL     OW28933   0.918   1.397  12.858  0.3204  0.1222  0.0669
 5766SOL    HW128934   1.001   1.355  12.876 -0.6445 -1.6174  0.4925
 5766SOL    HW228935   0.952   1.469  12.805 -0.8827  0.4904 -0.2290
 5767SOL     OW28936   2.017   4.655   0.114 -0.2611  0.2788 -0.3257
 5767SOL    HW128937   2.011   4.647   0.209 -1.5863 -3.2880 -0.7106
 5767SOL    HW228938   2.110   4.631   0.111  0.0685  1.5674 -0.1501
 5768SOL     OW28939   1.371   3.799   1.057 -0.3327  0.1868 -0.3861
 5768SOL    HW128940   1.465   3.804   1.073 -0.0620 -0.0549 -1.8899
 5768SOL    HW228941   1.356   3.706   1.073  1.2589  0.3211  1.8501
 5769SOL     OW28942   2.188   2.450   8.892 -0.2712  0.1332 -0.8491
 5769SOL    HW128943   2.156   2.538   8.911  0.6325  0.5649 -1.2975
 5769SOL    HW228944   2.117   2.400   8.852 -1.5783  1.4006 -0.1375
 5770SOL     OW28945   1.596   3.173   7.348 -0.3790 -0.1810 -0.2631
 5770SOL    HW128946   1.661   3.152   7.281  0.9317 -0.5690  1.1266
 5770SOL    HW228947   1.520   3.192   7.293 -1.4913  0.3586  1.4685
 5771SOL     OW28948   4.044   0.207   3.573  0.5798 -0.2631  0.1720
 5771SOL    HW128949   3.960   0.185   3.614  1.0978 -3.7368 -0.7027
 5771SOL    HW228950   4.043   0.146   3.500  2.4502  3.2227 -2.7669
 5772SOL     OW28951   2.277   0.935   5.777 -0.2217 -0.2696  0.0029
 5772SOL    HW128952   2.277   0.982   5.861 -0.1876 -0.2244 -0.0221
 5772SOL    HW228953   2.181   0.926   5.776 -0.1430 -1.0842 -0.3400
 5773SOL     OW28954   3.445   1.501   7.568 -0.0228 -0.2408 -0.4561
 5773SOL    HW128955   3.525   1.484   7.518 -0.7560 -0.6055 -1.4920
 5773SOL    HW228956   3.447   1.597   7.573  3.2637 -0.2432 -1.5594
 5774SOL     OW28957   2.268   0.923   8.095 -0.1003  0.4165 -0.1763
 5774SOL    HW128958   2.358   0.922   8.061 -0.1372  2.0716 -0.3302
 5774SOL    HW228959   2.276   0.897   8.187 -1.3928 -2.0238 -0.7461
 5775SOL     OW28960   4.475   2.348  11.304 -0.2146  0.7793  0.3392
 5775SOL    HW128961   4.487   2.402  11.226 -0.2509  1.2052  0.6284
 5775SOL    HW228962   4.555   2.364  11.354  0.1864 -1.1941  0.3018
 5776SOL     OW28963   1.580   2.940   2.481  0.0465  0.3186 -0.1263
 5776SOL    HW128964   1.498   2.980   2.450 -0.4173  1.2006  2.2302
 5776SOL    HW228965   1.637   3.016   2.493  0.1270  0.0618  1.2108
 5777SOL     OW28966   3.665   2.599   5.996  0.5837  0.1396 -0.5118
 5777SOL    HW128967   3.647   2.647   6.077 -0.1529 -2.0527  0.6265
 5777SOL    HW228968   3.702   2.659   5.931  0.7192 -0.4517 -0.9787
 5778SOL     OW28969   1.589   4.082   3.692  0.0481 -0.0355  0.0712
 5778SOL    HW128970   1.674   4.098   3.652  0.4783 -0.5476  0.7803
 5778SOL    HW228971   1.619   4.059   3.780 -0.2514 -1.6949 -0.2680
 5779SOL     OW28972   0.598   2.836  13.270  0.2406  0.4900 -0.9346
 5779SOL    HW128973   0.619   2.746  13.244 -1.9951 -0.5080  0.7754
 5779SOL    HW228974   0.666   2.882  13.221  1.6098 -0.9179 -0.3821
 5780SOL     OW28975   1.378   1.209   6.384  0.5117 -0.4528 -0.1246
 5780SOL    HW128976   1.471   1.215   6.365  0.6166 -0.2509  0.4560
 5780SOL    HW228977   1.352   1.136   6.327  2.1706  1.3641 -3.2166
 5781SOL     OW28978   3.493   1.793  13.584 -0.5098  0.1451 -0.4484
 5781SOL    HW128979   3.505   1.797  13.489 -1.4076  1.5903 -0.5022
 5781SOL    HW228980   3.402   1.763  13.592  0.6242 -4.0196 -3.2324
 5782SOL     OW28981   3.213   4.443   4.799  0.4124  0.2638  0.0601
 5782SOL    HW128982   3.167   4.378   4.747  2.0305 -0.3356 -0.6402
 5782SOL    HW228983   3.145   4.480   4.855  0.6908  0.0106  0.5697
 5783SOL     OW28984   1.442   0.100  14.626 -0.0715  0.7915 -0.5783
 5783SOL    HW128985   1.380   0.172  14.631  0.3370  1.3092 -2.9727
 5783SOL    HW228986   1.406   0.059  14.548  1.3587 -2.1282  0.2915
 5784SOL     OW28987   4.095   1.910   1.424  0.2051 -0.4114  0.6118
 5784SOL    HW128988   4.143   1.986   1.390  0.5568 -0.0799  1.8511
 5784SOL    HW228989   4.166   1.853   1.453  0.8417  1.0664  1.9481
 5785SOL     OW28990   3.340   0.179   2.390  0.6128  0.4315 -0.7940
 5785SOL    HW128991   3.276   0.167   2.320 -1.3600  2.3156  0.6898
 5785SOL    HW228992   3.389   0.249   2.347  3.7941 -0.4157  1.4855
 5786SOL     OW28993   0.846   0.855   6.569 -0.0061  0.2463  0.5293
 5786SOL    HW128994   0.803   0.778   6.607 -0.4931 -0.1754 -0.8697
 5786SOL    HW228995   0.771   0.910   6.551  1.1200  1.9347  1.0125
 5787SOL     OW28996   4.656   1.373   4.881 -0.3955  0.1229 -0.1935
 5787SOL    HW128997   4.693   1.415   4.959 -1.0262 -0.0065  0.1746
 5787SOL    HW228998   4.563   1.363   4.900 -1.0566  2.8100 -1.8802
 5788SOL     OW28999   2.886   3.290   4.829 -0.0214  0.4871 -0.4208
 5788SOL    HW129000   2.798   3.325   4.842  0.7030  1.5244  1.6441
 5788SOL    HW229001   2.938   3.370   4.826  1.2592 -0.2416  2.3919
 5789SOL     OW29002   3.485   2.476   6.387  0.0024  0.1136  0.2658
 5789SOL    HW129003   3.459   2.459   6.297  1.6277 -2.0657  0.2103
 5789SOL    HW229004   3.556   2.414   6.403  0.9116  0.5953 -1.9392
 5790SOL     OW29005   0.512   0.451  10.376  0.0268  0.0120 -0.0085
 5790SOL    HW129006   0.431   0.434  10.423  0.0649 -1.3994 -0.4593
 5790SOL    HW229007   0.528   0.543  10.397  0.9756  0.0037 -0.6599
 5791SOL     OW29008   3.413   2.995   3.138 -0.5076 -0.3092  0.9428
 5791SOL    HW129009   3.384   3.078   3.176  0.6960  0.9235 -0.8728
 5791SOL    HW229010   3.385   2.984   3.047  1.6723 -0.0390  0.2323
 5792SOL     OW29011   1.686   1.555   8.219 -0.0779  0.2488  0.1047
 5792SOL    HW129012   1.627   1.587   8.151 -0.4807 -1.3931 -0.3155
 5792SOL    HW229013   1.731   1.637   8.241 -0.4006  0.3893  0.2497
 5793SOL     OW29014   1.383   4.404  14.124  0.3563 -0.1642 -0.3599
 5793SOL    HW129015   1.349   4.369  14.207 -1.0902  1.8493 -0.1061
 5793SOL    HW229016   1.477   4.388  14.113  0.1512 -1.1516 -0.6109
 5794SOL     OW29017   3.285   3.558   6.692  0.0191  0.5622  0.0900
 5794SOL    HW129018   3.334   3.635   6.721  0.5742  0.2714 -0.0680
 5794SOL    HW229019   3.334   3.494   6.744 -0.2254  0.2772 -0.0280
 5795SOL     OW29020   4.717   1.550  17.291  1.1968 -0.6767 -0.1756
 5795SOL    HW129021   0.009   1.463  17.264 -1.3156 -1.4357 -0.3318
 5795SOL    HW229022   4.669   1.567  17.210  0.1954  2.0117  0.9624
 5796SOL     OW29023   2.281   1.375   8.064 -0.3370  0.2834  0.0465
 5796SOL    HW129024   2.307   1.443   8.001 -1.6689 -0.2411 -1.0825
 5796SOL    HW229025   2.271   1.433   8.140 -2.1406  0.0668 -0.0198
 5797SOL     OW29026   4.577   1.032  14.793 -0.4087  0.3107  0.4681
 5797SOL    HW129027   4.644   0.964  14.789 -2.1904 -1.4704  0.5269
 5797SOL    HW229028   4.501   0.993  14.748  0.5447  2.0615 -2.6878
 5798SOL     OW29029   3.270   3.672   4.064  0.7093 -0.0142  0.5093
 5798SOL    HW129030   3.331   3.645   3.995  3.3066  1.3296  2.2497
 5798SOL    HW229031   3.295   3.601   4.124  1.3553 -0.4860 -0.3018
 5799SOL     OW29032   1.079   1.196   8.347  0.8426 -0.4517  0.0192
 5799SOL    HW129033   0.994   1.231   8.318  0.4071 -0.7155  0.9535
 5799SOL    HW229034   1.084   1.116   8.295  0.2988 -0.3619 -0.1698
 5800SOL     OW29035   0.060   3.035   9.218  0.0222  0.4369 -0.3311
 5800SOL    HW129036   0.082   3.128   9.212 -1.0117  0.9156  3.0905
 5800SOL    HW229037   0.065   3.014   9.312  0.7089 -2.6353 -1.0384
 5801SOL     OW29038   0.349   3.404   7.183 -0.2028  0.3313 -0.5793
 5801SOL    HW129039   0.439   3.413   7.153 -0.5330  0.3089 -1.5993
 5801SOL    HW229040   0.327   3.486   7.227  1.1236  0.6244 -0.4650
 5802SOL     OW29041   2.243   2.247   9.987 -0.4937 -0.4039  0.3921
 5802SOL    HW129042   2.331   2.212   9.995  0.6881  2.0677 -1.6944
 5802SOL    HW229043   2.230   2.320  10.047  0.4140 -1.2386  1.5936
 5803SOL     OW29044   0.196   2.172   9.804 -0.3479 -0.1780  0.0370
 5803SOL    HW129045   0.290   2.187   9.795 -0.3934 -0.2830 -0.5773
 5803SOL    HW229046   0.173   2.181   9.712 -0.6622 -0.5190  0.0836
 5804SOL     OW29047   1.753   2.622   9.081  0.2480 -0.0568 -0.0524
 5804SOL    HW129048   1.728   2.636   9.173 -0.0743 -1.2360  0.0388
 5804SOL    HW229049   1.777   2.529   9.083 -1.8422 -0.5829  0.0484
 5805SOL     OW29050   4.672   4.675  16.643 -0.4042 -0.2383  0.2391
 5805SOL    HW129051   4.582   4.696  16.668 -0.3152 -1.6655  1.8084
 5805SOL    HW229052   4.686   0.001  16.572  1.3686  0.9048  1.5984
 5806SOL     OW29053   2.248   1.689   2.659  0.3059  0.2712  0.0017
 5806SOL    HW129054   2.169   1.740   2.674 -2.6762 -3.8977 -1.4388
 5806SOL    HW229055   2.238   1.670   2.566  0.2120  0.0071  0.0662
 5807SOL     OW29056   1.382   0.378   2.634 -0.5753 -0.4966 -0.5840
 5807SOL    HW129057   1.403   0.471   2.632 -3.6613  0.2137 -0.0365
 5807SOL    HW229058   1.462   0.351   2.590  1.0772  4.8216 -0.8646
 5808SOL     OW29059   0.986   3.811   8.506  0.4086 -0.2626 -0.0216
 5808SOL    HW129060   0.965   3.802   8.599 -0.8683 -0.8213 -0.3500
 5808SOL    HW229061   0.905   3.855   8.481 -0.8098 -1.2987  2.0535
 5809SOL     OW29062   2.939   4.321  16.587 -0.2502 -0.3034 -0.2602
 5809SOL    HW129063   2.933   4.246  16.528 -0.6589  0.6773 -1.4794
 5809SOL    HW229064   2.857   4.314  16.635 -0.9578 -1.8733 -1.7155
 5810SOL     OW29065   3.498   4.593   1.474  0.4637  0.4140 -0.3522
 5810SOL    HW129066   3.415   4.571   1.431  0.2465 -2.2814  1.4796
 5810SOL    HW229067   3.479   4.684   1.499 -0.1834  0.5249 -1.2365
 5811SOL     OW29068   3.798   0.723   7.637 -0.2881 -0.4809  0.2466
 5811SOL    HW129069   3.705   0.733   7.618 -0.0445  1.1232 -0.1457
 5811SOL    HW229070   3.805   0.733   7.732  1.4615  1.4915 -0.0705
 5812SOL     OW29071   0.732   1.068  12.449 -0.1058 -0.0590  0.2831
 5812SOL    HW129072   0.769   0.984  12.474  1.0109 -0.0745 -1.4161
 5812SOL    HW229073   0.702   1.094  12.536  0.8775 -0.0890  0.6254
 5813SOL     OW29074   2.321   2.884   6.242 -0.6706  0.2497  0.3736
 5813SOL    HW129075   2.238   2.907   6.284 -0.1148  0.2864  1.4407
 5813SOL    HW229076   2.298   2.835   6.163 -0.5423  0.7549  0.0277
 5814SOL     OW29077   4.723   3.008   1.711 -0.1483  0.5049  0.0473
 5814SOL    HW129078   0.058   2.964   1.757 -2.0312 -3.0156 -0.3986
 5814SOL    HW229079   4.656   3.015   1.779 -1.7072  0.7623 -1.5242
 5815SOL     OW29080   2.780   2.356   9.007  0.6093  0.6519  0.5521
 5815SOL    HW129081   2.711   2.400   9.056 -0.1537  0.9009 -0.7363
 5815SOL    HW229082   2.760   2.373   8.915  0.3416  1.0206  0.6807
 5816SOL     OW29083   2.317   0.406  12.101  0.5191 -0.9407  0.2166
 5816SOL    HW129084   2.285   0.441  12.019 -0.3979  1.0922  1.4498
 5816SOL    HW229085   2.288   0.315  12.100  1.5738 -1.2976  0.9891
 5817SOL     OW29086   1.859   1.129   3.984 -0.2990 -0.5537 -0.5469
 5817SOL    HW129087   1.810   1.195   3.935 -0.5020 -1.0393 -0.9981
 5817SOL    HW229088   1.811   1.048   3.963 -3.0662  1.7186 -3.0752
 5818SOL     OW29089   4.339   2.878   6.572  0.2382  0.1420 -0.3164
 5818SOL    HW129090   4.424   2.896   6.531  0.1417 -1.2987 -1.1641
 5818SOL    HW229091   4.298   2.964   6.579 -0.7597 -0.3312 -0.4623
 5819SOL     OW29092   0.629   1.333   6.059 -0.2238  0.1061  0.0288
 5819SOL    HW129093   0.583   1.410   6.026  0.5946  0.4684 -0.2727
 5819SOL    HW229094   0.657   1.290   5.977  0.5860  0.5504  0.0723
 5820SOL     OW29095   3.454   3.199   4.029 -0.1338 -0.2834  0.2326
 5820SOL    HW129096   3.441   3.134   4.097 -2.8119  0.5288  0.5102
 5820SOL    HW229097   3.392   3.154   3.971 -0.1270  2.5092 -1.9189
 5821SOL     OW29098   2.752   2.501   9.370  0.3062  0.5835  0.1802
 5821SOL    HW129099   2.795   2.473   9.450 -0.4005  0.9750  0.7015
 5821SOL    HW229100   2.828   2.531   9.321  0.1182  1.7281  0.5913
 5822SOL     OW29101   0.096   4.299   8.135  0.0633  0.0970  0.1399
 5822SOL    HW129102   0.173   4.308   8.080  0.0624  2.6996  0.5571
 5822SOL    HW229103   0.145   4.322   8.214 -0.9310  0.4624  0.6591
 5823SOL     OW29104   3.326   0.571  15.863 -0.1046 -0.1460 -0.5523
 5823SOL    HW129105   3.341   0.593  15.955 -0.2577 -1.3301 -0.2415
 5823SOL    HW229106   3.232   0.553  15.866  0.0506 -1.1317 -1.5520
 5824SOL     OW29107   1.293   4.664   9.788  0.0915  0.0352  0.5420
 5824SOL    HW129108   1.252   4.670   9.701  0.2356 -0.4470  0.4429
 5824SOL    HW229109   1.224   4.614   9.832  0.8641  0.7684  2.5866
 5825SOL     OW29110   3.055   1.509   6.031  0.5059  0.1442 -0.1434
 5825SOL    HW129111   3.023   1.558   6.107  0.5718  1.3928 -0.9300
 5825SOL    HW229112   3.148   1.501   6.051  0.4424  0.1179  0.1431
 5826SOL     OW29113   0.480   4.299   3.667  0.0963 -0.0170  0.1726
 5826SOL    HW129114   0.505   4.311   3.758 -1.6705 -0.1793  0.6753
 5826SOL    HW229115   0.417   4.370   3.654  0.5086  0.6156  1.6985
 5827SOL     OW29116   4.088   0.074   7.288  0.1223  0.3527 -0.2394
 5827SOL    HW129117   4.065   0.145   7.228 -0.2542  1.0636  0.7505
 5827SOL    HW229118   4.034   0.098   7.363  0.5357  3.6530 -0.9854
 5828SOL     OW29119   1.840   2.803   2.897  0.1256  0.0499 -0.1479
 5828SOL    HW129120   1.851   2.813   2.803 -0.8621 -0.7264 -0.3458
 5828SOL    HW229121   1.813   2.889   2.928  1.3093 -0.7522  3.1946
 5829SOL     OW29122   0.806   4.364   5.413  0.5850 -1.0052 -0.1724
 5829SOL    HW129123   0.901   4.352   5.415  0.8109  0.5955 -1.4541
 5829SOL    HW229124   0.813   4.427   5.341 -2.5319  1.4829  1.7495
 5830SOL     OW29125   2.055   3.771   8.698  0.0401  0.1510  0.4154
 5830SOL    HW129126   2.016   3.689   8.668  0.1112 -0.6821  2.5600
 5830SOL    HW229127   1.995   3.824   8.646 -1.0548 -1.8566 -0.3693
 5831SOL     OW29128   2.530   2.108   3.727 -0.2637  0.2397  0.1721
 5831SOL    HW129129   2.463   2.177   3.728  1.2420  1.7099 -1.1791
 5831SOL    HW229130   2.480   2.034   3.693  0.5070  0.0651 -0.5601
 5832SOL     OW29131   0.099   0.439   3.617 -0.1145 -0.9355 -0.3511
 5832SOL    HW129132   0.008   0.411   3.607 -1.0818  1.8635  0.7183
 5832SOL    HW229133   0.142   0.404   3.539  0.8307 -0.0251 -0.2288
 5833SOL     OW29134   2.602   3.588   2.683 -0.3593  0.1677  0.2341
 5833SOL    HW129135   2.697   3.597   2.695 -0.2223 -0.1791 -0.5565
 5833SOL    HW229136   2.581   3.506   2.726 -0.8382  0.5984  0.8170
 5834SOL     OW29137   3.860   4.233  17.362  0.1375 -0.3091  0.1653
 5834SOL    HW129138   3.934   4.293  17.372 -1.5225  1.8986 -0.8154
 5834SOL    HW229139   3.891   4.160  17.309 -2.3024 -0.6485 -0.7807
 5835SOL     OW29140   3.113   4.700   0.930 -0.2883 -0.3338 -0.4221
 5835SOL    HW129141   3.201   4.736   0.939  0.7638 -3.1468  0.3383
 5835SOL    HW229142   3.060   0.033   0.971  1.5873  0.4642  0.6637
 5836SOL     OW29143   1.900   1.134   2.562 -0.4068 -0.4470  0.0205
 5836SOL    HW129144   1.939   1.216   2.592 -0.6154 -0.4263  0.2410
 5836SOL    HW229145   1.985   1.091   2.559 -1.0011 -1.5967 -0.2983
 5837SOL     OW29146   2.248   0.652   8.439  0.0719  0.4846  0.2795
 5837SOL    HW129147   2.175   0.714   8.428 -1.1171 -0.9052  0.2368
 5837SOL    HW229148   2.221   0.584   8.377  0.4735 -0.8890  1.6283
 5838SOL     OW29149   3.262   2.574   2.576  0.2689 -0.0645 -0.0639
 5838SOL    HW129150   3.275   2.667   2.558  2.0608 -0.1404  0.8836
 5838SOL    HW229151   3.308   2.546   2.496  1.9698 -1.4197  1.3919
 5839SOL     OW29152   1.531   4.641  15.115 -0.1522 -0.7364 -0.7356
 5839SOL    HW129153   1.526   4.569  15.052  0.9827 -1.5036  0.0558
 5839SOL    HW229154   1.595   4.693  15.066  2.5173 -0.4615  3.0634
 5840SOL     OW29155   0.639   2.698   9.129  0.5085  0.0948  0.0790
 5840SOL    HW129156   0.673   2.751   9.057 -0.8980  0.1561 -0.5422
 5840SOL    HW229157   0.569   2.757   9.156  0.3430 -0.3620  0.6539
 5841SOL     OW29158   0.013   0.618  17.397  0.0673 -0.2275  0.3001
 5841SOL    HW129159   4.719   0.708  17.402  0.0147 -0.1862 -0.7436
 5841SOL    HW229160   4.667   0.567  17.393 -0.0100 -0.1126  0.4334
 5842SOL     OW29161   3.897   0.236  10.443  0.2839 -0.1880 -0.6182
 5842SOL    HW129162   3.938   0.161  10.398  0.8946  0.7519 -1.6194
 5842SOL    HW229163   3.805   0.211  10.447 -0.0265  1.0812 -0.0892
 5843SOL     OW29164   3.735   4.366   5.892  0.2637 -0.0048 -0.3918
 5843SOL    HW129165   3.711   4.332   5.979  0.7208 -0.9260 -0.6340
 5843SOL    HW229166   3.650   4.379   5.849 -0.1276  2.5022  1.1253
 5844SOL     OW29167   0.666   0.013   2.275  0.1134 -0.4926 -0.2991
 5844SOL    HW129168   0.719   0.088   2.247  2.3967 -2.0789 -0.2310
 5844SOL    HW229169   0.578   0.048   2.261  0.6198  1.0063  0.2318
 5845SOL     OW29170   1.572   1.362  15.056  0.6833 -0.4135  0.5277
 5845SOL    HW129171   1.607   1.362  14.967 -2.0645 -1.2852 -0.5589
 5845SOL    HW229172   1.546   1.452  15.076  0.5843 -0.6476  1.4922
 5846SOL     OW29173   4.558   1.044   4.041  0.1219 -0.6274  0.5044
 5846SOL    HW129174   4.496   0.975   4.064  0.5270 -1.5810 -1.2493
 5846SOL    HW229175   4.511   1.082   3.968  1.9987 -0.8027 -0.8062
 5847SOL     OW29176   4.270   1.680   1.504 -0.3968  0.1758  0.3619
 5847SOL    HW129177   4.306   1.603   1.459  0.0968 -0.3114  1.5877
 5847SOL    HW229178   4.346   1.737   1.512  0.3030 -0.6561 -0.4637
 5848SOL     OW29179   2.878   0.475   9.622 -0.2914 -0.1874  0.2158
 5848SOL    HW129180   2.953   0.419   9.601  0.7615  1.8633 -1.5691
 5848SOL    HW229181   2.857   0.529   9.546  1.5751 -2.3888 -1.8960
 5849SOL     OW29182   2.911   1.388   7.353  0.3554 -0.4116  0.1385
 5849SOL    HW129183   2.959   1.438   7.287  0.6780 -1.0474 -0.1080
 5849SOL    HW229184   2.829   1.373   7.305 -0.1090  0.7828  0.5589
 5850SOL     OW29185   3.949   2.930   8.063  0.5122 -0.3437 -0.4871
 5850SOL    HW129186   3.991   2.973   7.989  0.1874  1.8703  0.5873
 5850SOL    HW229187   3.960   2.989   8.138 -1.6081  2.0198 -2.0220
 5851SOL     OW29188   2.260   2.476  14.422 -0.3985  0.0145 -0.0350
 5851SOL    HW129189   2.237   2.440  14.508  3.2986 -2.1861  0.0496
 5851SOL    HW229190   2.192   2.541  14.407 -0.6722 -0.9719 -3.1333
 5852SOL     OW29191   0.787   0.763   3.235 -1.1025 -0.0656 -0.0869
 5852SOL    HW129192   0.696   0.780   3.212 -0.7220 -0.3472 -1.7576
 5852SOL    HW229193   0.813   0.851   3.263 -0.6307  0.6628 -2.8286
 5853SOL     OW29194   3.309   3.985   6.220  0.2303 -0.8886  0.2383
 5853SOL    HW129195   3.342   4.069   6.251 -0.7258 -0.1084 -0.8877
 5853SOL    HW229196   3.304   4.010   6.128 -0.2429 -2.5814 -0.2066
 5854SOL     OW29197   3.721   0.453   0.949  0.0110  0.0487 -0.0735
 5854SOL    HW129198   3.700   0.515   0.879  0.9499  0.8379  0.3382
 5854SOL    HW229199   3.816   0.456   0.962  0.5290  2.2819 -4.4725
 5855SOL     OW29200   4.393   1.727  16.292  0.4635  0.2033 -0.6850
 5855SOL    HW129201   4.366   1.671  16.365 -1.8754 -0.6651 -2.2161
 5855SOL    HW229202   4.434   1.798  16.341  1.3598 -0.7633 -0.0330
 5856SOL     OW29203   2.765   0.085   5.671 -0.4596  0.0919  0.4083
 5856SOL    HW129204   2.803   0.126   5.592  0.8384 -1.2189  0.3487
 5856SOL    HW229205   2.726   0.165   5.705 -2.4657 -0.9360  0.5167
 5857SOL     OW29206   2.607   0.190  14.028  0.1513 -0.3268 -0.2202
 5857SOL    HW129207   2.657   0.120  14.071  2.2117  0.4992 -1.2777
 5857SOL    HW229208   2.528   0.137  14.015 -0.4795 -0.4791  4.1906
 5858SOL     OW29209   0.601   4.419   5.042  0.2298  0.3430  0.6707
 5858SOL    HW129210   0.669   4.354   5.063  0.0809 -0.4808 -1.4002
 5858SOL    HW229211   0.638   4.462   4.965 -0.2799 -1.5626 -0.6404
 5859SOL     OW29212   3.495   4.015   9.445 -0.4934  0.1902 -0.2447
 5859SOL    HW129213   3.417   4.056   9.408 -1.1414  0.2449  1.1974
 5859SOL    HW229214   3.472   3.923   9.434 -0.8020  0.2760 -0.3239
 5860SOL     OW29215   0.834   0.815   2.371  0.1887 -0.4629 -0.6576
 5860SOL    HW129216   0.852   0.904   2.399 -1.3310 -0.6612  0.9980
 5860SOL    HW229217   0.902   0.804   2.304  1.3145  1.6207  0.1582
 5861SOL     OW29218   1.672   2.408   3.042  0.1570  0.3220 -0.2108
 5861SOL    HW129219   1.751   2.453   3.011 -0.2093  1.0398 -0.1098
 5861SOL    HW229220   1.699   2.409   3.134  0.3743  0.3510 -0.2752
 5862SOL     OW29221   2.351   0.078  13.351 -0.0632  0.0959 -0.1346
 5862SOL    HW129222   2.327   4.727  13.320  3.5305 -2.2250  3.7289
 5862SOL    HW229223   2.265   0.107  13.382 -0.2366  0.7088 -1.1580
 5863SOL     OW29224   3.498   0.366   5.273  0.5708  0.2219 -0.1920
 5863SOL    HW129225   3.558   0.431   5.236  0.9504  0.2801  0.5091
 5863SOL    HW229226   3.508   0.390   5.365  1.6866  1.6561 -0.6889
 5864SOL     OW29227   1.554   2.919   5.012  0.3619 -0.6073  0.3587
 5864SOL    HW129228   1.510   3.003   4.996 -1.3404 -1.6132 -0.3145
 5864SOL    HW229229   1.644   2.949   5.010  0.5758 -1.1888  1.5414
 5865SOL     OW29230   1.089   1.500   5.094  0.2379 -0.9885  0.3342
 5865SOL    HW129231   1.167   1.445   5.091 -0.5176 -2.0256 -0.0369
 5865SOL    HW229232   1.120   1.577   5.046 -1.0432 -1.3492 -1.0561
 5866SOL     OW29233   2.715   1.815  13.562  0.2092 -0.2603 -0.4569
 5866SOL    HW129234   2.723   1.737  13.615 -1.7836 -0.1570 -0.0313
 5866SOL    HW229235   2.808   1.840  13.568 -0.0719  1.4511 -2.9048
 5867SOL     OW29236   2.376   0.668   3.014  0.5990  0.5307  0.2139
 5867SOL    HW129237   2.388   0.635   3.103 -0.5172  0.6205  0.4017
 5867SOL    HW229238   2.435   0.744   3.016  0.6608  0.4898 -0.1853
 5868SOL     OW29239   2.694   4.149   2.241  0.5096  0.2353  0.5670
 5868SOL    HW129240   2.756   4.097   2.189  0.1236  0.0066  0.3383
 5868SOL    HW229241   2.715   4.235   2.204 -1.0380 -0.2720 -1.5094
 5869SOL     OW29242   1.933   1.169   3.259 -0.2241  0.1677  0.3138
 5869SOL    HW129243   1.946   1.136   3.170 -0.0667  3.1996 -0.8018
 5869SOL    HW229244   2.023   1.198   3.275 -0.1114 -1.2583  2.1837
 5870SOL     OW29245   1.591   2.320  17.359  0.0390  0.0069  0.1816
 5870SOL    HW129246   1.574   2.261  17.433  0.8830 -1.1836 -0.5591
 5870SOL    HW229247   1.507   2.361  17.337  0.2152 -0.8937 -2.2185
 5871SOL     OW29248   0.817   2.937   6.132 -0.2968 -0.3068 -0.0614
 5871SOL    HW129249   0.891   2.933   6.194  1.3303 -0.5876 -2.0126
 5871SOL    HW229250   0.780   3.021   6.160 -0.9301 -0.6404  0.0902
 5872SOL     OW29251   1.666   0.222   3.124 -0.2057  0.2171 -0.7355
 5872SOL    HW129252   1.689   0.138   3.166 -1.9276  0.1643  0.0792
 5872SOL    HW229253   1.601   0.251   3.188  1.6586  0.7480  0.9328
 5873SOL     OW29254   2.202   3.050   3.306 -1.2715 -0.3385 -0.5555
 5873SOL    HW129255   2.263   3.074   3.376 -0.7967 -1.9969 -0.3978
 5873SOL    HW229256   2.247   2.974   3.269 -0.1768  0.1533 -0.2449
 5874SOL     OW29257   4.074   2.561  13.367 -0.2583  0.1516 -0.0563
 5874SOL    HW129258   4.154   2.545  13.318  0.8602  0.0937  1.7826
 5874SOL    HW229259   4.009   2.511  13.318  0.0433 -0.6267  0.3368
 5875SOL     OW29260   0.147   0.331  10.866 -0.3174  0.1567 -0.0926
 5875SOL    HW129261   0.220   0.291  10.914  0.1039 -0.1714 -0.9969
 5875SOL    HW229262   0.101   0.379  10.935  0.6311  0.5199  0.2903
 5876SOL     OW29263   2.635   1.772   7.074  0.9330 -0.1920  0.3144
 5876SOL    HW129264   2.562   1.710   7.062  2.3445 -1.4644 -1.7683
 5876SOL    HW229265   2.632   1.781   7.169 -0.0117 -1.2067  0.3906
 5877SOL     OW29266   4.163   3.679   1.644 -0.4356  0.0947 -0.2582
 5877SOL    HW129267   4.142   3.748   1.707  1.7968 -0.0251  0.6169
 5877SOL    HW229268   4.131   3.727   1.568  2.4635 -0.5890 -1.8993
 5878SOL     OW29269   3.030   3.753   9.001 -0.7089  0.1762  0.0526
 5878SOL    HW129270   2.979   3.777   8.924  1.0797 -0.2645 -1.2876
 5878SOL    HW229271   3.012   3.659   8.996  0.0088 -0.0416  1.5377
 5879SOL     OW29272   1.253   3.364   4.408 -1.4521 -0.7701 -0.4614
 5879SOL    HW129273   1.274   3.272   4.421 -1.7486 -0.8502 -0.5447
 5879SOL    HW229274   1.241   3.355   4.313  0.0450 -0.6527 -0.6480
 5880SOL     OW29275   1.003   2.044   4.218  0.2235  0.2928 -0.1441
 5880SOL    HW129276   0.993   2.137   4.239 -0.6234  0.2686 -0.4334
 5880SOL    HW229277   0.952   2.052   4.137  2.8829  0.9932 -1.7731
 5881SOL     OW29278   1.385   0.662   6.835 -0.1083 -0.1841 -0.1730
 5881SOL    HW129279   1.305   0.635   6.788  0.9533 -1.4417 -1.2721
 5881SOL    HW229280   1.366   0.627   6.922  1.7749  1.0522  0.7236
 5882SOL     OW29281   1.624   2.051   3.887 -0.2947  0.4764 -0.2991
 5882SOL    HW129282   1.609   2.049   3.982 -0.7640  0.2281 -0.3733
 5882SOL    HW229283   1.709   2.008   3.882 -0.1298  1.0323 -2.0812
 5883SOL     OW29284   0.405   0.942   6.136  0.1230 -0.2279  0.3826
 5883SOL    HW129285   0.387   0.951   6.043  1.7165  1.9886  0.2799
 5883SOL    HW229286   0.314   0.915   6.150 -0.0012  0.2192  0.4417
 5884SOL     OW29287   4.665   2.469   2.083  0.5169  0.5143  0.3006
 5884SOL    HW129288   4.718   2.524   2.141  0.4085 -1.7953  2.6105
 5884SOL    HW229289   4.584   2.517   2.103  0.7081  0.9146  0.1072
 5885SOL     OW29290   2.492   2.420   2.091 -0.0266  0.4289 -0.0609
 5885SOL    HW129291   2.428   2.365   2.134 -0.9059  0.8922 -0.7836
 5885SOL    HW229292   2.530   2.351   2.035 -0.1800 -0.9173  1.5119
 5886SOL     OW29293   0.212   2.753   9.591  0.1351  0.3209 -0.3055
 5886SOL    HW129294   0.235   2.839   9.556 -0.2284  0.4028 -0.3530
 5886SOL    HW229295   0.286   2.743   9.650  1.0731  0.8370 -1.4096
 5887SOL     OW29296   1.618   0.332  10.357  0.4034  1.1940 -0.3410
 5887SOL    HW129297   1.568   0.251  10.347  0.7339  1.1291 -1.4641
 5887SOL    HW229298   1.693   0.337  10.297  0.7150  1.4122  0.0691
 5888SOL     OW29299   0.083   0.497  11.080 -0.2399 -0.6162 -0.5836
 5888SOL    HW129300   0.118   0.424  11.131 -0.2387  0.2683  0.7009
 5888SOL    HW229301   4.735   0.493  11.127 -0.3188  0.9398 -0.5964
 5889SOL     OW29302   1.598   0.044   8.793  0.0572  0.5460  0.5952
 5889SOL    HW129303   1.665   4.727   8.752 -1.2875 -1.1581  0.6194
 5889SOL    HW229304   1.538   0.048   8.719  1.0020 -0.8533 -0.2419
 5890SOL     OW29305   2.726   4.035   1.043  0.0961  0.2606  0.6080
 5890SOL    HW129306   2.757   4.123   1.021 -0.2624 -0.4771 -2.9259
 5890SOL    HW229307   2.799   3.976   1.024 -0.7221  0.0937 -2.0029
 5891SOL     OW29308   2.715   3.780   2.995  0.1581 -0.0257  0.3306
 5891SOL    HW129309   2.775   3.760   3.067 -2.4574 -2.4080  1.8211
 5891SOL    HW229310   2.728   3.875   2.988 -0.3674  0.0249  0.0918
 5892SOL     OW29311   3.047   2.389   3.053  0.3409  0.1608  0.1199
 5892SOL    HW129312   2.961   2.364   3.021 -0.9422  3.3236  1.0858
 5892SOL    HW229313   3.081   2.305   3.084 -0.1133 -0.3430 -0.7705
 5893SOL     OW29314   0.964   0.314  14.562  0.0942  0.1201  0.3341
 5893SOL    HW129315   1.049   0.310  14.607 -0.5324 -2.0137  1.3156
 5893SOL    HW229316   0.949   0.407  14.575 -1.7021 -0.2679  0.9549
 5894SOL     OW29317   1.351   3.775   9.705 -0.4897  0.4175  0.2178
 5894SOL    HW129318   1.354   3.691   9.751  3.7575  1.1702  1.3705
 5894SOL    HW229319   1.403   3.833   9.761  1.3430 -0.6780 -0.3348
 5895SOL     OW29320   1.619   1.331  10.373 -0.4159 -0.1618 -0.2670
 5895SOL    HW129321   1.542   1.289  10.335  0.8309 -0.8627 -2.0220
 5895SOL    HW229322   1.582   1.414  10.405  0.6696  0.5835 -0.9518
 5896SOL     OW29323   2.103   1.820   7.829 -0.1674  0.1346 -0.1463
 5896SOL    HW129324   2.065   1.748   7.879 -1.7245  0.2373 -1.1954
 5896SOL    HW229325   2.176   1.835   7.889  1.7366 -1.1465 -2.1232
 5897SOL     OW29326   4.659   3.436   7.349 -0.8728 -0.5484  0.1182
 5897SOL    HW129327   4.710   3.499   7.298 -0.3834 -0.8871  0.1924
 5897SOL    HW229328   4.638   3.370   7.283 -0.3925  0.0177 -0.6117
 5898SOL     OW29329   3.145   3.357   3.109 -0.0663 -0.5084  0.1458
 5898SOL    HW129330   3.073   3.300   3.081 -1.6902  2.6236 -1.9728
 5898SOL    HW229331   3.112   3.444   3.089  0.0506 -1.3786 -3.7420
 5899SOL     OW29332   0.144   4.509   5.171  0.0356  0.5812  0.3343
 5899SOL    HW129333   0.229   4.466   5.179  0.1498  0.6278 -0.5895
 5899SOL    HW229334   0.107   4.481   5.255 -2.8409  2.0484 -0.4225
 5900SOL     OW29335   3.827   4.111   7.507  0.2536 -0.0336  0.5171
 5900SOL    HW129336   3.844   4.021   7.479  2.2260  0.3532  0.4508
 5900SOL    HW229337   3.810   4.154   7.424 -1.0708  0.4794  1.0634
 5901SOL     OW29338   3.039   3.836   4.202 -0.4553 -0.6859 -0.4049
 5901SOL    HW129339   3.050   3.820   4.296  0.1685  1.2090 -0.1517
 5901SOL    HW229340   3.117   3.789   4.171 -1.5055 -1.5120 -1.7911
 5902SOL     OW29341   1.426   1.749   7.800  0.6957 -0.0248  0.2966
 5902SOL    HW129342   1.413   1.718   7.711  0.5421  0.8457  0.0173
 5902SOL    HW229343   1.345   1.718   7.840  0.1066  0.4653 -0.5066
 5903SOL     OW29344   0.044   1.420   3.254  0.0916 -0.3452 -0.4207
 5903SOL    HW129345   4.703   1.401   3.201  0.3476 -0.2058 -0.8497
 5903SOL    HW229346   0.011   1.474   3.325  0.9215  1.4040 -1.3821
 5904SOL     OW29347   0.961   2.346   8.329 -0.0952 -0.2289  0.4656
 5904SOL    HW129348   0.910   2.338   8.409  0.1083 -0.7055  0.5476
 5904SOL    HW229349   1.046   2.304   8.343  1.5493  2.1759 -2.2666
 5905SOL     OW29350   4.527   2.353   9.155 -0.3465  0.1525 -0.0086
 5905SOL    HW129351   4.449   2.326   9.108 -0.1020 -0.0390 -0.3056
 5905SOL    HW229352   4.542   2.439   9.116  3.0863 -0.5520 -0.3172
 5906SOL     OW29353   3.704   3.663   3.244 -0.2115 -0.0721  0.3674
 5906SOL    HW129354   3.730   3.755   3.240 -1.1116  0.0718 -1.9872
 5906SOL    HW229355   3.790   3.624   3.232  0.3848  0.8054  1.7539
 5907SOL     OW29356   4.628   1.168   0.069 -0.3517 -0.2739  0.1804
 5907SOL    HW129357   4.619   1.200   0.158  0.1775 -1.9093  0.8081
 5907SOL    HW229358   4.656   1.244   0.017  1.3944  0.3524  2.0212
 5908SOL     OW29359   2.375   1.046   5.324 -0.6168  0.3523 -0.7497
 5908SOL    HW129360   2.372   0.998   5.407  1.6379 -2.6490 -2.4334
 5908SOL    HW229361   2.392   0.972   5.267  3.0051  0.9808 -0.4863
 5909SOL     OW29362   4.008   1.780  12.183 -0.0592 -0.2013 -0.0478
 5909SOL    HW129363   3.998   1.685  12.173  2.0833 -0.4318 -0.0543
 5909SOL    HW229364   3.968   1.812  12.263  1.0877 -0.0964  0.4858
 5910SOL     OW29365   1.859   1.817   5.651  0.5125 -0.4450 -0.2318
 5910SOL    HW129366   1.899   1.756   5.713  3.1143  1.7447  0.2335
 5910SOL    HW229367   1.851   1.764   5.572  0.8790 -2.3988  1.0175
 5911SOL     OW29368   4.509   1.223   2.882 -0.1572  0.2641 -0.0045
 5911SOL    HW129369   4.581   1.226   2.819  0.2942 -1.3375  0.4340
 5911SOL    HW229370   4.533   1.278   2.956 -1.3295 -1.1773  1.4539
 5912SOL     OW29371   1.490   3.568   7.870  0.0153  0.5135  0.2019
 5912SOL    HW129372   1.405   3.529   7.850  1.2824 -1.7621 -0.7889
 5912SOL    HW229373   1.493   3.575   7.965 -1.4181  0.1517  0.2725
 5913SOL     OW29374   1.885   3.079   6.494  0.6172 -0.0232 -0.8163
 5913SOL    HW129375   1.904   3.141   6.424 -1.4276  1.8758  0.2926
 5913SOL    HW229376   1.859   3.147   6.557  1.5374 -0.6424  0.2448
 5914SOL     OW29377   4.735   2.204   9.247  0.3472  0.2543  0.5542
 5914SOL    HW129378   4.651   2.245   9.226  1.0826  1.7698  0.6170
 5914SOL    HW229379   0.056   2.274   9.277  1.0577 -0.1648  0.1898
 5915SOL     OW29380   0.034   0.717   5.550  0.5119 -0.1736 -0.5921
 5915SOL    HW129381   4.723   0.673   5.479  1.2436 -0.5756 -0.8272
 5915SOL    HW229382   4.725   0.682   5.627 -1.0133  1.2965 -0.8156
 5916SOL     OW29383   3.100   1.081   2.363  0.4818 -0.7788  0.3326
 5916SOL    HW129384   3.188   1.049   2.343  0.2631 -0.9551 -0.3584
 5916SOL    HW229385   3.130   1.170   2.384  1.8185 -1.3347  0.7940
 5917SOL     OW29386   1.806   3.282   3.586 -0.0976  0.1393  0.2067
 5917SOL    HW129387   1.883   3.276   3.530  1.1026 -0.1429  1.9126
 5917SOL    HW229388   1.777   3.191   3.591  1.0064 -0.2810 -1.0762
 5918SOL     OW29389   1.423   1.401   0.004 -0.0275 -0.4809  0.7162
 5918SOL    HW129390   1.418   1.311   0.035 -3.0824 -0.3088  0.6593
 5918SOL    HW229391   1.333   1.414  17.720 -0.2617 -1.0354  1.2215
 5919SOL     OW29392   1.860   3.174  16.926 -0.5718  0.1296  0.3919
 5919SOL    HW129393   1.823   3.087  16.916 -0.1763  0.0556 -0.4902
 5919SOL    HW229394   1.842   3.196  17.017  0.0914  0.2607  0.4915
 5920SOL     OW29395   4.220   1.505  12.102  0.2535 -0.1587  0.2430
 5920SOL    HW129396   4.236   1.423  12.150 -0.0388  0.0500  0.6909
 5920SOL    HW229397   4.304   1.551  12.109 -1.1687  2.3640  0.6322
 5921SOL     OW29398   1.378   4.151   4.589  0.4226 -0.5411 -0.0874
 5921SOL    HW129399   1.348   4.228   4.540 -0.7648 -0.9842 -0.0670
 5921SOL    HW229400   1.331   4.078   4.549  1.3710 -0.9458 -0.4366
 5922SOL     OW29401   2.229   3.375   7.021  0.5583 -0.1421  0.1100
 5922SOL    HW129402   2.285   3.446   7.053 -1.2002  1.3183 -0.0467
 5922SOL    HW229403   2.256   3.308   7.084  0.0499 -1.2422 -0.8237
 5923SOL     OW29404   4.101   1.211   4.672  0.0508 -0.1437  0.4590
 5923SOL    HW129405   4.013   1.197   4.707 -0.3860  0.2665 -0.4648
 5923SOL    HW229406   4.097   1.144   4.603  0.2662  0.1125  0.1978
 5924SOL     OW29407   1.943   4.086   9.519  0.1923  0.1918 -0.5974
 5924SOL    HW129408   1.876   4.134   9.567 -1.4714 -0.8740 -1.8766
 5924SOL    HW229409   2.015   4.149   9.515  1.0120 -0.6639  0.7206
 5925SOL     OW29410   0.092   4.276  11.829  0.2683  0.3668  0.3230
 5925SOL    HW129411   0.185   4.257  11.842  0.4386  0.3494 -0.9432
 5925SOL    HW229412   0.065   4.184  11.823 -0.3511  0.4450  1.8730
 5926SOL     OW29413   0.101   1.398   6.705  0.4714  0.2032  0.3203
 5926SOL    HW129414   0.162   1.410   6.778 -0.8428  0.4429  1.3887
 5926SOL    HW229415   0.124   1.309   6.680 -1.1818  0.7234 -3.0613
 5927SOL     OW29416   1.844   0.314   2.928 -0.2399  0.1965  0.3619
 5927SOL    HW129417   1.911   0.373   2.963 -0.1606  0.3482 -0.0416
 5927SOL    HW229418   1.788   0.295   3.003  0.6244  0.0392  0.9656
 5928SOL     OW29419   4.139   1.969   0.748  0.6060  0.3881 -0.0940
 5928SOL    HW129420   4.078   1.997   0.816  0.1575 -0.9581  0.0461
 5928SOL    HW229421   4.189   2.048   0.726  0.1614  1.2581  2.0247
 5929SOL     OW29422   3.902   4.690   5.113  0.0935 -0.2454  0.3581
 5929SOL    HW129423   3.874   4.732   5.032  1.8151  0.5248  0.1703
 5929SOL    HW229424   3.825   4.638   5.136 -0.6098  0.0802 -1.2719
 5930SOL     OW29425   0.655   0.222   2.644 -0.0455 -0.3676  0.3450
 5930SOL    HW129426   0.614   0.253   2.563  0.7126  0.7884  0.4118
 5930SOL    HW229427   0.745   0.210   2.616 -0.2112 -1.1381  0.1465
 5931SOL     OW29428   3.669   0.146   1.795 -0.3790  0.0350  0.1744
 5931SOL    HW129429   3.678   0.063   1.748 -0.1804 -0.1476  0.5328
 5931SOL    HW229430   3.755   0.156   1.836 -0.4703  0.6029  0.2266
 5932SOL     OW29431   1.695   0.024  16.586 -0.4267  0.1771 -0.5950
 5932SOL    HW129432   1.690   0.046  16.493 -0.4233 -0.8272 -0.8319
 5932SOL    HW229433   1.658   4.673  16.589  0.3297 -0.0598  2.0108
 5933SOL     OW29434   1.204   3.280   4.961  0.2940 -0.2102 -0.0833
 5933SOL    HW129435   1.221   3.333   5.039  0.5197 -1.1509  0.5100
 5933SOL    HW229436   1.172   3.203   5.008 -1.1494  0.8585  0.6931
 5934SOL     OW29437   2.158   2.078   7.997  0.2423 -0.0125 -0.6851
 5934SOL    HW129438   2.088   2.091   7.933 -1.3971 -2.4338  0.6170
 5934SOL    HW229439   2.139   2.140   8.067 -3.0203 -0.3718 -1.2455
 5935SOL     OW29440   3.059   2.663   1.578 -0.0605 -0.2343 -0.2003
 5935SOL    HW129441   3.043   2.735   1.517  1.5980 -0.8537 -1.3493
 5935SOL    HW229442   3.145   2.679   1.617  1.1056  1.8045 -3.6339
 5936SOL     OW29443   2.156   2.322   0.170 -0.2894 -1.0207 -0.3117
 5936SOL    HW129444   2.114   2.282   0.094  3.3936 -1.2674 -2.2219
 5936SOL    HW229445   2.249   2.299   0.165 -0.3315 -0.8431 -1.8632
 5937SOL     OW29446   2.503   4.342   8.798  0.2521 -0.2167 -0.3913
 5937SOL    HW129447   2.448   4.414   8.830  0.6520  1.3997 -3.3591
 5937SOL    HW229448   2.433   4.303   8.745  0.0857  0.9451 -1.0370
 5938SOL     OW29449   2.018   0.389   5.315 -0.4284 -0.0030 -0.9347
 5938SOL    HW129450   2.009   0.384   5.220 -1.7053 -2.0137 -0.6904
 5938SOL    HW229451   2.108   0.418   5.330  0.4653 -3.5585  0.6082
 5939SOL     OW29452   3.111   1.501   1.235  0.0268  0.0121  0.6914
 5939SOL    HW129453   3.151   1.566   1.294  0.1328  1.8305 -1.3707
 5939SOL    HW229454   3.019   1.525   1.245  1.0094  2.7238  3.5036
 5940SOL     OW29455   0.741   4.186   5.097 -0.3191 -0.4071  0.1735
 5940SOL    HW129456   0.809   4.197   5.163 -0.2184 -0.6758  0.1149
 5940SOL    HW229457   0.682   4.125   5.141  1.2315 -2.5827 -0.7386
 5941SOL     OW29458   0.145   0.048   5.150 -0.3003 -0.6377 -0.2084
 5941SOL    HW129459   0.071   0.032   5.208 -0.9540 -0.0912 -0.8897
 5941SOL    HW229460   0.166   4.692   5.132  1.2577 -0.5101  0.9420
 5942SOL     OW29461   2.083   0.008  15.038  0.5028  0.5109 -0.2690
 5942SOL    HW129462   2.078   4.681  14.965  1.5242 -0.3029  0.3699
 5942SOL    HW229463   2.031   0.079  15.001  1.4427  1.9728  1.2645
 5943SOL     OW29464   2.358   4.265   5.681 -0.3107  0.2276  0.9368
 5943SOL    HW129465   2.268   4.273   5.649 -0.2995  2.8504  1.5270
 5943SOL    HW229466   2.360   4.305   5.768  1.3915 -0.0618  1.0216
 5944SOL     OW29467   2.902   2.108  17.205 -0.7156 -1.2996  0.2457
 5944SOL    HW129468   2.895   2.089  17.111  0.0129 -1.9281  0.3238
 5944SOL    HW229469   2.986   2.152  17.217 -0.4251 -1.4859 -1.1482
 5945SOL     OW29470   2.840   2.896   6.611  0.3919 -0.4815 -0.3254
 5945SOL    HW129471   2.885   2.812   6.610 -0.3985 -0.8635 -2.7951
 5945SOL    HW229472   2.803   2.896   6.523 -2.3263  0.0114  0.7880
 5946SOL     OW29473   2.036   1.885   1.906 -0.7271 -0.4601 -0.1015
 5946SOL    HW129474   2.009   1.970   1.873  1.1235 -0.0312 -0.4860
 5946SOL    HW229475   1.973   1.835   1.854 -1.1911 -1.1428  1.0945
 5947SOL     OW29476   1.710   3.960   6.141 -0.0522 -0.2975 -0.6326
 5947SOL    HW129477   1.795   3.934   6.176 -0.4776  0.1000  0.6873
 5947SOL    HW229478   1.651   3.967   6.216 -0.0531  0.1735 -0.6727
 5948SOL     OW29479   0.748   1.981   8.271  0.0153  0.0987 -0.4361
 5948SOL    HW129480   0.747   1.886   8.279 -0.9473  0.0415 -1.2736
 5948SOL    HW229481   0.693   2.001   8.346  1.3356 -0.9737  0.8203
 5949SOL     OW29482   4.471   0.601   4.176  0.1349  0.4562  0.2154
 5949SOL    HW129483   4.553   0.623   4.220 -0.4667 -0.1031  1.6055
 5949SOL    HW229484   4.496   0.514   4.145 -0.3321 -0.2894  1.9209
 5950SOL     OW29485   3.796   1.179   0.744  0.2488 -0.5116  0.0138
 5950SOL    HW129486   3.702   1.165   0.755 -0.6762  3.9234 -2.0474
 5950SOL    HW229487   3.829   1.089   0.753  0.6713 -0.4989 -1.3693
 5951SOL     OW29488   1.719   1.541   5.579  0.6864 -0.1119  0.4361
 5951SOL    HW129489   1.719   1.456   5.622 -2.3433 -0.8423 -0.9980
 5951SOL    HW229490   1.652   1.534   5.511  1.2028 -0.3609 -0.0437
 5952SOL     OW29491   2.492   3.582  16.195  0.4121  0.4878  0.5879
 5952SOL    HW129492   2.400   3.586  16.166  0.5079 -2.1219 -0.0753
 5952SOL    HW229493   2.503   3.490  16.220  0.9369  0.5216  0.4781
 5953SOL     OW29494   1.774   1.916   4.266 -0.2174 -0.2519  0.0333
 5953SOL    HW129495   1.845   1.935   4.327 -0.3202  2.0953 -0.5793
 5953SOL    HW229496   1.783   1.988   4.203  0.8747  0.3467  0.8645
 5954SOL     OW29497   1.957   0.178   2.713  0.1226 -0.1418  0.0815
 5954SOL    HW129498   2.041   0.159   2.754  1.8932  2.6021 -2.2308
 5954SOL    HW229499   1.903   0.226   2.776  0.8630 -0.7052  1.1430
 5955SOL     OW29500   4.226   4.263  15.083 -0.4096 -0.4951  0.5501
 5955SOL    HW129501   4.172   4.187  15.060  2.1234 -1.6064 -1.7433
 5955SOL    HW229502   4.207   4.312  15.003  4.0053  0.3586  0.0508
 5956SOL     OW29503   2.125   3.903   6.408  0.7389  0.2825  0.2738
 5956SOL    HW129504   2.200   3.850   6.381 -1.2312 -1.0010 -2.6616
 5956SOL    HW229505   2.130   3.906   6.503 -2.2027  1.6102  0.3803
 5957SOL     OW29506   2.038   2.620  15.651 -0.2583  0.1103  0.1443
 5957SOL    HW129507   2.032   2.525  15.657 -1.4700  0.3003  2.2413
 5957SOL    HW229508   1.959   2.653  15.608 -0.3041 -0.2634 -0.0575
 5958SOL     OW29509   3.585   0.663   4.285  0.3697 -0.2949 -0.0516
 5958SOL    HW129510   3.536   0.680   4.204 -0.0277 -1.8401 -0.1305
 5958SOL    HW229511   3.534   0.592   4.324  0.3817 -1.2620 -1.8103
 5959SOL     OW29512   1.134   0.088  12.736  0.3797 -0.3841  0.0185
 5959SOL    HW129513   1.183   0.166  12.712  0.5474 -1.2331 -2.4588
 5959SOL    HW229514   1.084   0.125  12.808  0.0609 -0.3128 -0.2372
 5960SOL     OW29515   1.442   0.135  16.089  0.0637 -0.1398 -0.3327
 5960SOL    HW129516   1.513   0.071  16.082  0.1268  0.2437 -2.9252
 5960SOL    HW229517   1.371   0.102  16.034 -0.0732 -0.3807 -0.0115
 5961SOL     OW29518   3.388   2.738  16.401  0.1768  0.2897  0.7303
 5961SOL    HW129519   3.472   2.780  16.387  0.0410  0.3850  0.2052
 5961SOL    HW229520   3.322   2.807  16.391  1.6888  1.6004 -0.0305
 5962SOL     OW29521   3.058   4.047   5.840  0.4074  0.2124 -0.8191
 5962SOL    HW129522   3.073   4.057   5.746 -0.6291 -0.8521 -1.0809
 5962SOL    HW229523   3.050   4.139   5.866 -3.4475 -0.5846  0.7788
 5963SOL     OW29524   0.462   1.809   2.146 -0.8064  0.4741  0.3559
 5963SOL    HW129525   0.480   1.717   2.127 -1.2122  0.2960  0.8360
 5963SOL    HW229526   0.429   1.849   2.066 -0.3446 -0.8280 -0.4772
 5964SOL     OW29527   0.095   2.917  16.715  0.0464 -0.2969  0.2232
 5964SOL    HW129528   0.166   2.980  16.716 -0.1995 -0.0584  2.0644
 5964SOL    HW229529   0.064   2.908  16.625  0.6413  2.3791 -0.2506
 5965SOL     OW29530   1.425   0.720   4.395  0.7560  0.4138 -0.5884
 5965SOL    HW129531   1.366   0.756   4.462 -0.4104 -1.3737 -0.6673
 5965SOL    HW229532   1.399   0.628   4.390 -1.1533  0.8428  1.7972
 5966SOL     OW29533   0.590   0.455  14.681  0.2737 -0.0514  0.2474
 5966SOL    HW129534   0.643   0.422  14.609  1.4832  0.1909  1.0271
 5966SOL    HW229535   0.516   0.488  14.629 -0.8519 -1.3887  0.9953
 5967SOL     OW29536   1.782   3.940   3.256 -0.1256  0.2240 -0.0239
 5967SOL    HW129537   1.877   3.957   3.253  0.2707 -2.0468 -0.1365
 5967SOL    HW229538   1.779   3.882   3.180  1.5083 -1.2039  0.9886
 5968SOL     OW29539   1.098   1.404  16.070  0.4958 -0.6907 -0.3705
 5968SOL    HW129540   1.181   1.428  16.111  0.3844 -0.7114 -0.1334
 5968SOL    HW229541   1.073   1.481  16.020  3.4784 -0.9058 -2.1482
 5969SOL     OW29542   3.695   2.216   4.676 -0.0470 -0.2022 -0.2550
 5969SOL    HW129543   3.772   2.201   4.621  1.3556  4.2422  0.4983
 5969SOL    HW229544   3.731   2.192   4.762 -3.2104 -1.5186  0.7068
 5970SOL     OW29545   2.428   0.913  15.508 -0.5785  0.1806  0.1534
 5970SOL    HW129546   2.365   0.961  15.454 -1.8268 -1.1985  0.3818
 5970SOL    HW229547   2.497   0.976  15.530 -0.2960  1.1037 -3.3937
 5971SOL     OW29548   0.537   0.304   2.069 -0.3579 -0.9298 -0.3774
 5971SOL    HW129549   0.461   0.264   2.026  0.2044 -2.0080 -0.3716
 5971SOL    HW229550   0.608   0.262   2.021 -0.4732  0.0068 -1.3597
 5972SOL     OW29551   0.434   0.226  11.662  0.3811 -0.3823  0.5527
 5972SOL    HW129552   0.339   0.240  11.655  0.4862  1.3161  2.3719
 5972SOL    HW229553   0.439   0.215  11.757  2.3362  0.4779  0.5431
 5973SOL     OW29554   3.016   0.645   4.752 -0.0094  0.3531 -0.2306
 5973SOL    HW129555   3.107   0.673   4.746  0.0213 -0.1547 -2.1275
 5973SOL    HW229556   3.016   0.590   4.830  2.7704  2.3138  1.1439
 5974SOL     OW29557   4.638   1.157   6.501  0.1314  0.2925  0.4147
 5974SOL    HW129558   4.647   1.252   6.507 -1.0389  0.4853 -0.8995
 5974SOL    HW229559   4.655   1.116   6.586  0.1541  1.0975  0.7999
 5975SOL     OW29560   0.288   4.390   7.628 -0.4859  0.2796  0.4337
 5975SOL    HW129561   0.373   4.399   7.671  0.0197 -2.2031 -0.0381
 5975SOL    HW229562   0.240   4.466   7.661 -0.4139  0.9109 -0.9287
 5976SOL     OW29563   0.116   4.072  16.992  0.5024  0.2593  0.1687
 5976SOL    HW129564   0.163   4.091  17.073 -0.8462  2.1139  0.5226
 5976SOL    HW229565   0.099   4.163  16.965  1.3844  0.4045  0.0908
 5977SOL     OW29566   4.179   1.158  14.594  0.2646  0.0829  0.2853
 5977SOL    HW129567   4.117   1.109  14.648  0.8619 -1.6313 -0.5665
 5977SOL    HW229568   4.231   1.204  14.660 -0.7336 -0.8572  1.7311
 5978SOL     OW29569   0.779   2.875   8.942 -0.4945  0.0390 -0.3354
 5978SOL    HW129570   0.864   2.876   8.898  0.6913  0.8821  1.9652
 5978SOL    HW229571   0.728   2.811   8.891  1.1635 -1.3646 -0.2166
 5979SOL     OW29572   2.303   2.463   2.896 -0.1310  0.8474 -0.1198
 5979SOL    HW129573   2.351   2.401   2.841 -2.0127 -0.9157  0.2309
 5979SOL    HW229574   2.223   2.474   2.844 -0.4011 -2.1136 -0.3040
 5980SOL     OW29575   2.138   1.840   3.627  0.4156 -0.3855 -0.3114
 5980SOL    HW129576   2.223   1.879   3.604  0.7896 -1.2118 -0.3275
 5980SOL    HW229577   2.090   1.919   3.650  3.2868  1.4191 -0.5247
 5981SOL     OW29578   3.262   0.340   1.846 -0.3841 -0.7256  0.2017
 5981SOL    HW129579   3.205   0.263   1.845 -2.3950  0.7689 -0.1511
 5981SOL    HW229580   3.215   0.387   1.914 -0.9198  3.2002 -2.8733
 5982SOL     OW29581   4.453   4.072   4.572 -0.3491  0.0502 -0.3739
 5982SOL    HW129582   4.482   3.984   4.548 -0.3557  0.1109 -0.6086
 5982SOL    HW229583   4.358   4.068   4.563 -0.1462 -2.8401 -1.2052
 5983SOL     OW29584   2.327   0.349   7.214 -0.1900  0.4894  0.4969
 5983SOL    HW129585   2.338   0.373   7.122  2.9280  0.1043  0.7717
 5983SOL    HW229586   2.385   0.410   7.259  0.2983 -0.4096  1.0849
 5984SOL     OW29587   0.769   3.236  12.401 -0.2475  0.0823 -0.7490
 5984SOL    HW129588   0.830   3.207  12.470 -2.0295  2.2410  1.7468
 5984SOL    HW229589   0.824   3.247  12.323 -0.7874  2.3284 -0.8292
 5985SOL     OW29590   2.946   3.042   5.565  0.1218 -0.1976  0.6654
 5985SOL    HW129591   2.871   3.066   5.619 -0.6734  0.6424 -0.8205
 5985SOL    HW229592   2.915   2.956   5.537  3.2380 -0.7586 -1.0727
 5986SOL     OW29593   1.894   2.682   5.888  0.4716 -0.7682 -0.3066
 5986SOL    HW129594   1.875   2.721   5.973 -2.9587 -0.4849 -1.1849
 5986SOL    HW229595   1.805   2.669   5.854  1.0196 -0.5399 -1.8640
 5987SOL     OW29596   1.359   3.506   1.067 -0.5990 -0.1895 -0.0926
 5987SOL    HW129597   1.353   3.539   0.977 -0.3636 -0.2435 -0.1287
 5987SOL    HW229598   1.414   3.429   1.054  2.0517  1.3265  2.2015
 5988SOL     OW29599   3.097   0.681   1.219  0.3054  0.4289  0.5584
 5988SOL    HW129600   3.039   0.622   1.267  0.1638 -0.3396 -0.5462
 5988SOL    HW229601   3.181   0.661   1.260 -0.4828 -1.3416  1.2755
 5989SOL     OW29602   1.095   1.739   3.222  0.1076  0.4848  0.6587
 5989SOL    HW129603   1.169   1.751   3.163  0.6516 -0.0061  1.2418
 5989SOL    HW229604   1.140   1.686   3.288 -0.8901 -1.9873 -0.6471
 5990SOL     OW29605   0.440   2.117  16.244 -0.1967 -0.2685 -0.0758
 5990SOL    HW129606   0.481   2.097  16.160  0.4701 -1.8615  0.6358
 5990SOL    HW229607   0.420   2.030  16.279 -3.0912 -0.2634 -1.7052
 5991SOL     OW29608   0.421   1.113   5.649  0.7663 -0.0479 -0.0611
 5991SOL    HW129609   0.375   1.142   5.728  3.2506  0.3041  1.2436
 5991SOL    HW229610   0.348   1.130   5.589 -0.2758 -0.0747  1.1814
 5992SOL     OW29611   1.530   0.038  13.988  0.3325 -0.4833  0.4001
 5992SOL    HW129612   1.544   0.026  14.082  1.7456  1.7409  0.4876
 5992SOL    HW229613   1.500   4.684  13.978  1.1500 -0.6065 -0.9309
 5993SOL     OW29614   4.589   1.843  10.374 -0.3912  0.4066 -0.4197
 5993SOL    HW129615   4.631   1.913  10.324  0.3879 -0.5713 -1.1398
 5993SOL    HW229616   4.608   1.879  10.461  1.2305  0.4358 -0.7844
 5994SOL     OW29617   2.955   1.825   1.645 -0.3632 -0.1338  0.0607
 5994SOL    HW129618   3.046   1.796   1.637 -0.4693 -0.1739 -0.9410
 5994SOL    HW229619   2.906   1.751   1.610 -0.9174  0.0354  0.4827
 5995SOL     OW29620   0.190   3.142  12.344 -0.5603 -0.3148  0.0761
 5995SOL    HW129621   0.261   3.201  12.367 -1.9633  0.7060  1.8033
 5995SOL    HW229622   0.136   3.133  12.423 -2.2062 -1.0059 -1.1097
 5996SOL     OW29623   3.526   4.215   6.732  0.0077  0.5391 -0.1579
 5996SOL    HW129624   3.612   4.257   6.743  0.7549 -0.7687 -1.0006
 5996SOL    HW229625   3.485   4.259   6.807  1.1734  0.1086  0.7402
 5997SOL     OW29626   3.709   2.787   3.082  0.1862  0.1469 -0.2387
 5997SOL    HW129627   3.676   2.722   3.143  0.1763  1.1853  0.8717
 5997SOL    HW229628   3.770   2.739   3.026  0.4301  1.0451 -0.7515
 5998SOL     OW29629   3.558   2.109   6.750 -0.0543  0.0806 -0.0027
 5998SOL    HW129630   3.649   2.137   6.759 -0.4052  1.4340 -0.6949
 5998SOL    HW229631   3.525   2.184   6.700 -1.8841 -0.3289  0.5736
 5999SOL     OW29632   2.660   1.483   9.015  0.0609  0.0841  0.2390
 5999SOL    HW129633   2.730   1.505   8.953 -0.7285  0.9967 -0.3256
 5999SOL    HW229634   2.640   1.569   9.051  0.4130 -0.1020  0.8849
 6000SOL     OW29635   2.933   0.521  14.187  0.4247 -0.8256 -0.3460
 6000SOL    HW129636   2.853   0.479  14.157 -0.0181  0.5678 -1.1159
 6000SOL    HW229637   2.899   0.593  14.240 -0.2633 -1.3304 -0.1126
 6001SOL     OW29638   1.123   1.848   2.107 -0.0338 -0.3360  0.1958
 6001SOL    HW129639   1.037   1.835   2.067  0.6621  1.8052 -2.0341
 6001SOL    HW229640   1.129   1.762   2.148  0.4961 -0.1694  0.4660
 6002SOL     OW29641   3.412   0.493   2.528 -1.3781 -0.3025  0.5772
 6002SOL    HW129642   3.398   0.587   2.535  4.0052  0.3429  3.5196
 6002SOL    HW229643   3.489   0.488   2.472 -1.6653 -0.1710  0.1762
 6003SOL     OW29644   4.485   3.644   5.320  0.0155 -0.5808 -0.1785
 6003SOL    HW129645   4.455   3.559   5.287 -0.0997  0.4578 -2.7284
 6003SOL    HW229646   4.573   3.616   5.345 -0.8844  1.0837  4.8449
 6004SOL     OW29647   3.894   3.306   8.079 -0.4925  0.5345  0.4380
 6004SOL    HW129648   3.886   3.392   8.121 -0.1899  0.0328  1.5096
 6004SOL    HW229649   3.984   3.308   8.048 -1.2339  0.8932 -1.7290
 6005SOL     OW29650   0.536   1.638   6.388  0.2952  0.0855 -0.3213
 6005SOL    HW129651   0.480   1.566   6.419  0.6260 -1.0628 -2.3670
 6005SOL    HW229652   0.534   1.692   6.467 -2.3504  0.6722 -0.7919
 6006SOL     OW29653   0.122   1.139  10.622 -0.4343  0.1099  0.3182
 6006SOL    HW129654   0.149   1.120  10.712  0.0506  0.3278  0.2234
 6006SOL    HW229655   0.205   1.137  10.573 -0.9113 -1.8754 -0.4105
 6007SOL     OW29656   3.385   4.179   1.805 -0.0439 -0.2832  0.6562
 6007SOL    HW129657   3.425   4.165   1.719  0.7013  0.4609  0.8902
 6007SOL    HW229658   3.375   4.274   1.811 -1.6588 -0.1846 -3.6643
 6008SOL     OW29659   1.275   2.574   9.943  0.3719  0.6282 -0.1353
 6008SOL    HW129660   1.274   2.525  10.025 -1.1691 -1.2297 -1.2763
 6008SOL    HW229661   1.230   2.516   9.881 -0.3228  0.7518  0.2564
 6009SOL     OW29662   2.943   0.010  12.297  0.0415  0.1055  0.1987
 6009SOL    HW129663   3.030   4.713  12.319  0.2682 -0.7794 -2.0271
 6009SOL    HW229664   2.958   0.102  12.275  1.1610  0.0792  0.8707
 6010SOL     OW29665   0.472   2.632   0.865  0.0566 -0.1313  0.2883
 6010SOL    HW129666   0.400   2.572   0.886  0.8027 -0.3493  2.2383
 6010SOL    HW229667   0.426   2.716   0.871  0.2768  0.0440 -0.5083
 6011SOL     OW29668   1.066   0.005  12.138 -0.2485  0.8522  0.3773
 6011SOL    HW129669   1.113   4.664  12.106 -0.2877  0.3308  1.5652
 6011SOL    HW229670   1.102   0.021  12.226 -0.3565  0.5248  0.4830
 6012SOL     OW29671   2.202   4.642   4.193  0.4666  0.5329  0.3796
 6012SOL    HW129672   2.274   4.620   4.251  1.5031  0.8858 -0.7838
 6012SOL    HW229673   2.132   4.615   4.253  0.1986 -1.5454 -0.8528
 6013SOL     OW29674   1.594   2.277  12.028 -0.6117  0.2753 -0.4506
 6013SOL    HW129675   1.639   2.341  11.971 -0.9428  0.7859 -0.1363
 6013SOL    HW229676   1.590   2.204  11.966 -0.7198 -1.0640  1.1431
 6014SOL     OW29677   0.769   3.644  17.580  0.6190 -0.4827 -1.1770
 6014SOL    HW129678   0.789   3.710  17.646 -1.6637 -0.5283 -0.4270
 6014SOL    HW229679   0.739   3.709  17.516  0.4747  1.1271  0.5197
 6015SOL     OW29680   1.575   4.486   6.849 -0.3393 -0.0766  0.1522
 6015SOL    HW129681   1.586   4.396   6.819 -0.1000 -0.3137  0.9507
 6015SOL    HW229682   1.479   4.485   6.854 -0.0897 -1.9779  4.4764
 6016SOL     OW29683   3.014   0.149   1.835  0.0594 -0.5723  0.6102
 6016SOL    HW129684   3.068   0.076   1.866 -0.1281 -1.9019 -2.2719
 6016SOL    HW229685   2.959   0.118   1.764  2.0692 -2.7117 -0.0069
 6017SOL     OW29686   3.236   2.186   1.285  0.2284  0.2704 -0.2561
 6017SOL    HW129687   3.184   2.142   1.352 -0.4471  0.4362 -0.6675
 6017SOL    HW229688   3.289   2.246   1.337  2.2953 -0.9270 -0.9782
 6018SOL     OW29689   1.011   3.535   4.377 -0.7073  0.3208  0.0962
 6018SOL    HW129690   0.949   3.503   4.311 -2.2036  2.6568  0.3786
 6018SOL    HW229691   1.072   3.462   4.387  1.3045  1.9177 -0.4645
 6019SOL     OW29692   0.901   0.305   5.872  0.0977 -0.5347  0.0905
 6019SOL    HW129693   0.936   0.316   5.960 -0.8342 -1.4177  0.5661
 6019SOL    HW229694   0.887   0.211   5.862 -1.0042 -0.2686 -0.9338
 6020SOL     OW29695   4.636   1.951   2.614  0.1298 -0.1425  0.2736
 6020SOL    HW129696   4.590   1.871   2.640 -2.1055  0.1791 -2.6063
 6020SOL    HW229697   4.575   1.990   2.551 -0.7844 -2.1061 -0.0647
 6021SOL     OW29698   1.433   4.342   6.533  0.1784  0.0864  0.3405
 6021SOL    HW129699   1.418   4.355   6.439 -0.0014 -1.7082  0.1162
 6021SOL    HW229700   1.516   4.389   6.541 -1.2168  2.5870  0.0402
 6022SOL     OW29701   0.903   4.639   2.261 -0.3278 -0.5118 -0.0114
 6022SOL    HW129702   0.931   4.683   2.181  1.2004  0.1703  0.9118
 6022SOL    HW229703   0.809   4.659   2.259 -0.3063 -0.3363  0.9032
 6023SOL     OW29704   3.642   1.501   6.138 -0.5979  0.4082 -0.0452
 6023SOL    HW129705   3.574   1.450   6.183  1.5280 -1.1441  1.4173
 6023SOL    HW229706   3.718   1.459   6.178 -0.5838  0.1557 -0.3420
 6024SOL     OW29707   3.597   0.574   2.054 -0.1364 -0.2266  0.0818
 6024SOL    HW129708   3.623   0.507   1.992 -1.8444 -0.5856 -0.2541
 6024SOL    HW229709   3.507   0.556   2.082 -0.1994  0.5797  0.4072
 6025SOL     OW29710   1.745   0.684  15.563  0.4504  0.5277  0.2531
 6025SOL    HW129711   1.697   0.663  15.483 -1.4933  2.5588  0.9049
 6025SOL    HW229712   1.706   0.768  15.587 -0.2472  0.7886 -1.8311
 6026SOL     OW29713   0.756   1.659   5.621  0.3231  0.1423 -0.0712
 6026SOL    HW129714   0.681   1.605   5.643 -0.0571  0.0982 -1.4737
 6026SOL    HW229715   0.782   1.686   5.709  1.4094 -1.4825  0.0936
 6027SOL     OW29716   2.018   3.676   4.971 -0.3527 -0.5344  0.6956
 6027SOL    HW129717   2.093   3.646   5.022  0.5588  0.7240  0.0811
 6027SOL    HW229718   1.953   3.673   5.042 -0.8478  0.9765  0.3088
 6028SOL     OW29719   4.144   3.684   8.463  0.3035  0.3613  0.3772
 6028SOL    HW129720   4.157   3.747   8.393 -0.1161 -1.5900 -1.4598
 6028SOL    HW229721   4.051   3.667   8.447  0.7443 -1.0410 -0.6910
 6029SOL     OW29722   3.284   2.934  14.939  0.3270 -0.3985  0.5773
 6029SOL    HW129723   3.329   3.015  14.963  0.5597 -0.0179 -1.1680
 6029SOL    HW229724   3.245   2.897  15.019  2.3705  0.6370  2.0554
 6030SOL     OW29725   1.811   2.300  15.746  0.0193 -0.1299  0.5166
 6030SOL    HW129726   1.861   2.325  15.668  1.6875  1.2076  2.0026
 6030SOL    HW229727   1.880   2.321  15.810 -0.2057  0.4042  0.5847
 6031SOL     OW29728   3.587   1.432   7.932 -0.0306  0.0478  0.2068
 6031SOL    HW129729   3.543   1.479   8.003 -0.3005  1.8701 -1.1826
 6031SOL    HW229730   3.657   1.491   7.904 -0.4038  1.5327  2.3988
 6032SOL     OW29731   3.434   4.128   6.495 -0.8549 -0.1917  0.1958
 6032SOL    HW129732   3.469   4.043   6.521 -1.6572  0.0876  2.2370
 6032SOL    HW229733   3.460   4.188   6.565 -0.8623 -0.6568  0.6013
 6033SOL     OW29734   1.049   1.228   2.502  0.4414  0.2473 -0.2887
 6033SOL    HW129735   1.093   1.235   2.418  1.7732  0.1497  0.4073
 6033SOL    HW229736   1.107   1.173   2.555  1.5631 -0.3794 -2.1563
 6034SOL     OW29737   3.961   2.058  12.771  0.1627 -0.1249 -0.3177
 6034SOL    HW129738   3.951   2.152  12.787 -3.1973 -0.1310 -2.4113
 6034SOL    HW229739   4.042   2.055  12.720  0.3281 -0.9624 -0.0213
 6035SOL     OW29740   4.197   1.978  10.556 -0.4171  0.9622 -0.2171
 6035SOL    HW129741   4.205   2.074  10.557 -1.1073  1.0308 -1.1085
 6035SOL    HW229742   4.262   1.960  10.624 -1.4538 -1.4655  0.1284
 6036SOL     OW29743   0.657   4.095   4.021  0.2886  0.5028  0.3743
 6036SOL    HW129744   0.574   4.048   4.015  0.8607 -0.2755 -1.3225
 6036SOL    HW229745   0.634   4.181   3.986 -1.0616  0.3503  0.8800
 6037SOL     OW29746   1.579   4.031   6.373 -0.6299 -0.3460  0.2553
 6037SOL    HW129747   1.571   4.104   6.434 -0.2536  0.8214 -1.0966
 6037SOL    HW229748   1.545   3.958   6.426 -1.5317 -0.3445 -0.3264
 6038SOL     OW29749   4.595   1.710   4.161 -0.8052 -0.3645 -0.3981
 6038SOL    HW129750   4.653   1.762   4.106  0.0975  0.8745  1.7406
 6038SOL    HW229751   4.512   1.717   4.113 -0.2658 -2.0421 -1.6071
 6039SOL     OW29752   2.811   2.125  13.064  0.1826 -0.4855  0.0491
 6039SOL    HW129753   2.751   2.127  12.989 -0.0707 -1.3553  0.2307
 6039SOL    HW229754   2.761   2.090  13.138 -0.5876  0.3113 -0.0893
 6040SOL     OW29755   1.177   0.452   5.484  0.4438 -0.6534  0.2375
 6040SOL    HW129756   1.128   0.373   5.507  0.6699 -1.4065 -1.8919
 6040SOL    HW229757   1.113   0.523   5.479  2.7007  1.2925 -0.8680
 6041SOL     OW29758   1.082   3.928   1.032 -0.0086  0.4863  0.8353
 6041SOL    HW129759   1.169   3.889   1.019 -0.3070  0.5821 -1.5276
 6041SOL    HW229760   1.107   4.002   0.977 -3.1787  1.4653  0.7410
 6042SOL     OW29761   2.850   0.348  17.546  0.6455 -0.2981 -0.1987
 6042SOL    HW129762   2.946   0.355  17.538  0.5405  2.4667  1.1651
 6042SOL    HW229763   2.825   0.440  17.554 -3.2277 -1.3716 -0.4231
 6043SOL     OW29764   2.491   2.471   5.306 -0.4383  0.5397  0.4761
 6043SOL    HW129765   2.401   2.501   5.321 -0.9213 -0.2894 -0.7769
 6043SOL    HW229766   2.497   2.473   5.211 -2.1628  1.7893  0.4063
 6044SOL     OW29767   2.548   3.532   5.772 -0.4513  0.2329 -0.1446
 6044SOL    HW129768   2.504   3.559   5.691 -2.9955 -1.6871  0.6240
 6044SOL    HW229769   2.507   3.587   5.839 -1.0371 -0.9365  0.4492
 6045SOL     OW29770   1.210   1.708   8.128 -0.0237  0.3783  0.0549
 6045SOL    HW129771   1.224   1.787   8.179  0.6341  0.6425 -0.5256
 6045SOL    HW229772   1.158   1.738   8.053 -0.5635  0.0860  0.3180
 6046SOL     OW29773   3.682   3.177   3.204 -0.5837 -0.0092  0.7662
 6046SOL    HW129774   3.747   3.226   3.254  1.1921 -1.1819 -0.4426
 6046SOL    HW229775   3.605   3.187   3.261 -0.1686  0.1236  1.3084
 6047SOL     OW29776   1.916   1.580  12.535 -0.3435 -0.4811 -0.0997
 6047SOL    HW129777   1.935   1.674  12.531 -1.8561 -0.2949 -2.5657
 6047SOL    HW229778   1.912   1.566  12.441 -1.0673 -1.1491  0.0412
 6048SOL     OW29779   0.892   0.077   4.110  0.2633  0.0434 -0.1542
 6048SOL    HW129780   0.854   0.015   4.047 -0.7967 -1.6423  2.1433
 6048SOL    HW229781   0.945   0.131   4.050  1.6370 -0.4817  0.5854
 6049SOL     OW29782   0.281   0.767   3.964 -0.6207 -0.1579  0.0808
 6049SOL    HW129783   0.218   0.838   3.959 -0.9330 -0.3150  1.8596
 6049SOL    HW229784   0.255   0.707   3.894  0.0301 -0.9022  0.4718
 6050SOL     OW29785   0.419   2.332   5.802  0.0201  0.0020  0.2907
 6050SOL    HW129786   0.364   2.368   5.872  1.4485 -0.4751  1.6637
 6050SOL    HW229787   0.355   2.277   5.757 -1.5623  1.7594  0.3748
 6051SOL     OW29788   3.439   3.821   5.784 -0.2740  0.1701 -0.5867
 6051SOL    HW129789   3.359   3.778   5.754 -0.0931 -0.1697 -0.5753
 6051SOL    HW229790   3.498   3.802   5.711  1.2617  0.6645  0.5285
 6052SOL     OW29791   3.031   4.333   7.224 -0.4068  0.2968  0.4858
 6052SOL    HW129792   3.063   4.382   7.149  2.0814  1.5423  2.3869
 6052SOL    HW229793   3.023   4.246   7.185  0.1177 -0.2314  1.5483
 6053SOL     OW29794   4.351   0.932   7.163  0.5100  0.1552  0.1437
 6053SOL    HW129795   4.340   0.842   7.132 -3.2680  0.3756  0.8882
 6053SOL    HW229796   4.363   0.976   7.078 -1.4426 -0.1255 -0.2812
 6054SOL     OW29797   2.092   3.413   9.336 -1.2043  0.1923 -0.2758
 6054SOL    HW129798   2.016   3.387   9.387 -1.0585  1.7370  0.6974
 6054SOL    HW229799   2.084   3.507   9.321  0.3005  0.7511  2.4461
 6055SOL     OW29800   1.558   0.439  15.122 -0.1277 -0.2019 -0.1426
 6055SOL    HW129801   1.617   0.493  15.070  0.1246 -0.9718 -0.6571
 6055SOL    HW229802   1.581   0.457  15.213  1.9826 -0.2093 -0.6666
 6056SOL     OW29803   3.093   0.702   2.503 -1.1285 -0.1084  0.8281
 6056SOL    HW129804   3.181   0.730   2.529 -0.2271 -2.0377 -0.1847
 6056SOL    HW229805   3.099   0.608   2.485 -1.2913 -0.7260  4.0107
 6057SOL     OW29806   1.179   1.622   7.785 -0.2367 -0.1934  0.1420
 6057SOL    HW129807   1.134   1.557   7.731  1.2952 -0.3467 -0.9473
 6057SOL    HW229808   1.129   1.695   7.750  0.4271 -0.2651 -0.9591
 6058SOL     OW29809   2.233   3.563  16.116  0.3785  0.0064  0.0131
 6058SOL    HW129810   2.221   3.485  16.170 -1.9130  0.2555 -0.1441
 6058SOL    HW229811   2.197   3.525  16.036 -1.5082 -1.2421  1.4675
 6059SOL     OW29812   2.076   0.581   2.726 -0.0934  0.4477 -1.1131
 6059SOL    HW129813   2.054   0.555   2.815  1.5480  2.2248 -0.1940
 6059SOL    HW229814   2.165   0.545   2.717 -0.4640 -1.2563  2.3124
 6060SOL     OW29815   2.414   0.670  10.279 -0.4865 -0.1692  0.1095
 6060SOL    HW129816   2.438   0.699  10.367 -0.5424 -1.2441  0.4792
 6060SOL    HW229817   2.323   0.693  10.261  0.2269  2.5614 -0.0294
 6061SOL     OW29818   2.035   3.940   6.686  0.1415 -0.3161  0.0037
 6061SOL    HW129819   2.060   4.031   6.700  1.1623 -0.3437 -1.6716
 6061SOL    HW229820   1.969   3.934   6.755  0.4863  0.6482  0.4199
 6062SOL     OW29821   0.721   4.693  11.803  0.3601 -0.2453 -0.6550
 6062SOL    HW129822   0.705   0.015  11.728  0.3353 -0.3985 -0.7675
 6062SOL    HW229823   0.792   4.636  11.773  1.2754  0.8423 -0.5916
 6063SOL     OW29824   0.064   0.576   6.191 -0.1551  0.4025  0.3440
 6063SOL    HW129825   0.134   0.565   6.127 -0.6241  1.9369 -0.4489
 6063SOL    HW229826   4.729   0.527   6.150  1.1448 -2.5093  1.6404
 6064SOL     OW29827   1.938   1.927  15.236 -0.2934  0.7136 -0.3935
 6064SOL    HW129828   1.845   1.910  15.250 -0.0671  0.4722  0.8061
 6064SOL    HW229829   1.947   1.939  15.141  0.5016 -1.5146 -0.6153
 6065SOL     OW29830   1.133   2.293   1.637 -0.3341  0.3595  0.5350
 6065SOL    HW129831   1.161   2.303   1.546 -1.7316 -0.8832 -0.0245
 6065SOL    HW229832   1.073   2.219   1.646 -0.8838  0.7111 -0.2279
 6066SOL     OW29833   0.668   2.800   2.400 -0.5607 -0.1968 -0.1443
 6066SOL    HW129834   0.634   2.887   2.421  0.3369 -0.1159  1.0087
 6066SOL    HW229835   0.668   2.762   2.487  0.8380  2.0976  0.8747
 6067SOL     OW29836   3.748   2.850   1.717  0.5229  0.4660 -0.0243
 6067SOL    HW129837   3.833   2.885   1.740  0.9463 -1.3313  1.1498
 6067SOL    HW229838   3.754   2.867   1.623  0.5030  1.6614  0.1915
 6068SOL     OW29839   1.650   3.721   3.869  0.2455 -0.2142 -0.4302
 6068SOL    HW129840   1.743   3.737   3.885  0.1040  1.3792 -1.1941
 6068SOL    HW229841   1.613   3.788   3.927  1.4337  1.3673 -1.5001
 6069SOL     OW29842   0.316   2.214  16.980 -0.9658 -0.0589 -0.4125
 6069SOL    HW129843   0.390   2.157  17.001 -1.6647 -1.1166 -0.8218
 6069SOL    HW229844   0.304   2.253  17.067  0.2715 -3.0991  1.1345
 6070SOL     OW29845   0.594   0.636   8.136  0.3368  0.7393  0.0269
 6070SOL    HW129846   0.563   0.644   8.046  0.3629 -0.2295 -0.0687
 6070SOL    HW229847   0.552   0.557   8.170 -0.0418  0.9194 -0.0245
 6071SOL     OW29848   0.580   2.210   7.893 -0.6888  0.3414 -0.3288
 6071SOL    HW129849   0.549   2.124   7.865  1.2474 -0.0881 -1.1255
 6071SOL    HW229850   0.641   2.182   7.961 -1.0650  4.7353  1.8122
 6072SOL     OW29851   3.050   1.102  17.615 -0.7717  0.2504 -0.8290
 6072SOL    HW129852   2.972   1.145  17.580  0.5405  1.3212 -2.4450
 6072SOL    HW229853   3.075   1.053  17.537 -0.1783  0.1360 -0.5622
 6073SOL     OW29854   4.483   2.943   0.186  0.3564  0.4042 -0.0374
 6073SOL    HW129855   4.501   2.928   0.279 -1.9672 -3.5004 -0.1964
 6073SOL    HW229856   4.534   2.867   0.157 -0.5173  0.7745 -2.5485
 6074SOL     OW29857   1.678   0.614  13.541  0.0428 -0.3828  0.5878
 6074SOL    HW129858   1.723   0.634  13.459  1.2805 -0.5435  1.2262
 6074SOL    HW229859   1.595   0.600  13.494 -0.4029 -2.8811  2.0755
 6075SOL     OW29860   3.346   4.440   5.297 -0.0071  0.0118  0.1158
 6075SOL    HW129861   3.329   4.348   5.318 -3.4925  1.2498  2.6610
 6075SOL    HW229862   3.367   4.480   5.381 -2.5536  2.4557 -0.4054
 6076SOL     OW29863   1.943   1.835  12.752  0.4089  0.1617  0.0449
 6076SOL    HW129864   2.000   1.905  12.784 -1.5082  1.5810  0.3933
 6076SOL    HW229865   1.861   1.835  12.802  0.4357  3.1534  0.0894
 6077SOL     OW29866   2.170   2.281   6.984  0.2171 -0.0861 -0.8783
 6077SOL    HW129867   2.085   2.323   6.998 -0.4142 -0.8127 -2.4806
 6077SOL    HW229868   2.189   2.307   6.894  0.2405  2.0964 -0.2453
 6078SOL     OW29869   1.650   0.181   7.559  0.0014 -0.3384  0.2168
 6078SOL    HW129870   1.714   0.110   7.558 -0.5641 -0.8522  1.0767
 6078SOL    HW229871   1.665   0.218   7.645 -0.6563 -1.8798  0.9966
 6079SOL     OW29872   4.693   2.686   3.749  0.5401 -0.2453  0.5125
 6079SOL    HW129873   4.735   2.629   3.686  2.0930  0.7824  0.5967
 6079SOL    HW229874   4.603   2.653   3.754  0.1874  0.4410 -1.2719
 6080SOL     OW29875   2.813   4.682   7.159 -0.4884 -0.2060 -0.4993
 6080SOL    HW129876   2.737   4.624   7.167  1.1187 -2.0337  1.3362
 6080SOL    HW229877   2.821   4.685   7.063  0.8129  1.1170 -0.3495
 6081SOL     OW29878   4.723   2.267  14.618 -0.0653 -0.2874  0.6470
 6081SOL    HW129879   4.709   2.360  14.636  0.1764  0.5565 -3.7162
 6081SOL    HW229880   4.650   2.241  14.561  0.5068 -1.7886  0.6121
 6082SOL     OW29881   3.616   3.135  10.852 -0.1523 -0.4483 -0.2335
 6082SOL    HW129882   3.616   3.216  10.904  0.8017 -0.1967 -0.6082
 6082SOL    HW229883   3.688   3.155  10.792  2.7999 -0.1001  3.4381
 6083SOL     OW29884   3.144   1.020   8.591  0.1060  0.1436  0.8516
 6083SOL    HW129885   3.065   0.968   8.605  0.4118 -0.2574  1.0931
 6083SOL    HW229886   3.138   1.076   8.669 -1.3236 -0.8134  1.4408
 6084SOL     OW29887   2.861   2.457   5.606  0.5298  0.1677 -0.3082
 6084SOL    HW129888   2.820   2.492   5.527 -0.5157  1.6211  0.8774
 6084SOL    HW229889   2.806   2.386   5.639 -0.1382  0.5396 -0.6361
 6085SOL     OW29890   1.716   1.688   9.465 -0.2690 -0.5068  0.1590
 6085SOL    HW129891   1.712   1.616   9.527  1.4049 -1.1132 -0.4336
 6085SOL    HW229892   1.784   1.655   9.406 -1.1005 -3.0047  0.6043
 6086SOL     OW29893   1.084   3.363   8.563 -0.6559  0.2835 -0.2107
 6086SOL    HW129894   1.078   3.432   8.497 -0.1549  1.1676  0.6774
 6086SOL    HW229895   1.114   3.287   8.512 -1.8091 -0.7529  0.6391
 6087SOL     OW29896   1.324   2.497  14.279  0.3103 -0.3296 -0.6517
 6087SOL    HW129897   1.247   2.520  14.227  0.5601 -0.4184 -1.0643
 6087SOL    HW229898   1.341   2.566  14.343 -0.9804 -0.7473  0.1278
 6088SOL     OW29899   4.642   4.010   3.153  0.0569  0.4414  0.3664
 6088SOL    HW129900   4.643   4.085   3.213 -1.1628  0.3415  0.5212
 6088SOL    HW229901   4.634   3.942   3.221 -1.9997 -2.9875 -3.2989
 6089SOL     OW29902   4.457   3.924   2.943  0.4995 -0.0630 -0.6097
 6089SOL    HW129903   4.364   3.935   2.961  0.5342 -2.0434  0.8065
 6089SOL    HW229904   4.493   3.972   3.018  0.0495  0.9789 -1.0718
 6090SOL     OW29905   3.529   4.173  16.632  0.0729  0.1868  0.3644
 6090SOL    HW129906   3.491   4.181  16.545 -0.3777  1.0967  0.6382
 6090SOL    HW229907   3.537   4.263  16.665  1.1196  0.2623 -0.1102
 6091SOL     OW29908   0.112   4.520   5.935 -0.6090 -0.3508 -0.1779
 6091SOL    HW129909   0.150   4.551   5.852 -0.5863  3.0136  1.0781
 6091SOL    HW229910   0.188   4.529   5.993  0.2407  1.3621 -1.5389
 6092SOL     OW29911   0.717   2.700  17.224 -0.0033 -0.2598 -0.1939
 6092SOL    HW129912   0.667   2.778  17.246 -2.0939 -1.2738 -1.4028
 6092SOL    HW229913   0.663   2.671  17.150 -0.6609 -0.2327  0.2821
 6093SOL     OW29914   2.496   4.540   7.933 -0.1707  0.3631 -0.1642
 6093SOL    HW129915   2.478   4.594   8.010  1.2243  2.9234 -1.6527
 6093SOL    HW229916   2.575   4.582   7.899 -1.9056  2.2809 -1.7812
 6094SOL     OW29917   4.002   1.973   3.856 -0.0111  0.1465 -0.2811
 6094SOL    HW129918   4.021   1.979   3.762  1.6327  1.1511  0.1123
 6094SOL    HW229919   3.994   1.881   3.879 -0.4379 -0.1515 -1.6465
 6095SOL     OW29920   3.183   2.732  17.004 -0.3958  0.0682  0.1818
 6095SOL    HW129921   3.170   2.685  16.922 -0.5864 -2.4569  1.6361
 6095SOL    HW229922   3.158   2.664  17.068 -0.4696  0.0285  0.1097
 6096SOL     OW29923   2.885   1.001   6.679 -0.1460 -0.1164 -0.3143
 6096SOL    HW129924   2.971   0.968   6.704 -1.2450 -2.0259  0.9213
 6096SOL    HW229925   2.902   1.095   6.669  2.1327 -0.6257 -1.0647
 6097SOL     OW29926   2.072   4.241  11.651  0.1240 -0.9152 -0.0978
 6097SOL    HW129927   2.093   4.332  11.675 -1.0903 -1.3447  2.6617
 6097SOL    HW229928   2.006   4.274  11.590  0.6088 -0.3234 -0.3070
 6098SOL     OW29929   3.845   3.891   5.124  0.9092  0.1910  0.2277
 6098SOL    HW129930   3.761   3.866   5.162  0.8464 -0.4394 -0.3160
 6098SOL    HW229931   3.818   3.899   5.032  1.4672  1.4706  0.1762
 6099SOL     OW29932   4.217   3.313   2.887 -0.0678 -0.3158 -0.0478
 6099SOL    HW129933   4.278   3.354   2.949  0.9209  0.4223 -1.5219
 6099SOL    HW229934   4.256   3.227   2.873  0.1683 -0.0451 -1.0366
 6100SOL     OW29935   2.212   0.051  13.618 -0.5410  0.0796  0.2464
 6100SOL    HW129936   2.194   4.707  13.569 -0.0937  0.4390 -0.5073
 6100SOL    HW229937   2.167   0.105  13.554  2.2510  1.8558 -0.2413
 6101SOL     OW29938   0.019   2.400   5.815 -0.0461  0.1016 -0.8372
 6101SOL    HW129939   4.685   2.336   5.813 -0.5234  0.6546 -2.1571
 6101SOL    HW229940   0.083   2.361   5.756 -0.5879 -1.7923 -0.1572
 6102SOL     OW29941   2.149   4.589  11.944 -0.8592 -0.0048  0.0199
 6102SOL    HW129942   2.232   4.627  11.972 -0.3475 -0.8342 -0.3933
 6102SOL    HW229943   2.157   4.512  12.000 -2.0318 -0.6570 -0.6850
 6103SOL     OW29944   2.515   1.763   3.388  0.2525  0.1720  0.0965
 6103SOL    HW129945   2.432   1.729   3.355 -0.3574  0.6606  1.1172
 6103SOL    HW229946   2.580   1.732   3.326 -0.4549  1.8790 -1.4817
 6104SOL     OW29947   2.437   1.891   1.182  0.3393 -0.0771  0.0791
 6104SOL    HW129948   2.476   1.820   1.232  1.8294  1.5353  1.2125
 6104SOL    HW229949   2.510   1.952   1.191  1.9103 -1.8566 -0.5412
 6105SOL     OW29950   4.123   1.945  13.432  0.1241  0.0309 -0.1601
 6105SOL    HW129951   4.201   1.989  13.398  1.4775 -0.7121  1.9948
 6105SOL    HW229952   4.064   2.020  13.445 -0.8655 -0.9701  1.0830
 6106SOL     OW29953   0.436   1.953   4.955 -0.4529 -0.3164  0.0313
 6106SOL    HW129954   0.487   1.948   4.875  1.1277 -1.2437  1.0943
 6106SOL    HW229955   0.487   1.908   5.022  1.3012  0.3655 -0.8665
 6107SOL     OW29956   1.271   3.000  13.254  0.1823 -0.1922 -0.0301
 6107SOL    HW129957   1.300   2.935  13.318  1.1257  1.6221  1.4187
 6107SOL    HW229958   1.228   2.946  13.188 -2.8157 -0.3477  2.0343
 6108SOL     OW29959   1.165   4.159   3.071 -0.5549 -0.3199  0.1997
 6108SOL    HW129960   1.227   4.119   3.010  0.8527 -0.2279  1.5826
 6108SOL    HW229961   1.189   4.121   3.155  1.0593  0.0046 -0.1126
 6109SOL     OW29962   1.985   2.886   5.002  0.0929  0.0884 -0.2743
 6109SOL    HW129963   1.917   2.948   4.976 -0.3332  0.9845  3.0238
 6109SOL    HW229964   2.030   2.931   5.073 -2.2967  1.4844  0.3155
 6110SOL     OW29965   2.150   3.347   2.207  0.0116 -0.5050  0.0118
 6110SOL    HW129966   2.093   3.290   2.156  0.8497 -2.2273  0.9908
 6110SOL    HW229967   2.238   3.314   2.186  0.1071  0.0479 -0.4464
 6111SOL     OW29968   0.117   0.535   3.311  0.5391 -0.5794 -0.1169
 6111SOL    HW129969   0.168   0.458   3.336  1.0381 -0.3836 -0.5259
 6111SOL    HW229970   0.062   0.536   3.389  0.1084 -1.5872 -0.3959
 6112SOL     OW29971   0.198   2.284  12.654 -0.1662 -0.1503  0.3269
 6112SOL    HW129972   0.278   2.336  12.656 -0.1692 -0.1468  0.3723
 6112SOL    HW229973   0.234   2.203  12.620 -1.0475 -0.8352  1.0364
 6113SOL     OW29974   2.306   3.193  10.547 -0.1753 -0.1812  0.1304
 6113SOL    HW129975   2.288   3.099  10.557 -1.9647  0.3872  2.1058
 6113SOL    HW229976   2.379   3.197  10.609 -1.2529  0.2151  1.3766
 6114SOL     OW29977   2.259   0.498   7.520 -1.0668  0.3838 -0.3432
 6114SOL    HW129978   2.232   0.589   7.514  1.8498  1.4345  2.1663
 6114SOL    HW229979   2.204   0.462   7.590 -0.1679 -0.9147 -0.2939
 6115SOL     OW29980   2.279   3.341   3.177  0.5789 -0.3944 -0.3335
 6115SOL    HW129981   2.242   3.424   3.145  0.7736  0.2618  1.1620
 6115SOL    HW229982   2.206   3.283   3.195  0.4314 -0.2960 -0.6016
 6116SOL     OW29983   0.149   2.963  13.528 -0.2789  0.2430 -0.3599
 6116SOL    HW129984   0.189   2.951  13.615  0.3307 -2.5762 -1.0241
 6116SOL    HW229985   0.232   2.948  13.481 -0.1745 -0.7850  0.1444
 6117SOL     OW29986   3.280   1.794   9.318  0.0385  0.0565 -0.2975
 6117SOL    HW129987   3.355   1.837   9.277 -0.7036  1.3543 -0.2997
 6117SOL    HW229988   3.222   1.865   9.344 -1.8987 -1.6609  0.0583
 6118SOL     OW29989   2.524   2.720   2.669  0.1917 -0.3654  0.3701
 6118SOL    HW129990   2.600   2.672   2.702  0.5671  1.1491  1.6822
 6118SOL    HW229991   2.457   2.656   2.694 -2.0509  2.4772  1.6502
 6119SOL     OW29992   0.790   1.525   1.593 -0.0187  0.4365  0.0399
 6119SOL    HW129993   0.708   1.559   1.628 -0.7884 -0.5079 -0.8310
 6119SOL    HW229994   0.825   1.467   1.660  0.7252  1.0456  0.1759
 6120SOL     OW29995   1.395   3.772  16.261  0.2283  0.4222 -0.2138
 6120SOL    HW129996   1.425   3.713  16.192  0.3669 -0.7945  0.8872
 6120SOL    HW229997   1.353   3.844  16.213  1.5899  1.0687 -0.4326
 6121SOL     OW29998   1.360   3.060   5.984 -0.0949 -0.1753  0.4755
 6121SOL    HW129999   1.407   3.138   6.013 -0.4484  0.3891 -0.4868
 6121SOL    HW230000   1.384   2.998   6.053 -1.0074 -0.1971  0.7729
 6122SOL     OW30001   4.358   2.068   6.430  0.1096 -1.0023  0.7959
 6122SOL    HW130002   4.412   2.143   6.455 -0.9260  0.1514 -0.4344
 6122SOL    HW230003   4.415   1.993   6.448  1.9444 -0.0840 -1.1512
 6123SOL     OW30004   1.340   3.885   6.009  0.3600 -0.1178  0.4534
 6123SOL    HW130005   1.245   3.878   6.004  0.5971 -2.3063 -0.6895
 6123SOL    HW230006   1.350   3.970   5.965  0.6818 -0.9469 -1.0764
 6124SOL     OW30007   0.839   3.088   4.388 -0.0436 -0.7510  0.5266
 6124SOL    HW130008   0.847   2.993   4.394  0.7368 -0.8075 -1.1622
 6124SOL    HW230009   0.880   3.094   4.302 -0.3294  0.0818  0.4435
 6125SOL     OW30010   4.724   2.424  16.688  0.2667 -0.8686 -0.2729
 6125SOL    HW130011   4.689   2.335  16.694  1.2899 -1.1654  1.0642
 6125SOL    HW230012   0.069   2.416  16.737 -1.3734 -1.7537  2.2698
 6126SOL     OW30013   4.366   2.672  13.341 -0.0300 -0.1515 -0.1309
 6126SOL    HW130014   4.354   2.577  13.342 -0.9806 -0.0314  0.7024
 6126SOL    HW230015   4.332   2.695  13.254  0.2479 -1.9129 -0.7071
 6127SOL     OW30016   2.029   4.456  16.057 -0.1967  0.0473 -0.0710
 6127SOL    HW130017   1.936   4.473  16.068 -0.4784 -1.0859 -0.6895
 6127SOL    HW230018   2.042   4.492  15.969  1.5320  4.5136  1.9852
 6128SOL     OW30019   3.914   1.847   5.987  0.3517 -0.1374 -0.4249
 6128SOL    HW130020   3.849   1.781   5.963  1.1789 -1.1622  0.1283
 6128SOL    HW230021   3.932   1.868   5.895  1.0093 -1.3723 -0.5892
 6129SOL     OW30022   1.016   0.881   8.576 -0.1664 -0.0344 -0.5264
 6129SOL    HW130023   0.972   0.800   8.550 -1.9452  0.6188  0.4463
 6129SOL    HW230024   0.973   0.945   8.519 -2.9439 -0.3107  1.2632
 6130SOL     OW30025   3.566   0.481   8.505 -0.7523 -0.0311 -0.1397
 6130SOL    HW130026   3.583   0.555   8.446 -0.9487  0.4118  0.3540
 6130SOL    HW230027   3.654   0.456   8.533  0.0881  2.6322 -0.3852
 6131SOL     OW30028   2.423   0.234  15.592 -0.0475  0.1711  0.3226
 6131SOL    HW130029   2.409   0.322  15.558  0.1899 -0.8039 -2.2402
 6131SOL    HW230030   2.343   0.186  15.572 -0.8026  1.5390  0.0685
 6132SOL     OW30031   0.885   0.365   3.522 -0.3957  0.6075 -0.2858
 6132SOL    HW130032   0.799   0.347   3.560  0.1382  0.1996  0.7221
 6132SOL    HW230033   0.868   0.327   3.436  1.6964 -0.9327 -0.0090
 6133SOL     OW30034   2.139   2.976   3.675  0.2691 -0.1069  0.8881
 6133SOL    HW130035   2.070   2.909   3.677 -1.5527  1.7174 -2.0025
 6133SOL    HW230036   2.208   2.921   3.637  0.2871  1.9246 -1.9772
 6134SOL     OW30037   0.046   4.722  13.139 -0.5295  0.0109  0.2903
 6134SOL    HW130038   0.106   0.021  13.073  1.5612 -2.9173  0.5940
 6134SOL    HW230039   0.097   4.645  13.164  0.4537  0.2707 -0.9050
 6135SOL     OW30040   4.109   0.850   2.764  0.1847 -0.5958  0.1699
 6135SOL    HW130041   4.189   0.892   2.794  1.2179 -2.5360  0.1072
 6135SOL    HW230042   4.094   0.805   2.848 -0.0166  0.4127  0.6802
 6136SOL     OW30043   1.634   0.799   2.187 -0.1104 -0.0456  0.0441
 6136SOL    HW130044   1.605   0.889   2.197  0.5982  0.2600 -0.6438
 6136SOL    HW230045   1.545   0.764   2.185 -0.1689 -0.0168  2.1761
 6137SOL     OW30046   2.484   3.999   3.677  0.1578  0.3424 -0.2423
 6137SOL    HW130047   2.568   3.980   3.717  0.4607  1.4458 -0.3497
 6137SOL    HW230048   2.438   4.033   3.754  1.1625 -1.3452  1.1015
 6138SOL     OW30049   2.676   1.216   9.024  0.1598  0.5438 -0.0917
 6138SOL    HW130050   2.652   1.197   9.115  3.5892 -0.8492  0.4916
 6138SOL    HW230051   2.670   1.312   9.021  0.3417  0.5731  0.4691
 6139SOL     OW30052   1.418   0.035   7.207 -0.2063  0.0087  0.1838
 6139SOL    HW130053   1.404   0.112   7.262  0.0397  0.0212  0.2264
 6139SOL    HW230054   1.369   0.052   7.126  1.1243 -0.3998 -0.7013
 6140SOL     OW30055   3.060   0.153  11.960  0.1962 -0.1572 -0.1427
 6140SOL    HW130056   2.985   0.213  11.963 -0.3162 -0.9053  2.1206
 6140SOL    HW230057   3.061   0.131  12.053  0.0067  2.6733  0.5454
 6141SOL     OW30058   0.810   4.034   8.412  0.5465 -0.7590 -0.6676
 6141SOL    HW130059   0.882   4.067   8.358  1.2069  0.4440  0.9357
 6141SOL    HW230060   0.742   4.067   8.353 -0.9478  1.4445  2.2756
 6142SOL     OW30061   1.363   3.349  11.378 -0.8806 -0.3678 -0.1410
 6142SOL    HW130062   1.407   3.390  11.303 -0.5679 -0.0224  0.2349
 6142SOL    HW230063   1.398   3.260  11.374  2.4104  0.8225  1.7962
 6143SOL     OW30064   4.420   2.594   3.720 -0.1728  0.0904  0.1357
 6143SOL    HW130065   4.414   2.646   3.640  2.5389  1.4080  0.7678
 6143SOL    HW230066   4.401   2.504   3.692  1.2102 -0.9359  2.5261
 6144SOL     OW30067   0.580   2.285   4.486 -0.2497 -0.5067 -0.6938
 6144SOL    HW130068   0.589   2.347   4.413 -0.3950  0.3482  0.0084
 6144SOL    HW230069   0.489   2.297   4.511 -0.1215  0.9750 -0.9296
 6145SOL     OW30070   0.696   3.188   6.182 -1.3503  0.3890 -0.5027
 6145SOL    HW130071   0.601   3.183   6.189 -1.3411 -0.4629 -1.0398
 6145SOL    HW230072   0.706   3.227   6.269  0.6408 -1.2022 -0.0250
 6146SOL     OW30073   1.852   3.802   7.733  0.8356  0.0868 -0.5838
 6146SOL    HW130074   1.849   3.744   7.809  1.8342  1.1056  0.2416
 6146SOL    HW230075   1.758   3.817   7.736  0.5979 -0.9872 -3.1220
 6147SOL     OW30076   2.894   3.984   5.344 -0.5137  0.0032  0.4811
 6147SOL    HW130077   2.947   3.919   5.298 -0.9650  0.9232 -1.3657
 6147SOL    HW230078   2.805   3.967   5.314  0.2969 -2.4924 -0.5378
 6148SOL     OW30079   0.951   4.022  15.915  0.0484  0.6128 -0.1380
 6148SOL    HW130080   0.923   3.939  15.953  1.6434 -0.1753 -0.6707
 6148SOL    HW230081   0.866   4.046  15.877 -0.2306  0.5250  0.4331
 6149SOL     OW30082   0.237   0.858   3.602 -0.1762  0.2893  0.3066
 6149SOL    HW130083   0.240   0.774   3.648  0.4666  0.2087  0.1136
 6149SOL    HW230084   0.286   0.915   3.662 -1.7702  1.0611  0.8651
 6150SOL     OW30085   0.587   1.091  12.692 -0.3878  0.0464 -0.1514
 6150SOL    HW130086   0.594   1.175  12.736 -2.1784  0.3773 -0.5068
 6150SOL    HW230087   0.580   1.041  12.773 -0.7187 -1.4960 -1.1187
 6151SOL     OW30088   2.398   3.806   7.819  0.1119 -0.0681  0.4154
 6151SOL    HW130089   2.420   3.830   7.909  1.3204  0.2622  0.0318
 6151SOL    HW230090   2.325   3.746   7.835  0.4624 -0.4496  0.5605
 6152SOL     OW30091   0.707   0.771  14.774 -0.5033 -0.3112 -0.5088
 6152SOL    HW130092   0.789   0.729  14.802  0.9995  2.2614 -1.0249
 6152SOL    HW230093   0.705   0.754  14.680 -1.2144  0.1832 -0.5837
 6153SOL     OW30094   0.347   4.289   3.935  0.3368 -0.1940  0.7440
 6153SOL    HW130095   0.317   4.323   4.019  0.5728  1.3918  0.1771
 6153SOL    HW230096   0.263   4.275   3.892  0.5817  1.0120 -0.1168
 6154SOL     OW30097   3.011   1.489   8.272 -0.0685  0.2330  0.1425
 6154SOL    HW130098   3.068   1.488   8.196  0.2033  2.5164  0.3253
 6154SOL    HW230099   2.937   1.435   8.245 -0.3193  0.8558 -0.3898
 6155SOL     OW30100   3.990   4.524  12.852  0.3072  0.8016  0.3022
 6155SOL    HW130101   3.952   4.595  12.904 -2.0519 -1.9925  2.3779
 6155SOL    HW230102   4.076   4.562  12.834  0.3495 -0.2847 -1.7283
 6156SOL     OW30103   0.631   4.548  10.931 -0.1908  0.1922 -0.0225
 6156SOL    HW130104   0.649   4.637  10.900  0.0376 -0.1751 -0.9539
 6156SOL    HW230105   0.601   4.504  10.851  1.1120 -1.7642  0.5607
 6157SOL     OW30106   0.877   4.319  14.394 -0.7845 -0.4729 -0.1349
 6157SOL    HW130107   0.824   4.260  14.447 -0.1029 -1.0888 -0.1297
 6157SOL    HW230108   0.925   4.251  14.346 -1.0675  0.2545 -1.4410
 6158SOL     OW30109   1.995   0.709   0.601 -0.1256 -0.6856  1.2964
 6158SOL    HW130110   2.034   0.623   0.584 -1.7458 -1.0848 -0.5149
 6158SOL    HW230111   2.061   0.762   0.644  0.9502 -0.7674 -0.2217
 6159SOL     OW30112   2.734   1.432   4.000 -0.1118  0.1594 -0.3224
 6159SOL    HW130113   2.675   1.375   3.952  0.5650 -0.1123 -0.8200
 6159SOL    HW230114   2.797   1.456   3.932  1.9530 -0.8510  1.2046
 6160SOL     OW30115   3.958   1.408  11.585  0.3645 -0.4534 -0.1000
 6160SOL    HW130116   4.003   1.408  11.669  0.7517  1.9414 -0.3083
 6160SOL    HW230117   4.024   1.449  11.530 -0.3829  0.4321 -0.3387
 6161SOL     OW30118   3.500   2.105  17.695 -0.1890  0.1267  0.2794
 6161SOL    HW130119   3.490   2.107   0.047  2.1085 -0.2476  0.5113
 6161SOL    HW230120   3.568   2.171  17.687  0.3007 -0.4042  0.1112
 6162SOL     OW30121   1.583   4.124   5.939  0.0977 -0.3828 -0.0114
 6162SOL    HW130122   1.612   4.090   5.854  1.0817  0.6771 -0.1063
 6162SOL    HW230123   1.613   4.057   6.000  1.8147 -0.9889 -1.5079
 6163SOL     OW30124   3.066   4.163   3.709 -0.2872  0.6479 -0.4182
 6163SOL    HW130125   3.052   4.237   3.768 -0.2024  1.1880 -1.0668
 6163SOL    HW230126   3.158   4.138   3.724 -0.9850 -0.9559  1.1624
 6164SOL     OW30127   1.166   1.714  17.390  0.0116  0.3299  0.1503
 6164SOL    HW130128   1.155   1.749  17.302 -0.2834  1.0024  0.4541
 6164SOL    HW230129   1.245   1.760  17.419  0.4666  0.4420 -1.2819
 6165SOL     OW30130   0.931   2.456  13.912  0.3402 -0.2612  0.4583
 6165SOL    HW130131   0.888   2.478  13.994  0.4282  3.9978 -0.6471
 6165SOL    HW230132   0.905   2.364  13.907 -0.2003 -0.1713  1.7131
 6166SOL     OW30133   0.498   4.303   8.790 -0.4953  0.0806  0.1932
 6166SOL    HW130134   0.574   4.325   8.844  0.5696 -1.5150 -0.6174
 6166SOL    HW230135   0.516   4.210   8.776  2.1096  0.5072  0.5509
 6167SOL     OW30136   1.131   1.785   7.413  0.3106 -0.0533 -0.7471
 6167SOL    HW130137   1.152   1.872   7.379 -1.7644  0.5138 -0.5675
 6167SOL    HW230138   1.072   1.816   7.481  2.1145 -0.0615  0.8083
 6168SOL     OW30139   1.976   3.543   8.525 -0.2098 -0.3422 -0.2466
 6168SOL    HW130140   1.935   3.488   8.458 -0.2037 -1.6656  0.8394
 6168SOL    HW230141   2.041   3.578   8.464 -0.3673  1.3494  0.5538
 6169SOL     OW30142   2.170   0.932   1.624 -0.1626  0.2232  0.1813
 6169SOL    HW130143   2.225   0.922   1.702  2.0994 -0.9348 -1.5462
 6169SOL    HW230144   2.164   1.027   1.615  0.6150  0.4052  1.6014
 6170SOL     OW30145   0.796   4.265   4.720 -0.2726  0.3258 -0.3517
 6170SOL    HW130146   0.792   4.360   4.714  2.1718  0.5178  1.4089
 6170SOL    HW230147   0.890   4.253   4.732 -0.4902 -0.6476  0.4737
 6171SOL     OW30148   1.840   2.815   9.894 -0.9508  0.2076  0.3830
 6171SOL    HW130149   1.880   2.739   9.852  0.0843  0.5082  0.8267
 6171SOL    HW230150   1.914   2.856   9.938 -0.1389  0.7001 -1.4373
 6172SOL     OW30151   1.367   1.807  17.175 -0.2904 -0.0377  0.0786
 6172SOL    HW130152   1.369   1.828  17.081 -0.3696 -0.4651 -0.0187
 6172SOL    HW230153   1.392   1.715  17.167  2.0900  0.5393  0.8439
 6173SOL     OW30154   1.754   4.485  13.071 -0.3352  0.0204 -0.5610
 6173SOL    HW130155   1.749   4.513  13.163  1.3027  0.6609 -0.6648
 6173SOL    HW230156   1.802   4.402  13.080 -0.5622 -0.2054 -1.4327
 6174SOL     OW30157   3.975   1.726   3.956  0.4087 -0.0329  0.5387
 6174SOL    HW130158   4.022   1.727   4.039  2.4596 -0.4659 -0.6008
 6174SOL    HW230159   4.019   1.651   3.916  1.3762  0.0533  1.4560
 6175SOL     OW30160   1.330   2.237  14.255  0.1681  0.0067 -0.0450
 6175SOL    HW130161   1.354   2.329  14.267 -0.4647 -0.0449  1.6501
 6175SOL    HW230162   1.239   2.241  14.226  0.4200 -2.4319 -1.1528
 6176SOL     OW30163   4.447   1.011   6.210 -0.6351 -0.1154  0.1968
 6176SOL    HW130164   4.370   1.008   6.152  0.3264  2.1966 -1.1586
 6176SOL    HW230165   4.433   1.102   6.235 -3.6399 -0.9363  1.5448
 6177SOL     OW30166   3.219   1.429  15.276 -0.1098 -0.7789 -0.4575
 6177SOL    HW130167   3.216   1.442  15.182  0.3968  2.2875 -0.0468
 6177SOL    HW230168   3.125   1.433  15.296 -0.5460  1.0429 -2.9025
 6178SOL     OW30169   0.026   4.553  12.647 -0.0925  0.3088 -0.3135
 6178SOL    HW130170   4.736   4.639  12.614  1.1358  0.9049  0.2263
 6178SOL    HW230171   4.681   4.503  12.640  1.1820 -1.9724  1.1367
 6179SOL     OW30172   1.501   1.098  15.135  0.1879 -0.3890  0.1135
 6179SOL    HW130173   1.577   1.086  15.192  0.2247  0.2273  0.1899
 6179SOL    HW230174   1.512   1.190  15.112  3.6337 -1.0601 -0.8510
 6180SOL     OW30175   3.436   1.154   6.035 -0.0229 -0.2514  0.3001
 6180SOL    HW130176   3.528   1.153   6.062 -0.3077 -2.1697  1.1613
 6180SOL    HW230177   3.380   1.162   6.112 -1.8960 -1.9947 -0.8832
 6181SOL     OW30178   3.925   0.539   4.445  0.1484  0.3304 -0.4341
 6181SOL    HW130179   3.837   0.545   4.481 -0.1917 -2.1076 -0.8588
 6181SOL    HW230180   3.963   0.469   4.499  0.1413 -0.0658 -0.9437
 6182SOL     OW30181   0.408   2.875   3.523 -0.6874 -0.2151 -0.4565
 6182SOL    HW130182   0.371   2.886   3.611 -0.0533  1.6773 -0.4350
 6182SOL    HW230183   0.482   2.935   3.534 -3.3955  2.6495  2.0612
 6183SOL     OW30184   1.654   0.639   6.896 -0.4671 -0.4697 -0.2729
 6183SOL    HW130185   1.664   0.568   6.960  1.3151  0.4909  0.5065
 6183SOL    HW230186   1.563   0.637   6.867 -0.3718 -0.8230 -0.5554
 6184SOL     OW30187   0.554   0.576   4.574  0.1294 -0.4327 -0.0327
 6184SOL    HW130188   0.462   0.555   4.592 -0.4857  2.4346  0.0997
 6184SOL    HW230189   0.546   0.671   4.568 -0.2368 -0.3845  1.2820
 6185SOL     OW30190   1.625   3.823  17.076 -0.4328  0.4896  0.2862
 6185SOL    HW130191   1.601   3.733  17.054  1.7710 -0.4418  1.6333
 6185SOL    HW230192   1.543   3.854  17.114 -1.0450 -1.3860  0.4686
 6186SOL     OW30193   2.853   0.651   9.833 -0.0113 -0.1242 -0.2375
 6186SOL    HW130194   2.771   0.683   9.797  0.6136 -0.4820 -2.0224
 6186SOL    HW230195   2.865   0.573   9.779 -1.9111  0.9820 -2.2535
 6187SOL     OW30196   3.668   2.625   7.588  0.1572  0.4731 -0.0374
 6187SOL    HW130197   3.679   2.531   7.602  1.9849  0.4991 -1.2039
 6187SOL    HW230198   3.629   2.652   7.670 -0.1247  3.4582 -1.1640
 6188SOL     OW30199   2.916   2.007  15.129 -0.0152 -0.4099 -0.1890
 6188SOL    HW130200   2.928   1.944  15.200 -0.3432  0.4178  0.5960
 6188SOL    HW230201   2.830   1.980  15.096 -1.8718  3.2100  1.6782
 6189SOL     OW30202   0.251   3.231  15.980  0.0583  0.3943  0.1627
 6189SOL    HW130203   0.333   3.271  16.010  0.3991 -1.1581  1.2802
 6189SOL    HW230204   0.280   3.160  15.922  0.8754  1.2062 -0.4469
 6190SOL     OW30205   1.185   0.570  12.199 -0.3808 -0.4987 -0.0256
 6190SOL    HW130206   1.165   0.664  12.201  0.9186 -0.1988 -1.5816
 6190SOL    HW230207   1.209   0.574  12.107  0.3308  0.6674  0.1998
 6191SOL     OW30208   1.693   3.503   2.993 -0.1083 -0.2279  0.6104
 6191SOL    HW130209   1.768   3.485   3.050  0.5026  1.3994  0.3162
 6191SOL    HW230210   1.638   3.426   3.006 -1.9608  0.4872 -3.1651
 6192SOL     OW30211   1.708   3.032   8.521  0.5644  0.6371  0.4844
 6192SOL    HW130212   1.730   3.096   8.453 -1.4396  1.7452  0.9016
 6192SOL    HW230213   1.619   3.006   8.498  0.5783  2.3525 -1.5744
 6193SOL     OW30214   3.386   2.718   9.385  0.0152  0.6566  0.0602
 6193SOL    HW130215   3.354   2.694   9.472 -0.2210 -1.3113 -0.5665
 6193SOL    HW230216   3.464   2.663   9.379 -0.8526 -0.7282  1.3349
 6194SOL     OW30217   3.371   0.555   1.693 -0.1744  0.0860  0.4062
 6194SOL    HW130218   3.332   0.624   1.746 -1.4946  0.5726 -1.1945
 6194SOL    HW230219   3.296   0.498   1.677 -0.1166 -0.1027  0.8347
 6195SOL     OW30220   0.492   3.717   8.838 -0.1879 -0.3151  0.9531
 6195SOL    HW130221   0.426   3.649   8.850  0.3567 -1.0738 -0.3873
 6195SOL    HW230222   0.518   3.727   8.930  0.5294  0.1741  0.7007
 6196SOL     OW30223   3.371   0.631  15.250  0.1928 -0.1732  0.7002
 6196SOL    HW130224   3.465   0.637  15.265  0.5198 -3.6515 -0.0772
 6196SOL    HW230225   3.336   0.582  15.325 -2.4772  1.0224  0.2208
 6197SOL     OW30226   2.588   3.810   5.693  0.1071 -0.0574  0.1217
 6197SOL    HW130227   2.548   3.749   5.631 -0.8755 -0.3274  1.0217
 6197SOL    HW230228   2.579   3.895   5.650  0.2452  0.6634  1.5447
 6198SOL     OW30229   2.473   3.566   9.827  0.3076 -0.0947  0.8955
 6198SOL    HW130230   2.389   3.561   9.872  0.7008 -2.3591  1.3603
 6198SOL    HW230231   2.455   3.565   9.733 -0.6304 -1.4556  1.1029
 6199SOL     OW30232   3.537   1.012   5.427 -0.4532 -0.4270  0.0255
 6199SOL    HW130233   3.631   0.995   5.435 -0.9710 -3.1823  0.2152
 6199SOL    HW230234   3.532   1.091   5.373  2.6253  0.1688  0.6298
 6200SOL     OW30235   4.549   4.714  13.739  0.0385 -0.0179  0.5397
 6200SOL    HW130236   4.497   0.032  13.798  1.2208  3.6561 -1.7473
 6200SOL    HW230237   4.623   0.036  13.722 -0.2073 -0.0053 -0.4918
 6201SOL     OW30238   4.316   3.799   8.235 -0.1111  0.3025 -0.0015
 6201SOL    HW130239   4.337   3.733   8.301 -0.5861 -0.7688 -0.9317
 6201SOL    HW230240   4.403   3.838   8.238 -0.8132  1.9091 -0.6836
 6202SOL     OW30241   0.798   0.170   5.410 -0.3717 -0.5683  0.5752
 6202SOL    HW130242   0.714   0.198   5.447 -1.4076 -0.2125 -2.0296
 6202SOL    HW230243   0.804   0.235   5.339 -0.2671  1.6975  2.6760
 6203SOL     OW30244   2.555   3.297   8.670 -0.3493 -0.5935  0.2945
 6203SOL    HW130245   2.627   3.296   8.607 -0.5773 -1.7810  0.0561
 6203SOL    HW230246   2.488   3.355   8.634  0.9787  0.4207 -0.5401
 6204SOL     OW30247   3.696   0.947   4.457 -0.2213  0.3360  0.2132
 6204SOL    HW130248   3.639   0.903   4.393  0.5259 -2.1854  1.2965
 6204SOL    HW230249   3.725   0.873   4.510 -2.8950 -1.4980 -0.8756
 6205SOL     OW30250   2.746   0.898  13.993 -0.4221 -0.5149 -0.5682
 6205SOL    HW130251   2.755   0.807  13.964 -1.3211 -0.8778  0.3114
 6205SOL    HW230252   2.687   0.879  14.066 -0.2432 -1.7323 -0.7351
 6206SOL     OW30253   2.028   0.056   4.735  0.0080  0.3372 -0.3301
 6206SOL    HW130254   2.093   0.122   4.758  0.9047 -0.7972  0.4571
 6206SOL    HW230255   1.939   0.091   4.735  0.4424  1.4333 -1.4267
 6207SOL     OW30256   3.394   3.777   9.428 -0.0916 -0.2065 -0.9396
 6207SOL    HW130257   3.329   3.758   9.495  0.3284  0.4214 -0.3513
 6207SOL    HW230258   3.367   3.720   9.357 -1.1228 -3.4160  2.0002
 6208SOL     OW30259   4.258   2.440   4.512  0.1343  0.1937 -0.1677
 6208SOL    HW130260   4.213   2.369   4.558  0.0735 -0.5444 -1.3622
 6208SOL    HW230261   4.206   2.440   4.431  1.3220  1.0484 -0.9294
 6209SOL     OW30262   3.655   2.938   6.907 -0.0667 -0.1869 -0.2773
 6209SOL    HW130263   3.631   3.020   6.864  2.4160  2.3848  3.1982
 6209SOL    HW230264   3.611   2.879   6.846 -1.3324 -0.2325  0.6968
 6210SOL     OW30265   3.157   0.961   5.011  0.3721 -0.0044  0.6154
 6210SOL    HW130266   3.078   0.979   5.061 -0.3406  0.0613 -0.5290
 6210SOL    HW230267   3.214   1.009   5.070  0.0574 -0.6417  1.4293
 6211SOL     OW30268   2.534   3.797   4.667 -0.3707  0.1103  0.1293
 6211SOL    HW130269   2.607   3.749   4.627 -0.2555  0.4886 -0.1106
 6211SOL    HW230270   2.528   3.753   4.752 -0.0458 -0.6287 -0.2286
 6212SOL     OW30271   2.439   3.734   4.956 -0.8102 -0.7627 -0.3794
 6212SOL    HW130272   2.352   3.718   4.993 -1.0839  1.2617 -0.1588
 6212SOL    HW230273   2.437   3.830   4.957  0.3593 -0.7303 -0.6256
 6213SOL     OW30274   2.326   3.781   3.332  0.2544 -0.1132 -0.2250
 6213SOL    HW130275   2.335   3.783   3.427  1.4741 -0.8460 -0.3178
 6213SOL    HW230276   2.373   3.699   3.314  1.4951  0.4341  0.5700
 6214SOL     OW30277   0.175   1.666   4.314  0.1784  0.2599 -0.4812
 6214SOL    HW130278   0.080   1.662   4.309 -0.0608  4.4361  0.8476
 6214SOL    HW230279   0.193   1.723   4.389 -0.1505  1.0262 -0.9908
 6215SOL     OW30280   2.627   3.750   1.741 -0.1605  0.4957  0.2267
 6215SOL    HW130281   2.689   3.743   1.668  0.5794 -0.4937  0.9437
 6215SOL    HW230282   2.545   3.773   1.699  0.0980 -0.4610 -0.7998
 6216SOL     OW30283   1.920   3.690  15.558 -0.1446  0.2646  0.0192
 6216SOL    HW130284   1.930   3.608  15.508  0.1131  0.4709 -0.2667
 6216SOL    HW230285   1.960   3.753  15.498  1.5445 -1.1261 -0.3263
 6217SOL     OW30286   1.897   2.972  10.635  0.1632 -0.4128 -0.5178
 6217SOL    HW130287   1.896   2.995  10.728  0.5500 -0.2041 -0.5661
 6217SOL    HW230288   1.988   2.983  10.608  0.0472  0.1316 -0.6729
 6218SOL     OW30289   0.961   3.807  12.741  0.1590  0.2121  0.5740
 6218SOL    HW130290   1.007   3.889  12.722  3.5684 -1.9326 -0.3919
 6218SOL    HW230291   0.871   3.831  12.718  0.1389  0.2724  0.7179
 6219SOL     OW30292   1.500   3.046   5.672 -0.3613 -0.4957 -0.7568
 6219SOL    HW130293   1.519   3.106   5.600  0.0430  1.0340  0.6317
 6219SOL    HW230294   1.455   3.107   5.729  0.7039  0.4648 -0.9495
 6220SOL     OW30295   0.642   3.355   3.255 -0.2864  0.5048 -0.1921
 6220SOL    HW130296   0.725   3.328   3.216  0.1284  2.1960 -0.4831
 6220SOL    HW230297   0.622   3.441   3.218 -0.2987  0.2291 -0.8256
 6221SOL     OW30298   2.807   4.339  17.623  0.1132 -0.4019  0.2729
 6221SOL    HW130299   2.792   4.280  17.697  0.0639  0.4203  0.9154
 6221SOL    HW230300   2.821   4.422  17.669 -0.8285  0.4845 -1.0377
 6222SOL     OW30301   2.760   2.604   3.114  0.4882 -0.0090 -0.0114
 6222SOL    HW130302   2.805   2.682   3.082 -0.9328 -0.0786 -2.1322
 6222SOL    HW230303   2.739   2.570   3.027  1.4912 -0.6591  0.0046
 6223SOL     OW30304   4.281   0.852   7.405  0.4675  0.1420 -0.2531
 6223SOL    HW130305   4.354   0.829   7.462 -0.1558  1.5484  1.1217
 6223SOL    HW230306   4.325   0.880   7.324  0.8405  0.9932  0.2398
 6224SOL     OW30307   3.433   2.913  10.096  0.3508  0.2663  0.0888
 6224SOL    HW130308   3.527   2.924  10.082  0.9399 -0.5636  3.3679
 6224SOL    HW230309   3.404   2.998  10.062  0.2501 -0.7267 -2.3148
 6225SOL     OW30310   2.357   2.375   4.634 -0.0307  0.0944 -0.0813
 6225SOL    HW130311   2.400   2.395   4.551 -1.0481 -0.2191 -0.6814
 6225SOL    HW230312   2.429   2.332   4.681 -0.8574 -0.8361  0.3140
 6226SOL     OW30313   4.167   1.976  14.305 -0.5284  0.2682 -0.0183
 6226SOL    HW130314   4.072   1.985  14.305 -0.3137  2.2702  2.1210
 6226SOL    HW230315   4.173   1.950  14.212 -0.0481 -2.0739  0.6648
 6227SOL     OW30316   1.072   0.036   2.463 -0.0291 -0.2299 -0.3300
 6227SOL    HW130317   1.037   0.110   2.414 -1.9199 -1.0812 -0.2604
 6227SOL    HW230318   1.053   4.698   2.406 -0.8487 -0.6986  0.5322
 6228SOL     OW30319   2.030   1.170  16.205 -0.6455  0.2808 -0.0866
 6228SOL    HW130320   1.940   1.141  16.217 -0.8092  0.8298 -0.0178
 6228SOL    HW230321   2.032   1.251  16.255 -2.0125 -0.0755  0.5168
 6229SOL     OW30322   4.376   0.935   0.972  0.0665  0.0901  0.4820
 6229SOL    HW130323   4.301   0.926   1.031  0.5776  0.2765  1.1671
 6229SOL    HW230324   4.396   1.028   0.966  1.8956 -0.1664  2.2420
 6230SOL     OW30325   3.846   2.012   1.290 -0.0529 -0.0395  0.1077
 6230SOL    HW130326   3.919   1.951   1.297 -1.8595 -2.0441  1.6408
 6230SOL    HW230327   3.779   1.947   1.312  0.4052 -0.6460 -0.3204
 6231SOL     OW30328   4.350   2.702  17.360  0.1145  0.2458  0.2043
 6231SOL    HW130329   4.371   2.748  17.279  1.8261 -1.6776 -0.4519
 6231SOL    HW230330   4.328   2.617  17.321  3.3531 -0.7397  0.5164
 6232SOL     OW30331   1.229   3.525   3.909  0.4114 -0.1528 -0.4197
 6232SOL    HW130332   1.194   3.440   3.883  1.5806 -0.6560 -0.3120
 6232SOL    HW230333   1.155   3.586   3.903  0.8034  0.2668 -0.9250
 6233SOL     OW30334   0.196   0.483   6.702  0.0374  0.1994 -0.6549
 6233SOL    HW130335   0.122   0.445   6.749  0.4039 -0.0615 -0.2921
 6233SOL    HW230336   0.158   0.488   6.615 -0.5468  0.7003 -0.3690
 6234SOL     OW30337   1.623   3.933   9.869  0.3983 -0.4085 -0.3601
 6234SOL    HW130338   1.569   3.998   9.914  1.1711 -0.5697  0.8046
 6234SOL    HW230339   1.695   3.995   9.857 -1.4748  1.6362 -1.0218
 6235SOL     OW30340   3.568   3.605   6.666 -0.0687 -0.0259  0.1628
 6235SOL    HW130341   3.564   3.528   6.608  0.7530  0.7049 -0.8642
 6235SOL    HW230342   3.589   3.675   6.603  1.9772 -0.4124  0.4426
 6236SOL     OW30343   2.975   0.958   5.234 -0.1785 -0.1494 -0.4579
 6236SOL    HW130344   2.990   1.017   5.309 -1.5056 -0.1179 -0.2102
 6236SOL    HW230345   2.894   0.994   5.197  0.6865  3.2245  0.9242
 6237SOL     OW30346   3.809   0.521  11.224 -0.3237  0.1296 -0.1347
 6237SOL    HW130347   3.769   0.519  11.311  0.2401  0.2980  0.1328
 6237SOL    HW230348   3.738   0.521  11.160 -2.8061  0.0434  2.6408
 6238SOL     OW30349   1.607   0.510   1.133  0.2860  0.4018 -0.2845
 6238SOL    HW130350   1.520   0.536   1.162  0.4841  0.7775 -0.0134
 6238SOL    HW230351   1.625   0.567   1.059 -0.7012 -0.6314 -1.3104
 6239SOL     OW30352   4.187   0.660   1.556 -0.3978 -0.2252 -0.7795
 6239SOL    HW130353   4.107   0.705   1.528  1.2930  3.2244 -0.0264
 6239SOL    HW230354   4.245   0.719   1.604 -1.6558  2.5375 -2.6729
 6240SOL     OW30355   2.335   3.799   6.689  0.0841  0.5445 -0.1687
 6240SOL    HW130356   2.351   3.891   6.665  0.1956  0.7561  0.7214
 6240SOL    HW230357   2.427   3.774   6.701 -0.0709  0.3506  0.5750
 6241SOL     OW30358   1.642   1.288   2.237 -0.2098  0.1363 -0.4023
 6241SOL    HW130359   1.631   1.369   2.187 -2.1626  0.3533  0.3891
 6241SOL    HW230360   1.676   1.316   2.322  0.4519 -3.0231  0.4028
 6242SOL     OW30361   3.351   3.148   9.931 -0.3781 -0.0571 -0.3491
 6242SOL    HW130362   3.298   3.187  10.001 -0.1311  0.0840 -0.2430
 6242SOL    HW230363   3.410   3.222   9.919  0.3934 -1.0965 -3.0303
 6243SOL     OW30364   3.442   4.688   6.363 -0.0972 -0.1332  0.2289
 6243SOL    HW130365   3.448   0.043   6.336  0.9320 -0.0272  0.8145
 6243SOL    HW230366   3.349   4.671   6.348 -0.3602  2.2291 -0.7249
 6244SOL     OW30367   4.676   2.630   9.641 -0.2489  0.3911  0.0356
 6244SOL    HW130368   0.028   2.665   9.638  0.6166 -1.7470  0.7853
 6244SOL    HW230369   4.701   2.557   9.698 -1.0275  0.6443  0.7018
 6245SOL     OW30370   4.070   3.881   8.266  0.6423  0.2048 -0.0119
 6245SOL    HW130371   4.160   3.868   8.238  1.3526  0.4303  2.1973
 6245SOL    HW230372   4.031   3.838   8.190 -0.9570 -0.2650  1.0636
 6246SOL     OW30373   2.344   1.687   9.312 -0.1306 -0.2957  0.3019
 6246SOL    HW130374   2.417   1.676   9.252 -1.1084  1.5287 -1.2540
 6246SOL    HW230375   2.386   1.639   9.383 -0.3108  0.4539  0.9181
 6247SOL     OW30376   4.495   2.991   4.602  0.2675  0.2236 -0.1653
 6247SOL    HW130377   4.432   3.049   4.559 -0.4280  1.7501  2.9153
 6247SOL    HW230378   4.502   2.919   4.538 -3.6113 -0.7725  0.5244
 6248SOL     OW30379   0.264   1.160   7.849 -0.0281  0.2495 -0.4930
 6248SOL    HW130380   0.290   1.085   7.902 -1.6540 -1.0074 -1.4553
 6248SOL    HW230381   0.294   1.240   7.892  0.9741  1.1372 -2.8424
 6249SOL     OW30382   3.527   4.286   3.262 -0.7393  0.2810 -0.2035
 6249SOL    HW130383   3.502   4.378   3.272  1.0317  0.7441 -0.0644
 6249SOL    HW230384   3.473   4.256   3.190  2.4651 -2.4346 -1.4984
 6250SOL     OW30385   1.980   0.725   0.942 -0.1711 -0.2979  0.3822
 6250SOL    HW130386   1.994   0.812   0.905  3.4775 -0.4286  1.4615
 6250SOL    HW230387   2.063   0.701   0.981  0.6008 -2.2950 -2.4935
 6251SOL     OW30388   1.531   1.043   1.883  0.3443 -0.2877 -0.1622
 6251SOL    HW130389   1.516   1.133   1.856 -0.3294 -0.2576  0.2932
 6251SOL    HW230390   1.455   1.029   1.941 -0.0798  2.8756  0.0114
 6252SOL     OW30391   1.768   3.538  10.051 -0.4149 -0.5039 -0.1588
 6252SOL    HW130392   1.742   3.579   9.969  1.0417 -2.2882 -1.4945
 6252SOL    HW230393   1.843   3.487  10.021 -1.7397 -2.1612 -0.6346
 6253SOL     OW30394   2.302   2.707   8.097  0.8330  0.8082  0.3219
 6253SOL    HW130395   2.385   2.702   8.050  0.7062 -0.1502  0.2057
 6253SOL    HW230396   2.259   2.625   8.071  0.4515  1.7099 -1.8844
 6254SOL     OW30397   3.408   0.337   3.612 -0.3543 -0.2713  0.2703
 6254SOL    HW130398   3.343   0.384   3.664 -1.5267 -0.8694 -0.6479
 6254SOL    HW230399   3.417   0.394   3.536 -0.4773  0.5511  0.8697
 6255SOL     OW30400   0.075   4.459   1.926  0.6892  0.7182 -0.2326
 6255SOL    HW130401   0.073   4.545   1.968 -0.2536  0.5132  0.1489
 6255SOL    HW230402   0.061   4.488   1.836 -0.6917  1.8512  0.3466
 6256SOL     OW30403   3.522   3.468   3.336 -0.4448  0.4103  0.2931
 6256SOL    HW130404   3.576   3.531   3.287 -2.1758  1.8037  0.1932
 6256SOL    HW230405   3.575   3.446   3.413  0.2826  0.5282 -0.1702
 6257SOL     OW30406   3.826   1.185   4.494 -0.2553  0.0867  0.1268
 6257SOL    HW130407   3.914   1.148   4.481 -0.3028 -0.4845  1.3881
 6257SOL    HW230408   3.774   1.108   4.475  1.8233 -0.9828 -1.2452
 6258SOL     OW30409   4.435   4.506   4.219  1.5907  0.1306 -0.3614
 6258SOL    HW130410   4.429   4.413   4.240 -1.3339  0.6711  1.2440
 6258SOL    HW230411   4.345   4.538   4.223  0.9362 -1.7518 -0.1762
 6259SOL     OW30412   0.270   4.100   3.694  0.3486 -0.1435  0.0056
 6259SOL    HW130413   0.271   4.041   3.770 -0.6205  0.4990  0.5143
 6259SOL    HW230414   0.361   4.129   3.694  0.3114 -0.0239  0.4226
 6260SOL     OW30415   0.233   1.620   6.487 -0.0512  0.3266 -0.4296
 6260SOL    HW130416   0.295   1.549   6.503 -0.5319 -0.1991 -0.9139
 6260SOL    HW230417   0.227   1.647   6.579  1.1196  1.0688 -0.5613
 6261SOL     OW30418   2.521   2.333  13.033 -0.3957  0.0133 -0.1776
 6261SOL    HW130419   2.521   2.397  13.105  5.1090 -0.3652  0.1477
 6261SOL    HW230420   2.600   2.357  12.986 -0.8345 -0.1408 -1.0015
 6262SOL     OW30421   1.795   4.300  11.805  0.0146 -0.1116  0.5494
 6262SOL    HW130422   1.813   4.287  11.712  2.0871 -1.1040  1.0787
 6262SOL    HW230423   1.833   4.386  11.820 -1.9186  0.6213  1.1775
 6263SOL     OW30424   3.501   3.200   2.169 -0.5897  0.5026  0.2376
 6263SOL    HW130425   3.481   3.238   2.084 -0.9661  1.5349  0.7858
 6263SOL    HW230426   3.467   3.270   2.225 -2.6634  0.1794 -0.6320
 6264SOL     OW30427   0.513   3.053   8.645 -0.0678  0.5491 -0.7304
 6264SOL    HW130428   0.539   3.144   8.660 -0.3398  0.8784 -2.2008
 6264SOL    HW230429   0.514   3.035   8.551  1.3059 -2.4072 -0.1541
 6265SOL     OW30430   1.881   1.323   6.674  0.4450 -0.0867  0.2418
 6265SOL    HW130431   1.960   1.335   6.726  0.6733 -0.6059  0.0077
 6265SOL    HW230432   1.880   1.228   6.667 -0.6249 -0.0533 -0.1367
 6266SOL     OW30433   0.537   2.376   9.492 -0.1010  0.3881  0.1157
 6266SOL    HW130434   0.487   2.305   9.532 -0.2698 -0.6924 -2.0149
 6266SOL    HW230435   0.530   2.456   9.543 -1.6229  0.1165  0.3177
 6267SOL     OW30436   2.526   4.200   9.576  0.1674 -0.2391 -0.0790
 6267SOL    HW130437   2.455   4.245   9.622 -0.3481  0.0338 -1.1268
 6267SOL    HW230438   2.503   4.224   9.486 -1.8450 -2.6907 -0.2079
 6268SOL     OW30439   4.585   1.660   7.351  0.2273 -0.3659  0.1351
 6268SOL    HW130440   4.574   1.730   7.415  1.2227  0.5862 -0.7496
 6268SOL    HW230441   4.548   1.699   7.272 -1.6818  0.1548  1.2851
 6269SOL     OW30442   0.662   4.151  15.342  0.2508  1.0112  0.0926
 6269SOL    HW130443   0.702   4.202  15.412 -0.1901  2.2476 -0.5643
 6269SOL    HW230444   0.577   4.195  15.343 -0.0019  0.5467 -1.1946
 6270SOL     OW30445   1.626   2.224  10.825 -0.4152  0.1905  0.0241
 6270SOL    HW130446   1.600   2.292  10.763  0.4959  1.2311  0.7864
 6270SOL    HW230447   1.577   2.255  10.901  2.3717  2.0718  1.0709
 6271SOL     OW30448   0.744   0.277   8.419  0.3629  0.9984  0.1123
 6271SOL    HW130449   0.774   0.266   8.510 -1.3704 -0.9773  0.4355
 6271SOL    HW230450   0.783   0.359   8.389  0.5459  0.8125 -0.1533
 6272SOL     OW30451   2.946   0.095   9.186 -0.2162 -0.6281 -0.9442
 6272SOL    HW130452   2.964   0.189   9.185  1.0338 -0.8342  2.2316
 6272SOL    HW230453   2.913   0.082   9.275  2.0415 -0.5697 -0.0941
 6273SOL     OW30454   0.014   0.541   7.538  0.1462 -0.4018 -0.2469
 6273SOL    HW130455   0.106   0.557   7.560 -0.1720  0.4209  0.4708
 6273SOL    HW230456   0.021   0.487   7.460  1.1309 -1.7229  0.7524
 6274SOL     OW30457   0.714   0.667  11.379  0.0394 -0.0047 -0.3312
 6274SOL    HW130458   0.687   0.639  11.292 -0.2423 -2.1592  0.4450
 6274SOL    HW230459   0.630   0.644  11.419  0.7306 -1.0708  0.5193
 6275SOL     OW30460   2.945   3.668   0.338  0.0090 -0.3949  0.9136
 6275SOL    HW130461   2.867   3.688   0.287  0.0314 -3.8983 -0.5030
 6275SOL    HW230462   2.911   3.660   0.427  1.1683 -2.5561  1.1449
 6276SOL     OW30463   3.562   4.301   9.511  0.3793  0.0511  0.3930
 6276SOL    HW130464   3.514   4.279   9.431  0.2492  0.9861  0.2127
 6276SOL    HW230465   3.637   4.243   9.500  0.0455 -0.5217  1.1162
 6277SOL     OW30466   1.401   3.486   1.949  0.2094  0.5662 -0.0184
 6277SOL    HW130467   1.314   3.518   1.924 -0.0384 -0.8946 -1.0496
 6277SOL    HW230468   1.432   3.541   2.021  1.4424  0.9651 -0.8653
 6278SOL     OW30469   0.470   4.540   8.364  0.0661 -0.4977  0.5009
 6278SOL    HW130470   0.453   4.618   8.310 -1.7120 -0.7173  0.7365
 6278SOL    HW230471   0.518   4.583   8.435 -2.1255  0.9022  1.1540
 6279SOL     OW30472   1.308   2.746   0.595  0.6268  0.5075 -0.0897
 6279SOL    HW130473   1.288   2.834   0.562 -2.4888 -0.3650 -0.4567
 6279SOL    HW230474   1.403   2.739   0.584  0.5561 -0.6907  0.1026
 6280SOL     OW30475   3.977   4.525   4.409  0.4852  0.4833  0.2384
 6280SOL    HW130476   3.966   4.507   4.502 -0.2661  0.6426  0.1838
 6280SOL    HW230477   4.054   4.581   4.407  0.6648  0.1737 -2.7246
 6281SOL     OW30478   3.052   3.502   9.453  0.3947 -0.3770 -0.7665
 6281SOL    HW130479   3.091   3.554   9.382 -0.6711 -0.3627 -1.3441
 6281SOL    HW230480   2.958   3.521   9.443  0.0707  0.7712  4.3973
 6282SOL     OW30481   2.930   0.834   3.544  0.6570  0.0152  0.2782
 6282SOL    HW130482   2.975   0.752   3.523 -1.0620 -1.0029  0.5212
 6282SOL    HW230483   2.956   0.858   3.633  1.3400 -1.9997  0.6245
 6283SOL     OW30484   2.357   0.791   2.580 -0.2632  0.6012  0.2419
 6283SOL    HW130485   2.304   0.851   2.632 -2.1412  0.4663 -1.5135
 6283SOL    HW230486   2.395   0.857   2.522  1.8832 -0.3158  0.5996
 6284SOL     OW30487   0.009   0.840  13.814  0.8456 -0.5047  0.0533
 6284SOL    HW130488   4.724   0.933  13.802 -1.3766 -1.1203 -0.7412
 6284SOL    HW230489   4.700   0.825  13.897  1.3715  0.2112  0.4690
 6285SOL     OW30490   0.304   3.470   4.754 -0.2471 -0.0145  0.0854
 6285SOL    HW130491   0.275   3.379   4.754  0.8305 -0.3663 -0.9452
 6285SOL    HW230492   0.399   3.467   4.768 -0.1323 -2.2537 -1.2867
 6286SOL     OW30493   3.626   4.099  12.574  0.2045  0.0268  0.0885
 6286SOL    HW130494   3.588   4.062  12.494  0.6163 -0.5659  0.1702
 6286SOL    HW230495   3.565   4.171  12.592 -1.1387 -1.3672  1.1179
 6287SOL     OW30496   0.886   3.530   2.525 -0.5276 -0.4216 -0.1261
 6287SOL    HW130497   0.874   3.564   2.614 -0.3509 -2.0652  0.5337
 6287SOL    HW230498   0.980   3.540   2.515 -0.6837  2.2227  0.9601
 6288SOL     OW30499   1.524   0.086   5.162 -0.0670  0.4263 -0.5109
 6288SOL    HW130500   1.553   0.175   5.183 -0.4078  0.5452 -0.5548
 6288SOL    HW230501   1.490   0.057   5.247 -0.5785  0.3288 -0.7499
 6289SOL     OW30502   3.424   2.825   8.960 -0.4655 -0.0408 -0.4061
 6289SOL    HW130503   3.403   2.869   8.878 -0.1592  2.6841  1.0001
 6289SOL    HW230504   3.478   2.753   8.927  1.3790  0.4485  1.5729
 6290SOL     OW30505   3.524   3.632   8.512  0.2184  0.5394  0.1247
 6290SOL    HW130506   3.488   3.720   8.508  0.8461  0.6893 -1.9922
 6290SOL    HW230507   3.531   3.620   8.607 -2.0035  0.3173  0.2735
 6291SOL     OW30508   1.469   4.669   5.708 -0.4631  0.2899  0.3335
 6291SOL    HW130509   1.379   4.643   5.732 -1.1336  0.0856 -2.4159
 6291SOL    HW230510   1.480   0.023   5.737  0.3615  0.1639  0.3889
 6292SOL     OW30511   0.005   3.107   1.247 -0.7945  0.5735 -0.3496
 6292SOL    HW130512   4.691   3.177   1.204 -0.3969  0.3464 -1.1817
 6292SOL    HW230513   0.022   3.148   1.332 -1.1231 -0.3069  0.1320
 6293SOL     OW30514   2.796   0.534  10.091  0.0476  0.2736  0.4176
 6293SOL    HW130515   2.889   0.526  10.112 -0.7451 -1.7636  3.1659
 6293SOL    HW230516   2.798   0.600  10.022 -0.5697  0.9999  1.0924
 6294SOL     OW30517   3.527   1.106   2.650  0.1753  0.2208  0.3163
 6294SOL    HW130518   3.462   1.100   2.719  0.3102 -3.0765  0.1742
 6294SOL    HW230519   3.579   1.184   2.668 -0.5686  0.8746 -0.3558
 6295SOL     OW30520   1.256   1.938   9.432  0.1332 -0.4964  0.0028
 6295SOL    HW130521   1.327   1.881   9.462  2.1059  2.4315  0.8560
 6295SOL    HW230522   1.291   1.960   9.346 -0.3363  1.6586  0.3764
 6296SOL     OW30523   3.645   0.757   4.995  0.1896  0.1852 -0.0861
 6296SOL    HW130524   3.719   0.791   5.045  0.7471 -1.6290  0.3213
 6296SOL    HW230525   3.597   0.835   4.971 -1.0865  0.0514  2.0797
 6297SOL     OW30526   1.567   3.239  17.525  0.2123  0.5128 -0.1716
 6297SOL    HW130527   1.641   3.229  17.465  1.8146  0.7386  1.7802
 6297SOL    HW230528   1.566   3.333  17.543  2.7896  0.4331  0.4278
 6298SOL     OW30529   2.797   0.003   2.398  0.4092  0.0624  0.8126
 6298SOL    HW130530   2.887   4.724   2.372 -0.3606 -1.2363 -1.1248
 6298SOL    HW230531   2.774   4.653   2.433 -3.3093  1.5048  1.9417
 6299SOL     OW30532   4.446   1.979   6.982  0.2176  0.1986 -0.1361
 6299SOL    HW130533   4.455   1.898   7.031 -1.7428  0.7266  1.0984
 6299SOL    HW230534   4.351   1.991   6.978 -0.0662 -2.4588 -0.8876
 6300SOL     OW30535   0.850   0.735   1.541 -0.1735  0.0898  0.1494
 6300SOL    HW130536   0.812   0.806   1.593  0.5083  1.7444 -1.6251
 6300SOL    HW230537   0.783   0.667   1.548  0.6212 -0.7069 -0.0617
 6301SOL     OW30538   4.239   1.086   3.125 -0.0935 -0.3674  0.2314
 6301SOL    HW130539   4.173   1.155   3.115 -1.7265 -1.4900  3.0196
 6301SOL    HW230540   4.315   1.125   3.167  0.5813 -1.2106 -0.2179
 6302SOL     OW30541   3.442   3.604   2.803 -0.3127 -0.4148  0.2423
 6302SOL    HW130542   3.486   3.538   2.856  0.3648  0.4597  0.7608
 6302SOL    HW230543   3.506   3.675   2.810 -1.6107  0.5738  1.9239
 6303SOL     OW30544   3.215   4.655  13.716  0.0428  0.7255  1.2222
 6303SOL    HW130545   3.136   4.685  13.763 -0.1862  1.2872  0.4887
 6303SOL    HW230546   3.279   4.720  13.745  0.3260  1.0419 -0.1189
 6304SOL     OW30547   1.320   2.043   8.356 -0.1914  0.0044  0.3068
 6304SOL    HW130548   1.333   1.948   8.354  1.2611  0.2322 -0.9864
 6304SOL    HW230549   1.301   2.047   8.450 -0.5916  1.3702  0.1721
 6305SOL     OW30550   2.751   1.439   2.959  0.0176  0.5053 -1.0315
 6305SOL    HW130551   2.735   1.393   2.877  0.4456  1.6357 -1.7485
 6305SOL    HW230552   2.672   1.413   3.007  0.6774  1.5250  0.6291
 6306SOL     OW30553   2.677   2.406   2.546  0.4618  0.5232 -0.4480
 6306SOL    HW130554   2.618   2.474   2.513 -1.3774 -0.6214  0.5319
 6306SOL    HW230555   2.657   2.339   2.480 -0.6372  1.9986 -1.6339
 6307SOL     OW30556   2.193   0.225   7.488 -0.3394 -0.1582 -0.5962
 6307SOL    HW130557   2.140   0.274   7.551  0.8274  0.8360 -0.3909
 6307SOL    HW230558   2.244   0.291   7.441  0.1127 -0.2228 -0.1972
 6308SOL     OW30559   3.147   4.471   6.329 -0.1872 -0.0198  0.0924
 6308SOL    HW130560   3.114   4.475   6.419  2.4274  1.0870  1.0058
 6308SOL    HW230561   3.071   4.425   6.293  1.2690 -1.1258 -1.5624
 6309SOL     OW30562   1.907   4.089   8.310 -0.2472  0.2002  0.2598
 6309SOL    HW130563   1.979   4.029   8.289 -0.1298  0.5099 -0.2478
 6309SOL    HW230564   1.856   4.093   8.228 -0.4070  1.3291  0.4115
 6310SOL     OW30565   2.240   0.503   4.603 -0.1684 -0.0218  0.0347
 6310SOL    HW130566   2.261   0.420   4.644  0.3029 -0.0610 -0.2863
 6310SOL    HW230567   2.206   0.457   4.526 -1.1054  0.3114  0.2498
 6311SOL     OW30568   1.373   2.319   1.994 -0.1714  0.2665  0.3270
 6311SOL    HW130569   1.305   2.381   2.023 -1.2144 -0.8260  0.2022
 6311SOL    HW230570   1.322   2.240   1.976  0.8816 -1.0870  3.2191
 6312SOL     OW30571   1.585   2.942   6.968 -0.4270  0.3081  0.0381
 6312SOL    HW130572   1.637   3.022   6.965  1.9456 -1.2016  1.4621
 6312SOL    HW230573   1.601   2.916   7.058  1.5099 -2.2272 -1.0265
 6313SOL     OW30574   0.037   1.424   7.690 -0.4376  0.7634  0.0199
 6313SOL    HW130575   4.704   1.387   7.745  1.1693  0.1129  1.5875
 6313SOL    HW230576   0.097   1.350   7.675  0.0032  1.6639 -2.6084
 6314SOL     OW30577   2.674   3.728  13.701 -0.7399  0.1162 -0.5149
 6314SOL    HW130578   2.599   3.669  13.693  0.3140 -1.0175 -1.8933
 6314SOL    HW230579   2.652   3.790  13.771 -0.0138 -0.2212  0.0049
 6315SOL     OW30580   3.878   0.953   7.523 -0.4512 -0.3278 -0.0510
 6315SOL    HW130581   3.847   0.874   7.568 -0.1267 -0.5534 -0.2258
 6315SOL    HW230582   3.804   1.013   7.526 -0.8234 -0.8224  0.7404
 6316SOL     OW30583   4.144   3.730   4.439  0.8874 -0.8870 -0.1496
 6316SOL    HW130584   4.138   3.704   4.347 -1.3159 -0.2426 -0.1981
 6316SOL    HW230585   4.053   3.758   4.447  1.9899  1.7999  3.4304
 6317SOL     OW30586   3.137   0.340   6.375 -0.2545 -0.1266  0.1072
 6317SOL    HW130587   3.042   0.342   6.366 -0.0438  1.9745 -1.7764
 6317SOL    HW230588   3.150   0.372   6.465 -0.2457 -1.0852  0.4404
 6318SOL     OW30589   4.672   2.003   6.846 -0.1177 -0.0988 -0.0678
 6318SOL    HW130590   4.577   2.004   6.861  0.0581 -3.3498  1.2355
 6318SOL    HW230591   4.680   2.068   6.776 -1.7132 -0.6843 -0.7788
 6319SOL     OW30592   1.061   2.619   4.624 -0.2732 -0.1515 -0.2350
 6319SOL    HW130593   1.087   2.595   4.713 -1.5581 -0.9884 -0.0916
 6319SOL    HW230594   1.143   2.657   4.592  0.6159 -1.5169  0.4074
 6320SOL     OW30595   3.799   0.425  11.786 -0.5019  0.2129 -0.0500
 6320SOL    HW130596   3.770   0.380  11.706 -0.1530  0.7132 -0.4551
 6320SOL    HW230597   3.779   0.517  11.772  0.6763  0.4952  0.1291
 6321SOL     OW30598   3.824   4.310   6.971 -0.5365 -0.3812  0.1049
 6321SOL    HW130599   3.895   4.328   7.033  2.9978 -1.4937 -3.5667
 6321SOL    HW230600   3.805   4.217   6.980 -1.2148 -0.5530 -3.3090
 6322SOL     OW30601   0.644   1.534  11.921 -0.0094 -0.4737 -0.2813
 6322SOL    HW130602   0.609   1.470  11.983 -0.9642 -0.5026 -0.8440
 6322SOL    HW230603   0.670   1.481  11.845  0.6156  0.0743 -0.4494
 6323SOL     OW30604   2.081   4.657   3.728  0.0185 -0.4360  0.2104
 6323SOL    HW130605   2.095   4.651   3.634  2.3305 -1.7883  0.6415
 6323SOL    HW230606   2.001   4.607   3.742  0.1740  0.0226  2.9297
 6324SOL     OW30607   0.097   3.450   2.844  0.1883  0.4616 -0.8089
 6324SOL    HW130608   0.175   3.503   2.827 -0.5721  1.1718 -2.0766
 6324SOL    HW230609   0.127   3.360   2.852 -0.7725  0.2279  0.2243
 6325SOL     OW30610   3.750   2.248  17.622  0.3977 -0.1527 -0.2085
 6325SOL    HW130611   3.789   2.221  17.538 -1.1164  0.1931 -1.0237
 6325SOL    HW230612   3.825   2.298  17.655  0.8315 -0.9370 -0.0007
 6326SOL     OW30613   1.717   1.838   5.389 -0.1289  0.2977  0.2383
 6326SOL    HW130614   1.641   1.856   5.445 -0.8290 -2.1151  0.0770
 6326SOL    HW230615   1.751   1.925   5.368  0.5301 -0.0172 -0.0127
 6327SOL     OW30616   3.819   2.610   6.596  0.3552 -0.3598  0.1064
 6327SOL    HW130617   3.741   2.587   6.646  1.3181 -0.1717  1.6863
 6327SOL    HW230618   3.873   2.531   6.605  0.9659  0.3753  2.7996
 6328SOL     OW30619   3.242   4.268   8.491  0.5375 -0.7727 -0.0684
 6328SOL    HW130620   3.159   4.305   8.521  0.9111  0.1169 -0.1535
 6328SOL    HW230621   3.228   4.176   8.515  0.3338 -0.7837 -0.2266
 6329SOL     OW30622   3.142   0.156   2.133 -0.0843  0.8605  0.4367
 6329SOL    HW130623   3.163   0.111   2.051  0.0627  0.8119  0.5000
 6329SOL    HW230624   3.079   0.222   2.105 -0.3679  0.4915  0.1920
 6330SOL     OW30625   0.970   3.990  17.270  0.3083  0.0688  0.1576
 6330SOL    HW130626   1.013   4.073  17.292  1.3426  0.2159 -2.3695
 6330SOL    HW230627   0.924   3.977  17.353  1.6003 -2.5789  0.4672
 6331SOL     OW30628   1.509   4.142  14.989  0.7151 -0.4418  0.1214
 6331SOL    HW130629   1.414   4.149  14.992  0.7024 -0.3278 -0.7164
 6331SOL    HW230630   1.529   4.049  14.987  2.3932 -0.0722 -0.4301
 6332SOL     OW30631   1.553   3.167   8.141  0.0716 -0.3419 -0.0093
 6332SOL    HW130632   1.580   3.237   8.081  0.6926  1.4947  2.3888
 6332SOL    HW230633   1.638   3.155   8.181 -0.2059 -0.7429  0.4527
 6333SOL     OW30634   4.448   3.128   2.339 -0.2207  0.0695 -0.6464
 6333SOL    HW130635   4.490   3.049   2.305 -2.1021 -2.7363  3.5862
 6333SOL    HW230636   4.492   3.140   2.423  0.3993  0.4374 -1.0218
 6334SOL     OW30637   4.326   3.397   3.845  0.1977  0.3990  0.4257
 6334SOL    HW130638   4.233   3.406   3.825 -0.2322  2.0650  3.1409
 6334SOL    HW230639   4.366   3.470   3.797 -0.1871 -0.0043 -0.4969
 6335SOL     OW30640   3.437   4.668  17.211  0.1467  0.3197 -0.0681
 6335SOL    HW130641   3.523   4.634  17.185  0.5003  1.7002 -0.6989
 6335SOL    HW230642   3.379   4.595  17.231 -2.6031  2.3102 -0.7105
 6336SOL     OW30643   3.924   1.393   0.841 -0.1543 -0.1272 -0.1476
 6336SOL    HW130644   3.883   1.325   0.788  3.1425 -0.8595 -1.7654
 6336SOL    HW230645   3.993   1.427   0.783 -1.8734  1.7516 -1.1127
 6337SOL     OW30646   2.111   1.623   4.205  0.2771 -0.3203  0.3605
 6337SOL    HW130647   2.044   1.563   4.237  0.8507 -1.7712 -1.1494
 6337SOL    HW230648   2.176   1.561   4.172 -0.5482 -1.4902  0.9479
 6338SOL     OW30649   2.414   0.799  10.512  0.2633 -0.1809 -0.1308
 6338SOL    HW130650   2.490   0.816  10.567 -1.7159  0.7698  2.3379
 6338SOL    HW230651   2.379   0.887  10.493 -1.4585 -1.0312 -0.8644
 6339SOL     OW30652   0.070   0.687   5.065 -0.0581  0.5632 -0.1298
 6339SOL    HW130653   0.070   0.641   4.980  0.3788 -1.4792  0.9659
 6339SOL    HW230654   0.121   0.763   5.036 -0.2659  0.8417  0.2385
 6340SOL     OW30655   2.015   2.553   5.466 -0.4871 -0.2838 -0.3294
 6340SOL    HW130656   2.057   2.491   5.407 -1.2373  1.2651 -2.5124
 6340SOL    HW230657   1.960   2.608   5.410  0.5260  2.8641  1.7628
 6341SOL     OW30658   1.461   0.060   6.717  0.0557 -0.6433  0.1421
 6341SOL    HW130659   1.550   0.055   6.751  0.4717  4.2957 -0.1123
 6341SOL    HW230660   1.434   0.149   6.741 -0.9817 -1.5375  2.2070
 6342SOL     OW30661   4.449   1.008  17.070 -0.3513 -0.1965  0.6003
 6342SOL    HW130662   4.470   1.077  17.134  0.1128  0.1067  0.1245
 6342SOL    HW230663   4.536   0.986  17.037 -1.3302 -1.5529 -1.0435
 6343SOL     OW30664   2.046   0.421   4.985 -0.0710 -0.5937  0.9825
 6343SOL    HW130665   2.078   0.512   4.987 -1.3830 -0.1459  1.5019
 6343SOL    HW230666   1.977   0.444   4.923  0.8829 -1.1405 -0.2836
 6344SOL     OW30667   1.581   2.635  15.869 -0.4854 -0.0927  0.4412
 6344SOL    HW130668   1.517   2.696  15.906  0.0401 -0.1540  1.4569
 6344SOL    HW230669   1.639   2.697  15.825  0.2917 -0.8640  0.3817
 6345SOL     OW30670   3.935   4.479   4.688  0.0725  0.1675 -0.3193
 6345SOL    HW130671   3.990   4.463   4.766  1.5884  2.3778 -0.9374
 6345SOL    HW230672   3.857   4.431   4.715  0.2211  0.7428  1.1762
 6346SOL     OW30673   0.069   3.111   2.571 -0.1028 -0.1476 -0.2206
 6346SOL    HW130674   0.081   3.188   2.516 -3.8876  1.2338  0.8191
 6346SOL    HW230675   0.132   3.119   2.642  0.3462 -0.0314 -0.6362
 6347SOL     OW30676   2.127   1.318   4.423  0.2008  0.6325  0.2082
 6347SOL    HW130677   2.050   1.289   4.471  0.4677  0.6925  0.6690
 6347SOL    HW230678   2.118   1.279   4.335  0.2186  0.5462  0.2446
 6348SOL     OW30679   3.707   3.494   6.190 -0.7052 -0.0393 -0.6994
 6348SOL    HW130680   3.651   3.421   6.220  0.3030 -0.6915 -0.4194
 6348SOL    HW230681   3.767   3.504   6.264 -3.8247 -1.5429  2.0956
 6349SOL     OW30682   0.660   0.330   7.887  0.2042 -0.8442 -0.2832
 6349SOL    HW130683   0.589   0.302   7.945  0.3791  0.8091  0.7284
 6349SOL    HW230684   0.702   0.248   7.860  0.0461 -0.6479 -1.0980
 6350SOL     OW30685   0.567   4.458   5.530  0.0615 -0.1240  0.5924
 6350SOL    HW130686   0.609   4.496   5.607  1.3688 -0.5522  0.0877
 6350SOL    HW230687   0.647   4.429   5.486 -0.5963 -2.1687  0.7576
 6351SOL     OW30688   1.118   3.423   8.844 -0.5434  0.0527 -0.2590
 6351SOL    HW130689   1.137   3.509   8.880  4.5625 -2.3218  2.6788
 6351SOL    HW230690   1.129   3.429   8.749 -0.6345 -2.3531 -0.4378
 6352SOL     OW30691   1.375   4.360  10.337 -0.1111 -0.0732 -0.2151
 6352SOL    HW130692   1.394   4.429  10.402 -0.3226 -0.7583  0.5743
 6352SOL    HW230693   1.459   4.360  10.291 -0.2839  0.4029 -0.5297
 6353SOL     OW30694   3.969   1.254   5.848  0.7884 -0.1312  0.7505
 6353SOL    HW130695   4.009   1.290   5.927  1.3332 -0.2431  0.5240
 6353SOL    HW230696   3.913   1.327   5.822  1.5643  0.6893  1.3938
 6354SOL     OW30697   4.505   1.828   8.538 -0.5246 -0.1066 -0.5457
 6354SOL    HW130698   4.533   1.839   8.447 -0.5377  2.6312 -0.2264
 6354SOL    HW230699   4.413   1.806   8.524 -0.6367 -0.3091  0.4606
 6355SOL     OW30700   1.194   2.275   4.048 -0.1769  0.3871 -0.3794
 6355SOL    HW130701   1.284   2.302   4.026 -0.5724  1.0526 -1.2066
 6355SOL    HW230702   1.203   2.227   4.130  0.9401 -2.0166 -1.9151
 6356SOL     OW30703   1.865   2.170   8.402 -0.0106  0.3522  0.0804
 6356SOL    HW130704   1.789   2.206   8.448 -1.7666 -0.9427 -1.8254
 6356SOL    HW230705   1.917   2.145   8.478  0.1350  1.1715  0.2569
 6357SOL     OW30706   2.768   4.392   5.589 -0.2350 -0.1204 -0.5811
 6357SOL    HW130707   2.744   4.300   5.601  0.4471 -0.3851 -1.2506
 6357SOL    HW230708   2.748   4.426   5.676 -1.4037  1.2917 -1.3997
 6358SOL     OW30709   1.178   2.116   1.969  0.1058 -0.2531  0.4226
 6358SOL    HW130710   1.106   2.138   2.028 -0.2362 -1.0742  0.3124
 6358SOL    HW230711   1.199   2.024   1.988  1.4930 -0.5364 -2.3982
 6359SOL     OW30712   3.072   2.264   8.037  0.1486 -0.2045 -0.0644
 6359SOL    HW130713   3.049   2.224   7.953  0.3685  0.6839 -0.5385
 6359SOL    HW230714   3.165   2.286   8.028 -0.6772  2.1094 -2.8884
 6360SOL     OW30715   2.616   1.311  16.042 -0.1257 -0.0567 -0.0607
 6360SOL    HW130716   2.540   1.322  16.099 -0.3770 -1.5386 -0.0919
 6360SOL    HW230717   2.650   1.400  16.050  2.3371 -0.9682 -0.2284
 6361SOL     OW30718   1.147   0.269   2.710 -0.5711 -0.4286 -0.1683
 6361SOL    HW130719   1.212   0.299   2.646 -0.1247  1.0352  0.9520
 6361SOL    HW230720   1.185   0.312   2.787 -0.8427  1.4553 -1.0777
 6362SOL     OW30721   3.895   4.279   2.097  0.3724 -0.0529 -0.3767
 6362SOL    HW130722   3.833   4.208   2.084  0.8430 -0.4607 -0.3680
 6362SOL    HW230723   3.888   4.301   2.190 -1.7530  0.0957 -0.5719
 6363SOL     OW30724   3.801   1.676  16.881  0.5158  0.2531  0.3327
 6363SOL    HW130725   3.825   1.587  16.904  0.2737  0.1978  0.3749
 6363SOL    HW230726   3.876   1.696  16.825 -0.7660 -2.1535 -2.2485
 6364SOL     OW30727   3.889   0.071  15.368  0.3042 -0.0241 -0.4948
 6364SOL    HW130728   3.974   0.085  15.409  0.1678  0.6135 -0.4402
 6364SOL    HW230729   3.836   0.096  15.444  2.5062 -0.7243  1.2544
 6365SOL     OW30730   3.247   0.323   3.884 -0.2941 -0.4431  0.0060
 6365SOL    HW130731   3.336   0.325   3.921 -0.6558 -0.3106  0.8769
 6365SOL    HW230732   3.200   0.392   3.932 -0.4893 -0.0432 -0.7648
 6366SOL     OW30733   3.014   0.099   8.757 -0.6393  0.4710 -0.0520
 6366SOL    HW130734   3.064   0.149   8.693  0.5205  0.2153  0.6657
 6366SOL    HW230735   2.935   0.153   8.762 -1.1984 -0.2347 -1.1669
 6367SOL     OW30736   1.607   0.315   7.308  0.3041  0.4657 -0.7889
 6367SOL    HW130737   1.646   0.400   7.329  0.5735  0.9221 -3.1578
 6367SOL    HW230738   1.645   0.274   7.386  0.9377 -0.4330 -1.5727
 6368SOL     OW30739   2.064   0.396  16.026  0.1726  0.5898 -0.2635
 6368SOL    HW130740   2.022   0.450  16.093 -1.5818 -1.6891  0.4825
 6368SOL    HW230741   2.100   0.329  16.085  0.8370  0.1412 -1.1762
 6369SOL     OW30742   0.801   2.997  16.307 -0.2281  0.0927 -0.0714
 6369SOL    HW130743   0.775   3.038  16.389 -4.8340 -2.9402  0.0101
 6369SOL    HW230744   0.822   3.077  16.259 -0.8987  0.8449  0.9095
 6370SOL     OW30745   1.015   3.885  12.317 -0.0370 -0.3250  0.3421
 6370SOL    HW130746   1.032   3.813  12.378 -1.8923 -0.1330  1.0987
 6370SOL    HW230747   0.946   3.851  12.259  0.7006 -1.1101 -0.0788
 6371SOL     OW30748   3.329   4.216   5.779  0.2003 -0.5436  0.2555
 6371SOL    HW130749   3.279   4.289   5.743 -0.2854 -0.3284  1.3824
 6371SOL    HW230750   3.392   4.267   5.829 -0.8433  0.9704  0.0132
 6372SOL     OW30751   0.231   2.894  15.841 -0.4040  0.5149 -0.0771
 6372SOL    HW130752   0.137   2.914  15.848  0.0563  2.5565  0.2663
 6372SOL    HW230753   0.242   2.863  15.931  0.6810  0.3583 -0.2645
 6373SOL     OW30754   3.216   3.798   6.406 -0.0873 -0.0045  0.0396
 6373SOL    HW130755   3.249   3.841   6.327  0.4159  2.9238  1.8338
 6373SOL    HW230756   3.169   3.731   6.357 -1.8826  0.3538  1.2735
 6374SOL     OW30757   1.862   4.079   2.253 -0.7441 -0.2871 -0.2127
 6374SOL    HW130758   1.766   4.079   2.252 -0.7391 -1.7430 -1.6864
 6374SOL    HW230759   1.877   4.068   2.159 -0.3920 -1.3444 -0.0358
 6375SOL     OW30760   4.539   1.161  11.451  0.3512  0.3430 -0.0607
 6375SOL    HW130761   4.517   1.085  11.505 -0.2407  1.2462  0.9626
 6375SOL    HW230762   4.505   1.234  11.504  0.5186 -0.1269  0.6943
 6376SOL     OW30763   0.648   1.161   4.959  0.1487 -0.5064 -0.0827
 6376SOL    HW130764   0.730   1.209   4.968  0.8022 -1.8107  0.9042
 6376SOL    HW230765   0.602   1.226   4.906 -0.0202 -0.4252  0.1671
 6377SOL     OW30766   2.378   4.107   6.660  0.0323  0.0889  0.5017
 6377SOL    HW130767   2.453   4.167   6.668 -0.5004  0.8974 -0.4667
 6377SOL    HW230768   2.319   4.143   6.726 -1.3132 -1.1567 -0.0270
 6378SOL     OW30769   3.175   0.859   7.358  0.2272  0.2641  0.7886
 6378SOL    HW130770   3.214   0.879   7.443 -0.6457 -0.0457  1.2655
 6378SOL    HW230771   3.247   0.810   7.318 -1.1392 -2.3869  1.5469
 6379SOL     OW30772   2.429   4.282   3.601  0.1490  0.1133 -0.1748
 6379SOL    HW130773   2.348   4.294   3.649 -0.0815  1.4032 -0.8832
 6379SOL    HW230774   2.400   4.273   3.510 -0.2997  2.0643 -0.2243
 6380SOL     OW30775   3.976   3.233   3.392 -0.3093 -0.7110  0.5172
 6380SOL    HW130776   3.974   3.320   3.431 -0.3496 -0.3919 -0.1818
 6380SOL    HW230777   3.917   3.202   3.460 -1.2870 -1.9323 -0.8955
 6381SOL     OW30778   3.260   0.710   4.968  0.1969  0.4301  0.1050
 6381SOL    HW130779   3.227   0.669   5.048  0.9506 -0.0350  0.1768
 6381SOL    HW230780   3.208   0.790   4.960 -0.7612 -0.3210 -1.2217
 6382SOL     OW30781   4.400   1.371  11.569  0.1243 -0.1671 -0.5696
 6382SOL    HW130782   4.341   1.368  11.494  0.4059  3.7980 -0.9407
 6382SOL    HW230783   4.445   1.452  11.546 -1.1955  0.6428 -0.2925
 6383SOL     OW30784   1.181   0.267   7.629  0.5787  0.3074 -0.2479
 6383SOL    HW130785   1.225   0.344   7.594  1.8976 -0.0425  0.6248
 6383SOL    HW230786   1.090   0.297   7.635  0.6575  0.5253 -0.1412
 6384SOL     OW30787   4.685   2.424   1.479 -0.2236  0.0990 -0.1459
 6384SOL    HW130788   4.623   2.407   1.408  0.0907 -0.2946 -0.3241
 6384SOL    HW230789   4.619   2.471   1.531 -0.1046  1.2741 -1.0456
 6385SOL     OW30790   1.907   3.325  16.691 -0.1770  0.1464 -0.4270
 6385SOL    HW130791   1.821   3.367  16.687 -0.1781  0.3753  2.1685
 6385SOL    HW230792   1.885   3.253  16.750  0.2082 -1.7212 -2.5783
 6386SOL     OW30793   2.316   1.062   6.025 -0.0863 -0.1257  0.1605
 6386SOL    HW130794   2.334   1.002   6.098  1.0585 -1.4400 -1.2032
 6386SOL    HW230795   2.260   1.122   6.073  2.6124  2.9472 -0.5805
 6387SOL     OW30796   4.691   1.601   2.750 -0.0178  0.3292 -0.7915
 6387SOL    HW130797   4.731   1.592   2.664 -1.9500  1.4649 -1.8307
 6387SOL    HW230798   0.023   1.567   2.806 -0.6065 -1.5733 -1.2470
 6388SOL     OW30799   3.195   1.730   1.682 -0.0981 -0.0700  0.2917
 6388SOL    HW130800   3.228   1.645   1.712  1.0457  1.3848  3.1734
 6388SOL    HW230801   3.226   1.787   1.753  0.2652 -3.8445  3.1283
 6389SOL     OW30802   1.955   1.043   2.226 -0.4930 -0.1821 -0.3106
 6389SOL    HW130803   1.909   0.959   2.228 -0.1673 -0.3429  0.3931
 6389SOL    HW230804   1.963   1.052   2.321 -1.1224 -2.0747 -0.0829
 6390SOL     OW30805   1.456   3.770   6.468  0.0494  0.2960  0.3378
 6390SOL    HW130806   1.416   3.690   6.502  0.9220  0.2936  1.3651
 6390SOL    HW230807   1.382   3.831   6.472  0.3241  0.6852 -0.4933
 6391SOL     OW30808   2.137   3.482   3.758 -0.6838  0.2086 -0.1046
 6391SOL    HW130809   2.077   3.410   3.778 -1.9920  0.9776 -1.3055
 6391SOL    HW230810   2.217   3.441   3.792 -1.1669 -0.4618  0.2158
 6392SOL     OW30811   1.556   4.284  16.336  0.5591  0.0984  0.6149
 6392SOL    HW130812   1.483   4.258  16.392 -0.7373  4.1941  0.8248
 6392SOL    HW230813   1.623   4.229  16.376  1.3272  1.7924  1.6221
 6393SOL     OW30814   0.377   2.336   3.866 -0.1445  0.4147  0.1350
 6393SOL    HW130815   0.396   2.403   3.801  3.0404 -1.4189 -0.8475
 6393SOL    HW230816   0.425   2.269   3.817  2.3096  0.6725  2.1507
 6394SOL     OW30817   4.702   3.871   4.060  0.3172  0.0838  0.1211
 6394SOL    HW130818   4.724   3.804   3.997  0.1648  0.3629 -0.2297
 6394SOL    HW230819   0.020   3.845   4.135  0.2296  1.9285  0.8305
 6395SOL     OW30820   4.704   1.841  12.381  0.0361 -0.3343  0.6223
 6395SOL    HW130821   4.692   1.911  12.316 -1.7261  0.0070  1.3066
 6395SOL    HW230822   4.709   1.765  12.324 -1.0663 -0.6745  0.9823
 6396SOL     OW30823   1.262   4.656   4.697 -0.6544  0.5211 -0.2180
 6396SOL    HW130824   1.308   4.715   4.758  0.5149  0.5146 -1.0923
 6396SOL    HW230825   1.190   4.707   4.659  1.3810  3.5624 -0.0538
 6397SOL     OW30826   3.247   0.843  13.391  0.1574  1.1562  0.3401
 6397SOL    HW130827   3.239   0.890  13.308  1.8652  1.5814  0.4161
 6397SOL    HW230828   3.203   0.897  13.457  0.6852 -0.6085  2.1327
 6398SOL     OW30829   3.785   1.137   6.707 -0.2814 -1.0271 -0.1939
 6398SOL    HW130830   3.867   1.118   6.753  0.0065 -0.8192 -0.6152
 6398SOL    HW230831   3.733   1.057   6.710 -1.7536  0.0271  2.6877
 6399SOL     OW30832   1.470   2.300   4.052 -0.1878 -0.1586  0.1358
 6399SOL    HW130833   1.544   2.339   4.005  1.0733 -2.8868 -0.1144
 6399SOL    HW230834   1.513   2.229   4.099 -1.9163 -1.2473  0.0901
 6400SOL     OW30835   3.553   2.162   7.292  0.3203 -0.1329 -0.5085
 6400SOL    HW130836   3.572   2.102   7.221  1.7768  1.1385 -1.2073
 6400SOL    HW230837   3.587   2.249   7.268 -1.0249  0.7117  0.6162
 6401SOL     OW30838   3.635   2.500   7.981  0.3157  0.0719 -0.5139
 6401SOL    HW130839   3.705   2.566   7.977  0.7033 -0.2769  0.7110
 6401SOL    HW230840   3.568   2.531   7.921  0.2910  0.4654 -0.2819
 6402SOL     OW30841   2.195   3.003   8.495 -0.2509 -0.7060 -0.0907
 6402SOL    HW130842   2.215   2.912   8.477 -1.1220 -1.2070  1.4937
 6402SOL    HW230843   2.176   3.004   8.589 -0.4520  2.3068 -0.1437
 6403SOL     OW30844   0.261   2.739  13.206 -0.2499 -0.3845  0.3570
 6403SOL    HW130845   0.186   2.687  13.233 -0.7028  0.3962  0.6020
 6403SOL    HW230846   0.329   2.672  13.205 -0.0610 -0.1326 -2.5849
 6404SOL     OW30847   0.035   3.889   1.938  0.6273  0.2502  0.6024
 6404SOL    HW130848   0.014   3.971   1.895 -0.3091 -1.0554 -1.4470
 6404SOL    HW230849   0.109   3.915   1.993  0.5399  1.0416  0.3445
 6405SOL     OW30850   2.154   2.057  11.310 -0.1733 -0.0917 -0.1301
 6405SOL    HW130851   2.232   2.013  11.343 -0.8784 -1.8330 -0.7641
 6405SOL    HW230852   2.149   2.028  11.219  0.4873 -2.0958  0.4654
 6406SOL     OW30853   0.708   2.542   2.021  0.6699 -0.3152  0.2370
 6406SOL    HW130854   0.645   2.477   2.052  1.9616 -1.3129  0.7991
 6406SOL    HW230855   0.727   2.515   1.931 -0.4490 -2.0518  0.5217
 6407SOL     OW30856   0.898   1.243   0.527 -0.0780  0.0817 -0.5294
 6407SOL    HW130857   0.964   1.304   0.560 -2.6993  2.1918  0.8178
 6407SOL    HW230858   0.946   1.163   0.505 -1.5618 -0.3495 -2.1707
 6408SOL     OW30859   1.693   0.842  12.958 -0.3328  0.3354  0.3368
 6408SOL    HW130860   1.719   0.762  13.002  0.1029  1.1777  1.5894
 6408SOL    HW230861   1.776   0.844  12.911 -0.0363 -1.3246  0.8120
 6409SOL     OW30862   3.597   1.611   2.620 -0.6758 -0.5137  0.0061
 6409SOL    HW130863   3.637   1.672   2.681  1.4368 -0.9036 -1.0038
 6409SOL    HW230864   3.666   1.550   2.597 -0.3152 -1.0914  2.6892
 6410SOL     OW30865   4.661   2.015  10.571  0.0899 -0.4809 -0.4786
 6410SOL    HW130866   4.673   2.102  10.532  2.5990 -0.1435  1.0836
 6410SOL    HW230867   4.730   2.021  10.637  1.7044  0.6203 -2.2672
 6411SOL     OW30868   1.954   1.544  12.256 -0.3463 -0.1977 -0.7546
 6411SOL    HW130869   2.049   1.537  12.253 -0.4038 -0.9311 -0.8973
 6411SOL    HW230870   1.948   1.611  12.187 -0.5121  0.8661  0.2960
 6412SOL     OW30871   2.793   4.405   7.382  0.3674 -0.9199 -0.7557
 6412SOL    HW130872   2.772   4.312   7.370 -2.0270 -0.8507  2.6855
 6412SOL    HW230873   2.867   4.407   7.321  2.7595 -0.5911  2.1336
 6413SOL     OW30874   1.577   4.307   1.703 -0.1646 -0.6387  0.0061
 6413SOL    HW130875   1.642   4.319   1.634  0.0322  0.1762  0.3421
 6413SOL    HW230876   1.607   4.356   1.779  0.7812 -0.8274 -0.2422
 6414SOL     OW30877   4.692   1.402   1.634  0.2670  0.5772  0.5039
 6414SOL    HW130878   4.697   1.435   1.544 -0.3120 -0.1512  0.2044
 6414SOL    HW230879   4.598   1.398   1.650  0.1229  1.0646 -0.2078
 6415SOL     OW30880   1.804   3.190   6.742 -0.1267 -0.2099  0.1237
 6415SOL    HW130881   1.760   3.270   6.772  0.3006  0.4350 -0.9543
 6415SOL    HW230882   1.872   3.181   6.808  1.1191  2.4538 -0.7800
 6416SOL     OW30883   0.968   3.401   2.256 -0.7766 -0.0787  0.7140
 6416SOL    HW130884   0.991   3.458   2.330 -1.0708  1.7330 -0.5894
 6416SOL    HW230885   0.885   3.436   2.224 -0.7000 -1.0911 -0.6126
 6417SOL     OW30886   2.273   1.761   5.871  0.3013 -0.2835 -0.2049
 6417SOL    HW130887   2.305   1.851   5.879 -1.5326  0.2650  0.9777
 6417SOL    HW230888   2.352   1.715   5.844  0.2637 -0.8879  0.6961
 6418SOL     OW30889   4.375   2.145   2.739  0.5572  0.1679  0.0626
 6418SOL    HW130890   4.286   2.123   2.709 -0.1503  0.6845  1.8017
 6418SOL    HW230891   4.421   2.184   2.664  0.3725 -1.3619 -0.8601
 6419SOL     OW30892   3.009   0.032  15.228 -0.3364  0.4681  0.1601
 6419SOL    HW130893   2.951   4.709  15.181 -0.9792  0.5117  0.9076
 6419SOL    HW230894   3.056   0.078  15.158 -1.2509 -0.5938 -1.1479
 6420SOL     OW30895   1.843   1.921   3.836 -0.2685 -0.3718  0.4555
 6420SOL    HW130896   1.889   1.907   3.919  0.1591  0.5466  0.3731
 6420SOL    HW230897   1.895   1.985   3.787  0.7716 -1.6378 -0.0972
 6421SOL     OW30898   2.187   3.747   6.938  0.2674 -0.1827 -0.0743
 6421SOL    HW130899   2.205   3.658   6.967  0.5019  0.3649  1.4702
 6421SOL    HW230900   2.234   3.752   6.855 -0.1987 -1.0148 -0.3935
 6422SOL     OW30901   3.236   4.466  17.251 -0.5604  0.2825  0.6200
 6422SOL    HW130902   3.173   4.536  17.231  0.2094  0.7080 -0.2766
 6422SOL    HW230903   3.192   4.388  17.216 -1.3612 -0.1497  2.5687
 6423SOL     OW30904   3.019   0.233   7.715 -0.1179  0.6813  0.4668
 6423SOL    HW130905   3.108   0.203   7.734  0.0362  1.7308  1.4294
 6423SOL    HW230906   3.003   0.190   7.631 -1.0224  3.4086 -0.7717
 6424SOL     OW30907   1.494   0.239   5.530 -0.7814  0.0825  0.3940
 6424SOL    HW130908   1.467   0.326   5.498  1.7489  0.5873 -0.4109
 6424SOL    HW230909   1.589   0.249   5.516 -0.4497 -2.7050  0.7615
 6425SOL     OW30910   3.997   2.909  11.763 -0.2103 -0.1196  0.4775
 6425SOL    HW130911   3.977   2.958  11.843  0.6611 -0.0012  0.6244
 6425SOL    HW230912   3.927   2.946  11.708  0.6174 -0.2624 -0.6745
 6426SOL     OW30913   0.525   4.098   4.341 -0.8027 -0.5149 -0.3940
 6426SOL    HW130914   0.485   4.144   4.415 -1.5638 -1.9918  0.1164
 6426SOL    HW230915   0.512   4.162   4.271 -1.8686  0.7448  0.9528
 6427SOL     OW30916   4.319   2.380   5.180 -0.3768  0.1038  0.3251
 6427SOL    HW130917   4.238   2.372   5.229 -0.3160  0.9945  0.5787
 6427SOL    HW230918   4.312   2.303   5.123 -1.2023  0.2821  0.1868
 6428SOL     OW30919   0.196   2.665  10.223 -0.0500  0.1731 -0.7579
 6428SOL    HW130920   0.289   2.650  10.207 -0.3192 -1.7410 -0.5644
 6428SOL    HW230921   0.169   2.636  10.136 -0.8967  0.2084 -0.5046
 6429SOL     OW30922   4.653   0.254  13.703 -0.3622 -0.1866 -0.0408
 6429SOL    HW130923   4.676   0.234  13.612 -1.1827  1.8757 -0.7010
 6429SOL    HW230924   0.004   0.265  13.742  0.8200  0.4637 -2.8833
 6430SOL     OW30925   3.371   2.090   4.727  0.4362  0.5886 -0.1462
 6430SOL    HW130926   3.326   2.170   4.753 -1.7345  0.0144 -2.0896
 6430SOL    HW230927   3.423   2.066   4.804  0.0755  0.0432 -0.0727
 6431SOL     OW30928   4.620   4.679   5.606  0.1115 -0.0344 -0.9153
 6431SOL    HW130929   4.564   4.609   5.572 -0.3012  0.0453 -0.3858
 6431SOL    HW230930   4.699   4.667   5.552  0.4689 -1.6347 -0.0452
 6432SOL     OW30931   0.473   3.917   6.460 -0.1095  0.6724  0.2215
 6432SOL    HW130932   0.468   3.925   6.555  2.3129  0.2635  0.4030
 6432SOL    HW230933   0.439   3.827   6.456  0.4418  0.4354  0.7889
 6433SOL     OW30934   1.690   3.969   4.984  0.5233 -0.0924  0.6194
 6433SOL    HW130935   1.665   3.877   4.976  0.6739 -0.1476  0.7764
 6433SOL    HW230936   1.710   3.995   4.894 -0.5654 -1.6269 -0.0575
 6434SOL     OW30937   2.232   3.915   2.211 -0.5509 -0.0893  0.2859
 6434SOL    HW130938   2.292   3.989   2.222 -0.6481  0.1171 -0.6123
 6434SOL    HW230939   2.274   3.856   2.148 -0.1925 -0.0260  0.4665
 6435SOL     OW30940   3.558   2.049   6.424  0.4437 -0.0553 -0.3261
 6435SOL    HW130941   3.598   2.133   6.444  1.3411 -0.7224  0.7082
 6435SOL    HW230942   3.640   1.999   6.423  0.9619  0.7690  1.3061
 6436SOL     OW30943   0.977   3.821   5.688 -0.4165  0.2965  0.1673
 6436SOL    HW130944   0.942   3.832   5.600  1.6361  1.6216 -0.4914
 6436SOL    HW230945   0.999   3.728   5.689  1.5576  0.7531 -1.3793
 6437SOL     OW30946   1.891   1.238  14.960  0.8170  0.2522  0.7524
 6437SOL    HW130947   1.827   1.280  14.903  0.7808 -1.0789 -0.1941
 6437SOL    HW230948   1.853   1.262  15.044 -0.2893  0.4438  0.1993
 6438SOL     OW30949   1.489   4.492   7.230 -0.3841 -0.5238  0.0837
 6438SOL    HW130950   1.515   4.503   7.321 -0.0158 -1.3619  0.0806
 6438SOL    HW230951   1.483   4.585   7.209  0.1207 -0.1150  1.7417
 6439SOL     OW30952   0.895   2.926  14.321  0.1534  0.2371 -0.6715
 6439SOL    HW130953   0.960   2.931  14.391 -1.4246  0.3183  0.7860
 6439SOL    HW230954   0.838   2.855  14.351 -0.0239  0.4930 -0.4086
 6440SOL     OW30955   1.817   0.431  15.717 -0.2137  0.0086 -0.4358
 6440SOL    HW130956   1.816   0.508  15.660  1.3148 -0.8757 -1.6322
 6440SOL    HW230957   1.756   0.454  15.788 -0.3519 -2.2836  0.1812
 6441SOL     OW30958   4.364   2.338   6.076 -0.0681  0.2672  0.4700
 6441SOL    HW130959   4.292   2.324   6.015  0.6108  0.6729 -0.4135
 6441SOL    HW230960   4.385   2.429   6.055 -0.9416 -0.2709 -2.7047
 6442SOL     OW30961   2.667   0.850  13.692 -0.1892 -0.1384 -0.2678
 6442SOL    HW130962   2.711   0.771  13.724 -1.6443 -0.8033  0.1107
 6442SOL    HW230963   2.681   0.838  13.598  0.5674  0.1178 -0.1887
 6443SOL     OW30964   1.948   3.704   3.895 -0.0138 -0.2436  0.1643
 6443SOL    HW130965   1.990   3.619   3.911 -2.7647 -1.5716  0.4983
 6443SOL    HW230966   2.009   3.742   3.833  1.3849 -1.9334  0.4946
 6444SOL     OW30967   1.990   2.020   4.390  0.3817  0.0272 -0.1104
 6444SOL    HW130968   2.068   2.062   4.353  0.9254 -0.5527  0.3691
 6444SOL    HW230969   2.024   1.979   4.470 -0.4505 -1.0034 -0.2832
 6445SOL     OW30970   3.628   0.067   3.477  0.1740  0.6491 -0.4883
 6445SOL    HW130971   3.699   0.011   3.507 -1.4667 -0.3230  1.5500
 6445SOL    HW230972   3.668   0.112   3.402 -0.3794  1.3827 -0.3409
 6446SOL     OW30973   1.206   1.723  12.193 -0.0761 -0.2164 -1.0926
 6446SOL    HW130974   1.252   1.641  12.183  0.0230  0.0253 -2.6223
 6446SOL    HW230975   1.130   1.701  12.139 -0.4466  1.7213 -1.3939
 6447SOL     OW30976   4.292   3.594   3.389  0.2739  0.2350  0.0357
 6447SOL    HW130977   4.209   3.640   3.402 -0.1506 -0.9922  1.6243
 6447SOL    HW230978   4.257   3.517   3.345  0.3072 -0.1315  0.6625
 6448SOL     OW30979   4.034   3.659   4.186 -0.2733 -0.5572  0.1242
 6448SOL    HW130980   4.101   3.597   4.158  0.6607  0.7803 -0.6121
 6448SOL    HW230981   4.005   3.704   4.106 -2.7623  1.2388  2.0607
 6449SOL     OW30982   4.115   0.897   8.280 -0.3057 -0.2159  0.0589
 6449SOL    HW130983   4.084   0.913   8.369 -0.0274  1.0673 -0.0805
 6449SOL    HW230984   4.083   0.980   8.246  0.9665  0.2889  0.1016
 6450SOL     OW30985   4.604   2.072   8.146 -0.1132  0.1774 -0.5870
 6450SOL    HW130986   4.602   2.004   8.213  0.8881  0.8560  0.1283
 6450SOL    HW230987   4.657   2.138   8.191 -1.2219  0.7053 -0.0387
 6451SOL     OW30988   3.674   1.326   2.699 -0.2976 -0.1347  0.3137
 6451SOL    HW130989   3.763   1.356   2.682 -1.3476  2.4866 -0.6920
 6451SOL    HW230990   3.645   1.373   2.777  0.5959  2.0426 -0.6530
 6452SOL     OW30991   3.406   1.865   8.562  0.5376  0.1137  0.2698
 6452SOL    HW130992   3.328   1.899   8.519  1.3393  1.1152 -0.3967
 6452SOL    HW230993   3.469   1.847   8.492  1.8287  1.2963  1.1274
 6453SOL     OW30994   1.473   1.798   9.464  0.4892 -0.5606 -0.2395
 6453SOL    HW130995   1.434   1.741   9.530  1.1775 -0.1540  0.5094
 6453SOL    HW230996   1.553   1.749   9.445  0.6267 -0.4826  0.1309
 6454SOL     OW30997   4.435   1.875  10.686 -0.7870  0.2436 -0.3280
 6454SOL    HW130998   4.422   1.793  10.639 -0.5812 -0.0461  0.1225
 6454SOL    HW230999   4.523   1.905  10.660 -0.1832  0.3744  1.9205
 6455SOL     OW31000   2.587   1.393   7.481 -0.5469 -0.0463 -0.4136
 6455SOL    HW131001   2.671   1.438   7.490 -0.4048 -0.8346  2.2379
 6455SOL    HW231002   2.525   1.465   7.493  2.2257  1.9749  1.9543
 6456SOL     OW31003   1.759   0.983  15.267  0.6080 -0.3847  0.3023
 6456SOL    HW131004   1.802   1.002  15.350 -0.2537  1.6283  0.2977
 6456SOL    HW231005   1.829   0.966  15.203 -0.0664  1.1307 -0.8548
 6457SOL     OW31006   1.693   2.068  15.621  0.3638 -0.2043 -0.7472
 6457SOL    HW131007   1.651   2.114  15.549  1.0720  2.6264  0.6590
 6457SOL    HW231008   1.765   2.129  15.636 -0.4281  0.7164 -0.7088
 6458SOL     OW31009   0.418   4.151   5.417 -0.6274  0.4340  0.0441
 6458SOL    HW131010   0.416   4.243   5.392 -1.4205  0.5332  0.4764
 6458SOL    HW231011   0.328   4.126   5.394 -0.2258  0.1155 -1.2098
 6459SOL     OW31012   4.652   1.472  16.764  0.2670  0.5948 -0.2953
 6459SOL    HW131013   4.582   1.437  16.820  1.4713  0.8141  1.3509
 6459SOL    HW231014   4.724   1.446  16.822 -0.3836  1.8155  1.0829
 6460SOL     OW31015   3.895   0.283   5.959  0.1893  0.1917  0.1775
 6460SOL    HW131016   3.806   0.248   5.967  0.4589 -0.8713 -1.5581
 6460SOL    HW231017   3.937   0.199   5.978  1.2010  1.1124  1.9168
 6461SOL     OW31018   3.385   2.252   8.021  0.0420  0.1620 -0.0437
 6461SOL    HW131019   3.471   2.292   8.030 -0.7129  1.0956  3.0190
 6461SOL    HW231020   3.389   2.225   7.929 -2.2531 -1.7769  0.4021
 6462SOL     OW31021   0.783   4.668   7.167  0.1689  0.4436  0.2912
 6462SOL    HW131022   0.738   4.585   7.176 -0.6845  1.0349  1.4510
 6462SOL    HW231023   0.830   4.651   7.086 -4.4229  1.1715 -2.5455
 6463SOL     OW31024   4.527   4.076  10.789 -0.4215  0.8271  0.0056
 6463SOL    HW131025   4.504   4.069  10.881 -0.2210  2.5825  0.1743
 6463SOL    HW231026   4.473   4.146  10.754 -2.5147 -0.8013  0.0063
 6464SOL     OW31027   1.022   3.736   7.321 -0.5212 -0.0978 -0.4318
 6464SOL    HW131028   1.104   3.721   7.273  0.6677  0.5639  1.3674
 6464SOL    HW231029   1.038   3.828   7.345 -0.6170 -0.4995  1.1862
 6465SOL     OW31030   2.017   0.349   2.487  0.1243 -0.0041 -0.2501
 6465SOL    HW131031   2.029   0.296   2.566  0.0791  3.0021  1.7236
 6465SOL    HW231032   2.008   0.430   2.536  1.1251 -0.5939  0.9106
 6466SOL     OW31033   0.463   2.352  11.646 -0.4187  0.3914  0.9033
 6466SOL    HW131034   0.509   2.268  11.652  0.3731  0.6647 -1.2898
 6466SOL    HW231035   0.411   2.333  11.724  1.4435  0.8705  2.2555
 6467SOL     OW31036   1.448   1.499  12.231  0.2655 -0.1826  0.2279
 6467SOL    HW131037   1.407   1.417  12.259 -1.1150  0.2423 -0.5399
 6467SOL    HW231038   1.532   1.473  12.268 -0.8360 -1.7261  1.6577
 6468SOL     OW31039   2.272   0.515   2.274 -0.2670  0.4282 -0.2804
 6468SOL    HW131040   2.203   0.449   2.279  1.4436 -1.1253  2.5068
 6468SOL    HW231041   2.227   0.579   2.218  2.7635  1.1789 -1.8675
 6469SOL     OW31042   3.827   1.095   2.283  0.4282 -0.1441 -0.0214
 6469SOL    HW131043   3.736   1.110   2.310  0.1544  0.3573 -1.2407
 6469SOL    HW231044   3.820   1.000   2.296  0.6273 -0.4428 -2.1114
 6470SOL     OW31045   3.544   3.163  11.684  0.3560  0.1032  0.7279
 6470SOL    HW131046   3.541   3.233  11.750  1.9431 -1.6785  2.6596
 6470SOL    HW231047   3.452   3.137  11.678  0.0353  0.9032  2.1398
 6471SOL     OW31048   4.028   2.005  17.213 -0.1984 -1.0989  0.2323
 6471SOL    HW131049   4.037   1.966  17.126 -0.7534  0.8169 -0.6723
 6471SOL    HW231050   3.935   2.026  17.222  0.6164  2.0609  1.2499
 6472SOL     OW31051   4.373   3.202  11.281  0.0707  0.0638 -0.5141
 6472SOL    HW131052   4.286   3.240  11.271  0.4096  0.5725 -1.5014
 6472SOL    HW231053   4.433   3.264  11.240  0.3278  0.3784  0.3371
 6473SOL     OW31054   2.735   4.144   4.997 -0.2866 -0.5268  0.1377
 6473SOL    HW131055   2.686   4.219   4.961  2.4701  0.7104 -1.0995
 6473SOL    HW231056   2.742   4.085   4.922  1.6847  1.1265 -0.9946
 6474SOL     OW31057   1.269   4.070   3.317 -0.9245  0.0697 -0.2455
 6474SOL    HW131058   1.253   3.978   3.296 -1.2794  0.0762 -0.0074
 6474SOL    HW231059   1.268   4.060   3.412 -1.0834 -0.8211 -0.3424
 6475SOL     OW31060   3.628   0.858   1.992  0.1509 -0.1535  0.3802
 6475SOL    HW131061   3.721   0.877   2.005  0.3493 -1.1269  0.4355
 6475SOL    HW231062   3.616   0.767   2.020 -2.4803  0.8351  2.4188
 6476SOL     OW31063   1.597   3.492  17.591  0.5838 -0.2192 -0.1273
 6476SOL    HW131064   1.645   3.562  17.547 -0.6714  0.7121  0.0003
 6476SOL    HW231065   1.547   3.550  17.649  2.2654 -0.1057  1.2400
 6477SOL     OW31066   3.053   4.271   4.203 -0.2639 -0.6124 -0.1532
 6477SOL    HW131067   3.137   4.284   4.160  0.6131 -2.1012  1.1033
 6477SOL    HW231068   3.010   4.255   4.119 -0.9017  1.9075 -0.3274
 6478SOL     OW31069   3.826   0.409   3.813  0.5468 -0.3740 -0.0095
 6478SOL    HW131070   3.757   0.348   3.785 -0.3466  0.9062 -0.6226
 6478SOL    HW231071   3.808   0.494   3.772  2.5275 -0.5324 -1.1605
 6479SOL     OW31072   4.342   2.391  13.292  0.1507  0.3504  0.0140
 6479SOL    HW131073   4.313   2.303  13.269  1.7038  0.2418 -1.4817
 6479SOL    HW231074   4.418   2.367  13.344 -1.2951 -0.7547  1.6150
 6480SOL     OW31075   0.780   3.860   4.049  0.1456 -0.1700 -0.0616
 6480SOL    HW131076   0.752   3.950   4.032 -1.6970 -0.7065  0.0856
 6480SOL    HW231077   0.723   3.832   4.121 -0.7039 -1.6090 -1.3037
 6481SOL     OW31078   1.829   2.348   7.900  0.2572 -0.1700 -0.2112
 6481SOL    HW131079   1.825   2.304   7.985 -1.3320 -1.6338 -1.0475
 6481SOL    HW231080   1.867   2.277   7.848  1.4575  0.3469 -0.0422
 6482SOL     OW31081   1.701   4.734   3.298 -0.0105 -0.0415 -0.0382
 6482SOL    HW131082   1.625   4.677   3.309 -0.0850 -0.0524 -0.5992
 6482SOL    HW231083   1.730   4.728   3.389  1.2963 -0.1137 -0.4598
 6483SOL     OW31084   3.078   1.756   6.358 -0.1425  0.0741  0.1327
 6483SOL    HW131085   3.041   1.740   6.445  1.4784 -0.5626  0.6888
 6483SOL    HW231086   3.170   1.768   6.379  0.4427 -0.0641 -2.3555
 6484SOL     OW31087   0.043   2.447   4.497 -0.0971 -0.1938  0.0055
 6484SOL    HW131088   0.053   2.542   4.502  0.9378 -0.2102 -1.7801
 6484SOL    HW231089   4.692   2.429   4.461  0.0019 -0.2411 -0.2070
 6485SOL     OW31090   2.229   1.455   5.105  0.3278 -0.0707  0.1965
 6485SOL    HW131091   2.223   1.458   5.201 -1.2048  1.0280  0.0692
 6485SOL    HW231092   2.226   1.360   5.103  1.8916 -0.0548 -1.8839
 6486SOL     OW31093   1.074   1.559   1.907  0.3766 -0.1552  0.2156
 6486SOL    HW131094   1.062   1.545   1.813  1.4441 -1.2968  0.2429
 6486SOL    HW231095   1.018   1.634   1.926  1.1345  1.4375 -3.8757
 6487SOL     OW31096   3.525   3.833   3.574 -0.4754  0.6040 -0.2362
 6487SOL    HW131097   3.606   3.784   3.561 -0.2048  1.2710 -1.0920
 6487SOL    HW231098   3.524   3.873   3.487  2.8178 -0.9661 -1.0036
 6488SOL     OW31099   2.225   3.211   6.396 -0.3997  0.2810  0.0233
 6488SOL    HW131100   2.181   3.295   6.411 -1.2005 -0.3075  0.9408
 6488SOL    HW231101   2.223   3.197   6.302 -0.3496  2.0142 -0.2353
 6489SOL     OW31102   1.800   0.946   4.234  0.4911 -0.0183  0.1767
 6489SOL    HW131103   1.808   1.041   4.227 -0.5547 -0.0362 -1.4632
 6489SOL    HW231104   1.761   0.927   4.319 -2.4040 -0.6397 -1.2871
 6490SOL     OW31105   2.423   1.850   5.295  0.5875 -0.1890 -0.0618
 6490SOL    HW131106   2.427   1.831   5.201 -2.1632  2.3422 -0.6860
 6490SOL    HW231107   2.417   1.760   5.326 -1.6166 -0.1546 -0.3916
 6491SOL     OW31108   4.724   3.577   6.113  0.1098  0.8883  0.3554
 6491SOL    HW131109   0.022   3.494   6.081  0.6578  1.3810 -0.3224
 6491SOL    HW231110   4.641   3.576   6.067  0.3504 -2.0747 -0.0018
 6492SOL     OW31111   4.268   2.578   3.413  0.4922 -0.2629 -0.4776
 6492SOL    HW131112   4.274   2.657   3.467 -1.1373 -1.1669  1.0254
 6492SOL    HW231113   4.201   2.611   3.352  0.4746 -2.2373 -1.5182
 6493SOL     OW31114   3.876   2.772   0.914  0.5200 -0.3850 -0.2632
 6493SOL    HW131115   3.825   2.734   0.986 -0.4617  2.1362  0.3748
 6493SOL    HW231116   3.917   2.691   0.884 -1.9883 -1.0208 -1.9906
 6494SOL     OW31117   3.535   2.346   4.308  0.3719  0.0987 -0.4387
 6494SOL    HW131118   3.544   2.329   4.401  2.3777 -0.0331 -0.6512
 6494SOL    HW231119   3.494   2.264   4.281  1.5592 -0.9321  0.9083
 6495SOL     OW31120   1.755   1.595   3.997 -0.4251 -0.3620 -0.3707
 6495SOL    HW131121   1.676   1.580   3.945 -0.6392 -2.5771  0.6304
 6495SOL    HW231122   1.799   1.662   3.944  0.1168 -2.0177 -2.0135
 6496SOL     OW31123   1.349   4.579   9.105 -0.1338  0.0084 -0.0846
 6496SOL    HW131124   1.356   4.506   9.167  1.1769 -0.3434 -0.6378
 6496SOL    HW231125   1.430   4.624   9.128 -0.6148  0.2962  1.0387
 6497SOL     OW31126   2.185   1.957  17.234  0.1809 -0.1666  0.0441
 6497SOL    HW131127   2.188   2.011  17.313 -0.2992  0.9406 -0.6974
 6497SOL    HW231128   2.123   1.887  17.254  1.7113 -0.9803  1.9652
 6498SOL     OW31129   1.933   1.339   7.270  0.4715 -0.2255 -0.4095
 6498SOL    HW131130   1.919   1.350   7.364 -1.7264 -0.3832 -0.7159
 6498SOL    HW231131   1.854   1.381   7.235  1.4594  1.2878 -0.8444
 6499SOL     OW31132   0.546   0.980   6.801  0.4259 -0.6987  0.0631
 6499SOL    HW131133   0.637   1.009   6.799  0.5809 -1.1749  0.0873
 6499SOL    HW231134   0.554   0.899   6.751  1.9376 -0.0396 -0.7413
 6500SOL     OW31135   1.057   4.258   6.218 -0.4122  0.0066 -0.1713
 6500SOL    HW131136   1.133   4.199   6.220  1.7800  2.8985  2.2776
 6500SOL    HW231137   0.983   4.199   6.212 -0.2234 -0.3276  0.8247
 6501SOL     OW31138   1.273   3.996   1.704 -0.2643 -0.0391 -0.0488
 6501SOL    HW131139   1.191   3.955   1.677  1.7918 -2.2330 -3.0737
 6501SOL    HW231140   1.301   3.941   1.777  0.2761 -2.9200 -2.4521
 6502SOL     OW31141   0.312   1.508   6.883  0.0325 -0.7465  0.3265
 6502SOL    HW131142   0.352   1.424   6.859 -0.0929  0.1866 -3.1678
 6502SOL    HW231143   0.386   1.568   6.893  0.2523 -0.6340 -1.9545
 6503SOL     OW31144   0.487   1.373   7.312  0.5944  0.0889 -0.7808
 6503SOL    HW131145   0.558   1.355   7.373  0.2540 -0.0302 -0.4221
 6503SOL    HW231146   0.511   1.307   7.248 -2.6146 -0.2627 -1.6402
 6504SOL     OW31147   3.999   0.020   3.364 -0.5005  0.1283  0.5409
 6504SOL    HW131148   4.055   4.706   3.305 -0.0186  0.4357  0.7362
 6504SOL    HW231149   3.926   0.030   3.304  1.8595 -0.3853 -2.4034
 6505SOL     OW31150   1.038   4.443   5.953  0.3342 -0.1803 -0.7545
 6505SOL    HW131151   1.031   4.374   6.019 -1.6001  1.2863  0.6021
 6505SOL    HW231152   1.076   4.507   6.013 -0.5519  1.8348 -2.3405
 6506SOL     OW31153   3.936   4.040   8.646  0.3183  0.4101  0.3122
 6506SOL    HW131154   4.022   4.068   8.616 -0.5207  2.4717 -0.1317
 6506SOL    HW231155   3.883   4.040   8.567  2.4514  2.3573 -1.1108
 6507SOL     OW31156   1.276   0.106   8.658  0.1144 -0.0441  0.2463
 6507SOL    HW131157   1.302   0.020   8.623 -0.4518  0.2446 -0.8729
 6507SOL    HW231158   1.257   0.081   8.748  1.9409 -0.6263  0.4712
 6508SOL     OW31159   1.819   1.133   1.950  0.2606 -0.0179  1.1160
 6508SOL    HW131160   1.724   1.123   1.945  0.4292 -0.3023 -1.8860
 6508SOL    HW231161   1.824   1.185   2.030  0.8006  2.8002 -0.7479
 6509SOL     OW31162   1.727   2.678  11.858 -0.1504  0.3734  0.0569
 6509SOL    HW131163   1.700   2.732  11.784 -0.9086 -2.3674 -1.6369
 6509SOL    HW231164   1.677   2.597  11.845 -1.4350  0.9810  1.1868
 6510SOL     OW31165   2.163   2.316  11.431 -0.5085  0.2416  0.1396
 6510SOL    HW131166   2.245   2.276  11.458  0.8180  2.1230 -1.0923
 6510SOL    HW231167   2.114   2.245  11.389 -1.8811  0.2904  1.6783
 6511SOL     OW31168   1.563   3.812   4.375 -0.7645 -0.0561 -0.6128
 6511SOL    HW131169   1.524   3.775   4.455  0.0457  1.6326  0.5650
 6511SOL    HW231170   1.613   3.889   4.402 -1.7146  0.0980  0.7651
 6512SOL     OW31171   4.440   0.857   2.644 -0.0420  0.4693 -0.4552
 6512SOL    HW131172   4.403   0.825   2.562 -2.3233  2.1506 -0.0862
 6512SOL    HW231173   4.437   0.951   2.625  0.0105  0.7733  1.1029
 6513SOL     OW31174   0.850   1.428  15.701 -0.4607 -0.3648 -0.3815
 6513SOL    HW131175   0.803   1.493  15.649  0.3820  0.7777  0.3004
 6513SOL    HW231176   0.942   1.452  15.694 -1.2321  2.6571 -0.1455
 6514SOL     OW31177   2.547   1.974   6.480 -0.1298  0.4390 -0.2421
 6514SOL    HW131178   2.584   2.048   6.432 -0.8542  1.4392  0.7337
 6514SOL    HW231179   2.478   2.022   6.526  1.5428  1.2690  1.3895
 6515SOL     OW31180   0.638   0.457   6.835  0.5272  0.4628 -0.0005
 6515SOL    HW131181   0.573   0.417   6.779  0.9841 -0.5974  0.2270
 6515SOL    HW231182   0.608   0.459   6.926  0.3244  0.2727 -0.0645
 6516SOL     OW31183   2.068   2.662   5.109  0.2040  0.6695  0.2386
 6516SOL    HW131184   2.042   2.746   5.071  1.0108  0.2793 -1.1620
 6516SOL    HW231185   2.105   2.614   5.035  0.9507  0.6487  0.6253
 6517SOL     OW31186   1.773   2.483   4.255 -0.3441  0.1702  0.4086
 6517SOL    HW131187   1.750   2.453   4.167 -0.4741 -0.7845  0.7685
 6517SOL    HW231188   1.697   2.530   4.290 -1.1516 -0.8042 -0.0570
 6518SOL     OW31189   2.661   2.666   4.494  0.1001 -0.1888 -0.1590
 6518SOL    HW131190   2.639   2.580   4.458  2.1863 -1.0873  0.6825
 6518SOL    HW231191   2.651   2.727   4.421 -0.2750 -1.3585 -1.0900
 6519SOL     OW31192   4.366   0.419   4.897  0.1921 -0.2115 -0.1063
 6519SOL    HW131193   4.282   0.464   4.891 -0.5422 -0.9868  4.3024
 6519SOL    HW231194   4.412   0.474   4.960 -0.7620  0.8536 -0.3516
 6520SOL     OW31195   0.718   1.253  17.422  0.3622 -0.9032  0.2771
 6520SOL    HW131196   0.739   1.329  17.476  0.8651 -1.0999  0.3574
 6520SOL    HW231197   0.659   1.277  17.350 -1.2542 -2.2626  1.1281
 6521SOL     OW31198   1.897   0.539   5.526  0.5593 -0.0737  0.4778
 6521SOL    HW131199   1.895   0.534   5.431  2.5042  2.2230  0.3045
 6521SOL    HW231200   1.983   0.504   5.547 -0.0146 -1.4810  0.4392
 6522SOL     OW31201   0.443   4.156  16.039  0.2141  0.4576 -0.4194
 6522SOL    HW131202   0.450   4.246  16.005 -1.9065 -0.3132 -2.8553
 6522SOL    HW231203   0.458   4.162  16.133 -0.9654 -0.1810 -0.1945
 6523SOL     OW31204   1.784   4.374  15.734  0.5210  0.2540  0.3184
 6523SOL    HW131205   1.864   4.424  15.750  0.7312 -0.3768  1.2533
 6523SOL    HW231206   1.738   4.437  15.679  0.5589  0.3054  0.3457
 6524SOL     OW31207   2.171   1.677   2.375  0.7209  0.6493 -0.2520
 6524SOL    HW131208   2.107   1.731   2.328 -2.3373 -0.9406  2.0854
 6524SOL    HW231209   2.186   1.609   2.309  0.2253  1.3585 -1.1036
 6525SOL     OW31210   4.421   2.164   2.450  0.1043  0.0205 -0.1073
 6525SOL    HW131211   4.488   2.119   2.399 -1.6350 -2.1702 -0.4789
 6525SOL    HW231212   4.345   2.178   2.393 -0.0407 -0.1941  0.0334
 6526SOL     OW31213   3.622   0.904   9.053 -0.2186 -0.5887 -0.4258
 6526SOL    HW131214   3.612   0.918   8.958 -1.7400 -0.2410 -0.2018
 6526SOL    HW231215   3.584   0.986   9.084 -1.2999 -0.6811 -1.5014
 6527SOL     OW31216   3.540   4.360   7.397  0.2703  0.5075  0.0404
 6527SOL    HW131217   3.536   4.455   7.389 -1.3866  0.2710 -1.7807
 6527SOL    HW231218   3.534   4.366   7.493 -2.8519 -0.4570 -0.0940
 6528SOL     OW31219   3.207   1.452  12.366  0.2075  0.1950  0.3793
 6528SOL    HW131220   3.275   1.421  12.306 -0.5793 -1.1302  0.1836
 6528SOL    HW231221   3.158   1.372  12.386 -0.2678  0.7542  1.4610
 6529SOL     OW31222   4.575   3.480  13.363  0.3177  0.4249  0.3434
 6529SOL    HW131223   4.666   3.510  13.358 -0.4551  2.3138 -2.2589
 6529SOL    HW231224   4.568   3.429  13.444 -0.1616  0.3889  0.2784
 6530SOL     OW31225   3.279   1.971  15.157 -0.1651  0.4004  0.3062
 6530SOL    HW131226   3.275   2.045  15.217  1.3464  0.5131  0.2628
 6530SOL    HW231227   3.375   1.968  15.165 -0.1865  1.8782  1.0742
 6531SOL     OW31228   1.476   0.536   5.564 -0.4154  0.1042  0.7250
 6531SOL    HW131229   1.393   0.512   5.606 -0.1115 -2.2525 -0.0368
 6531SOL    HW231230   1.446   0.619   5.526 -1.1079  0.2698  1.6280
 6532SOL     OW31231   4.057   4.359   7.107 -0.0700  0.6434 -0.2726
 6532SOL    HW131232   4.084   4.443   7.145 -1.8182  0.7442  0.7237
 6532SOL    HW231233   4.093   4.306   7.179  2.0559  1.3948 -0.7814
 6533SOL     OW31234   3.698   0.748  10.052  0.1870 -0.6329  0.6334
 6533SOL    HW131235   3.680   0.664  10.010  0.0177 -0.8838  1.2085
 6533SOL    HW231236   3.793   0.749  10.062  0.0165  1.1297  2.1807
 6534SOL     OW31237   2.195   2.222  15.789  0.3384 -0.3119 -0.3928
 6534SOL    HW131238   2.135   2.150  15.806 -0.0559 -0.3845 -2.1142
 6534SOL    HW231239   2.187   2.284  15.862 -0.8976 -0.2596 -0.5603
 6535SOL     OW31240   1.018   4.688  17.569  0.5625 -0.3868 -0.2867
 6535SOL    HW131241   1.098   4.716  17.612  0.0566 -1.2190  1.1875
 6535SOL    HW231242   1.018   4.598  17.601  2.5191 -1.2780 -2.7501
 6536SOL     OW31243   1.086   4.249   5.453 -0.1498  0.3879  0.2746
 6536SOL    HW131244   1.104   4.196   5.531  0.4084  0.8468  0.4543
 6536SOL    HW231245   1.147   4.322   5.461 -0.2233  0.4699  0.0709
 6537SOL     OW31246   0.807   3.603   9.745 -0.3156 -0.2766 -0.1004
 6537SOL    HW131247   0.864   3.607   9.668  2.1160  1.8097  1.7915
 6537SOL    HW231248   0.873   3.639   9.806 -0.8829  0.7431 -0.0994
 6538SOL     OW31249   2.797   0.290   1.936 -0.1741  0.1142 -0.3803
 6538SOL    HW131250   2.794   0.246   2.021 -0.0574  0.3973 -0.2305
 6538SOL    HW231251   2.890   0.285   1.915 -0.1571 -1.2167  0.0211
 6539SOL     OW31252   4.230   4.441   8.385 -0.0195 -0.2037 -0.4740
 6539SOL    HW131253   4.230   4.456   8.290  1.4045  0.0724 -0.4417
 6539SOL    HW231254   4.191   4.521   8.419 -0.0605 -0.5704  0.3207
 6540SOL     OW31255   1.244   1.458   8.037  0.1291 -0.1622 -0.4826
 6540SOL    HW131256   1.226   1.543   8.078  0.7635  0.2570 -1.0891
 6540SOL    HW231257   1.214   1.477   7.949  0.3649 -0.1618 -0.5616
 6541SOL     OW31258   1.353   3.583  10.129 -0.6524  0.0627  0.1199
 6541SOL    HW131259   1.393   3.540  10.053 -0.1861  1.1123 -0.2291
 6541SOL    HW231260   1.316   3.665  10.097 -2.5979  0.3889  3.1884
 6542SOL     OW31261   1.032   3.512   3.563  0.9170  0.2213  0.2032
 6542SOL    HW131262   1.120   3.477   3.580 -1.2517 -3.5721  3.5974
 6542SOL    HW231263   1.033   3.503   3.468  1.7957 -1.5735  0.3783
 6543SOL     OW31264   4.444   3.616   8.463  0.6771 -0.1669 -0.8632
 6543SOL    HW131265   4.359   3.573   8.476  0.3015  0.7277 -0.3828
 6543SOL    HW231266   4.503   3.559   8.511  0.3568 -0.3313 -0.6656
 6544SOL     OW31267   0.895   0.438   7.164 -0.2720  0.4308 -0.3808
 6544SOL    HW131268   0.981   0.399   7.151 -0.8359 -0.4936 -1.2909
 6544SOL    HW231269   0.910   0.480   7.249  3.5676 -1.6968 -0.0149
 6545SOL     OW31270   0.860   4.370   7.921  0.0546 -0.0693 -0.8125
 6545SOL    HW131271   0.890   4.433   7.987 -0.1726 -1.6876  0.8136
 6545SOL    HW231272   0.942   4.323   7.908  0.8955  1.1135  0.1475
 6546SOL     OW31273   4.015   4.413   3.022  0.3912 -0.1952  0.6640
 6546SOL    HW131274   4.075   4.339   3.025 -0.5675 -0.9871  0.1503
 6546SOL    HW231275   3.958   4.373   2.957  1.1350  0.0800 -0.1488
 6547SOL     OW31276   3.860   0.381   7.850  0.3464  0.3438  0.1170
 6547SOL    HW131277   3.927   0.321   7.818  0.7338  0.6203  0.4035
 6547SOL    HW231278   3.921   0.449   7.881  0.1584  1.3533 -1.7074
 6548SOL     OW31279   2.284   4.501   9.938 -0.3298 -0.0308 -0.3421
 6548SOL    HW131280   2.189   4.489   9.947 -0.4920  2.2506  1.0072
 6548SOL    HW231281   2.315   4.455  10.016 -1.2716 -0.4412 -0.2076
 6549SOL     OW31282   4.178   1.471  15.587 -0.1584 -0.4650  0.4558
 6549SOL    HW131283   4.167   1.378  15.606 -2.5411  0.0447  1.5873
 6549SOL    HW231284   4.237   1.463  15.512  0.8725 -2.7963  1.5534
 6550SOL     OW31285   4.632   0.123   2.799  0.0838  0.0144  0.3074
 6550SOL    HW131286   4.680   0.146   2.720 -1.6788 -1.2554 -1.1620
 6550SOL    HW231287   4.599   0.035   2.779 -1.1201  0.0678  2.0986
 6551SOL     OW31288   1.903   4.314  12.127 -0.6900  0.3606  0.3969
 6551SOL    HW131289   1.878   4.232  12.085  0.7084 -0.2879  0.8427
 6551SOL    HW231290   1.920   4.360  12.045  0.0454  0.4448  0.5993
 6552SOL     OW31291   2.158   3.411   5.901 -0.8059  0.3378 -0.2958
 6552SOL    HW131292   2.187   3.477   5.963 -1.3711  0.7095 -0.4214
 6552SOL    HW231293   2.068   3.435   5.880 -0.1277  1.7053 -1.5714
 6553SOL     OW31294   2.391   1.563   7.553  0.0936 -0.6527  0.2272
 6553SOL    HW131295   2.304   1.529   7.533  0.4117 -1.9408  1.0132
 6553SOL    HW231296   2.380   1.652   7.521  0.3223 -0.9782 -0.7761
 6554SOL     OW31297   3.781   0.792  11.289  0.3531  0.0200 -0.0302
 6554SOL    HW131298   3.794   0.744  11.207 -0.7355  0.7145 -0.6129
 6554SOL    HW231299   3.735   0.729  11.344 -0.5122  0.1876 -0.5676
 6555SOL     OW31300   0.768   0.254   3.290 -0.1601  0.3108  0.1173
 6555SOL    HW131301   0.685   0.279   3.250 -0.8686 -0.2233  1.2665
 6555SOL    HW231302   0.756   0.159   3.288  1.9283  0.0115  1.5782
 6556SOL     OW31303   0.638   2.922  16.093  0.0658  0.1492  0.2316
 6556SOL    HW131304   0.671   2.939  16.181 -0.6946  0.1881  0.5118
 6556SOL    HW231305   0.548   2.950  16.111 -0.4245 -0.6784 -0.9388
 6557SOL     OW31306   4.680   2.713   3.012  0.3727  0.4706 -0.2907
 6557SOL    HW131307   4.688   2.744   2.922 -0.2507 -2.7331 -1.4408
 6557SOL    HW231308   4.590   2.690   3.038  1.0165 -1.1522  0.4995
 6558SOL     OW31309   4.600   3.261   3.641  0.4075  0.3556  0.3337
 6558SOL    HW131310   4.621   3.169   3.627  1.1071  0.5119  0.3576
 6558SOL    HW231311   4.583   3.254   3.734 -0.1178 -1.1544  0.1164
 6559SOL     OW31312   0.764   2.466   6.192 -0.2430  0.0402  0.3375
 6559SOL    HW131313   0.720   2.512   6.120 -0.8906  0.8352  1.2414
 6559SOL    HW231314   0.837   2.428   6.143  0.7968  3.0260 -0.4370
 6560SOL     OW31315   0.989   0.984   0.048  0.1289 -0.0774  0.1994
 6560SOL    HW131316   0.930   0.987  17.717 -0.6111  0.3622  0.7945
 6560SOL    HW231317   1.033   0.900   0.034  0.1188 -0.1867  0.8126
 6561SOL     OW31318   4.165   4.521   5.433 -0.4030  0.5356 -0.2741
 6561SOL    HW131319   4.105   4.452   5.405 -0.0158  1.0045 -2.2491
 6561SOL    HW231320   4.186   4.555   5.346  0.5346  2.1943  0.5989
 6562SOL     OW31321   0.009   1.389   7.422 -0.1648 -0.1712 -0.5844
 6562SOL    HW131322   4.702   1.470   7.393  1.6187 -0.1750 -3.2787
 6562SOL    HW231323   0.008   1.396   7.517 -2.8550 -1.1943 -0.5277
 6563SOL     OW31324   0.497   3.388   9.115 -0.5315  0.0326  0.0589
 6563SOL    HW131325   0.503   3.294   9.132  0.5022  0.3612  1.5059
 6563SOL    HW231326   0.408   3.393   9.080  0.8906  3.4225 -3.1400
 6564SOL     OW31327   2.456   2.843  13.812  0.0569  0.2219  0.0752
 6564SOL    HW131328   2.445   2.840  13.908  1.7946  0.8007  0.2860
 6564SOL    HW231329   2.368   2.810  13.794 -0.0338  1.0517 -0.9564
 6565SOL     OW31330   0.922   0.456   7.980 -0.6163 -0.1183 -0.4466
 6565SOL    HW131331   0.856   0.401   7.937 -0.3119 -0.4880 -0.4386
 6565SOL    HW231332   0.949   0.512   7.907  0.1701 -0.0226 -0.0773
 6566SOL     OW31333   3.587   3.137   2.915  0.6317  0.0438  0.1259
 6566SOL    HW131334   3.623   3.060   2.872  0.2119 -1.2824  2.1630
 6566SOL    HW231335   3.612   3.123   3.006  0.0534 -1.3285  0.0708
 6567SOL     OW31336   0.803   3.128   6.803  0.6602  0.1819  0.2587
 6567SOL    HW131337   0.719   3.103   6.765 -0.3661  3.5952  0.3202
 6567SOL    HW231338   0.823   3.215   6.768 -2.0639  0.5238 -0.4626
 6568SOL     OW31339   0.398   2.097   6.639  0.0417  0.1433 -0.0594
 6568SOL    HW131340   0.434   2.085   6.551 -1.9656 -4.4732 -0.2233
 6568SOL    HW231341   0.327   2.035   6.629 -1.7763  1.9448  1.6564
 6569SOL     OW31342   1.638   2.068   5.256 -0.0063  0.1777 -0.2305
 6569SOL    HW131343   1.632   1.985   5.209  2.9338  0.9292 -1.9346
 6569SOL    HW231344   1.680   2.117   5.185 -1.6268  2.1279  0.1380
 6570SOL     OW31345   1.584   3.656  16.067  0.1847  0.0625 -0.3016
 6570SOL    HW131346   1.565   3.666  15.973  0.8609  0.1092 -0.4417
 6570SOL    HW231347   1.586   3.749  16.089 -0.5535 -0.2971  1.2233
 6571SOL     OW31348   3.941   2.704   5.829  0.0706  0.0359 -0.6412
 6571SOL    HW131349   3.871   2.641   5.809  0.5962 -0.0608 -2.1611
 6571SOL    HW231350   3.989   2.645   5.887 -2.3369 -3.5520 -2.3060
 6572SOL     OW31351   1.481   1.541   6.934 -0.1897 -0.3782  0.1876
 6572SOL    HW131352   1.502   1.622   6.980 -0.5841 -1.5269  2.3859
 6572SOL    HW231353   1.534   1.551   6.855 -0.0117  0.9537  0.4779
 6573SOL     OW31354   0.546   1.663   1.639  0.2175  0.0457  0.1312
 6573SOL    HW131355   0.572   1.741   1.688 -1.2382  0.2776  0.5631
 6573SOL    HW231356   0.472   1.705   1.595  0.4787  0.2657 -0.0905
 6574SOL     OW31357   4.067   2.784   6.395 -0.2331 -0.5705 -0.0885
 6574SOL    HW131358   4.130   2.826   6.337  1.2901 -0.9122  1.3492
 6574SOL    HW231359   3.991   2.763   6.339 -1.5871 -2.0811  2.3109
 6575SOL     OW31360   3.212   2.013   8.446  0.0626  0.3986  0.0334
 6575SOL    HW131361   3.128   2.010   8.493 -0.4396 -0.1049 -0.9010
 6575SOL    HW231362   3.170   2.024   8.361 -0.4777 -0.3827  0.1990
 6576SOL     OW31363   2.389   2.319   9.034 -0.1031 -0.4265 -0.1322
 6576SOL    HW131364   2.457   2.383   9.052  1.7049 -1.8509 -1.8671
 6576SOL    HW231365   2.315   2.380   9.022 -0.6560 -0.1893  4.7106
 6577SOL     OW31366   1.539   4.415   4.352  0.7903 -0.1963  0.1554
 6577SOL    HW131367   1.607   4.461   4.401 -0.0683  0.5089  0.6832
 6577SOL    HW231368   1.458   4.454   4.385  1.6059  0.8420  0.9456
 6578SOL     OW31369   0.686   1.122  14.137  0.3494  0.3686  0.4174
 6578SOL    HW131370   0.664   1.067  14.062 -0.2142 -0.2696  1.0582
 6578SOL    HW231371   0.598   1.161  14.138  0.0277 -0.3524 -0.0614
 6579SOL     OW31372   0.606   1.219   2.880 -0.3075  0.3565  0.1501
 6579SOL    HW131373   0.684   1.269   2.902 -0.7026  0.0115  2.2848
 6579SOL    HW231374   0.562   1.218   2.965 -1.2758  3.4205 -0.3049
 6580SOL     OW31375   2.982   3.967   7.981  0.1877 -0.2317  0.1169
 6580SOL    HW131376   2.934   4.038   8.025  0.4185  1.2757 -2.0521
 6580SOL    HW231377   3.070   4.002   7.966 -0.1262 -0.0005 -1.1591
 6581SOL     OW31378   0.361   2.367  16.304  0.4358 -0.1351  0.2726
 6581SOL    HW131379   0.380   2.276  16.282  0.5370  0.3290 -1.5455
 6581SOL    HW231380   0.267   2.370  16.287  0.1064 -0.0799  2.0508
 6582SOL     OW31381   0.658   0.085   9.057 -0.1010 -0.8154  0.3066
 6582SOL    HW131382   0.602   0.158   9.084 -1.3818 -1.2289 -1.1926
 6582SOL    HW231383   0.606   0.010   9.088  2.3420 -1.8210  1.9675
 6583SOL     OW31384   2.954   2.146   8.950 -0.0060 -0.2782  0.7629
 6583SOL    HW131385   2.911   2.222   8.989 -1.2923  0.6691 -2.4617
 6583SOL    HW231386   2.898   2.078   8.986 -1.0290  0.7480  1.1041
 6584SOL     OW31387   0.196   4.148   1.775  0.8890 -0.2621 -0.0046
 6584SOL    HW131388   0.199   4.194   1.690 -1.4435 -1.6726 -0.8585
 6584SOL    HW231389   0.110   4.172   1.810  1.7175 -0.7787  2.3401
 6585SOL     OW31390   3.199   0.709   8.637  0.3754  0.1133  0.0105
 6585SOL    HW131391   3.126   0.766   8.613 -0.4628 -0.8005  0.3791
 6585SOL    HW231392   3.244   0.758   8.706  0.4371 -0.1383  0.1485
 6586SOL     OW31393   0.929   0.736  13.786  0.2561 -0.0308  0.3724
 6586SOL    HW131394   0.920   0.647  13.820 -1.4093  0.8431  2.2297
 6586SOL    HW231395   0.839   0.765  13.768  0.5718  1.1192  0.6660
 6587SOL     OW31396   1.810   1.641   7.033  0.4401  0.0253 -0.0398
 6587SOL    HW131397   1.874   1.697   7.078 -0.2837  0.7588  0.0645
 6587SOL    HW231398   1.772   1.596   7.108  1.7101  2.0062  1.7987
 6588SOL     OW31399   0.329   4.378   0.457 -0.2516 -0.5287 -0.7703
 6588SOL    HW131400   0.325   4.402   0.549  0.8672  1.7271 -1.3103
 6588SOL    HW231401   0.290   4.291   0.457 -2.0362  0.2711  2.1604
 6589SOL     OW31402   0.384   3.910   5.012 -0.1087 -0.3771 -0.3605
 6589SOL    HW131403   0.338   3.835   5.052  0.8049  0.0594  1.4893
 6589SOL    HW231404   0.389   3.874   4.924 -1.2874 -3.7040  0.8914
 6590SOL     OW31405   4.350   1.183   9.797 -0.2015  0.0609  0.1276
 6590SOL    HW131406   4.277   1.170   9.736  0.1943 -0.2578 -0.2790
 6590SOL    HW231407   4.326   1.255   9.855  2.3121  1.3632 -0.4426
 6591SOL     OW31408   1.472   2.308   7.178  0.4437 -0.0553 -0.2573
 6591SOL    HW131409   1.439   2.311   7.088 -1.4998 -1.5010  0.4104
 6591SOL    HW231410   1.557   2.272   7.151  1.1586  2.2634 -1.1175
 6592SOL     OW31411   1.640   3.711   9.456 -0.2413 -0.1352 -0.0571
 6592SOL    HW131412   1.639   3.658   9.536  3.0751  1.7412  1.2503
 6592SOL    HW231413   1.705   3.660   9.409  0.4339  3.2895 -2.8501
 6593SOL     OW31414   1.054   2.856   5.548  0.1759  0.5045 -0.0030
 6593SOL    HW131415   0.986   2.854   5.480  0.4692  1.5737 -0.3315
 6593SOL    HW231416   1.072   2.949   5.566 -1.9317  1.5432 -3.2455
 6594SOL     OW31417   2.043   2.293   8.123  0.3772  0.0528 -0.1724
 6594SOL    HW131418   2.027   2.386   8.110 -0.9816 -0.3735 -1.5512
 6594SOL    HW231419   1.949   2.272   8.125  0.0983  1.2708 -0.6377
 6595SOL     OW31420   1.750   4.476  16.973  0.1690 -0.2530  0.3595
 6595SOL    HW131421   1.770   4.561  17.013  0.2714  0.7262 -1.8040
 6595SOL    HW231422   1.676   4.508  16.923  0.5166  1.0389  0.6513
 6596SOL     OW31423   0.898   2.442   9.314 -0.7047 -0.5426 -0.9747
 6596SOL    HW131424   0.805   2.428   9.333  0.1775 -2.5688  1.8241
 6596SOL    HW231425   0.902   2.473   9.223 -0.3380  2.1365 -0.0371
 6597SOL     OW31426   3.737   3.960  15.382 -0.1567 -0.4555  0.4356
 6597SOL    HW131427   3.793   3.983  15.308  1.9854 -0.5920  2.0030
 6597SOL    HW231428   3.676   3.908  15.330 -1.3731 -0.0597  1.4371
 6598SOL     OW31429   3.480   2.904   7.896  0.4109 -0.2902  0.1951
 6598SOL    HW131430   3.571   2.910   7.866  0.4800 -1.9767  0.0614
 6598SOL    HW231431   3.441   2.988   7.873 -2.7562 -0.7788  3.7848
 6599SOL     OW31432   1.985   4.543   5.066 -0.3616 -0.0912 -0.6491
 6599SOL    HW131433   2.010   4.453   5.083  1.0645  0.1394 -1.5169
 6599SOL    HW231434   1.997   4.537   4.971 -2.7260  0.8250 -1.0013
 6600SOL     OW31435   2.978   4.631   1.617 -0.7768 -0.1776 -0.1365
 6600SOL    HW131436   2.900   4.583   1.645 -0.7065 -0.6226 -0.6858
 6600SOL    HW231437   2.936   4.704   1.572  0.7029  0.7203 -0.0312
 6601SOL     OW31438   0.027   2.990   4.692 -0.7074  0.4497 -0.3063
 6601SOL    HW131439   0.014   2.979   4.786  1.4630  0.2551 -0.0291
 6601SOL    HW231440   4.676   3.023   4.668 -0.6810  0.3218 -0.5726
 6602SOL     OW31441   3.710   4.023   7.733 -0.3193  0.5479  0.0484
 6602SOL    HW131442   3.739   4.074   7.658  0.2600  1.4245  0.8541
 6602SOL    HW231443   3.752   3.939   7.715  0.9332  1.3372 -0.7407
 6603SOL     OW31444   4.200   1.434   3.426 -0.6324  0.5139 -0.0628
 6603SOL    HW131445   4.141   1.499   3.388 -2.0320  0.6210  2.2568
 6603SOL    HW231446   4.273   1.446   3.366  0.1519 -2.1409  0.3540
 6604SOL     OW31447   0.033   4.445  15.115  0.4517  0.6127 -0.2893
 6604SOL    HW131448   0.054   4.469  15.206 -2.7394  3.2109 -0.2419
 6604SOL    HW231449   4.728   4.525  15.083 -0.2651  0.4095  0.1108
 6605SOL     OW31450   4.124   0.550   2.210 -0.2432 -0.1228 -0.5996
 6605SOL    HW131451   4.076   0.487   2.156  0.2452 -0.0977 -1.0670
 6605SOL    HW231452   4.052   0.591   2.257 -1.8012 -0.0053 -3.0817
 6606SOL     OW31453   2.745   1.390   8.142 -0.3098  0.7755  0.2304
 6606SOL    HW131454   2.745   1.342   8.060 -2.0999  0.8889  0.1695
 6606SOL    HW231455   2.788   1.322   8.194 -1.1564 -1.2578 -1.7289
 6607SOL     OW31456   1.314   1.981  16.303  0.6088 -0.5889 -0.1559
 6607SOL    HW131457   1.267   1.995  16.384  0.7840  1.5446 -0.4414
 6607SOL    HW231458   1.397   2.023  16.326 -0.4933  1.5803 -0.2129
 6608SOL     OW31459   4.591   1.993   1.696 -0.3789  0.0151  0.6478
 6608SOL    HW131460   4.678   1.978   1.658 -0.7075  1.2193 -0.5624
 6608SOL    HW231461   4.590   2.088   1.703  0.1786  0.0916 -0.2712
 6609SOL     OW31462   0.289   0.425  10.522 -0.4435 -0.0067  0.0342
 6609SOL    HW131463   0.223   0.456  10.584  0.7961 -0.4027  1.5383
 6609SOL    HW231464   0.225   0.400  10.456  0.2121 -1.0437 -0.2062
 6610SOL     OW31465   3.024   0.891  17.154  0.3497 -0.0645  0.8929
 6610SOL    HW131466   2.946   0.853  17.114  1.9290  0.1038 -2.2817
 6610SOL    HW231467   2.997   0.982  17.140 -0.5259 -0.4731 -0.0623
 6611SOL     OW31468   3.887   3.710  16.631  0.7791  0.0470  0.1875
 6611SOL    HW131469   3.908   3.801  16.650 -1.5382  0.2199  2.0203
 6611SOL    HW231470   3.839   3.678  16.708 -1.3536 -0.7236 -1.4835
 6612SOL     OW31471   3.742   3.251   1.875  0.0899  0.0284 -0.0460
 6612SOL    HW131472   3.662   3.230   1.923  0.4669 -1.1634  0.0734
 6612SOL    HW231473   3.801   3.227   1.947  0.4879 -1.6036 -0.9241
 6613SOL     OW31474   0.394   2.621   4.996  0.0017 -0.0675 -0.0990
 6613SOL    HW131475   0.389   2.563   5.072 -1.5642  1.2126  0.7630
 6613SOL    HW231476   0.387   2.548   4.934  1.5785  1.4792 -2.0922
 6614SOL     OW31477   0.179   2.057   4.911 -0.2983 -0.6880 -0.0867
 6614SOL    HW131478   0.270   2.029   4.912  0.0765  0.6276  1.5329
 6614SOL    HW231479   0.159   2.074   5.003  2.1972  0.5809  0.2150
 6615SOL     OW31480   4.159   3.693   5.969  0.0915  0.3506  0.2160
 6615SOL    HW131481   4.163   3.707   5.874 -1.0978 -1.1025 -0.0588
 6615SOL    HW231482   4.164   3.599   5.986  0.6503  0.3889  0.2401
 6616SOL     OW31483   1.428   0.667   6.002 -0.0348 -0.1844  0.2082
 6616SOL    HW131484   1.482   0.608   5.949  0.4435  0.7984 -0.3879
 6616SOL    HW231485   1.346   0.628   6.031 -1.0737  0.1515 -2.3105
 6617SOL     OW31486   2.876   1.204   8.290  0.0735  0.0577  0.3937
 6617SOL    HW131487   2.856   1.204   8.383 -1.6426 -0.5827  0.0371
 6617SOL    HW231488   2.834   1.125   8.254  0.0821  0.7701 -1.2128
 6618SOL     OW31489   4.709   2.158   6.594  0.1766 -0.0117  0.6370
 6618SOL    HW131490   4.732   2.124   6.507  1.1571 -1.1683  1.3408
 6618SOL    HW231491   0.033   2.233   6.594  1.5075 -1.0946 -1.5283
 6619SOL     OW31492   1.390   4.237   0.518 -0.1357  0.1724  0.0342
 6619SOL    HW131493   1.365   4.266   0.606  0.3096  1.7622 -0.3784
 6619SOL    HW231494   1.476   4.199   0.536 -0.2081 -0.1149 -0.2129
 6620SOL     OW31495   1.128   3.189   2.148  0.4798 -0.9105 -0.6420
 6620SOL    HW131496   1.108   3.129   2.219  1.4850 -1.7569 -1.0772
 6620SOL    HW231497   1.052   3.248   2.145  0.4936 -0.8948 -0.6864
 6621SOL     OW31498   2.746   0.520   5.953 -0.6902  0.2359  0.4443
 6621SOL    HW131499   2.686   0.594   5.944 -1.2886 -0.2947  0.0908
 6621SOL    HW231500   2.824   0.558   5.994 -1.1245 -1.7587  3.1252
 6622SOL     OW31501   4.098   3.521   7.813 -0.3144  0.0127  0.5691
 6622SOL    HW131502   4.070   3.437   7.848 -1.7040  0.0207 -0.5537
 6622SOL    HW231503   4.166   3.554   7.872  0.6626  0.3925 -0.7536
 6623SOL     OW31504   2.960   1.435   3.392  0.0454  0.3059  0.4464
 6623SOL    HW131505   2.931   1.360   3.443 -0.2884 -0.1504 -0.4148
 6623SOL    HW231506   3.055   1.438   3.404 -0.1092  2.3840  1.1681
 6624SOL     OW31507   3.530   1.765  13.311 -0.2641 -0.4170  0.2647
 6624SOL    HW131508   3.568   1.812  13.237 -0.9873 -2.9096 -1.6946
 6624SOL    HW231509   3.577   1.683  13.293 -0.9384 -0.9950  1.1953
 6625SOL     OW31510   4.023   3.089   8.285  0.2459 -0.1575 -0.1057
 6625SOL    HW131511   4.082   3.159   8.258  2.3830 -1.4337  1.2814
 6625SOL    HW231512   4.054   3.057   8.370  1.8366  0.2877 -0.5301
 6626SOL     OW31513   0.176   1.889  13.377  0.2827  0.0170  0.3148
 6626SOL    HW131514   0.194   1.954  13.309 -0.9552  0.1234  0.0774
 6626SOL    HW231515   0.220   1.813  13.340  1.5887  0.1011  1.7058
 6627SOL     OW31516   4.045   3.140   2.475 -0.0030  0.2126  0.4714
 6627SOL    HW131517   3.997   3.060   2.454  2.0819 -0.6570 -0.9159
 6627SOL    HW231518   3.978   3.208   2.469 -0.4883 -0.3835 -0.6864
 6628SOL     OW31519   1.204   3.279   5.393 -0.3809 -0.3212  0.5814
 6628SOL    HW131520   1.278   3.237   5.348  0.7019  3.2248 -0.9425
 6628SOL    HW231521   1.157   3.327   5.324 -0.6708 -0.2972  0.7974
 6629SOL     OW31522   2.492   1.176   8.536  0.2805 -0.2109  0.6785
 6629SOL    HW131523   2.518   1.259   8.575  0.5233  0.4209 -0.8113
 6629SOL    HW231524   2.469   1.210   8.449  2.2313  0.7078  0.5173
 6630SOL     OW31525   3.387   3.265   3.202  0.3312 -0.7429 -0.0197
 6630SOL    HW131526   3.438   3.337   3.239  1.7060 -0.8182 -1.7521
 6630SOL    HW231527   3.312   3.307   3.161  1.2912  0.3152 -0.6979
 6631SOL     OW31528   3.463   3.731   3.830 -0.0205 -0.0449 -0.2690
 6631SOL    HW131529   3.479   3.763   3.741 -0.7765  4.1857  1.1584
 6631SOL    HW231530   3.554   3.735   3.861 -0.7292  1.8755  1.5245
 6632SOL     OW31531   1.212   2.865  17.415  0.9503  0.8573 -0.1987
 6632SOL    HW131532   1.300   2.899  17.432  1.6000 -1.2866  0.6854
 6632SOL    HW231533   1.225   2.783  17.462  1.4246 -0.4502 -2.5886
 6633SOL     OW31534   2.659   4.315   3.373 -0.4422 -0.2244 -0.4355
 6633SOL    HW131535   2.690   4.386   3.429 -0.1738 -0.3599 -0.4083
 6633SOL    HW231536   2.627   4.247   3.433  2.0414  1.1760  2.4766
 6634SOL     OW31537   4.414   3.928   8.866  0.0798 -0.1285  0.4259
 6634SOL    HW131538   4.498   3.886   8.846 -0.4315 -1.8282  1.8745
 6634SOL    HW231539   4.359   3.881   8.804  1.5065 -1.8305  0.4327
 6635SOL     OW31540   1.630   4.564   1.903 -0.3730  0.1671  0.7499
 6635SOL    HW131541   1.633   4.649   1.857  2.1270  0.5435  1.6163
 6635SOL    HW231542   1.537   4.563   1.923 -0.3975 -0.8877  0.5589
 6636SOL     OW31543   4.025   1.626   7.729  0.0254  0.2258 -0.3163
 6636SOL    HW131544   4.075   1.705   7.751 -1.6869  0.7603  1.6469
 6636SOL    HW231545   3.936   1.660   7.725 -0.2304 -0.4214 -0.0498
 6637SOL     OW31546   2.592   3.098   4.384 -0.7308  0.4170 -0.3073
 6637SOL    HW131547   2.572   3.055   4.467 -0.7069  3.5539  1.3401
 6637SOL    HW231548   2.510   3.086   4.336 -0.7571 -1.9775  0.3572
 6638SOL     OW31549   3.968   1.191  10.376  0.1578 -0.9225 -0.0467
 6638SOL    HW131550   4.013   1.275  10.374 -0.3443 -0.6507  0.3198
 6638SOL    HW231551   4.024   1.153  10.444  0.8635 -0.2437 -0.2558
 6639SOL     OW31552   3.306   0.610   1.381 -0.2801 -0.3994  0.0388
 6639SOL    HW131553   3.332   0.518   1.387 -2.0196 -0.9732 -1.2730
 6639SOL    HW231554   3.316   0.639   1.472  1.6263  0.5544 -0.4708
 6640SOL     OW31555   0.804   4.195   9.170 -0.1500  1.0446  0.0764
 6640SOL    HW131556   0.808   4.224   9.261 -0.2418  1.9453 -0.2055
 6640SOL    HW231557   0.891   4.154   9.163 -0.7200  0.2914 -2.6952
 6641SOL     OW31558   1.536   0.592   2.592  0.4704 -0.2321 -0.0522
 6641SOL    HW131559   1.586   0.654   2.540  1.4939 -0.1290  1.0389
 6641SOL    HW231560   1.610   0.549   2.635  1.4777  2.3479  0.7938
 6642SOL     OW31561   3.924   4.609   2.247  0.3242  0.3349 -0.8813
 6642SOL    HW131562   3.906   4.689   2.296 -1.6341 -1.0201  0.5959
 6642SOL    HW231563   3.839   4.599   2.204  0.0220 -0.8004 -0.0113
 6643SOL     OW31564   0.627   0.212   1.726 -0.6418 -0.2658  0.6777
 6643SOL    HW131565   0.587   0.170   1.649 -0.4783 -0.3317  0.6285
 6643SOL    HW231566   0.669   0.135   1.763 -0.0341  0.2631  1.0954
 6644SOL     OW31567   3.815   0.090   6.613 -0.1894 -0.0136 -0.3792
 6644SOL    HW131568   3.772   0.167   6.576 -0.7883  2.0171  4.6414
 6644SOL    HW231569   3.756   0.069   6.685 -1.2811  0.4026 -1.1626
 6645SOL     OW31570   2.038   1.672   5.838  0.2893 -0.7299 -0.4979
 6645SOL    HW131571   2.010   1.736   5.902 -1.2111 -0.7056 -1.1780
 6645SOL    HW231572   2.127   1.704   5.824 -0.1594  0.2775 -1.0704
 6646SOL     OW31573   4.112   4.411  13.248 -0.1651  0.0976  0.2150
 6646SOL    HW131574   4.202   4.392  13.275  0.6597  1.4288 -1.5665
 6646SOL    HW231575   4.073   4.456  13.323  0.4895 -0.0113  0.6282
 6647SOL     OW31576   4.034   2.255   7.977  0.0579 -0.1244  0.6592
 6647SOL    HW131577   4.122   2.223   8.000 -0.6960 -0.6491  2.7989
 6647SOL    HW231578   4.063   2.334   7.931  0.3412 -0.4145  0.3379
 6648SOL     OW31579   2.484   2.215   1.867 -0.0743  0.3760 -0.2180
 6648SOL    HW131580   2.434   2.286   1.827 -0.2080  1.2247  1.4463
 6648SOL    HW231581   2.411   2.155   1.882  0.4376 -0.4352 -0.9478
 6649SOL     OW31582   4.500   0.576   7.710  0.2476  0.2194  0.1450
 6649SOL    HW131583   4.584   0.581   7.663  0.0519 -0.9679 -0.3424
 6649SOL    HW231584   4.437   0.540   7.647 -0.4009  1.6482 -0.0056
 6650SOL     OW31585   0.832   4.105   8.829 -0.4285 -0.1129 -0.0173
 6650SOL    HW131586   0.879   4.063   8.758 -0.0616  1.3792 -0.6501
 6650SOL    HW231587   0.805   4.024   8.873  1.8294 -0.8411  0.0292
 6651SOL     OW31588   4.232   2.867   6.197 -0.0781 -0.2007 -0.2131
 6651SOL    HW131589   4.252   2.958   6.177 -0.6906 -0.2163 -0.9154
 6651SOL    HW231590   4.185   2.847   6.116 -0.3778  0.1047 -0.1168
 6652SOL     OW31591   3.325   2.447   9.851 -0.0028  0.8213  0.1858
 6652SOL    HW131592   3.396   2.384   9.848 -1.5976 -1.0687  2.5627
 6652SOL    HW231593   3.364   2.522   9.896 -1.4351  1.2134  0.7778
 6653SOL     OW31594   4.460   2.239  14.447 -0.0774 -0.6579 -0.4455
 6653SOL    HW131595   4.533   2.204  14.395  1.2087  0.9733  0.2741
 6653SOL    HW231596   4.411   2.296  14.388 -2.2448 -1.3087  0.7466
 6654SOL     OW31597   3.891   1.522   5.233  0.6641  0.1764 -0.3703
 6654SOL    HW131598   3.854   1.473   5.306  0.4629 -0.7442 -1.0894
 6654SOL    HW231599   3.979   1.485   5.241  0.4115  0.0366  1.7939
 6655SOL     OW31600   0.206   4.159  15.447  0.0478  0.2076 -0.2835
 6655SOL    HW131601   0.116   4.189  15.432  0.9254  2.6515 -0.5782
 6655SOL    HW231602   0.223   4.198  15.533  1.0324  1.0428 -0.8689
 6656SOL     OW31603   4.701   1.682   7.804  0.3345  0.0980  0.1756
 6656SOL    HW131604   4.714   1.611   7.742  0.7984  1.1631 -0.9360
 6656SOL    HW231605   0.003   1.643   7.883 -2.0691 -1.9439  0.3111
 6657SOL     OW31606   0.021   2.525   4.077 -0.0443  0.4678  0.0705
 6657SOL    HW131607   4.693   2.458   4.052 -1.4362  1.1554  1.8383
 6657SOL    HW231608   0.090   2.469   4.112  0.3887  0.9041 -0.0795
 6658SOL     OW31609   2.921   3.211   3.087 -0.1595  0.1426 -0.5589
 6658SOL    HW131610   2.848   3.150   3.077  0.5964 -0.9502  0.6160
 6658SOL    HW231611   2.936   3.200   3.181  1.9541  0.6247 -0.8399
 6659SOL     OW31612   1.699   1.447  12.324  0.6295  0.1333 -0.1057
 6659SOL    HW131613   1.717   1.353  12.329  0.4351  0.0188 -1.6599
 6659SOL    HW231614   1.782   1.489  12.301  0.5174  1.4265  1.7822
 6660SOL     OW31615   0.386   3.263   3.739  0.2350  0.6455 -0.0306
 6660SOL    HW131616   0.293   3.265   3.717  0.0942  0.4825  0.5349
 6660SOL    HW231617   0.423   3.272   3.652  1.4094 -0.6788  0.3404
 6661SOL     OW31618   3.416   3.539   3.644  0.1423  0.6461 -0.0723
 6661SOL    HW131619   3.448   3.608   3.702 -0.6119  2.4204 -1.7881
 6661SOL    HW231620   3.495   3.493   3.617 -0.8265 -0.5346 -0.8946
 6662SOL     OW31621   1.821   4.728   7.477 -0.7705 -0.5118 -0.2430
 6662SOL    HW131622   1.827   4.732   7.382  1.7297 -1.0565 -0.1047
 6662SOL    HW231623   1.835   4.634   7.489  0.8827 -0.6037 -2.9883
 6663SOL     OW31624   2.825   3.900   7.693  0.0556  0.7205 -0.4056
 6663SOL    HW131625   2.847   3.963   7.762  2.7923 -0.4422 -0.1924
 6663SOL    HW231626   2.901   3.913   7.635  0.0603  0.2102 -0.5108
 6664SOL     OW31627   0.253   1.248   2.350 -0.7200 -0.4319 -0.3415
 6664SOL    HW131628   0.275   1.292   2.432 -2.1023  0.1295 -0.2720
 6664SOL    HW231629   0.158   1.253   2.350 -0.6612  0.6409 -2.8884
 6665SOL     OW31630   4.235   0.550   6.616  0.0487  0.0067 -0.2201
 6665SOL    HW131631   4.330   0.549   6.627 -0.0443  2.3012  0.8316
 6665SOL    HW231632   4.210   0.632   6.659 -3.2089 -1.6414  1.0139
 6666SOL     OW31633   1.673   4.097   1.468 -0.2330  0.1043  0.3243
 6666SOL    HW131634   1.604   4.062   1.412  0.4886 -1.2360  0.2653
 6666SOL    HW231635   1.685   4.185   1.434  0.1471 -0.3744 -0.7941
 6667SOL     OW31636   4.554   0.963   9.633  0.3058 -0.0778  0.2858
 6667SOL    HW131637   4.533   0.907   9.707 -1.2634 -1.2795 -1.0808
 6667SOL    HW231638   4.500   0.928   9.563  0.6192 -0.1449  0.0791
 6668SOL     OW31639   4.499   1.739   4.804 -0.9563 -0.4729  0.3293
 6668SOL    HW131640   4.472   1.818   4.757 -0.8691 -2.0013 -2.2787
 6668SOL    HW231641   4.568   1.781   4.856  0.7815 -1.2297 -1.3443
 6669SOL     OW31642   1.141   0.082   8.931 -0.0967 -0.2744 -0.0973
 6669SOL    HW131643   1.086   0.003   8.927 -0.0720 -0.3549  1.0107
 6669SOL    HW231644   1.089   0.133   8.993  0.0449  0.3071 -0.4658
 6670SOL     OW31645   4.610   3.664  16.789  0.0782  0.1430  0.0575
 6670SOL    HW131646   4.524   3.705  16.804 -0.1886 -0.1271 -0.7455
 6670SOL    HW231647   4.600   3.584  16.841 -1.3856  0.6924  0.6339
 6671SOL     OW31648   1.778   3.932   5.780  0.3443 -0.4801  0.3323
 6671SOL    HW131649   1.818   3.952   5.865 -1.7618  0.0551  1.2074
 6671SOL    HW231650   1.754   4.018   5.744  0.7875 -0.8310 -0.7869
 6672SOL     OW31651   4.113   3.568   9.070  0.0644 -0.0995 -0.3616
 6672SOL    HW131652   4.094   3.493   9.128 -1.1479  0.6967  0.2798
 6672SOL    HW231653   4.042   3.565   9.005 -1.2516 -0.2421  1.0773
 6673SOL     OW31654   1.890   4.432   6.642 -0.1167  0.7221  0.1208
 6673SOL    HW131655   1.962   4.420   6.580  1.2396 -0.0827  1.8398
 6673SOL    HW231656   1.940   4.436   6.724  1.2967 -0.3966 -0.6886
 6674SOL     OW31657   1.846   3.952   9.263  0.4756  0.0489  0.1852
 6674SOL    HW131658   1.897   3.993   9.333 -1.0953  3.6009 -0.7364
 6674SOL    HW231659   1.888   4.003   9.194  3.1404 -1.0099  1.0355
 6675SOL     OW31660   1.722   4.423  16.159 -0.5396  0.3420 -0.5349
 6675SOL    HW131661   1.665   4.369  16.214 -1.7575  2.3358  0.1595
 6675SOL    HW231662   1.789   4.435  16.227 -0.8118  0.0068 -0.2110
 6676SOL     OW31663   2.090   2.161   8.573  0.2308  0.4736 -0.3696
 6676SOL    HW131664   2.067   2.247   8.538 -2.8148  1.1434  3.2778
 6676SOL    HW231665   2.174   2.183   8.611  0.2266  0.9338 -0.6276
 6677SOL     OW31666   2.106   1.801   8.927  0.2815 -0.1003 -0.2718
 6677SOL    HW131667   2.096   1.769   9.017  0.8937 -3.4506 -1.4020
 6677SOL    HW231668   2.191   1.844   8.939  0.8079 -0.9684 -0.8280
 6678SOL     OW31669   0.941   0.050   0.337  0.0390 -0.1303  0.4138
 6678SOL    HW131670   0.902   0.137   0.326 -2.1236 -1.1652  0.0465
 6678SOL    HW231671   0.960   0.054   0.430  1.4752 -1.4252  0.1877
 6679SOL     OW31672   0.857   1.440   5.518  0.3695  0.8983 -0.0930
 6679SOL    HW131673   0.833   1.518   5.566  0.9564  1.3197 -0.4843
 6679SOL    HW231674   0.841   1.474   5.430 -0.0840  0.1013 -0.3184
 6680SOL     OW31675   1.288   3.729  17.203 -0.1671  0.3263 -0.3937
 6680SOL    HW131676   1.349   3.660  17.230 -1.5365  0.1125  2.1812
 6680SOL    HW231677   1.332   3.804  17.163 -0.4992  0.8218  0.1703
 6681SOL     OW31678   1.124   4.651   8.288  0.0691  0.5981  0.0083
 6681SOL    HW131679   1.088   4.573   8.331  0.4879  0.8424  0.7919
 6681SOL    HW231680   1.095   4.725   8.340  1.1193 -1.2386  3.2465
 6682SOL     OW31681   2.198   4.066  15.667  0.4285  0.7002 -0.2091
 6682SOL    HW131682   2.128   4.103  15.613 -2.2517 -1.1838  2.0058
 6682SOL    HW231683   2.204   4.133  15.735 -2.0010 -1.0027  1.6900
 6683SOL     OW31684   4.193   1.267   6.545 -0.2431  0.2994  0.1710
 6683SOL    HW131685   4.248   1.344   6.557 -0.1419  0.0304  1.5361
 6683SOL    HW231686   4.125   1.304   6.489  0.3512  0.3535 -0.5114
 6684SOL     OW31687   4.111   2.547   5.991 -0.0860 -0.1674  0.0766
 6684SOL    HW131688   4.197   2.579   6.019  1.0403 -2.7827 -0.4418
 6684SOL    HW231689   4.082   2.513   6.076  1.1354 -0.2021  0.4783
 6685SOL     OW31690   0.784   1.685  16.795 -0.6576  0.3005 -0.3903
 6685SOL    HW131691   0.862   1.706  16.745  0.2028 -0.1924  0.7596
 6685SOL    HW231692   0.811   1.656  16.882  1.8461  1.0547 -0.9292
 6686SOL     OW31693   3.177   0.556   8.300  0.2496  0.6893 -0.0482
 6686SOL    HW131694   3.184   0.650   8.284 -2.0926  0.6961 -1.1428
 6686SOL    HW231695   3.133   0.560   8.385 -2.1375  0.7213 -1.2787
 6687SOL     OW31696   3.151   4.552   4.191 -0.2523 -1.0340  0.2735
 6687SOL    HW131697   3.165   4.637   4.150 -1.2713 -0.8438  0.3190
 6687SOL    HW231698   3.075   4.518   4.145 -0.2797  0.9418 -1.1200
 6688SOL     OW31699   2.810   2.776   5.549 -0.0467 -0.1784 -0.2130
 6688SOL    HW131700   2.761   2.751   5.628 -0.2750 -1.6654 -0.8229
 6688SOL    HW231701   2.774   2.708   5.492 -1.8292  1.2322 -0.7572
 6689SOL     OW31702   1.516   2.685  14.495 -0.0875 -0.4691  0.2338
 6689SOL    HW131703   1.493   2.765  14.446  2.5540  0.0542 -0.2034
 6689SOL    HW231704   1.544   2.717  14.581  0.2765  1.3415 -0.5365
 6690SOL     OW31705   2.462   1.402  11.614  0.6758  0.1634 -0.4041
 6690SOL    HW131706   2.405   1.407  11.537  3.4303  0.4913 -2.4647
 6690SOL    HW231707   2.541   1.368  11.571  0.3312 -0.9979 -0.1131
 6691SOL     OW31708   3.944   2.495   4.436 -0.1119 -0.0034  0.4512
 6691SOL    HW131709   3.945   2.590   4.449  0.5202  0.2373 -1.3062
 6691SOL    HW231710   3.935   2.466   4.527 -2.5371  0.8745  0.5088
 6692SOL     OW31711   0.554   3.890  11.896 -0.2797  0.2400 -0.2093
 6692SOL    HW131712   0.465   3.858  11.880 -0.2418 -0.5838  1.1971
 6692SOL    HW231713   0.568   3.957  11.829  0.8912  0.6868  0.4876
 6693SOL     OW31714   3.213   4.678   7.787 -0.3524 -0.1188 -0.8456
 6693SOL    HW131715   3.218   4.664   7.692  2.1930  0.5123 -0.8154
 6693SOL    HW231716   3.161   4.602   7.813  0.9560 -0.6741  0.1416
 6694SOL     OW31717   0.017   1.490   5.100  0.6967  0.1220 -0.0049
 6694SOL    HW131718   0.058   1.575   5.113 -0.4398  0.7451 -0.4477
 6694SOL    HW231719   0.064   1.431   5.159  1.8933  0.2407 -0.8572
 6695SOL     OW31720   3.578   3.603  13.356 -0.0243  0.1480 -0.5238
 6695SOL    HW131721   3.651   3.645  13.309  0.6345 -0.5329 -0.1163
 6695SOL    HW231722   3.498   3.630  13.310 -0.7038  0.7665  1.0363
 6696SOL     OW31723   3.502   3.487   4.443  0.0065  0.3248 -0.2968
 6696SOL    HW131724   3.454   3.423   4.390  0.8154  0.9993 -1.8348
 6696SOL    HW231725   3.493   3.550   4.372 -0.2372 -1.1425 -1.5614
 6697SOL     OW31726   0.688   3.371   0.989 -0.2487  0.0422  0.3446
 6697SOL    HW131727   0.718   3.419   0.912 -0.1415 -0.6315 -0.0353
 6697SOL    HW231728   0.723   3.424   1.060  0.1944  1.6467 -1.0654
 6698SOL     OW31729   4.060   0.494   6.836 -0.5177  0.2971 -0.3923
 6698SOL    HW131730   4.148   0.469   6.810  0.1571  3.1898 -0.9135
 6698SOL    HW231731   4.006   0.417   6.820  0.3891 -1.2181  3.7022
 6699SOL     OW31732   2.038   1.663   8.707  0.3069  0.3502  0.2716
 6699SOL    HW131733   2.071   1.705   8.786  1.5213  1.9698 -1.1125
 6699SOL    HW231734   2.100   1.687   8.639  1.3236 -0.9734  0.7269
 6700SOL     OW31735   4.474   4.000   0.348  0.1149 -0.0697 -0.1283
 6700SOL    HW131736   4.386   3.963   0.362  1.3604 -2.3250  1.8183
 6700SOL    HW231737   4.481   4.051   0.429 -0.0515 -0.6617  0.2603
 6701SOL     OW31738   4.119   2.182  17.464 -0.0595  0.5102  0.0310
 6701SOL    HW131739   4.130   2.087  17.471  3.8651  1.0206  0.6916
 6701SOL    HW231740   4.059   2.190  17.389  0.5667  1.1329 -0.4089
 6702SOL     OW31741   3.749   1.172   8.470 -0.1455  0.3629  0.1446
 6702SOL    HW131742   3.660   1.198   8.446  0.8425  0.6568 -3.1879
 6702SOL    HW231743   3.720   1.090   8.510 -0.9149  0.8367  0.5669
 6703SOL     OW31744   3.608   3.869   6.504 -0.3168 -0.3059  0.1687
 6703SOL    HW131745   3.652   3.856   6.420  1.4966 -1.0255  1.2212
 6703SOL    HW231746   3.678   3.923   6.541  2.7233 -2.0211 -3.0787
 6704SOL     OW31747   1.264   2.384   0.288  0.0743  0.1593  0.1712
 6704SOL    HW131748   1.278   2.290   0.291  3.7511  0.7397  0.1387
 6704SOL    HW231749   1.248   2.402   0.380 -1.9947 -1.8071  0.1914
 6705SOL     OW31750   1.714   4.413   6.426  0.1829  0.4157  0.1450
 6705SOL    HW131751   1.780   4.402   6.495  0.7382  0.2902 -0.4008
 6705SOL    HW231752   1.746   4.358   6.354 -5.0329  0.0817 -1.8802
 6706SOL     OW31753   4.470   2.207   2.988  0.2341 -0.3317  0.0326
 6706SOL    HW131754   4.406   2.276   3.006  1.0292  0.2736  0.5465
 6706SOL    HW231755   4.432   2.179   2.904  0.1690 -1.1351  0.3294
 6707SOL     OW31756   0.728   1.846  16.219 -0.8067  0.3537 -0.2708
 6707SOL    HW131757   0.786   1.817  16.289 -0.0457 -1.0152 -1.4617
 6707SOL    HW231758   0.745   1.772  16.160 -0.5054  1.8894 -2.1194
 6708SOL     OW31759   2.338   4.719   6.745 -0.2568 -0.7193 -0.5436
 6708SOL    HW131760   2.328   4.627   6.721 -0.9951 -0.8592  0.3271
 6708SOL    HW231761   2.275   0.031   6.692  1.3607  0.9583 -0.9394
 6709SOL     OW31762   2.322   0.097  15.990  0.3591 -0.0800  0.0114
 6709SOL    HW131763   2.264   0.050  16.050  1.5891 -0.9078  0.5610
 6709SOL    HW231764   2.386   0.112  16.060 -1.2442  3.6843  0.7168
 6710SOL     OW31765   0.566   3.905   0.407  1.0499  0.1412 -0.0330
 6710SOL    HW131766   0.536   3.821   0.374 -0.3255  0.9962 -0.9479
 6710SOL    HW231767   0.505   3.967   0.367  2.0547  1.3441  0.2584
 6711SOL     OW31768   1.900   2.575   3.026 -0.0712 -0.0112  0.2108
 6711SOL    HW131769   1.910   2.664   2.993 -0.1834 -0.0159  0.1641
 6711SOL    HW231770   1.958   2.521   2.972  2.0301  1.8855  0.5874
 6712SOL     OW31771   1.688   4.648   5.012 -0.0100  0.1987  0.2398
 6712SOL    HW131772   1.636   4.717   5.053  0.0547 -0.5955  1.6660
 6712SOL    HW231773   1.776   4.678   5.033  0.0805 -1.0661  1.6304
 6713SOL     OW31774   3.096   0.384   5.660  0.2831  0.0772  0.5973
 6713SOL    HW131775   3.178   0.354   5.621 -1.1445 -1.3048 -1.3483
 6713SOL    HW231776   3.120   0.477   5.665  2.5538 -0.4438 -0.9153
 6714SOL     OW31777   0.356   1.971   6.257  0.0655  0.3547 -0.4720
 6714SOL    HW131778   0.444   1.947   6.286  0.5053 -0.6040 -2.5886
 6714SOL    HW231779   0.359   1.947   6.165  2.9921 -0.4950 -0.1584
 6715SOL     OW31780   2.440   1.616   0.200  0.0015  0.6786  0.1970
 6715SOL    HW131781   2.459   1.590   0.110 -0.3163 -0.0578  0.3415
 6715SOL    HW231782   2.520   1.659   0.229  0.4075  0.5954 -0.8288
 6716SOL     OW31783   2.876   4.287   8.352 -0.0436 -0.3888  0.1204
 6716SOL    HW131784   2.884   4.381   8.368  0.1170 -0.5976  1.2149
 6716SOL    HW231785   2.942   4.256   8.414 -0.6436 -0.9183  0.4913
 6717SOL     OW31786   2.808   4.229   1.402  0.3428  0.0902  0.3775
 6717SOL    HW131787   2.781   4.139   1.421 -0.4407  0.6655  1.9711
 6717SOL    HW231788   2.902   4.226   1.384  0.6287 -1.8294  2.1863
 6718SOL     OW31789   3.493   1.047   4.110 -0.3509  0.4271  0.1677
 6718SOL    HW131790   3.403   1.045   4.141 -1.1423  0.0087 -2.1918
 6718SOL    HW231791   3.524   1.116   4.169  3.8411 -2.7452  1.6523
 6719SOL     OW31792   4.311   3.797   1.895  0.0035  0.2542 -0.3608
 6719SOL    HW131793   4.397   3.806   1.935  0.2685  2.5509 -1.4799
 6719SOL    HW231794   4.335   3.751   1.815 -0.9078 -2.5148  0.9500
 6720SOL     OW31795   0.306   1.665   3.762  0.1069 -0.5238  0.2388
 6720SOL    HW131796   0.342   1.740   3.810 -1.9300 -0.0041  0.9414
 6720SOL    HW231797   0.277   1.605   3.831  1.0408  0.5773  1.6056
 6721SOL     OW31798   2.412   4.237  16.380  0.0134  0.5966 -0.3246
 6721SOL    HW131799   2.380   4.152  16.351  2.0253 -0.5885  0.9031
 6721SOL    HW231800   2.332   4.284  16.405  1.1884  1.9411  0.8775
 6722SOL     OW31801   2.417   0.353  15.870  0.7618 -0.5490 -0.0333
 6722SOL    HW131802   2.367   0.285  15.914 -0.5201 -0.0756 -0.7311
 6722SOL    HW231803   2.431   0.307  15.788 -1.4679 -0.6826 -0.3304
 6723SOL     OW31804   4.052   1.644  11.377 -0.7833 -0.3924  0.0003
 6723SOL    HW131805   3.991   1.699  11.426  0.0390  0.9695 -0.5328
 6723SOL    HW231806   4.064   1.703  11.303 -0.4308 -0.7864 -0.2586
 6724SOL     OW31807   0.123   1.987   7.358 -0.3219  0.1356  0.0423
 6724SOL    HW131808   0.070   1.958   7.283 -1.5430  0.1447  0.9011
 6724SOL    HW231809   0.204   1.936   7.358 -1.0452 -1.0290  2.8337
 6725SOL     OW31810   2.397   0.479  16.466 -0.4206 -0.3562  0.7943
 6725SOL    HW131811   2.336   0.463  16.538 -1.3823  1.4586  0.3945
 6725SOL    HW231812   2.475   0.440  16.507  0.8763  2.2335  0.8107
 6726SOL     OW31813   0.742   0.788   2.883  0.0829 -0.0879  0.3339
 6726SOL    HW131814   0.720   0.748   2.798 -0.0560 -0.4831  0.5570
 6726SOL    HW231815   0.771   0.874   2.853  0.6351 -0.5769 -0.5499
 6727SOL     OW31816   0.309   2.363   8.472 -0.1996  1.0357 -0.0565
 6727SOL    HW131817   0.364   2.329   8.543 -0.4129 -1.0271 -0.8634
 6727SOL    HW231818   0.253   2.427   8.514  1.1170  1.3144  1.2715
 6728SOL     OW31819   0.973   4.228  10.136  0.2900 -0.2175  0.1691
 6728SOL    HW131820   0.896   4.260  10.090  2.3995  1.7355 -2.0078
 6728SOL    HW231821   0.960   4.133  10.138  0.4928 -0.2349  0.9524
 6729SOL     OW31822   1.892   1.981  14.975 -0.8576  0.0806 -0.1236
 6729SOL    HW131823   1.848   1.934  14.904 -1.4692 -1.4017  1.2239
 6729SOL    HW231824   1.878   2.070  14.943  0.0357  1.1892  2.5209
 6730SOL     OW31825   1.354   1.570   4.296  0.1217 -0.2177 -0.1004
 6730SOL    HW131826   1.300   1.565   4.217  1.4687  0.2314 -1.0477
 6730SOL    HW231827   1.422   1.634   4.278  0.2949  0.2544  2.3743
 6731SOL     OW31828   0.357   0.676   3.283  0.1441 -0.3174 -0.8775
 6731SOL    HW131829   0.286   0.614   3.271 -1.1816  0.9487  0.3873
 6731SOL    HW231830   0.401   0.696   3.200  0.2708  0.3154 -0.6619
 6732SOL     OW31831   1.811   2.215   4.538  0.2149 -0.2430  0.1023
 6732SOL    HW131832   1.855   2.177   4.462  0.2608 -2.4312  1.2149
 6732SOL    HW231833   1.794   2.125   4.567 -3.2987 -0.0993 -1.5586
 6733SOL     OW31834   2.982   0.835   9.434 -0.1568  0.4615 -0.2932
 6733SOL    HW131835   3.032   0.793   9.364  1.5447  2.2355 -0.1272
 6733SOL    HW231836   2.906   0.776   9.433  2.2167 -2.5875 -0.1556
 6734SOL     OW31837   3.074   1.304   8.914  0.3396 -0.0374 -0.3350
 6734SOL    HW131838   2.999   1.244   8.913  0.3061  0.0003  0.0296
 6734SOL    HW231839   3.130   1.242   8.962 -2.1954 -1.9797  0.1355
 6735SOL     OW31840   0.484   2.211   5.305 -0.1191 -0.0373  0.1228
 6735SOL    HW131841   0.531   2.168   5.233  3.2346 -1.5144  3.2090
 6735SOL    HW231842   0.552   2.265   5.344  0.3427 -1.0160  0.6673
 6736SOL     OW31843   1.033   0.200  12.988 -0.4587  0.0357  0.4578
 6736SOL    HW131844   1.037   0.125  13.047 -0.7899 -1.0578 -0.9174
 6736SOL    HW231845   1.116   0.241  13.009  0.3818 -1.7523  0.6412
 6737SOL     OW31846   0.517   0.325   5.935  0.4838 -0.0327 -0.1490
 6737SOL    HW131847   0.586   0.371   5.983  0.5429 -0.3977  0.1215
 6737SOL    HW231848   0.505   0.381   5.858  0.2510  0.7748  0.4799
 6738SOL     OW31849   1.018   1.360   1.403  0.1665 -0.5626  0.3304
 6738SOL    HW131850   1.076   1.288   1.376  2.4005  0.8795  1.2708
 6738SOL    HW231851   1.073   1.429   1.366 -1.0589 -0.5176 -1.3951
 6739SOL     OW31852   4.554   4.612  15.126 -0.2227 -0.0069 -0.3575
 6739SOL    HW131853   4.559   4.577  15.215  0.4729  1.4877  0.1959
 6739SOL    HW231854   4.531   4.703  15.145 -1.5888 -0.9235  2.3755
 6740SOL     OW31855   1.256   2.074   1.206  0.1561  0.2474 -0.4777
 6740SOL    HW131856   1.192   2.049   1.141 -0.0510  0.4164 -0.3402
 6740SOL    HW231857   1.336   2.041   1.164  0.7400  0.4591  0.4395
 6741SOL     OW31858   3.802   0.042   4.859 -0.2748  0.5771 -0.0977
 6741SOL    HW131859   3.774   0.130   4.883 -0.7854  0.3750  0.0519
 6741SOL    HW231860   3.718   4.735   4.874  1.0653 -1.8961  0.3767
 6742SOL     OW31861   0.728   1.984   4.770  0.2683  0.5229  0.1349
 6742SOL    HW131862   0.779   2.009   4.693  2.2971  0.6237  1.4975
 6742SOL    HW231863   0.740   1.889   4.771 -2.1714  0.2127 -0.2563
 6743SOL     OW31864   1.503   1.190   4.196  0.1780  0.2425  0.1584
 6743SOL    HW131865   1.586   1.218   4.236  1.5603 -0.0967 -2.4423
 6743SOL    HW231866   1.516   1.096   4.185  0.9626  0.3027  0.5740
 6744SOL     OW31867   4.263   2.228   0.690 -0.2623 -0.1428  0.2309
 6744SOL    HW131868   4.319   2.298   0.721  0.8885 -0.7615 -0.4660
 6744SOL    HW231869   4.328   2.181   0.637 -0.1607  0.4985 -0.2177
 6745SOL     OW31870   4.008   0.844   5.933 -0.1566 -0.1493  0.5024
 6745SOL    HW131871   3.942   0.912   5.918  0.4896  0.1042 -1.1357
 6745SOL    HW231872   4.056   0.884   6.006  0.5173 -0.4116  0.1931
 6746SOL     OW31873   1.222   3.171   1.623 -0.2079 -0.5932  0.0792
 6746SOL    HW131874   1.279   3.135   1.690  1.1644  0.6110 -0.4491
 6746SOL    HW231875   1.186   3.095   1.578  1.5004 -0.3314 -1.6995
 6747SOL     OW31876   2.960   2.036   8.513 -0.2985  0.0606 -0.6845
 6747SOL    HW131877   2.915   2.042   8.597  2.8267 -1.1329  1.0744
 6747SOL    HW231878   2.913   2.101   8.461  1.2480  1.5837 -0.1713
 6748SOL     OW31879   4.666   1.566  13.741  0.0128 -0.0228 -0.3659
 6748SOL    HW131880   4.663   1.506  13.667  1.7270 -1.5549  0.8104
 6748SOL    HW231881   0.000   1.625  13.714  2.0183 -1.5514  1.5034
 6749SOL     OW31882   2.474   0.917   3.126 -0.1001  0.3787  0.0672
 6749SOL    HW131883   2.478   1.011   3.113 -1.4789  0.8716  3.0357
 6749SOL    HW231884   2.454   0.917   3.220  0.3032  1.9176  0.1426
 6750SOL     OW31885   0.378   1.877   6.015 -0.0484  0.2936 -0.7108
 6750SOL    HW131886   0.319   1.802   6.011 -2.5606  2.1585  1.6016
 6750SOL    HW231887   0.424   1.867   5.931  1.1047  1.2546 -0.1906
 6751SOL     OW31888   1.445   4.572  15.805  0.2560 -0.2250  0.1289
 6751SOL    HW131889   1.488   4.506  15.860 -0.5814 -0.9413 -0.0661
 6751SOL    HW231890   1.495   4.549  15.726  4.0748 -0.1752  2.5382
 6752SOL     OW31891   4.708   0.348  14.075 -0.1250 -0.1558  0.0327
 6752SOL    HW131892   0.055   0.345  14.122 -0.0302 -0.3109 -0.1468
 6752SOL    HW231893   4.657   0.273  14.106 -1.5919  0.1055 -1.7698
 6753SOL     OW31894   3.139   0.626   3.756 -0.4632 -0.0301  0.2168
 6753SOL    HW131895   3.145   0.562   3.826  0.0983 -0.3140 -0.0975
 6753SOL    HW231896   3.140   0.710   3.802  0.7140 -0.4934  1.0207
 6754SOL     OW31897   4.361   2.936   2.011 -0.8689 -0.2142 -0.2520
 6754SOL    HW131898   4.313   2.886   1.945 -1.8092  1.8492 -1.1345
 6754SOL    HW231899   4.303   2.942   2.087  0.6174 -3.5582  1.1599
 6755SOL     OW31900   1.899   1.344   8.058  0.2151  0.6323  0.1408
 6755SOL    HW131901   1.822   1.313   8.106 -1.2601  0.7236 -2.1939
 6755SOL    HW231902   1.907   1.285   7.983 -1.7978  0.0291  0.3969
 6756SOL     OW31903   2.774   0.994  10.211  0.4764  0.3053  0.6545
 6756SOL    HW131904   2.829   0.941  10.153  0.4215 -0.8327  1.6613
 6756SOL    HW231905   2.784   1.066  10.149  0.4650 -0.5869 -0.3953
 6757SOL     OW31906   0.264   3.034   3.013  0.1360  0.0041 -0.8723
 6757SOL    HW131907   0.227   3.018   3.100  1.0313 -0.9273 -0.6548
 6757SOL    HW231908   0.344   3.073   3.049  0.1687 -2.5893  1.8238
 6758SOL     OW31909   2.518   3.031   8.797 -0.3555  0.2814 -0.1283
 6758SOL    HW131910   2.531   3.119   8.763 -0.1380 -0.5082 -2.1176
 6758SOL    HW231911   2.551   2.967   8.733 -1.4247 -2.4428  2.0047
 6759SOL     OW31912   0.421   1.622   3.200  0.0863  0.4842 -0.3290
 6759SOL    HW131913   0.417   1.653   3.290  1.0754  1.1614 -0.5204
 6759SOL    HW231914   0.482   1.690   3.171 -0.1618  1.0240  0.4253
 6760SOL     OW31915   1.687   1.306   5.701  0.7465  0.1770  0.6703
 6760SOL    HW131916   1.641   1.321   5.784 -2.1196 -2.8531 -0.3465
 6760SOL    HW231917   1.658   1.217   5.679  0.2887  0.7101 -0.8479
 6761SOL     OW31918   2.586   0.695   2.759 -0.2117  0.1874  0.3322
 6761SOL    HW131919   2.506   0.715   2.711 -0.3895 -2.0951 -0.3065
 6761SOL    HW231920   2.607   0.607   2.728 -0.3764  0.3011 -0.0940
 6762SOL     OW31921   1.161   4.434   4.946 -0.8383  0.2225 -0.2141
 6762SOL    HW131922   1.168   4.356   5.001 -0.5747  1.3349  1.3354
 6762SOL    HW231923   1.124   4.396   4.867 -0.2633 -1.8761  0.5434
 6763SOL     OW31924   2.390   4.530  12.272 -0.1882 -0.0185  0.2774
 6763SOL    HW131925   2.428   4.478  12.202  0.0441  2.0115 -1.1130
 6763SOL    HW231926   2.304   4.488  12.265 -0.0863 -0.1678 -0.0491
 6764SOL     OW31927   3.908   2.427   8.885  0.4924  0.1064 -0.2089
 6764SOL    HW131928   3.813   2.418   8.888  0.8257 -3.9188 -0.6021
 6764SOL    HW231929   3.928   2.337   8.858 -0.7845 -0.8501  1.9940
 6765SOL     OW31930   1.789   4.197   2.965 -0.0577  0.0488 -0.0460
 6765SOL    HW131931   1.853   4.207   2.895 -0.7089 -1.4480 -0.8382
 6765SOL    HW231932   1.787   4.286   3.000 -1.4232  0.3378 -0.8466
 6766SOL     OW31933   1.608   4.326   3.895  0.0420  0.1356  0.5996
 6766SOL    HW131934   1.625   4.311   3.802  1.6365  1.0885  0.7510
 6766SOL    HW231935   1.629   4.238   3.926  0.5873 -1.0178 -2.9990
 6767SOL     OW31936   3.182   2.318   7.643 -0.5762  0.3609  0.3689
 6767SOL    HW131937   3.145   2.404   7.663 -1.7206 -0.6335  2.5386
 6767SOL    HW231938   3.115   2.272   7.694 -0.2080 -2.7085 -1.8980
 6768SOL     OW31939   1.723   3.038   3.533  0.1017  0.0123 -0.7445
 6768SOL    HW131940   1.657   3.043   3.464 -2.2195  1.1848  1.5647
 6768SOL    HW231941   1.804   3.032   3.481  0.1009  2.7170 -1.0207
 6769SOL     OW31942   4.500   0.709   8.247 -0.0488  0.3441  0.3995
 6769SOL    HW131943   4.565   0.749   8.190 -0.1902  0.3681  0.2529
 6769SOL    HW231944   4.441   0.785   8.257 -1.5799 -0.5478 -1.8035
 6770SOL     OW31945   2.217   1.660   3.336 -0.1786  0.1554  0.1839
 6770SOL    HW131946   2.156   1.667   3.410 -0.2986 -1.0937  0.2112
 6770SOL    HW231947   2.174   1.585   3.296 -0.7315 -0.1542  1.3596
 6771SOL     OW31948   0.613   2.026  15.242 -0.1921  0.6047 -0.0117
 6771SOL    HW131949   0.687   2.062  15.291 -0.5539  0.0028  0.9570
 6771SOL    HW231950   0.545   2.042  15.307 -1.7459 -1.6336 -1.0883
 6772SOL     OW31951   0.846   2.449   8.107  0.0546 -0.7576 -0.1808
 6772SOL    HW131952   0.893   2.528   8.082 -0.0063  0.1747  2.6234
 6772SOL    HW231953   0.891   2.415   8.184 -2.9592  2.0932  2.8379
 6773SOL     OW31954   0.657   1.226   4.078  0.5129 -0.7850 -0.1472
 6773SOL    HW131955   0.713   1.161   4.121 -0.8900 -2.3452 -0.6829
 6773SOL    HW231956   0.572   1.194   4.108  0.9841 -1.3872  0.5693
 6774SOL     OW31957   1.202   4.497   5.530 -0.1758  0.0624 -0.1403
 6774SOL    HW131958   1.196   4.529   5.620 -1.1599 -2.0833  0.5805
 6774SOL    HW231959   1.159   4.569   5.485  0.0118 -0.8834 -1.8069
 6775SOL     OW31960   3.121   0.350  17.592  0.1832  0.5490  0.3516
 6775SOL    HW131961   3.209   0.320  17.569 -0.0324  0.1748  0.0201
 6775SOL    HW231962   3.143   0.440  17.618 -1.5322  1.2390 -0.5765
 6776SOL     OW31963   2.982   3.823   5.957  0.1153 -0.0064 -0.9254
 6776SOL    HW131964   2.976   3.751   5.895  0.6182 -2.1787  1.5231
 6776SOL    HW231965   3.012   3.892   5.898 -0.3518  0.8660 -0.1608
 6777SOL     OW31966   2.548   1.549  17.665 -0.2133 -0.4348 -0.1486
 6777SOL    HW131967   2.576   1.632  17.628 -1.6302 -0.5314 -1.4408
 6777SOL    HW231968   2.602   1.488  17.615  0.0724  0.8405 -1.4054
 6778SOL     OW31969   2.137   1.053  12.961  0.0237 -0.8739 -0.6143
 6778SOL    HW131970   2.186   0.974  12.986 -1.2894 -2.0926 -1.9283
 6778SOL    HW231971   2.207   1.117  12.974 -1.2107  0.5220 -0.9516
 6779SOL     OW31972   0.743   3.615  10.285 -0.2240 -0.0839  0.1615
 6779SOL    HW131973   0.738   3.710  10.282 -1.2369 -0.1536 -0.5768
 6779SOL    HW231974   0.778   3.595  10.372  2.0068  0.0886 -0.7217
 6780SOL     OW31975   3.062   3.456   8.627 -0.0227 -0.2338 -0.2367
 6780SOL    HW131976   2.995   3.510   8.586  1.1075  1.0757 -0.3723
 6780SOL    HW231977   3.051   3.373   8.581 -1.2288  1.1658 -2.4670
 6781SOL     OW31978   2.429   2.960   2.204 -0.6326  0.2477 -0.7251
 6781SOL    HW131979   2.410   2.903   2.130 -1.6546 -0.9395  0.4680
 6781SOL    HW231980   2.412   2.897   2.274  0.1362  0.2275 -0.5524
 6782SOL     OW31981   4.731   1.933   6.116 -0.7402 -0.0008  0.1835
 6782SOL    HW131982   4.693   2.020   6.099 -1.8700 -0.7481 -1.1508
 6782SOL    HW231983   0.021   1.943   6.207 -0.3008  0.7112 -0.0188
 6783SOL     OW31984   3.674   2.946   0.931 -0.4335  0.0329 -0.7544
 6783SOL    HW131985   3.748   2.898   0.894  0.2640  1.9605 -1.9098
 6783SOL    HW231986   3.596   2.896   0.909  0.0352 -1.3887  0.8574
 6784SOL     OW31987   4.376   4.416   3.825 -0.6092 -0.7631 -0.0560
 6784SOL    HW131988   4.301   4.410   3.883 -0.9048 -4.2162 -0.7696
 6784SOL    HW231989   4.451   4.434   3.883 -0.4865 -1.3912 -0.0197
 6785SOL     OW31990   3.631   3.287   6.955  0.0185 -0.1554  0.4325
 6785SOL    HW131991   3.546   3.317   6.986 -1.1344 -1.3579 -1.5709
 6785SOL    HW231992   3.602   3.228   6.886  1.4784 -1.8862  1.2985
 6786SOL     OW31993   0.534   1.293   2.269 -0.2661 -0.0835  0.7458
 6786SOL    HW131994   0.443   1.265   2.282 -0.1882  0.5299  2.6385
 6786SOL    HW231995   0.581   1.225   2.219 -3.0591 -0.5445 -1.2578
 6787SOL     OW31996   1.151   3.666  12.854 -0.4387  0.2576  0.0736
 6787SOL    HW131997   1.217   3.734  12.842 -0.9823  0.8224  0.2906
 6787SOL    HW231998   1.084   3.708  12.800  0.6226  2.8149  0.7547
 6788SOL     OW31999   1.430   1.111   0.068 -0.3324 -0.2404 -0.0573
 6788SOL    HW132000   1.358   1.091   0.128 -0.7359  0.7549 -0.2058
 6788SOL    HW232001   1.399   1.063  17.735 -0.0294 -1.5303  0.6422
 6789SOL     OW32002   1.421   1.480   2.056  0.2449  0.4141  0.2564
 6789SOL    HW132003   1.358   1.439   2.116 -0.2471 -1.1033 -1.3224
 6789SOL    HW232004   1.455   1.546   2.117 -1.0462  0.5236  0.8670
 6790SOL     OW32005   3.952   0.155   1.843  0.1806  0.0237  0.5093
 6790SOL    HW132006   3.991   0.114   1.919  1.5927 -1.6685 -1.1449
 6790SOL    HW232007   3.993   0.240   1.829 -2.0722  0.8541 -1.1366
 6791SOL     OW32008   4.070   4.129   6.970 -0.1376 -0.6104  0.3676
 6791SOL    HW132009   4.077   4.218   7.006 -1.6730 -0.1378 -0.4955
 6791SOL    HW232010   4.044   4.088   7.052  0.5808 -0.8811  0.4591
 6792SOL     OW32011   1.856   0.738   3.140 -0.0749  0.0201  0.2578
 6792SOL    HW132012   1.853   0.778   3.227  1.2058  3.4648 -1.2783
 6792SOL    HW232013   1.885   0.809   3.083 -1.3808  2.1485  2.2458
 6793SOL     OW32014   0.832   3.636   2.796  0.2873  0.2278 -0.0395
 6793SOL    HW132015   0.853   3.555   2.842  0.2492  0.1777 -0.1091
 6793SOL    HW232016   0.874   3.704   2.847  0.2975  0.7487 -0.7427
 6794SOL     OW32017   4.186   2.434   7.821 -0.6599 -0.3703  0.4021
 6794SOL    HW132018   4.122   2.490   7.778  1.7608  2.0119 -0.0911
 6794SOL    HW232019   4.256   2.495   7.844 -0.1732  0.6232 -3.7184
 6795SOL     OW32020   0.527   3.576   5.060  0.1378  1.0350 -0.2478
 6795SOL    HW132021   0.564   3.599   5.146 -1.1436  2.1711 -0.0132
 6795SOL    HW232022   0.556   3.648   5.005  2.0840 -0.3143 -0.9984
 6796SOL     OW32023   0.491   0.129   8.434 -0.3682  0.3637  0.5202
 6796SOL    HW132024   0.558   0.193   8.459  2.8629 -3.0573  0.6028
 6796SOL    HW232025   0.534   0.044   8.444  1.1419  1.0468 -0.1683
 6797SOL     OW32026   1.268   4.357   7.543  0.1888 -0.3608  0.2082
 6797SOL    HW132027   1.188   4.387   7.588  0.0746  1.4795 -1.2183
 6797SOL    HW232028   1.243   4.349   7.451  3.0704  1.2445 -0.7085
 6798SOL     OW32029   3.537   0.682   5.767  0.3900 -0.1443  0.4967
 6798SOL    HW132030   3.488   0.758   5.799  1.0739  0.9360 -1.0417
 6798SOL    HW232031   3.493   0.616   5.820 -0.8931 -0.6141 -1.1665
 6799SOL     OW32032   3.267   0.028  12.703  0.1044  0.4361  0.7894
 6799SOL    HW132033   3.351   0.034  12.749 -0.1964  1.0527  1.2556
 6799SOL    HW232034   3.205   0.051  12.772 -2.2087 -2.0967 -0.4422
 6800SOL     OW32035   2.122   4.005   2.555 -0.5694 -0.2273  0.4983
 6800SOL    HW132036   2.063   3.931   2.565 -1.2551  0.1667 -0.7023
 6800SOL    HW232037   2.214   3.978   2.564 -0.1297  0.1750 -2.8529
 6801SOL     OW32038   2.666   0.029  12.498  0.6050 -0.3396  0.0373
 6801SOL    HW132039   2.604   4.726  12.436 -0.4510  1.0633  0.2095
 6801SOL    HW232040   2.602   0.050  12.566  2.0937  1.6467  0.8189
 6802SOL     OW32041   0.076   4.450   3.153 -0.2412 -0.1532 -0.0255
 6802SOL    HW132042   0.080   4.503   3.233  1.7155 -0.3049 -0.0034
 6802SOL    HW232043   4.718   4.436   3.151 -0.0672 -1.4289  0.2617
 6803SOL     OW32044   1.836   2.231   8.695  0.2590  0.0398  0.0785
 6803SOL    HW132045   1.890   2.184   8.759 -0.5803 -0.7229  0.2261
 6803SOL    HW232046   1.838   2.319   8.733  2.1513 -0.9151  2.2043
 6804SOL     OW32047   2.387   0.301   1.880 -0.4366  0.3379 -0.4312
 6804SOL    HW132048   2.297   0.312   1.911 -0.2248  2.0212 -0.4509
 6804SOL    HW232049   2.378   0.278   1.788 -0.7901  0.1746 -0.3598
 6805SOL     OW32050   3.025   2.755  16.585 -0.1285  0.0813  0.1388
 6805SOL    HW132051   3.027   2.709  16.500 -1.4772  0.9954 -0.3819
 6805SOL    HW232052   3.008   2.847  16.565  1.4282  0.1972 -0.6164
 6806SOL     OW32053   0.843   3.561  15.820 -0.1695  0.2698 -0.1858
 6806SOL    HW132054   0.797   3.611  15.753  3.4005  3.5588 -0.2483
 6806SOL    HW232055   0.798   3.480  15.799  1.9689 -0.0717 -3.5144
 6807SOL     OW32056   2.399   0.565  13.082  0.1330  0.1881 -0.2357
 6807SOL    HW132057   2.369   0.613  13.005  2.4451 -0.7764 -1.7399
 6807SOL    HW232058   2.334   0.494  13.081  0.1159  0.2180 -1.0937
 6808SOL     OW32059   2.609   1.655   8.045  0.1656  0.9526 -0.0657
 6808SOL    HW132060   2.625   1.658   7.951 -0.3673  2.9749 -0.0918
 6808SOL    HW232061   2.636   1.568   8.075 -1.7788 -0.5192 -2.6878
 6809SOL     OW32062   3.607   0.209   5.649  0.3704 -0.0177  0.6114
 6809SOL    HW132063   3.621   0.124   5.607 -2.5542 -0.5989  0.8274
 6809SOL    HW232064   3.670   0.263   5.602  0.8430 -0.7980  0.3471
 6810SOL     OW32065   1.111   1.809  10.841  0.1567 -0.2186  0.5198
 6810SOL    HW132066   1.107   1.806  10.745 -0.6733 -0.8706  0.5721
 6810SOL    HW232067   1.144   1.897  10.859  0.6243 -0.3177  0.1533
 6811SOL     OW32068   1.089   1.077   0.767 -0.1839 -0.0780  0.0322
 6811SOL    HW132069   1.025   1.018   0.728  0.1125 -0.1063 -0.4149
 6811SOL    HW232070   1.106   1.120   0.683  3.9604  0.5110  1.1271
 6812SOL     OW32071   1.584   1.691   5.774  0.1681 -0.4156  0.1298
 6812SOL    HW132072   1.559   1.763   5.716  2.0673  0.0898 -0.0307
 6812SOL    HW232073   1.617   1.627   5.712  0.1394  0.4306 -0.7633
 6813SOL     OW32074   4.461   1.775   0.940 -0.3224  0.2777 -0.0728
 6813SOL    HW132075   4.426   1.703   0.992 -1.1894  0.5957 -0.2208
 6813SOL    HW232076   4.438   1.856   0.986 -1.0290  0.3247 -0.5111
 6814SOL     OW32077   2.501   2.898   2.886  0.4716  0.1602 -0.1963
 6814SOL    HW132078   2.496   2.838   2.811 -1.9989  0.1487 -0.0142
 6814SOL    HW232079   2.426   2.868   2.938  0.1326 -1.2193 -1.4620
 6815SOL     OW32080   3.648   4.661   4.200 -0.3460 -0.2907 -0.2429
 6815SOL    HW132081   3.729   4.693   4.161  0.2232  0.5539  1.6038
 6815SOL    HW232082   3.594   4.649   4.121 -0.2925  2.4795 -0.6952
 6816SOL     OW32083   0.316   1.150   5.905 -0.3277  0.3171  0.6934
 6816SOL    HW132084   0.230   1.132   5.944  0.0217  0.6825  1.6389
 6816SOL    HW232085   0.341   1.223   5.961  1.7613  0.7072 -0.7412
 6817SOL     OW32086   4.478   1.399  17.385 -0.4143 -0.2719 -0.0576
 6817SOL    HW132087   4.556   1.449  17.409 -1.3183 -0.0583  2.4597
 6817SOL    HW232088   4.426   1.461  17.335 -0.9948 -2.1249 -1.7614
 6818SOL     OW32089   1.237   0.233  10.232  0.1964  0.1587 -0.8172
 6818SOL    HW132090   1.321   0.204  10.268  0.4273  0.3274 -1.2151
 6818SOL    HW232091   1.184   0.153  10.229  1.8834 -0.9434 -1.4285
 6819SOL     OW32092   4.618   0.869   7.270  0.5359  0.4774  0.6789
 6819SOL    HW132093   4.552   0.935   7.252  0.2350  0.0078  0.0631
 6819SOL    HW232094   4.695   0.926   7.267  0.3341  0.6801 -0.7697
 6820SOL     OW32095   0.405   1.421   6.555 -0.6940 -0.6913  0.0127
 6820SOL    HW132096   0.448   1.414   6.640 -0.4673  0.6996  0.0054
 6820SOL    HW232097   0.380   1.329   6.544 -1.0029 -0.4362 -1.3683
 6821SOL     OW32098   1.581   2.179   2.900  0.0021  0.4673  0.2330
 6821SOL    HW132099   1.548   2.105   2.952  1.7886 -1.4826 -1.4079
 6821SOL    HW232100   1.606   2.240   2.969  2.9905 -0.9692  0.4258
 6822SOL     OW32101   4.239   4.020   1.439 -0.3261 -0.5910  0.5042
 6822SOL    HW132102   4.161   4.025   1.383  0.5348 -0.8338 -0.7348
 6822SOL    HW232103   4.190   3.997   1.517 -1.0042  0.0523  0.2791
 6823SOL     OW32104   1.849   2.176   6.073 -0.5572  0.4226  0.2900
 6823SOL    HW132105   1.902   2.249   6.105  1.2399  0.0236 -1.7645
 6823SOL    HW232106   1.846   2.201   5.981 -0.3095 -0.6631 -0.0194
 6824SOL     OW32107   4.613   0.279   2.359 -0.3913  0.3421  0.0477
 6824SOL    HW132108   4.656   0.222   2.423 -2.3899 -0.5152  0.6518
 6824SOL    HW232109   4.526   0.290   2.397 -1.6388 -2.4295 -2.0099
 6825SOL     OW32110   0.207   1.336   5.252  0.0002 -0.8161 -0.6177
 6825SOL    HW132111   0.196   1.242   5.242 -0.8548 -0.9409  1.4069
 6825SOL    HW232112   0.296   1.345   5.289  0.0862  2.7218 -1.6138
 6826SOL     OW32113   0.382   3.342  15.607  0.0685  0.7327  0.0204
 6826SOL    HW132114   0.358   3.288  15.532 -0.6817  1.0577  0.0230
 6826SOL    HW232115   0.445   3.407  15.576  0.6870 -0.5300 -1.3496
 6827SOL     OW32116   1.670   3.621  15.603  0.0308  0.1448 -0.4256
 6827SOL    HW132117   1.665   3.556  15.533  1.1627 -0.7742  0.3671
 6827SOL    HW232118   1.757   3.656  15.586  0.0248  0.6907  0.6812
 6828SOL     OW32119   0.676   4.407   6.390 -0.0900 -0.8089  0.0604
 6828SOL    HW132120   0.658   4.409   6.296 -1.6968 -1.0315  0.3488
 6828SOL    HW232121   0.656   4.317   6.417 -0.4301 -0.8038 -0.1740
 6829SOL     OW32122   2.380   3.568   7.128 -0.1768 -0.5883  0.0215
 6829SOL    HW132123   2.405   3.571   7.220 -0.4703 -0.6934  0.1066
 6829SOL    HW232124   2.459   3.605   7.089 -0.0318 -0.7886  0.1302
 6830SOL     OW32125   4.150   4.603   6.617  0.9195 -0.2478 -0.1693
 6830SOL    HW132126   4.144   4.508   6.622  0.8419 -0.3672 -2.2551
 6830SOL    HW232127   4.083   4.612   6.549  1.3982  0.7327 -0.5193
 6831SOL     OW32128   1.043   4.256   3.878  0.5752 -0.4379  0.9798
 6831SOL    HW132129   1.128   4.301   3.870 -0.8918  2.2400  0.5218
 6831SOL    HW232130   1.056   4.200   3.954  1.2853  0.9363  1.8758
 6832SOL     OW32131   3.744   0.195   3.287 -0.3125 -0.6288  0.7007
 6832SOL    HW132132   3.693   0.218   3.209  0.7953 -2.4254 -0.5583
 6832SOL    HW232133   3.835   0.199   3.257  0.3744  0.3236  2.9397
 6833SOL     OW32134   0.375   1.792  10.254 -0.2783 -0.3082  0.1069
 6833SOL    HW132135   0.288   1.752  10.252 -0.5090  0.0833  2.7534
 6833SOL    HW232136   0.422   1.729  10.200  0.1633 -0.7047  0.9543
 6834SOL     OW32137   0.838   0.302   4.301  0.0606 -0.4597 -0.1497
 6834SOL    HW132138   0.826   0.223   4.248  0.0684  0.5064 -1.6036
 6834SOL    HW232139   0.748   0.313   4.332  0.7246  0.3250  1.4903
 6835SOL     OW32140   4.070   1.331  10.902  0.0423 -0.7252  0.1050
 6835SOL    HW132141   4.116   1.404  10.942 -2.7711  1.6190 -0.9886
 6835SOL    HW232142   4.146   1.272  10.911 -0.7805 -1.9565 -1.0149
 6836SOL     OW32143   3.488   0.077  16.049  0.4087  0.5025 -0.5614
 6836SOL    HW132144   3.432   0.082  16.126  1.5824  1.2188  0.2316
 6836SOL    HW232145   3.522   0.166  16.048  0.1444  0.6175  0.2180
 6837SOL     OW32146   4.243   4.615   7.488 -0.1353  0.7163  0.5874
 6837SOL    HW132147   4.317   4.559   7.467  0.0822  1.3632 -0.3642
 6837SOL    HW232148   4.191   4.561   7.548 -0.9871  0.1897 -0.6184
 6838SOL     OW32149   0.021   3.580  11.270  0.4183  0.3208 -0.3801
 6838SOL    HW132150   0.106   3.623  11.268  0.0298  1.0496 -0.9133
 6838SOL    HW232151   4.734   3.576  11.363  0.0787  0.1312 -0.4707
 6839SOL     OW32152   2.642   0.420   2.711 -0.4922  0.0309  0.3484
 6839SOL    HW132153   2.635   0.325   2.706  0.3510  0.0924 -2.1645
 6839SOL    HW232154   2.613   0.428   2.802 -0.9621  0.9491  0.1165
 6840SOL     OW32155   1.258   3.326   6.375  0.0974  0.3292  0.9176
 6840SOL    HW132156   1.298   3.282   6.299  1.2533  1.7276  0.7014
 6840SOL    HW232157   1.225   3.248   6.418 -0.1049 -0.9157 -1.5145
 6841SOL     OW32158   2.636   2.236   6.417 -0.3127 -0.5014  0.3520
 6841SOL    HW132159   2.594   2.321   6.405  0.7531 -0.3016 -1.9863
 6841SOL    HW232160   2.722   2.264   6.448 -0.2261 -0.6609  0.2573
 6842SOL     OW32161   4.404   4.599  14.801 -0.8380  0.2251 -0.1299
 6842SOL    HW132162   4.469   4.628  14.864 -0.7910  0.3234 -0.2244
 6842SOL    HW232163   4.342   4.671  14.813 -0.6988  0.5015 -1.0866
 6843SOL     OW32164   0.427   2.104  15.702 -0.3989  0.0191 -0.2688
 6843SOL    HW132165   0.418   2.110  15.607  1.1031 -0.4180 -0.4314
 6843SOL    HW232166   0.450   2.011  15.706  0.6007  0.1347 -3.6290
 6844SOL     OW32167   2.700   1.692   0.533  0.3980 -0.1083 -0.0316
 6844SOL    HW132168   2.727   1.771   0.581 -2.3423 -1.4667  3.7393
 6844SOL    HW232169   2.621   1.721   0.488  0.6417 -0.7753 -0.8812
 6845SOL     OW32170   4.396   0.424   6.286 -0.1281 -0.2375  0.3741
 6845SOL    HW132171   4.365   0.341   6.249 -1.5416  0.7022 -0.5903
 6845SOL    HW232172   4.448   0.382   6.354  1.1884 -0.0048 -0.4918
 6846SOL     OW32173   4.306   0.747   5.126 -0.3554  0.2117  0.6037
 6846SOL    HW132174   4.211   0.740   5.141 -0.6462  0.7117 -1.0204
 6846SOL    HW232175   4.318   0.842   5.124  2.3064 -0.1499 -0.5814
 6847SOL     OW32176   1.298   0.077   5.954  0.0197 -0.1833  0.0076
 6847SOL    HW132177   1.393   0.065   5.955 -0.0717 -1.1495 -2.2999
 6847SOL    HW232178   1.300   0.134   5.877 -1.3431 -0.2954 -0.1178
 6848SOL     OW32179   0.582   1.413  16.699  0.2207 -0.2422  0.1032
 6848SOL    HW132180   0.639   1.486  16.673  1.1724 -0.2446  2.2256
 6848SOL    HW232181   0.496   1.433  16.661  0.3615 -1.9800 -1.1300
 6849SOL     OW32182   0.211   2.718   9.085 -0.6113 -0.6548 -0.9194
 6849SOL    HW132183   0.153   2.789   9.057 -1.4960 -0.3344  1.7642
 6849SOL    HW232184   0.190   2.704   9.177  0.2828 -0.6900 -0.7143
 6850SOL     OW32185   3.751   3.594   7.917 -0.1496  0.1758  0.2636
 6850SOL    HW132186   3.665   3.631   7.896 -1.3741 -1.6928  1.9018
 6850SOL    HW232187   3.738   3.502   7.892  1.1704 -0.4054  1.6914
 6851SOL     OW32188   0.127   2.146   2.614  0.7163  0.0924 -0.1903
 6851SOL    HW132189   0.047   2.107   2.648 -0.4295  1.9554 -0.7027
 6851SOL    HW232190   0.142   2.222   2.671  1.0234 -0.0023 -0.1440
 6852SOL     OW32191   3.958   1.465   2.032  0.0827  0.2207 -0.0186
 6852SOL    HW132192   3.944   1.371   2.019 -0.5589  0.7147 -2.8985
 6852SOL    HW232193   4.004   1.486   1.951 -0.7221  2.7509  0.1668
 6853SOL     OW32194   0.760   3.101   3.738  0.2616 -0.0347 -0.7178
 6853SOL    HW132195   0.829   3.037   3.754 -0.8486 -1.1951 -0.4888
 6853SOL    HW232196   0.811   3.178   3.713 -0.2505  0.4653 -0.2340
 6854SOL     OW32197   3.503   4.352  13.976  0.0155 -0.1717  0.9284
 6854SOL    HW132198   3.476   4.325  14.064  0.1874 -2.2743  0.3309
 6854SOL    HW232199   3.423   4.379  13.931  0.6413 -2.5331 -1.6075
 6855SOL     OW32200   1.284   0.493   4.348  0.9524 -0.2170 -0.2700
 6855SOL    HW132201   1.245   0.494   4.436 -0.4397  0.8347 -0.8838
 6855SOL    HW232202   1.210   0.488   4.288  0.2958  1.1013  0.4123
 6856SOL     OW32203   1.937   3.097  10.105  0.8465 -0.2639  0.0040
 6856SOL    HW132204   1.993   3.021  10.091 -1.8575 -1.9133 -1.7123
 6856SOL    HW232205   1.915   3.076  10.196  2.6393 -4.2027 -0.4581
 6857SOL     OW32206   1.683   3.921  16.502  0.3032 -0.3610 -0.5670
 6857SOL    HW132207   1.741   3.918  16.426  0.0216 -1.1770 -0.7529
 6857SOL    HW232208   1.726   3.976  16.568 -3.0165  0.0278  1.2667
 6858SOL     OW32209   2.991   1.056   2.725 -0.1643 -0.1795  0.3584
 6858SOL    HW132210   2.925   1.061   2.794 -1.6830 -1.5754 -1.0161
 6858SOL    HW232211   3.017   0.964   2.729  0.5927 -0.0561 -1.3959
 6859SOL     OW32212   1.100   1.095   1.704  0.0616 -0.3690 -0.1752
 6859SOL    HW132213   1.180   1.048   1.726 -0.0236 -1.2729 -1.7802
 6859SOL    HW232214   1.076   1.056   1.620 -0.4554  1.1882 -0.7529
 6860SOL     OW32215   2.040   1.063   7.164  0.3363  0.2546  0.1955
 6860SOL    HW132216   2.029   1.078   7.070  0.4608  2.1786  0.4779
 6860SOL    HW232217   2.026   1.149   7.205 -1.0131 -0.6677  1.6220
 6861SOL     OW32218   2.426   4.462  16.202 -0.1149 -0.5464 -0.7927
 6861SOL    HW132219   2.342   4.493  16.236  0.4881 -1.4479  1.5354
 6861SOL    HW232220   2.453   4.378  16.239  1.8763  0.9645  1.1590
 6862SOL     OW32221   0.441   1.703   4.662 -0.6655 -0.4343  0.4167
 6862SOL    HW132222   0.383   1.685   4.736  0.4590 -2.4143  0.7956
 6862SOL    HW232223   0.413   1.787   4.625  2.3074  1.1710  1.8382
 6863SOL     OW32224   4.007   3.315   9.184  0.3073  0.3009  0.7195
 6863SOL    HW132225   4.068   3.270   9.126  0.5408 -0.2116  1.3556
 6863SOL    HW232226   4.009   3.251   9.256 -0.0463  0.0931  0.5477
 6864SOL     OW32227   4.520   3.915   0.082  0.2667 -0.3849  0.3233
 6864SOL    HW132228   4.430   3.902   0.052 -0.0883  2.0246  0.3111
 6864SOL    HW232229   4.515   3.936   0.175  1.1768  2.2022 -0.1899
 6865SOL     OW32230   3.278   2.131   7.258 -0.9198  0.4334 -0.1509
 6865SOL    HW132231   3.369   2.129   7.287 -0.6288  0.3156 -1.0720
 6865SOL    HW232232   3.268   2.046   7.215  1.1176  1.5501 -2.7646
 6866SOL     OW32233   2.382   3.904   0.543 -0.1214  0.1295 -0.6087
 6866SOL    HW132234   2.462   3.913   0.492 -0.7048 -0.0253 -1.5604
 6866SOL    HW232235   2.321   3.956   0.490 -2.9520 -0.1457  2.3679
 6867SOL     OW32236   4.021   4.363   4.926 -0.3881 -0.2132 -0.0583
 6867SOL    HW132237   4.031   4.272   4.900  1.6660  0.1551 -0.5475
 6867SOL    HW232238   3.951   4.352   4.991  0.0816  0.0506  0.4880
 6868SOL     OW32239   1.817   0.205   3.830  0.2845 -0.1076  0.1170
 6868SOL    HW132240   1.759   0.139   3.868 -1.0821  0.7215 -0.5171
 6868SOL    HW232241   1.906   0.185   3.860 -0.2007 -1.1603  0.8543
 6869SOL     OW32242   1.515   1.871   6.784 -0.1082 -0.4866  0.4961
 6869SOL    HW132243   1.524   1.776   6.796  0.2004 -0.8084 -2.2827
 6869SOL    HW232244   1.604   1.905   6.793 -0.7933  1.1200  1.2115
 6870SOL     OW32245   4.194   3.827  11.121 -0.2578 -0.2550  0.1261
 6870SOL    HW132246   4.123   3.812  11.058 -1.0278 -0.5882  1.0621
 6870SOL    HW232247   4.250   3.751  11.108  0.8040  0.7580 -1.1652
 6871SOL     OW32248   4.347   0.838   4.099  0.3228  0.4182  0.0971
 6871SOL    HW132249   4.369   0.749   4.128 -0.0515 -0.2196 -1.5422
 6871SOL    HW232250   4.277   0.857   4.161  0.3804 -0.9628  0.5966
 6872SOL     OW32251   4.159   0.959   1.756 -0.1731  0.0723  0.0888
 6872SOL    HW132252   4.163   0.917   1.842  3.9972 -0.0635 -0.1622
 6872SOL    HW232253   4.065   0.965   1.740 -0.2081 -1.6600 -0.3038
 6873SOL     OW32254   1.696   4.052   3.947 -0.7893  0.3138  0.2702
 6873SOL    HW132255   1.650   3.994   4.008  0.5975  1.6530  2.5987
 6873SOL    HW232256   1.791   4.041   3.945 -1.0598 -1.6399 -2.1359
 6874SOL     OW32257   1.472   1.978  17.329 -0.3471  0.1180 -0.3223
 6874SOL    HW132258   1.441   1.909  17.270  0.3654 -0.1691 -0.3612
 6874SOL    HW232259   1.454   1.947  17.418  1.7291  0.1208  0.1050
 6875SOL     OW32260   3.018   0.022   0.220  0.3245  0.2491  0.3865
 6875SOL    HW132261   3.013   0.076   0.299  0.2447 -0.4632  0.8735
 6875SOL    HW232262   2.953   4.692   0.244 -0.2837  0.8509  0.3822
 6876SOL     OW32263   1.387   2.219  16.667 -0.1838  0.0943 -0.0934
 6876SOL    HW132264   1.403   2.313  16.660 -3.1222  0.7164  1.2753
 6876SOL    HW232265   1.401   2.206  16.761 -1.1350  1.4810  0.2433
 6877SOL     OW32266   0.892   3.211   7.488 -0.3389 -0.0433  0.4947
 6877SOL    HW132267   0.817   3.241   7.437  0.4426  2.9322  1.1318
 6877SOL    HW232268   0.959   3.278   7.476 -0.4704 -0.1001 -0.5576
 6878SOL     OW32269   2.316   2.327   9.332 -0.4604  0.0656  0.2034
 6878SOL    HW132270   2.282   2.326   9.421 -0.0050 -0.8841  0.3618
 6878SOL    HW232271   2.303   2.238   9.300 -0.3657  0.4869 -1.0396
 6879SOL     OW32272   4.423   4.681   2.724 -0.2817  0.2895 -0.4098
 6879SOL    HW132273   4.348   4.724   2.684 -0.1913  0.4856 -0.3660
 6879SOL    HW232274   4.473   4.649   2.648 -1.1747 -2.5382  0.1770
 6880SOL     OW32275   3.897   2.267   1.248  0.6673  0.3637  0.0800
 6880SOL    HW132276   3.867   2.177   1.255 -0.1782  0.7491  1.3554
 6880SOL    HW232277   3.945   2.270   1.331 -1.4740 -0.2953  1.3317
 6881SOL     OW32278   3.479   0.526  12.939  0.5511 -0.4368 -0.4262
 6881SOL    HW132279   3.419   0.582  12.989  1.7484  0.7344 -0.3165
 6881SOL    HW232280   3.461   0.442  12.982  0.6113 -0.5051 -0.5374
 6882SOL     OW32281   0.299   1.448   9.638  0.1928  0.4424 -0.2244
 6882SOL    HW132282   0.257   1.530   9.614 -1.3183 -0.7459 -1.6988
 6882SOL    HW232283   0.236   1.399   9.692  0.1388 -0.2660 -0.9270
 6883SOL     OW32284   4.127   1.555   6.428 -0.1424  0.1516  0.3824
 6883SOL    HW132285   4.125   1.634   6.374  0.6720 -0.3012 -0.3056
 6883SOL    HW232286   4.214   1.559   6.467 -0.7015 -2.9963  1.9909
 6884SOL     OW32287   0.294   3.828   2.753 -0.2439 -0.5504 -0.2679
 6884SOL    HW132288   0.272   3.833   2.846 -2.1727  3.1115 -0.9315
 6884SOL    HW232289   0.380   3.867   2.736  0.5770 -1.1064  2.7382
 6885SOL     OW32290   3.446   0.051  15.543  0.0709  0.6712 -0.1594
 6885SOL    HW132291   3.449   4.698  15.577  1.8897  0.8829  0.2502
 6885SOL    HW232292   3.384   0.098  15.598 -2.2229 -0.0043 -2.1902
 6886SOL     OW32293   2.518   2.741   7.884  0.3707 -0.5342  0.5730
 6886SOL    HW132294   2.523   2.686   7.806 -1.4930  0.3431 -0.1561
 6886SOL    HW232295   2.596   2.797   7.880  0.1359 -0.1867  0.8472
 6887SOL     OW32296   2.367   1.220   7.413 -0.3554 -0.3176  0.4107
 6887SOL    HW132297   2.445   1.268   7.440  0.7353 -1.4309 -0.7510
 6887SOL    HW232298   2.316   1.296   7.386 -1.1130 -0.7175  0.6971
 6888SOL     OW32299   1.605   1.471  10.784  0.3535 -0.4047 -0.3590
 6888SOL    HW132300   1.668   1.479  10.856  1.8814 -4.3431 -1.2454
 6888SOL    HW232301   1.521   1.480  10.828  1.4453 -0.6350  1.7913
 6889SOL     OW32302   3.214   3.345   3.678 -0.2988  0.2488  0.3132
 6889SOL    HW132303   3.260   3.429   3.675  0.2009  0.0475  2.4623
 6889SOL    HW232304   3.183   3.346   3.587 -1.6700 -1.9014  0.7769
 6890SOL     OW32305   1.572   0.931  15.925 -0.2100 -0.1588 -0.0575
 6890SOL    HW132306   1.632   0.974  15.864  0.2880 -0.1665  0.4210
 6890SOL    HW232307   1.537   0.864  15.866 -1.8331 -1.2240  2.1202
 6891SOL     OW32308   3.335   3.700   4.872  0.1207  0.5846  0.0560
 6891SOL    HW132309   3.399   3.639   4.835 -0.3231 -0.0730  0.3488
 6891SOL    HW232310   3.341   3.787   4.833 -1.0590  0.3201 -0.6973
 6892SOL     OW32311   0.330   0.974   8.507 -0.3235  0.2826  1.0139
 6892SOL    HW132312   0.314   1.027   8.585 -0.6048  0.2678  0.9662
 6892SOL    HW232313   0.426   0.981   8.508 -0.3360  0.8378 -1.9227
 6893SOL     OW32314   0.435   3.408   8.736  0.6859  0.8182 -0.3105
 6893SOL    HW132315   0.378   3.396   8.813 -0.3630  0.8663 -1.0775
 6893SOL    HW232316   0.517   3.369   8.767 -0.2691 -1.4152 -0.5158
 6894SOL     OW32317   0.598   2.384   3.372 -0.6441 -0.3745  0.2683
 6894SOL    HW132318   0.653   2.458   3.399 -0.4247 -0.9238  1.3059
 6894SOL    HW232319   0.514   2.429   3.379 -0.7501 -0.2931 -1.4692
 6895SOL     OW32320   1.037   0.024  11.682  0.5347  0.3411 -0.2781
 6895SOL    HW132321   0.991   4.678  11.667  2.7074 -0.9266 -0.0143
 6895SOL    HW232322   1.007   0.083  11.613 -1.4766 -0.7062 -0.3094
 6896SOL     OW32323   4.163   4.652   8.522  0.3713 -0.0824  0.1699
 6896SOL    HW132324   4.137   0.000   8.559 -2.2438 -0.4267 -0.8890
 6896SOL    HW232325   4.258   4.654   8.534  0.4483 -2.0151 -0.1273
 6897SOL     OW32326   4.516   0.259   7.045 -0.1763  0.1754  0.1723
 6897SOL    HW132327   4.451   0.189   7.053  0.5518 -0.5277 -0.1312
 6897SOL    HW232328   4.466   0.335   7.074 -0.9254 -0.2190 -0.0855
 6898SOL     OW32329   0.928   3.693   1.741 -0.0406  0.1615 -0.6127
 6898SOL    HW132330   0.984   3.668   1.815  1.6750 -0.4579 -2.1154
 6898SOL    HW232331   0.874   3.616   1.723 -0.6604 -0.1038  2.4302
 6899SOL     OW32332   2.196   3.366   8.653  0.2407  0.1736  0.0881
 6899SOL    HW132333   2.110   3.384   8.615  0.8840  0.5809 -1.1985
 6899SOL    HW232334   2.219   3.274   8.645 -0.1268  0.0915 -0.0295
 6900SOL     OW32335   1.700   4.643   7.814  0.6190  0.8466 -0.4317
 6900SOL    HW132336   1.752   4.724   7.812 -0.8286  1.7933  0.3332
 6900SOL    HW232337   1.668   4.632   7.904  0.4081 -0.1537 -0.6307
 6901SOL     OW32338   2.010   0.975   5.714 -0.5229 -0.6291  0.0076
 6901SOL    HW132339   2.004   0.939   5.626 -3.5137  1.8665 -0.8112
 6901SOL    HW232340   1.958   1.056   5.713  2.7486  1.4589 -0.0289
 6902SOL     OW32341   4.024   3.615   6.619  0.4532  0.2830  0.2807
 6902SOL    HW132342   3.989   3.628   6.707  0.9636 -2.7673  0.9398
 6902SOL    HW232343   4.065   3.699   6.598 -0.9015  1.0643  0.7969
 6903SOL     OW32344   1.557   1.561   3.822  0.6476  0.4615 -0.0597
 6903SOL    HW132345   1.467   1.538   3.842  1.2544  0.0019  2.1722
 6903SOL    HW232346   1.547   1.633   3.761  0.5468 -0.8608 -1.5982
 6904SOL     OW32347   1.242   4.395   7.951  0.0011  0.5523  0.6334
 6904SOL    HW132348   1.334   4.367   7.947 -0.2213 -0.2818  1.4646
 6904SOL    HW232349   1.248   4.484   7.915  0.0549 -0.0283 -0.7831
 6905SOL     OW32350   0.106   3.876   5.282  0.1342  0.2614  0.1125
 6905SOL    HW132351   0.172   3.831   5.230 -0.4666  0.2629 -0.6591
 6905SOL    HW232352   0.049   3.918   5.217  0.0080 -1.4306 -0.8653
 6906SOL     OW32353   0.056   2.933   4.938 -0.4660 -0.3063 -0.1228
 6906SOL    HW132354   0.025   2.847   4.967  0.8433 -0.9595 -0.6612
 6906SOL    HW232355   0.143   2.933   4.978 -1.5677  2.9603  2.2682
 6907SOL     OW32356   1.696   2.819  15.714  0.2941  0.4662  0.0283
 6907SOL    HW132357   1.682   2.913  15.709  0.2312  0.5449  1.8709
 6907SOL    HW232358   1.752   2.811  15.637 -1.6847 -0.7510 -1.2825
 6908SOL     OW32359   1.338   1.883   6.570 -0.4185 -0.0456  0.3989
 6908SOL    HW132360   1.388   1.856   6.647  0.2003 -2.5569 -0.8783
 6908SOL    HW232361   1.345   1.805   6.516  0.3733  0.5054 -0.2993
 6909SOL     OW32362   4.111   0.527   4.925  0.5883  0.1798  0.2042
 6909SOL    HW132363   4.072   0.446   4.957  1.2673 -0.1590  0.1671
 6909SOL    HW232364   4.071   0.589   4.986  0.3306  0.3429 -0.1278
 6910SOL     OW32365   2.239   0.749   0.752 -0.0139  0.0380 -0.0715
 6910SOL    HW132366   2.254   0.830   0.800 -0.7955  0.3062 -0.2724
 6910SOL    HW232367   2.249   0.694   0.830 -2.8304 -1.0368 -0.4542
 6911SOL     OW32368   4.672   3.127   9.719  0.2398 -0.1518  0.1345
 6911SOL    HW132369   4.593   3.180   9.727 -0.1786 -0.6828 -0.5231
 6911SOL    HW232370   4.641   3.038   9.707 -1.5850  0.2960  1.4629
 6912SOL     OW32371   3.440   2.147   2.940 -0.0229 -0.5272  0.1600
 6912SOL    HW132372   3.474   2.118   2.855  0.4680  0.1361  0.1241
 6912SOL    HW232373   3.443   2.243   2.935 -0.0098 -0.6068 -1.5923
 6913SOL     OW32374   0.325   2.263   4.590 -0.0945  0.4695 -0.3322
 6913SOL    HW132375   0.269   2.210   4.646  1.0804  1.5715  1.8732
 6913SOL    HW232376   0.278   2.255   4.507 -1.1011  1.4540  0.1371
 6914SOL     OW32377   4.001   3.716  11.355  0.3783 -0.3684  0.1038
 6914SOL    HW132378   4.082   3.748  11.394 -1.0949  1.6341  1.5728
 6914SOL    HW232379   3.957   3.801  11.364 -0.5946 -0.7379 -1.1840
 6915SOL     OW32380   3.190   2.301   4.302 -0.3541  0.2799 -0.1751
 6915SOL    HW132381   3.220   2.353   4.227 -0.0532  0.7615  0.2822
 6915SOL    HW232382   3.209   2.357   4.377  0.3371  2.2526 -1.8202
 6916SOL     OW32383   0.238   0.218   8.504  0.2878 -0.8722 -0.0126
 6916SOL    HW132384   0.262   0.306   8.535 -0.8023 -0.1146 -1.3067
 6916SOL    HW232385   0.324   0.175   8.506  0.4124 -0.7235 -1.9437
 6917SOL     OW32386   4.608   3.542   6.614  0.3129  0.4618  0.0148
 6917SOL    HW132387   4.615   3.559   6.520 -0.5393 -1.1793 -0.3484
 6917SOL    HW232388   4.522   3.583   6.626  0.2084  0.9344 -2.2601
 6918SOL     OW32389   1.663   0.306   2.066 -0.4817  0.7371 -0.4797
 6918SOL    HW132390   1.604   0.343   2.131  0.0292  0.1394  0.3294
 6918SOL    HW232391   1.742   0.293   2.119  0.1217  0.9834 -1.3027
 6919SOL     OW32392   0.685   3.366  16.627  0.4795 -0.0315 -0.2855
 6919SOL    HW132393   0.697   3.363  16.533  1.3478 -0.4605 -0.1557
 6919SOL    HW232394   0.773   3.338  16.653  0.6769  0.5631 -0.3125
 6920SOL     OW32395   2.217   4.170   1.997 -0.4134 -0.3997  0.1730
 6920SOL    HW132396   2.278   4.177   2.071  0.1619 -0.6022 -0.2776
 6920SOL    HW232397   2.202   4.262   1.973  2.3761 -0.3401 -1.4400
 6921SOL     OW32398   4.422   1.765   5.699  0.7915  0.5832 -0.0263
 6921SOL    HW132399   4.417   1.827   5.772 -2.8583 -2.1661  2.1040
 6921SOL    HW232400   4.331   1.739   5.714  0.2005  1.1084 -2.6700
 6922SOL     OW32401   2.630   0.258   6.971  0.0001  0.4043  0.1937
 6922SOL    HW132402   2.629   0.168   6.939 -1.8007  0.7416 -0.6519
 6922SOL    HW232403   2.591   0.252   7.059 -2.7368 -3.3504 -1.2509
 6923SOL     OW32404   3.158   0.067   5.024  0.8684  0.4791 -0.0901
 6923SOL    HW132405   3.192   0.126   5.091  1.2713  0.7099 -0.4986
 6923SOL    HW232406   3.225   0.000   5.010 -0.1616 -0.6882  0.5370
 6924SOL     OW32407   1.521   3.013   3.343  0.2187  0.0786  0.0111
 6924SOL    HW132408   1.443   3.064   3.362 -0.6892 -1.9022  1.5558
 6924SOL    HW232409   1.570   3.062   3.277 -0.3646  3.1335  1.8553
 6925SOL     OW32410   2.025   1.352   3.863 -0.3456  0.3122  0.3315
 6925SOL    HW132411   2.057   1.395   3.783 -0.9296 -1.2418 -0.7257
 6925SOL    HW232412   1.930   1.356   3.852 -0.1982 -3.9618 -2.1551
 6926SOL     OW32413   1.518   0.224   6.352  0.2806  0.3361 -0.2375
 6926SOL    HW132414   1.513   0.141   6.400 -0.6836 -1.5902 -3.6662
 6926SOL    HW232415   1.613   0.233   6.345  0.3320 -1.1709 -1.5109
 6927SOL     OW32416   2.606   4.066   2.776 -0.4054 -0.0373  0.2156
 6927SOL    HW132417   2.682   4.075   2.719  2.3262 -0.6750  3.7617
 6927SOL    HW232418   2.552   4.023   2.710  3.2640 -0.1300 -2.7005
 6928SOL     OW32419   2.203   3.070   2.381  0.0780 -0.7815 -0.0270
 6928SOL    HW132420   2.288   3.033   2.404  1.7471  2.2369 -1.2871
 6928SOL    HW232421   2.157   2.989   2.360 -1.0576 -0.7907  2.5167
 6929SOL     OW32422   3.556   3.164  12.073  0.6284 -0.2573 -0.4617
 6929SOL    HW132423   3.582   3.221  12.000  0.0636  1.0231  0.3349
 6929SOL    HW232424   3.622   3.180  12.140  2.7551  0.2370 -2.6573
 6930SOL     OW32425   0.373   1.622   3.502 -0.1703  0.1201 -0.3125
 6930SOL    HW132426   0.348   1.635   3.594  2.1808  1.8619  0.0853
 6930SOL    HW232427   0.461   1.588   3.517  0.4596  1.9193  0.0364
 6931SOL     OW32428   4.228   1.433  11.362  0.1656 -0.2620 -0.0682
 6931SOL    HW132429   4.175   1.510  11.385 -0.3926 -1.2456  1.9624
 6931SOL    HW232430   4.279   1.470  11.290  1.4307 -1.2506  0.3203
 6932SOL     OW32431   2.372   0.653   5.782  0.1189  0.0665 -0.2475
 6932SOL    HW132432   2.325   0.735   5.795 -0.8977 -0.9520  2.6731
 6932SOL    HW232433   2.458   0.667   5.822  0.3635 -3.9979  0.7008
 6933SOL     OW32434   1.423   4.730   5.401  0.0622  0.2561  0.6891
 6933SOL    HW132435   1.426   0.049   5.478 -0.2505  0.8508  0.2749
 6933SOL    HW232436   1.328   4.726   5.394  0.2293  3.7087 -3.9319
 6934SOL     OW32437   3.660   3.353  11.447 -0.3469  0.3861  0.6057
 6934SOL    HW132438   3.649   3.358  11.352  1.0910  1.1304  0.4817
 6934SOL    HW232439   3.572   3.338  11.483 -0.4880 -0.8963 -0.2803
 6935SOL     OW32440   1.453   0.754  15.727 -0.4308 -0.0528 -0.1827
 6935SOL    HW132441   1.371   0.721  15.689 -0.9814 -1.4984  2.2955
 6935SOL    HW232442   1.479   0.815  15.658 -0.0546 -0.6373 -0.5513
 6936SOL     OW32443   3.673   0.079   1.402  0.0139  0.4738 -0.1008
 6936SOL    HW132444   3.682   0.049   1.493 -1.4522 -2.1035 -0.8331
 6936SOL    HW232445   3.712   0.166   1.409 -2.9818  1.8596 -0.7861
 6937SOL     OW32446   3.249   0.054   1.232  0.3728 -0.4397  0.2636
 6937SOL    HW132447   3.238   4.717   1.293  2.2654  0.5073  1.7123
 6937SOL    HW232448   3.342   0.050   1.209  1.3317  0.5135  4.0226
 6938SOL     OW32449   2.777   1.792   9.796 -0.4291 -0.3126 -0.4122
 6938SOL    HW132450   2.865   1.762   9.816 -0.7200  0.3718  1.9090
 6938SOL    HW232451   2.772   1.846   9.717  1.4983  0.7455  0.2002
 6939SOL     OW32452   2.747   4.465   4.204 -0.3793  0.4624 -0.1106
 6939SOL    HW132453   2.826   4.495   4.159  0.2559  1.7281  1.8251
 6939SOL    HW232454   2.740   4.530   4.274 -1.7322 -1.4838  1.5833
 6940SOL     OW32455   1.590   0.493  10.599  0.1478 -0.0354 -0.0195
 6940SOL    HW132456   1.589   0.436  10.523 -1.3183  0.1318 -0.1277
 6940SOL    HW232457   1.669   0.547  10.600 -0.5791  1.0511 -0.8067
 6941SOL     OW32458   0.921   1.801   4.330 -0.2265 -0.0513 -0.1476
 6941SOL    HW132459   0.948   1.889   4.305  0.5234  0.0784  1.1360
 6941SOL    HW232460   0.954   1.749   4.257  0.2078 -1.1517  0.8367
 6942SOL     OW32461   2.337   0.677   1.299  0.0133 -0.3198  0.0860
 6942SOL    HW132462   2.268   0.676   1.365  0.8781  0.0316  0.9934
 6942SOL    HW232463   2.415   0.679   1.354  1.1588  1.8543 -1.5971
 6943SOL     OW32464   1.031   2.954  12.350  0.4156  0.3426 -0.2895
 6943SOL    HW132465   0.983   2.989  12.426  0.3725  2.6530 -1.3570
 6943SOL    HW232466   1.072   3.033  12.313  1.0487  0.3696  0.4662
 6944SOL     OW32467   3.511   1.719   6.914  0.2858  0.8093 -0.2783
 6944SOL    HW132468   3.444   1.651   6.903  0.8577 -0.0727  1.6736
 6944SOL    HW232469   3.573   1.673   6.971 -1.8004 -1.0577  0.4968
 6945SOL     OW32470   1.617   4.569   0.424  0.0924  0.7974  0.2207
 6945SOL    HW132471   1.560   4.601   0.494 -1.7910 -0.3633 -0.7629
 6945SOL    HW232472   1.626   4.650   0.373  0.4089  0.4988 -0.2005
 6946SOL     OW32473   3.934   2.470   3.341 -0.6228 -0.5997 -0.7292
 6946SOL    HW132474   3.871   2.542   3.345 -3.7227 -3.2922 -0.5595
 6946SOL    HW232475   3.977   2.480   3.425  0.2708 -1.6949 -1.0579
 6947SOL     OW32476   1.340   2.867   8.704  0.2317  0.0271 -0.0092
 6947SOL    HW132477   1.402   2.830   8.767 -0.7221 -0.8917  0.3763
 6947SOL    HW232478   1.300   2.787   8.669  2.6671 -1.5858  0.9069
 6948SOL     OW32479   0.402   0.644   7.144 -0.0311 -0.0268  0.3974
 6948SOL    HW132480   0.460   0.718   7.125 -1.6572  1.1728  0.1854
 6948SOL    HW232481   0.370   0.625   7.056 -1.0683  3.6654 -0.0236
 6949SOL     OW32482   3.273   3.796   0.425 -0.0621 -0.3162 -0.6173
 6949SOL    HW132483   3.359   3.806   0.384  0.2458 -0.9823 -0.1223
 6949SOL    HW232484   3.272   3.701   0.422 -1.2203 -0.3231  0.2988
 6950SOL     OW32485   3.352   4.553   3.891  0.2277  0.1714 -0.6452
 6950SOL    HW132486   3.390   4.640   3.881 -3.6891  1.9408 -0.2413
 6950SOL    HW232487   3.267   4.576   3.928 -0.9204 -2.1652 -1.8498
 6951SOL     OW32488   1.218   1.804   3.565  0.2090  0.7081 -0.6296
 6951SOL    HW132489   1.139   1.806   3.620  0.4779 -0.1127 -0.2007
 6951SOL    HW232490   1.282   1.841   3.626 -0.0330  0.6887 -0.3644
 6952SOL     OW32491   0.976   0.293   6.120 -0.8294  0.3419 -0.0610
 6952SOL    HW132492   0.985   0.385   6.148  0.3308 -0.0557  0.8747
 6952SOL    HW232493   1.052   0.261   6.169 -1.1086  2.1183  1.5659
 6953SOL     OW32494   0.270   4.463   8.799  0.2973 -0.1774 -0.1795
 6953SOL    HW132495   0.358   4.424   8.798  0.0895 -0.6346 -1.8975
 6953SOL    HW232496   0.222   4.396   8.751 -0.1683 -0.8928  1.3209
 6954SOL     OW32497   1.179   0.367  16.219 -0.0561 -0.7047 -0.5624
 6954SOL    HW132498   1.247   0.314  16.261  1.8710  1.5017 -0.9150
 6954SOL    HW232499   1.124   0.299  16.180 -0.3237 -1.2397  0.7509
 6955SOL     OW32500   2.794   3.418   8.806 -0.5210  0.5795  0.4112
 6955SOL    HW132501   2.814   3.347   8.744  1.5295 -0.0774  1.8667
 6955SOL    HW232502   2.776   3.487   8.743 -0.2623  1.0932  0.9079
 6956SOL     OW32503   4.487   4.023   7.284  0.5745 -0.0734 -0.0832
 6956SOL    HW132504   4.457   3.997   7.371 -1.3009  0.9699 -0.4010
 6956SOL    HW232505   4.517   4.114   7.287 -1.5470  0.6620 -0.5626
 6957SOL     OW32506   1.309   3.137   2.988 -0.2423 -0.1968 -0.1501
 6957SOL    HW132507   1.343   3.074   2.925  1.1746  1.1107 -0.6792
 6957SOL    HW232508   1.240   3.078   3.021  0.7462  0.2924  2.8011
 6958SOL     OW32509   2.799   2.998   8.406  0.4598  0.0488 -0.4311
 6958SOL    HW132510   2.879   2.962   8.367 -0.2460 -0.7129 -1.1649
 6958SOL    HW232511   2.736   2.941   8.362  1.4439 -1.7210  0.4474
 6959SOL     OW32512   4.583   1.874   1.225  0.2259 -0.5206 -0.3587
 6959SOL    HW132513   4.550   1.950   1.273  0.1656  0.2294 -1.5920
 6959SOL    HW232514   4.507   1.822   1.199 -1.4227  2.2746 -1.0946
 6960SOL     OW32515   2.219   1.190   5.063 -0.2708 -0.2858 -0.6200
 6960SOL    HW132516   2.308   1.163   5.041 -0.3863 -0.6193 -0.6686
 6960SOL    HW232517   2.200   1.130   5.135  0.0514 -0.8063 -0.9725
 6961SOL     OW32518   4.096   0.446   3.895  0.1628 -0.0271 -0.3077
 6961SOL    HW132519   4.012   0.416   3.862 -1.0354  0.2691  2.4219
 6961SOL    HW232520   4.089   0.536   3.863 -0.3445  0.9360  2.4694
 6962SOL     OW32521   1.920   4.407   8.726  0.2990 -0.0451  0.1760
 6962SOL    HW132522   1.947   4.348   8.657 -0.8185  1.4872 -1.5900
 6962SOL    HW232523   1.927   4.342   8.795 -1.7879 -0.7563 -0.2929
 6963SOL     OW32524   4.386   1.559   9.585 -0.3222  0.5574 -0.4704
 6963SOL    HW132525   4.348   1.587   9.668  0.4725  1.1820 -0.3181
 6963SOL    HW232526   4.470   1.604   9.581 -0.0501  0.1641  1.1179
 6964SOL     OW32527   4.576   0.659   2.389 -0.4393 -0.8263  0.2012
 6964SOL    HW132528   4.600   0.727   2.325  0.5776 -2.1808 -0.8520
 6964SOL    HW232529   4.504   0.614   2.346 -1.3635 -1.4164  2.3620
 6965SOL     OW32530   3.994   0.773  11.755  0.2967 -0.2988 -0.3066
 6965SOL    HW132531   4.035   0.701  11.706 -0.6768 -1.2555  0.2875
 6965SOL    HW232532   3.906   0.749  11.724 -0.4596  2.5281 -0.3011
 6966SOL     OW32533   4.420   3.995   9.559  0.4922 -0.1115 -0.1885
 6966SOL    HW132534   4.394   3.903   9.554 -0.8165  0.3006 -0.8913
 6966SOL    HW232535   4.371   4.039   9.490  1.4159  1.0372 -0.0998
 6967SOL     OW32536   3.922   0.425   2.083 -0.3470 -0.6919 -0.4332
 6967SOL    HW132537   3.894   0.341   2.119  2.0868 -0.5334  1.8099
 6967SOL    HW232538   3.959   0.406   1.997 -3.4121 -0.4074 -1.8229
 6968SOL     OW32539   2.561   2.191   4.221  0.1676 -0.8348 -0.0994
 6968SOL    HW132540   2.585   2.164   4.133 -2.3337  2.2203 -1.7080
 6968SOL    HW232541   2.556   2.100   4.251 -0.4871 -0.9095 -0.4415
 6969SOL     OW32542   2.019   0.202  16.428  0.1933  0.6267 -0.4015
 6969SOL    HW132543   1.988   0.128  16.480 -2.3440  1.8013 -0.2395
 6969SOL    HW232544   2.056   0.254  16.498 -0.0311  1.2943 -0.7775
 6970SOL     OW32545   0.483   3.706   6.942  0.1933  0.4665  0.0386
 6970SOL    HW132546   0.413   3.658   6.898  0.5325 -0.3324  0.3798
 6970SOL    HW232547   0.528   3.644   6.999 -1.5905  0.2847  1.2601
 6971SOL     OW32548   4.467   1.783   5.422  0.1306  0.0649 -0.4333
 6971SOL    HW132549   4.382   1.760   5.385 -0.3175  1.3471 -0.1780
 6971SOL    HW232550   4.449   1.809   5.512 -0.9695 -0.1585 -0.5987
 6972SOL     OW32551   1.559   3.953   1.673  0.2957 -0.4863 -0.4639
 6972SOL    HW132552   1.463   3.957   1.679  0.4973  2.0842  1.1291
 6972SOL    HW232553   1.581   4.015   1.603  0.0911 -2.6396 -2.4477
 6973SOL     OW32554   1.907   4.148  15.596 -0.0299  0.5787  0.5161
 6973SOL    HW132555   1.869   4.215  15.654 -0.6596  0.4907  0.2071
 6973SOL    HW232556   1.918   4.083  15.665  1.5153  1.5741  1.2207
 6974SOL     OW32557   0.803   2.243   9.043  0.0806 -0.4682 -0.1273
 6974SOL    HW132558   0.756   2.241   9.126 -0.5793  0.5858 -0.4696
 6974SOL    HW232559   0.840   2.331   9.050 -1.4350  0.0733  0.8918
 6975SOL     OW32560   2.132   0.012  15.803  0.2411  0.0599  0.3013
 6975SOL    HW132561   2.202   0.036  15.863 -1.7828  2.3040  1.7621
 6975SOL    HW232562   2.091   0.097  15.787 -1.9218 -0.7715  1.3115
 6976SOL     OW32563   3.575   0.295   2.661 -0.1205  0.1991 -0.0834
 6976SOL    HW132564   3.492   0.338   2.643  0.9383  2.1531 -0.2529
 6976SOL    HW232565   3.557   0.257   2.747  1.6460 -2.0193 -0.6629
 6977SOL     OW32566   3.587   2.415   2.920 -0.0982  0.4581  1.0665
 6977SOL    HW132567   3.514   2.424   2.858  0.3616  0.2407  0.4965
 6977SOL    HW232568   3.586   2.508   2.942 -0.1009  0.3252  1.6127
 6978SOL     OW32569   0.585   2.601   9.694  0.5190  0.4670  0.0373
 6978SOL    HW132570   0.617   2.536   9.756 -0.0160 -0.5935 -0.8046
 6978SOL    HW232571   0.671   2.607   9.651  0.0018  1.5530 -0.8630
 6979SOL     OW32572   2.311   1.703   5.004 -0.1277 -0.3353  0.3002
 6979SOL    HW132573   2.286   1.620   5.045  1.8762 -0.9284  0.3559
 6979SOL    HW232574   2.238   1.710   4.944 -0.5883 -1.6547  0.7061
 6980SOL     OW32575   4.414   3.958   6.713 -0.0598  0.4223  0.0974
 6980SOL    HW132576   4.331   3.941   6.758  0.4571  0.1913  0.9580
 6980SOL    HW232577   4.475   3.975   6.785 -1.4678 -1.4149  1.7487
 6981SOL     OW32578   3.406   2.978   8.600  0.2708 -0.1204  0.2971
 6981SOL    HW132579   3.491   2.942   8.575 -0.5528 -0.9191 -1.2928
 6981SOL    HW232580   3.418   3.068   8.569 -0.0886 -0.4562 -0.7882
 6982SOL     OW32581   3.690   4.550   5.231  0.3894 -0.4146 -0.1485
 6982SOL    HW132582   3.755   4.534   5.300  1.5216  1.0749 -0.8776
 6982SOL    HW232583   3.613   4.502   5.263 -1.8885  3.1028 -0.4629
 6983SOL     OW32584   4.331   3.718   7.628 -0.2713  0.4141 -0.0204
 6983SOL    HW132585   4.417   3.713   7.670 -0.6973 -2.2812  0.5458
 6983SOL    HW232586   4.323   3.629   7.593 -1.9292  0.0672  1.2567
 6984SOL     OW32587   3.245   2.484   2.146 -0.4489  0.1380  0.1970
 6984SOL    HW132588   3.231   2.418   2.214 -2.8963  0.6896  0.2193
 6984SOL    HW232589   3.258   2.561   2.201 -1.4346 -0.4098  1.1948
 6985SOL     OW32590   4.012   4.355   3.534 -0.0531  0.6534 -0.2668
 6985SOL    HW132591   4.022   4.312   3.619 -0.7351 -1.9615 -1.5164
 6985SOL    HW232592   4.045   4.443   3.554 -3.1082  1.8776 -0.5989
 6986SOL     OW32593   2.409   2.102   8.058 -0.1151  0.2894 -0.3768
 6986SOL    HW132594   2.320   2.066   8.053 -1.4213  3.3666  0.2545
 6986SOL    HW232595   2.435   2.065   8.142  2.0954 -0.6944 -1.5178
 6987SOL     OW32596   4.665   0.287   3.007  0.1196  0.1333 -0.0422
 6987SOL    HW132597   4.665   0.229   2.931  2.5541 -1.0390  0.8669
 6987SOL    HW232598   4.682   0.370   2.961 -0.1487  0.1957 -0.0306
 6988SOL     OW32599   2.538   3.334   3.245  0.0950  0.1078 -0.3735
 6988SOL    HW132600   2.445   3.346   3.227 -0.0008  0.0904  0.1152
 6988SOL    HW232601   2.547   3.248   3.284 -1.0810  1.3940  2.7077
 6989SOL     OW32602   2.526   3.036   6.222  0.4556 -1.0565 -0.1962
 6989SOL    HW132603   2.438   3.000   6.229  0.5815 -1.5041 -0.8592
 6989SOL    HW232604   2.561   2.996   6.142  0.3285  2.6673 -2.0732
 6990SOL     OW32605   1.986   0.104   9.751 -0.2133  0.5810  0.2078
 6990SOL    HW132606   2.063   0.151   9.719 -1.9358  1.9881 -1.8917
 6990SOL    HW232607   1.961   0.156   9.828 -0.4010  1.9814 -0.8026
 6991SOL     OW32608   4.182   2.530   7.472  0.5527  0.1032  0.0999
 6991SOL    HW132609   4.223   2.515   7.387 -0.1736 -2.5814  0.2067
 6991SOL    HW232610   4.105   2.475   7.453  1.3335 -0.4349 -1.5717
 6992SOL     OW32611   1.905   1.094  16.704  0.3223 -0.0164 -0.3493
 6992SOL    HW132612   1.914   1.024  16.639  2.1070 -0.6906  0.6176
 6992SOL    HW232613   1.987   1.136  16.680  0.0184  0.0765 -1.2064
 6993SOL     OW32614   2.653   0.629  12.342 -0.2836  0.5593  0.0107
 6993SOL    HW132615   2.558   0.627  12.353 -0.4497 -1.1079 -1.8417
 6993SOL    HW232616   2.682   0.539  12.334  0.1461  0.6838  0.1579
 6994SOL     OW32617   0.449   4.598   6.781  0.0578 -0.1821  0.5018
 6994SOL    HW132618   0.434   4.636   6.695  0.5050 -3.6973 -1.1255
 6994SOL    HW232619   0.528   4.547   6.763  0.0536 -0.2227  0.5997
 6995SOL     OW32620   4.177   3.310   4.903  0.2065  0.1002 -0.3757
 6995SOL    HW132621   4.258   3.297   4.853 -0.0572 -0.6280 -0.6216
 6995SOL    HW232622   4.115   3.333   4.834  2.0342  0.0497 -2.0324
 6996SOL     OW32623   0.682   4.061   4.870  0.4051  0.3743  0.1017
 6996SOL    HW132624   0.685   4.120   4.946 -0.2082  0.8269 -0.2227
 6996SOL    HW232625   0.721   4.125   4.810  0.6046  1.0256  0.9266
 6997SOL     OW32626   3.682   2.279   6.497 -0.1601  0.0777 -0.3691
 6997SOL    HW132627   3.754   2.271   6.434 -0.4017 -1.9045 -0.3910
 6997SOL    HW232628   3.721   2.282   6.584  0.6793  0.2136 -0.7469
 6998SOL     OW32629   2.289   3.785  13.347 -0.1706 -0.2134 -0.0186
 6998SOL    HW132630   2.285   3.744  13.261  0.7123 -1.6433  0.6092
 6998SOL    HW232631   2.346   3.860  13.337 -0.0714 -0.4730 -1.3077
 6999SOL     OW32632   0.033   3.845   6.875 -0.2243 -0.0758 -0.2030
 6999SOL    HW132633   0.038   3.876   6.966  1.0134 -1.8061  0.3173
 6999SOL    HW232634   4.682   3.805   6.875 -0.4055  0.3039  1.6279
 7000SOL     OW32635   1.651   0.538  12.801 -0.2175 -0.2006 -0.1670
 7000SOL    HW132636   1.557   0.520  12.804  0.1039 -1.7941  0.4696
 7000SOL    HW232637   1.669   0.587  12.882  0.2728  1.3382 -1.2039
 7001SOL     OW32638   2.642   3.088   2.316 -0.5399  0.3252  0.1811
 7001SOL    HW132639   2.568   3.053   2.267  1.3940 -1.1381 -1.6827
 7001SOL    HW232640   2.700   3.013   2.331  0.3045  0.8739 -0.3875
 7002SOL     OW32641   2.203   4.264   8.666  1.0257 -0.1704 -0.7420
 7002SOL    HW132642   2.239   4.350   8.640 -0.3739  0.7473  0.3734
 7002SOL    HW232643   2.121   4.262   8.617  1.9374  1.7499 -2.3537
 7003SOL     OW32644   0.968   1.468   6.829 -0.3673 -0.2150 -0.4413
 7003SOL    HW132645   0.998   1.436   6.914  2.0087  2.0728 -0.4167
 7003SOL    HW232646   0.995   1.399   6.767 -0.7096 -1.4049  0.7366
 7004SOL     OW32647   1.763   3.478   9.231 -0.0340 -0.3199 -0.3867
 7004SOL    HW132648   1.826   3.541   9.265  0.0511 -0.1150 -0.9122
 7004SOL    HW232649   1.780   3.481   9.136  1.2499 -0.9589 -0.1721
 7005SOL     OW32650   3.547   1.815  12.309 -0.4514 -0.8163 -0.0178
 7005SOL    HW132651   3.507   1.897  12.279 -0.4009 -0.4893  0.8080
 7005SOL    HW232652   3.478   1.790  12.370  1.6847 -3.0928  1.4813
 7006SOL     OW32653   2.792   4.619   2.089  0.4931  0.1572  0.5178
 7006SOL    HW132654   2.871   4.641   2.138  1.2532  0.0074 -0.6289
 7006SOL    HW232655   2.761   4.708   2.075  0.8092  0.1054 -0.5697
 7007SOL     OW32656   4.194   3.382   8.371  0.5159 -0.2453  0.3914
 7007SOL    HW132657   4.189   3.448   8.440  2.0083 -0.1923  0.4531
 7007SOL    HW232658   4.150   3.430   8.301 -0.4387 -0.4395  0.8561
 7008SOL     OW32659   4.055   2.791   5.296  0.4193  0.2666 -0.5609
 7008SOL    HW132660   4.148   2.794   5.316  0.2621 -0.5189  0.2987
 7008SOL    HW232661   4.013   2.772   5.380  1.7583 -0.4607 -0.0652
 7009SOL     OW32662   1.529   0.555   8.497 -0.1558 -0.2201 -0.4444
 7009SOL    HW132663   1.554   0.463   8.490 -0.6358 -0.3030 -1.1688
 7009SOL    HW232664   1.547   0.568   8.590 -1.4138  1.0605 -0.3706
 7010SOL     OW32665   4.249   0.398   3.521 -0.0566 -0.5286  0.0515
 7010SOL    HW132666   4.246   0.324   3.461  0.1330 -1.3356  1.0328
 7010SOL    HW232667   4.175   0.376   3.578 -0.4453  1.6590  0.3702
 7011SOL     OW32668   4.647   4.014  15.963 -0.6943 -0.7476  0.5222
 7011SOL    HW132669   4.576   4.067  15.925  1.9849  2.0828 -0.5388
 7011SOL    HW232670   4.631   3.940  15.905  1.7998 -0.0663 -0.9983
 7012SOL     OW32671   1.662   4.568   2.384 -0.2424 -0.2223 -0.1526
 7012SOL    HW132672   1.603   4.505   2.424 -0.3948  0.0193 -0.0018
 7012SOL    HW232673   1.749   4.530   2.367 -0.2396  0.2671 -1.2828
 7013SOL     OW32674   0.299   0.908   7.291  0.3198  0.2045 -0.0700
 7013SOL    HW132675   0.209   0.938   7.306 -0.2928 -1.1449 -1.0367
 7013SOL    HW232676   0.297   0.813   7.304 -0.4141  0.4154  1.2597
 7014SOL     OW32677   3.997   4.148   9.250 -0.5598 -0.0133 -0.2398
 7014SOL    HW132678   4.037   4.087   9.188 -1.1614  0.2891 -0.9155
 7014SOL    HW232679   3.964   4.084   9.314 -0.7290 -0.3688 -0.6828
 7015SOL     OW32680   1.730   0.549   7.351  0.2498 -0.0696  0.1348
 7015SOL    HW132681   1.774   0.588   7.426  1.1521  0.6894 -0.7929
 7015SOL    HW232682   1.806   0.513   7.306 -0.8212 -1.5668 -0.4741
 7016SOL     OW32683   2.006   3.874  15.356  0.0805  0.0233  0.4333
 7016SOL    HW132684   2.097   3.876  15.328 -0.2261 -1.2309 -0.6286
 7016SOL    HW232685   1.947   3.894  15.283  2.8218  1.5772 -1.3220
 7017SOL     OW32686   3.393   2.311   6.648  0.0691 -0.5697  0.0355
 7017SOL    HW132687   3.319   2.252   6.637 -0.5159  0.2686 -0.5483
 7017SOL    HW232688   3.353   2.395   6.626  0.7802 -0.1838  0.2090
 7018SOL     OW32689   0.597   2.876   4.613 -0.1967  0.4324  0.2691
 7018SOL    HW132690   0.663   2.852   4.678 -1.2801  0.1723  1.2736
 7018SOL    HW232691   0.571   2.957   4.657 -0.4748  1.5296 -1.9359
 7019SOL     OW32692   0.930   0.135  12.472  0.3612 -0.4236 -0.3139
 7019SOL    HW132693   0.844   0.137  12.432  0.7323 -1.0071 -1.1584
 7019SOL    HW232694   0.964   0.221  12.446  0.1077 -0.6122 -1.2659
 7020SOL     OW32695   0.466   4.560   3.994 -0.0498 -0.0167 -0.0798
 7020SOL    HW132696   0.533   4.501   3.960  0.2714  0.1295  0.3042
 7020SOL    HW232697   0.390   4.502   3.987  0.3531 -0.5793  0.2102
 7021SOL     OW32698   4.060   4.495  15.970 -0.3623 -0.2900 -0.1041
 7021SOL    HW132699   4.001   4.492  15.895  0.4897 -0.1447 -0.7764
 7021SOL    HW232700   3.998   4.470  16.039 -1.2262 -1.9559 -1.4653
 7022SOL     OW32701   3.016   4.401   3.861  0.4275 -0.6092  0.4491
 7022SOL    HW132702   2.926   4.420   3.888  0.1412  1.2563 -1.8586
 7022SOL    HW232703   3.046   4.483   3.822  0.7773 -0.1827  1.6119
 7023SOL     OW32704   2.392   4.488   5.476 -0.5968  0.2340 -0.1161
 7023SOL    HW132705   2.443   4.454   5.402 -0.9550  0.9027 -0.6644
 7023SOL    HW232706   2.366   4.405   5.515 -1.5099  0.7599  0.3995
 7024SOL     OW32707   0.350   1.457   4.544  0.2227 -0.3972  0.4384
 7024SOL    HW132708   0.367   1.537   4.594  0.0531  0.0926 -0.2802
 7024SOL    HW232709   0.255   1.450   4.558  0.2237  0.5899  0.9301
 7025SOL     OW32710   2.419   4.516   6.440  0.0726 -0.0236 -0.1851
 7025SOL    HW132711   2.378   4.435   6.411  0.7334  0.2382 -1.8660
 7025SOL    HW232712   2.381   4.514   6.527  1.4474 -1.2252  0.3909
 7026SOL     OW32713   1.375   0.811   0.937  0.0801  0.4359  0.1010
 7026SOL    HW132714   1.371   0.723   0.972  3.1225  0.0627 -0.4697
 7026SOL    HW232715   1.289   0.849   0.955  1.1644  2.1395  1.7855
 7027SOL     OW32716   4.707   2.940  14.752 -0.3947  0.3558  0.3519
 7027SOL    HW132717   0.042   2.877  14.763  0.3050  0.9269 -0.9517
 7027SOL    HW232718   4.671   2.915  14.666 -0.5997  1.6899  0.0458
 7028SOL     OW32719   1.531   3.862   4.087  0.1753  0.1238  0.1641
 7028SOL    HW132720   1.563   3.847   4.175  0.0066  0.7200  0.3321
 7028SOL    HW232721   1.437   3.870   4.104 -0.0714 -2.0637 -0.1443
 7029SOL     OW32722   4.497   3.111   1.441  0.7081  0.9686 -0.1322
 7029SOL    HW132723   4.557   3.079   1.374  0.4646  0.9561 -0.3428
 7029SOL    HW232724   4.544   3.182   1.485  0.7588  0.8270  0.0439
 7030SOL     OW32725   1.153   4.726  13.373  0.0798 -0.4929 -0.5986
 7030SOL    HW132726   1.082   4.723  13.437 -0.8597  1.0431 -1.5593
 7030SOL    HW232727   1.125   4.666  13.304  1.9076 -1.7611 -0.2442
 7031SOL     OW32728   3.701   2.909  11.133  0.3845 -0.0420 -0.0679
 7031SOL    HW132729   3.788   2.934  11.101  0.6946  0.3855  1.1320
 7031SOL    HW232730   3.695   2.956  11.216 -0.8918  0.8141 -0.6539
 7032SOL     OW32731   1.541   2.763   8.135  0.1205  0.2010 -0.5580
 7032SOL    HW132732   1.489   2.710   8.075 -0.4473 -1.4325  1.3756
 7032SOL    HW232733   1.470   2.784   8.195  1.0232  2.1901 -0.1817
 7033SOL     OW32734   0.165   1.722   5.993 -0.2525  0.3937  0.2968
 7033SOL    HW132735   0.166   1.721   5.897 -1.3559  0.5686  0.2815
 7033SOL    HW232736   0.100   1.791   6.008  0.2894  0.5042  2.0566
 7034SOL     OW32737   2.106   0.195  12.362 -0.0237 -0.0542  0.0730
 7034SOL    HW132738   2.187   0.157  12.329  1.3884  2.1453  1.0048
 7034SOL    HW232739   2.038   0.154  12.308 -1.2236 -0.2469  1.7341
 7035SOL     OW32740   3.792   1.208   5.221 -0.3959  0.4264 -0.5068
 7035SOL    HW132741   3.880   1.172   5.205 -0.4116  0.0746  0.1775
 7035SOL    HW232742   3.809   1.287   5.274 -0.1048  0.5031 -0.7133
 7036SOL     OW32743   3.747   3.791  13.059 -0.1463  0.1448 -0.0462
 7036SOL    HW132744   3.803   3.832  12.993 -0.0949 -0.2605 -0.2593
 7036SOL    HW232745   3.789   3.781  13.144 -1.0113 -1.8777  0.1447
 7037SOL     OW32746   3.170   2.502   5.824 -0.4311  0.3508  0.3086
 7037SOL    HW132747   3.265   2.495   5.831 -0.2603  0.8397 -1.6637
 7037SOL    HW232748   3.169   2.597   5.814  2.7204  0.4340  0.8667
 7038SOL     OW32749   2.031   0.030   9.048 -0.5830  0.1232  0.6632
 7038SOL    HW132750   2.017   0.114   9.005 -0.0533  1.5301  3.2934
 7038SOL    HW232751   1.953   0.018   9.102  0.1099  0.8105  1.8072
 7039SOL     OW32752   3.867   2.783   9.753  0.2872  0.1087  0.7057
 7039SOL    HW132753   3.838   2.760   9.841 -0.5333 -1.3260  0.0612
 7039SOL    HW232754   3.786   2.750   9.715  0.3378 -1.5333  2.0060
 7040SOL     OW32755   3.378   2.993   0.205 -0.3124  0.5028 -0.1922
 7040SOL    HW132756   3.416   2.908   0.225  0.8713  1.0330 -0.1936
 7040SOL    HW232757   3.403   2.992   0.113  1.2727  1.2440  0.2325
 7041SOL     OW32758   1.816   3.689   5.128  0.2138  0.4441 -0.2226
 7041SOL    HW132759   1.767   3.662   5.206 -2.1568 -0.3187 -1.9863
 7041SOL    HW232760   1.853   3.768   5.169  1.0711  0.6921 -1.4846
 7042SOL     OW32761   3.715   1.782   4.539  0.5674  0.7415  0.3189
 7042SOL    HW132762   3.772   1.833   4.482 -0.2077  1.1658 -0.0713
 7042SOL    HW232763   3.767   1.775   4.620 -0.7920  1.6777  1.2585
 7043SOL     OW32764   2.162   3.908   3.833  0.0386 -0.7371 -0.2052
 7043SOL    HW132765   2.179   3.866   3.749 -1.1949  0.4784 -1.0775
 7043SOL    HW232766   2.225   3.980   3.840 -1.9345  0.8458  1.2335
 7044SOL     OW32767   1.811   4.182   9.862  0.2660 -0.1634 -0.2611
 7044SOL    HW132768   1.767   4.176   9.777 -0.3004  1.0415 -0.0617
 7044SOL    HW232769   1.747   4.234   9.911  0.8426  0.5178 -0.2232
 7045SOL     OW32770   2.817   0.528   2.290 -0.1287 -0.6269  0.0951
 7045SOL    HW132771   2.807   0.590   2.363  0.6456 -1.1560  0.6537
 7045SOL    HW232772   2.745   0.557   2.234  1.5798  0.5551 -1.5010
 7046SOL     OW32773   3.536   3.560   7.194  0.7717 -0.2607 -0.4333
 7046SOL    HW132774   3.505   3.649   7.207 -0.4058 -0.7064 -0.2526
 7046SOL    HW232775   3.501   3.510   7.268  1.1160  1.0164  0.6029
 7047SOL     OW32776   1.138   3.101  11.187  0.1644  0.2089 -0.5639
 7047SOL    HW132777   1.077   3.169  11.157  2.4041  2.3393 -0.2924
 7047SOL    HW232778   1.186   3.085  11.106  1.7666  2.3858 -0.0511
 7048SOL     OW32779   3.984   3.090   5.028  0.1302 -0.6342 -0.5359
 7048SOL    HW132780   4.023   3.092   5.116 -1.8883 -2.0521  0.3869
 7048SOL    HW232781   4.053   3.142   4.986 -0.8548  0.1008 -1.2247
 7049SOL     OW32782   4.313   1.355   2.739  0.0590 -0.2491 -1.0121
 7049SOL    HW132783   4.309   1.422   2.807 -0.0568 -1.6995  0.4129
 7049SOL    HW232784   4.382   1.299   2.773 -1.3817 -2.2628 -1.4143
 7050SOL     OW32785   3.725   3.048  15.866  0.0422  0.0778  0.0799
 7050SOL    HW132786   3.748   3.070  15.776 -0.3267  1.3246  0.2900
 7050SOL    HW232787   3.788   2.978  15.881 -0.9826 -0.8670  0.0037
 7051SOL     OW32788   1.276   2.631   8.597 -0.6790  0.3915  0.2199
 7051SOL    HW132789   1.263   2.536   8.598  1.5777  0.0923  1.5873
 7051SOL    HW232790   1.359   2.626   8.550 -1.2450 -0.2397 -0.6975
 7052SOL     OW32791   2.507   1.568   5.221  0.3461  0.4059  0.2496
 7052SOL    HW132792   2.516   1.548   5.127  2.8923 -0.2495  0.6176
 7052SOL    HW232793   2.462   1.494   5.260 -0.2561  0.4176 -0.4350
 7053SOL     OW32794   4.592   3.830  15.765 -0.6121 -0.0240 -0.2135
 7053SOL    HW132795   4.619   3.858  15.677  0.9990  0.8485  0.5638
 7053SOL    HW232796   4.615   3.737  15.768 -1.3620 -0.2030 -0.1904
 7054SOL     OW32797   1.159   3.346  13.787  0.3103  0.6220  0.3536
 7054SOL    HW132798   1.115   3.420  13.746 -2.5655 -0.4555  1.4569
 7054SOL    HW232799   1.247   3.380  13.800  0.7603 -0.4377  0.0520
 7055SOL     OW32800   2.437   1.836  17.446 -1.0198 -0.3870 -0.1913
 7055SOL    HW132801   2.430   1.863  17.355  0.5162  0.0504 -0.1772
 7055SOL    HW232802   2.348   1.811  17.472 -0.1968 -1.9930  1.0903
 7056SOL     OW32803   1.347   0.238   1.811  0.1230  0.0243  0.1968
 7056SOL    HW132804   1.421   0.201   1.858 -0.9559 -0.6515  1.3523
 7056SOL    HW232805   1.309   0.282   1.886  0.8500 -0.6199  0.9377
 7057SOL     OW32806   1.814   3.643   7.931 -0.4197  0.3960 -0.0318
 7057SOL    HW132807   1.748   3.656   8.000  0.4088  2.1340  0.4408
 7057SOL    HW232808   1.827   3.549   7.941 -0.1812  0.4529  0.1925
 7058SOL     OW32809   2.850   3.339   8.254 -0.5211  0.1668  0.2503
 7058SOL    HW132810   2.766   3.369   8.218 -0.6739  1.4857  1.6913
 7058SOL    HW232811   2.911   3.410   8.233  2.3864 -2.3611  0.1671
 7059SOL     OW32812   1.475   4.171   7.132 -0.1096  0.1767 -0.6509
 7059SOL    HW132813   1.431   4.185   7.048 -0.7958 -1.1712 -0.5198
 7059SOL    HW232814   1.496   4.262   7.152 -0.0471  0.0323 -0.0778
 7060SOL     OW32815   2.473   2.629   3.026  0.2250  0.2898 -0.1895
 7060SOL    HW132816   2.423   2.554   2.994 -0.7550  0.9708 -0.2497
 7060SOL    HW232817   2.540   2.636   2.958 -0.5571  0.6363 -0.9222
 7061SOL     OW32818   2.592   2.462   4.323  0.3190 -0.6902  0.0192
 7061SOL    HW132819   2.520   2.521   4.300 -0.0209  0.0215  2.9038
 7061SOL    HW232820   2.591   2.391   4.259  1.5503  0.6516 -1.4729
 7062SOL     OW32821   0.768   3.917   6.601  0.3380 -0.3267  1.0274
 7062SOL    HW132822   0.777   3.879   6.514 -0.1071 -0.9284  1.2430
 7062SOL    HW232823   0.679   3.894   6.629  0.2120 -0.5147  0.4864
 7063SOL     OW32824   3.568   1.450   2.264 -0.2612 -0.4319 -0.2158
 7063SOL    HW132825   3.652   1.496   2.259 -0.7571  0.4222 -0.8125
 7063SOL    HW232826   3.520   1.499   2.331  2.5225  2.9141 -0.6171
 7064SOL     OW32827   4.587   1.079   4.332 -0.0295  0.3730 -0.2502
 7064SOL    HW132828   4.542   1.153   4.373  0.3729 -0.0149  0.9089
 7064SOL    HW232829   4.555   1.082   4.242  2.0420  0.9578 -0.9471
 7065SOL     OW32830   1.802   2.180  12.874  0.2515 -0.2326 -0.3242
 7065SOL    HW132831   1.803   2.196  12.780  0.7324 -1.0849 -0.4672
 7065SOL    HW232832   1.782   2.086  12.874 -1.1228  0.0560 -1.8882
 7066SOL     OW32833   2.651   1.050   3.863 -0.3566 -0.6328 -0.0277
 7066SOL    HW132834   2.622   1.011   3.781 -0.3182 -1.7927  0.5132
 7066SOL    HW232835   2.619   1.139   3.845  0.9318 -0.1883 -0.1014
 7067SOL     OW32836   1.667   3.009   6.273  0.2047  0.1394  0.1932
 7067SOL    HW132837   1.577   3.020   6.244 -0.1792 -0.3389  1.1920
 7067SOL    HW232838   1.705   3.097   6.271  0.1058  0.2369  2.3194
 7068SOL     OW32839   3.254   1.887  11.164 -0.4214  0.0201 -0.2681
 7068SOL    HW132840   3.211   1.914  11.083 -0.3495 -0.4033 -0.4450
 7068SOL    HW232841   3.308   1.816  11.128 -0.2643  0.3453 -0.6788
 7069SOL     OW32842   3.257   4.568   7.149  0.0843 -0.2935 -0.2506
 7069SOL    HW132843   3.198   4.522   7.089 -0.7303 -0.8048  0.9299
 7069SOL    HW232844   3.186   4.606   7.201  0.1033 -0.6048  0.0110
 7070SOL     OW32845   1.683   4.336   9.413 -0.1365 -0.2860 -0.4140
 7070SOL    HW132846   1.668   4.352   9.320  0.5360  0.8799 -0.3126
 7070SOL    HW232847   1.778   4.324   9.414  0.0330  1.1928  2.8753
 7071SOL     OW32848   0.444   0.508   3.504  0.0663  0.0836  0.4092
 7071SOL    HW132849   0.374   0.535   3.563  0.7170 -0.3630  1.3990
 7071SOL    HW232850   0.427   0.567   3.431  1.6897 -1.3430 -1.1030
 7072SOL     OW32851   1.336   0.516  11.912  0.0453 -0.4214 -0.2311
 7072SOL    HW132852   1.383   0.596  11.893 -1.7335  0.3607 -1.3282
 7072SOL    HW232853   1.277   0.517  11.837 -2.3338  1.0870  1.6563
 7073SOL     OW32854   4.723   3.581   3.566  0.3467 -0.2527  0.2626
 7073SOL    HW132855   4.671   3.502   3.580 -0.7595  0.6102  1.0056
 7073SOL    HW232856   4.671   3.598   3.488 -2.1398 -0.1509  1.9546
 7074SOL     OW32857   0.088   1.196  11.329 -1.1182  0.4089 -0.2003
 7074SOL    HW132858   0.010   1.150  11.360 -0.3421 -0.6910  0.0823
 7074SOL    HW232859   0.136   1.204  11.411 -3.7304 -1.8338  1.5676
 7075SOL     OW32860   2.862   3.803   6.847  0.2946 -0.3521  0.2347
 7075SOL    HW132861   2.834   3.812   6.938 -1.9211  1.1156 -0.5989
 7075SOL    HW232862   2.925   3.732   6.836  2.8757  1.2558  4.6304
 7076SOL     OW32863   2.366   1.383  11.224 -0.1095 -0.4649  0.3035
 7076SOL    HW132864   2.402   1.350  11.142  1.2048  2.3882 -0.2475
 7076SOL    HW232865   2.426   1.456  11.242  0.7799 -1.1466  0.0933
 7077SOL     OW32866   0.422   4.008   9.671 -0.7238 -0.5336 -0.0529
 7077SOL    HW132867   0.437   3.918   9.699 -0.2466 -0.6554 -0.7160
 7077SOL    HW232868   0.489   4.013   9.603  0.2792  3.4105  1.2187
 7078SOL     OW32869   2.424   4.481   2.003  0.2679 -0.0056  0.7841
 7078SOL    HW132870   2.335   4.445   2.001 -0.1736  1.1203  0.5169
 7078SOL    HW232871   2.406   4.575   2.008  0.0021 -0.0611  0.8976
 7079SOL     OW32872   4.303   4.375   4.924  0.7921  0.2316 -0.3164
 7079SOL    HW132873   4.305   4.303   4.987  2.1957  0.7892  0.2713
 7079SOL    HW232874   4.208   4.389   4.914  0.6575 -1.5866 -1.6133
 7080SOL     OW32875   4.152   0.169   6.688 -0.7354  0.7618 -0.2466
 7080SOL    HW132876   4.145   0.093   6.630 -0.7415  0.3165  0.3268
 7080SOL    HW232877   4.059   0.168   6.711 -0.0448  0.5566  2.5609
 7081SOL     OW32878   1.962   4.698  16.556  0.1127  0.1466 -0.0094
 7081SOL    HW132879   1.873   4.704  16.592 -0.1168 -1.8092 -0.2075
 7081SOL    HW232880   2.002   4.680  16.641 -1.0312  1.8005  0.8675
 7082SOL     OW32881   3.137   1.629   4.079 -0.0997 -0.7907 -0.1999
 7082SOL    HW132882   3.177   1.712   4.106  1.0155 -1.4818  0.2485
 7082SOL    HW232883   3.050   1.632   4.119  0.7296  1.6124  1.4285
 7083SOL     OW32884   3.485   4.128   9.705  0.7125 -0.0056 -0.2259
 7083SOL    HW132885   3.478   4.076   9.625 -0.4053  0.7041 -0.5927
 7083SOL    HW232886   3.503   4.207   9.653  3.0039 -0.5484 -0.2394
 7084SOL     OW32887   3.342   1.356   9.773  0.1517  0.2299  0.4997
 7084SOL    HW132888   3.402   1.431   9.781  0.9907 -0.3210 -0.5965
 7084SOL    HW232889   3.305   1.380   9.857 -0.4238  1.6784 -0.1701
 7085SOL     OW32890   3.642   0.317   3.039 -0.3432 -0.5947 -0.0008
 7085SOL    HW132891   3.684   0.378   2.978 -1.6139  0.4333  0.1541
 7085SOL    HW232892   3.596   0.249   2.990 -1.4466  0.2090 -0.0784
 7086SOL     OW32893   3.127   3.491   9.706 -0.1123 -0.0175  1.0965
 7086SOL    HW132894   3.175   3.574   9.695 -1.2952  0.3992 -0.9594
 7086SOL    HW232895   3.083   3.495   9.621  0.7752  1.1600  0.6820
 7087SOL     OW32896   0.163   1.908   6.638 -0.0777  0.0970  0.4801
 7087SOL    HW132897   0.214   1.867   6.708 -2.4413 -0.6530  1.7688
 7087SOL    HW232898   0.086   1.851   6.644  1.0284 -1.4099  0.4283
 7088SOL     OW32899   3.406   0.870   4.768 -0.1889  0.6842 -0.4379
 7088SOL    HW132900   3.345   0.917   4.711  0.8818  1.3578 -1.0379
 7088SOL    HW232901   3.376   0.779   4.760 -0.8519  0.7205  1.8671
 7089SOL     OW32902   2.919   3.533   7.696 -0.5550  0.1347 -0.6786
 7089SOL    HW132903   2.993   3.482   7.664  0.1741 -0.6177  2.1876
 7089SOL    HW232904   2.965   3.575   7.768  0.3025  0.5959 -1.5062
 7090SOL     OW32905   2.053   0.871  15.611  0.6388 -0.0431 -0.0108
 7090SOL    HW132906   2.039   0.778  15.628 -0.8122 -0.1186 -1.5444
 7090SOL    HW232907   2.005   0.916  15.681 -1.2428 -2.3060  0.1529
 7091SOL     OW32908   4.362   2.419   9.390 -0.4240  0.6858  0.2819
 7091SOL    HW132909   4.407   2.404   9.474 -2.3976 -0.1340  1.2024
 7091SOL    HW232910   4.432   2.392   9.330 -1.1129  1.1121 -0.7035
 7092SOL     OW32911   1.403   4.301   9.540 -0.4459  0.2348  0.3355
 7092SOL    HW132912   1.399   4.208   9.515  0.8421  0.3861 -0.4019
 7092SOL    HW232913   1.469   4.305   9.609  0.9188  0.6374 -0.9983
 7093SOL     OW32914   0.624   1.791   5.086  0.7249  0.4911  0.4891
 7093SOL    HW132915   0.658   1.753   5.005  1.4214  1.4017  0.3601
 7093SOL    HW232916   0.691   1.849   5.120 -0.3234  0.0520  3.2692
 7094SOL     OW32917   3.641   0.380  10.155 -0.1309 -0.1314 -0.0332
 7094SOL    HW132918   3.581   0.401  10.084 -1.1753 -2.4401  0.1575
 7094SOL    HW232919   3.704   0.326  10.108  1.6008  1.5210  0.4020
 7095SOL     OW32920   1.918   0.451   3.727  0.1377  0.4305  0.3010
 7095SOL    HW132921   1.859   0.382   3.758  2.2052 -1.2323  0.5060
 7095SOL    HW232922   1.996   0.435   3.780 -0.5560  1.3821  1.6393
 7096SOL     OW32923   3.515   2.445   6.953 -0.4455 -0.0255  0.4545
 7096SOL    HW132924   3.462   2.524   6.963 -4.1560 -2.4898  0.3227
 7096SOL    HW232925   3.450   2.379   6.975  1.3167 -1.5350  1.1140
 7097SOL     OW32926   1.833   2.156  12.579 -0.1965  0.2192 -0.2137
 7097SOL    HW132927   1.854   2.248  12.595  1.8247  0.2851 -3.2078
 7097SOL    HW232928   1.759   2.159  12.518 -1.3170  0.5814  1.1644
 7098SOL     OW32929   0.366   2.906  13.392 -0.0549 -0.1163  0.2249
 7098SOL    HW132930   0.327   2.847  13.327 -1.1437 -0.9415  1.6178
 7098SOL    HW232931   0.453   2.915  13.353  0.1639  1.5170  1.0839
 7099SOL     OW32932   0.035   2.183   4.114  0.6548  0.6112  0.1825
 7099SOL    HW132933   0.085   2.171   4.034 -1.3033  0.3973 -1.0123
 7099SOL    HW232934   4.686   2.199   4.074  1.1402  0.3072 -0.9687
 7100SOL     OW32935   3.539   4.611  11.942  0.1046  0.1048  0.2661
 7100SOL    HW132936   3.544   4.570  11.856  1.6762  2.1628 -0.6291
 7100SOL    HW232937   3.623   4.658  11.940 -0.7336  1.6444  0.7242
 7101SOL     OW32938   4.399   0.803  14.774  0.5593 -0.3799 -0.2293
 7101SOL    HW132939   4.374   0.711  14.764  1.6066 -0.4990 -1.8268
 7101SOL    HW232940   4.320   0.846  14.740 -0.9246 -1.3531  2.0108
 7102SOL     OW32941   4.371   1.105   4.736 -0.5106 -0.4819 -0.0566
 7102SOL    HW132942   4.402   1.175   4.678 -1.2246 -0.0648  0.0640
 7102SOL    HW232943   4.281   1.136   4.730 -1.5768 -3.3154  1.4126
 7103SOL     OW32944   1.108   3.327   9.343 -0.8459  0.2575  0.3752
 7103SOL    HW132945   1.171   3.276   9.395  0.5379 -0.7240 -2.2785
 7103SOL    HW232946   1.129   3.302   9.253  0.7042  0.4507  0.6801
 7104SOL     OW32947   4.654   2.527   8.245  0.0716  0.1495  0.2774
 7104SOL    HW132948   4.569   2.568   8.228 -0.4179 -1.2046 -0.5207
 7104SOL    HW232949   4.674   2.549   8.336  0.2769 -0.8732  0.4839
 7105SOL     OW32950   3.138   0.238   4.202 -0.2137  0.1783 -0.2189
 7105SOL    HW132951   3.185   0.276   4.276  1.5132 -1.8320 -0.2749
 7105SOL    HW232952   3.060   0.292   4.191  0.1184  0.7420  0.2450
 7106SOL     OW32953   0.097   1.830   3.218 -0.7780  0.2603  0.2172
 7106SOL    HW132954   0.139   1.878   3.147 -3.0228  0.5831 -0.8738
 7106SOL    HW232955   0.033   1.771   3.178 -0.9053  0.6252 -0.1062
 7107SOL     OW32956   4.506   0.570   5.060  0.2566  0.3578  0.0687
 7107SOL    HW132957   4.452   0.643   5.090 -3.5276 -1.6451 -1.8306
 7107SOL    HW232958   4.529   0.525   5.141  0.5778  1.0361  0.3451
 7108SOL     OW32959   3.906   0.368   4.212 -0.4153  0.0556 -0.1785
 7108SOL    HW132960   3.940   0.437   4.269  1.2532 -0.5020 -0.4908
 7108SOL    HW232961   3.888   0.295   4.271  0.3976 -0.2649 -0.3223
 7109SOL     OW32962   3.710   1.560   8.629 -0.4906  0.7098 -0.0015
 7109SOL    HW132963   3.746   1.645   8.606  1.1234 -1.0093 -3.7940
 7109SOL    HW232964   3.648   1.590   8.696 -0.7593  2.4279 -1.0090
 7110SOL     OW32965   0.567   2.661   8.621 -0.0389  0.5776 -0.8022
 7110SOL    HW132966   0.574   2.651   8.526  0.5828  1.1587 -0.8135
 7110SOL    HW232967   0.572   2.757   8.621  0.2229  0.5631 -0.9717
 7111SOL     OW32968   3.348   1.538  15.019  0.1592 -0.3804  0.0906
 7111SOL    HW132969   3.361   1.577  14.932 -0.1381  0.1318  0.2763
 7111SOL    HW232970   3.432   1.494  15.027  1.1646  1.7541  1.2621
 7112SOL     OW32971   3.828   1.878   1.988 -0.1322 -0.0894  0.2534
 7112SOL    HW132972   3.904   1.821   1.973  1.1984  1.5015  0.8783
 7112SOL    HW232973   3.756   1.827   1.952  0.9187 -0.6432 -1.0864
 7113SOL     OW32974   0.536   3.075   3.879 -0.1861  0.2890  0.9770
 7113SOL    HW132975   0.497   3.153   3.841  0.0101 -0.3531 -0.5504
 7113SOL    HW232976   0.623   3.084   3.840 -1.1326 -0.6822 -1.3672
 7114SOL     OW32977   0.685   1.291   1.828 -0.0196 -0.4230 -0.9952
 7114SOL    HW132978   0.601   1.332   1.849  0.0105 -2.2673  2.6625
 7114SOL    HW232979   0.675   1.262   1.737 -0.5771  0.7547 -1.3113
 7115SOL     OW32980   1.824   3.636   3.486  0.0431 -0.0502 -0.5246
 7115SOL    HW132981   1.797   3.725   3.466  2.1968  0.7431  0.1560
 7115SOL    HW232982   1.890   3.655   3.552 -0.5643 -1.1588  0.4184
 7116SOL     OW32983   0.095   4.538   8.493 -0.1331  0.2538  0.0237
 7116SOL    HW132984   0.028   4.472   8.472  1.1731 -0.8603 -0.5899
 7116SOL    HW232985   0.105   4.589   8.413 -0.7385  1.0054  0.4266
 7117SOL     OW32986   2.014   1.839   4.072  0.1083 -0.1615 -0.1051
 7117SOL    HW132987   1.955   1.837   4.147  0.3402  1.2432  0.1236
 7117SOL    HW232988   2.066   1.761   4.091 -1.9159 -1.6458 -0.6728
 7118SOL     OW32989   3.423   2.083   5.460 -0.1524 -0.1172  0.0417
 7118SOL    HW132990   3.333   2.085   5.493  0.2314  3.0949  0.8488
 7118SOL    HW232991   3.420   2.007   5.401  0.0926  1.1862 -1.6497
 7119SOL     OW32992   4.385   1.395   3.659 -0.1930  0.1165 -0.7101
 7119SOL    HW132993   4.386   1.340   3.580  0.1261 -1.1790  0.1884
 7119SOL    HW232994   4.353   1.483   3.640 -2.3654 -0.1172  1.9357
 7120SOL     OW32995   3.361   3.737   1.002 -0.5203  0.2474 -0.0893
 7120SOL    HW132996   3.396   3.657   1.040 -0.8043 -0.2544 -0.8754
 7120SOL    HW232997   3.425   3.797   1.040 -0.3897 -2.2900  3.6875
 7121SOL     OW32998   3.047   2.573   7.755 -0.3767 -0.2841  0.2129
 7121SOL    HW132999   2.968   2.592   7.805 -0.3217 -2.2169  1.0298
 7121SOL    HW233000   3.109   2.623   7.807  0.4207 -1.0457 -0.0055
 7122SOL     OW33001   4.106   3.264   5.933 -0.1075 -0.3046 -0.3722
 7122SOL    HW133002   4.054   3.341   5.957  0.7415  0.6972 -1.7532
 7122SOL    HW233003   4.140   3.311   5.857 -0.6755 -2.1785 -1.7731
 7123SOL     OW33004   2.407   0.189  17.063 -0.3914  0.5274  0.0927
 7123SOL    HW133005   2.455   0.203  16.982 -2.2341 -1.8895 -1.4144
 7123SOL    HW233006   2.456   0.251  17.116  0.5818 -1.6994  1.8326
 7124SOL     OW33007   0.501   2.853  16.496 -0.1266  0.1082 -0.0645
 7124SOL    HW133008   0.569   2.905  16.538 -0.8898  0.7619  0.3533
 7124SOL    HW233009   0.561   2.795  16.449  0.4804 -0.9408  1.9511
 7125SOL     OW33010   1.242   2.084   5.731  0.0093  0.4153 -0.0176
 7125SOL    HW133011   1.191   2.165   5.730 -1.1035 -0.2549  1.3917
 7125SOL    HW233012   1.325   2.123   5.758 -0.0980 -1.2204  2.6800
 7126SOL     OW33013   4.511   1.366  14.588 -0.7309  0.3771  0.3542
 7126SOL    HW133014   4.600   1.339  14.612 -0.7921  2.6119  3.1154
 7126SOL    HW233015   4.463   1.353  14.670  0.0228  0.6154  0.8329
 7127SOL     OW33016   0.215   2.837   8.512  0.3937  0.0143 -0.0365
 7127SOL    HW133017   0.285   2.891   8.476  0.0508  0.5023  0.0265
 7127SOL    HW233018   0.230   2.866   8.602 -1.4776 -1.3542  0.7191
 7128SOL     OW33019   4.025   3.509  11.505 -0.0505  0.1717  0.1206
 7128SOL    HW133020   4.120   3.499  11.502  0.0409  0.2116  2.6684
 7128SOL    HW233021   4.005   3.572  11.435  2.4930 -0.0221 -0.7619
 7129SOL     OW33022   1.095   1.433   0.610  0.0381  0.3585  0.3919
 7129SOL    HW133023   1.138   1.487   0.543  1.5960 -1.1361  0.1893
 7129SOL    HW233024   1.123   1.459   0.698  2.2469  0.1888 -0.2423
 7130SOL     OW33025   3.651   1.087   9.588 -0.1891 -0.1774 -0.0245
 7130SOL    HW133026   3.566   1.090   9.632 -0.2563  0.9485 -0.2464
 7130SOL    HW233027   3.702   1.033   9.649 -0.0532 -1.6410 -1.4340
 7131SOL     OW33028   4.309   3.622  13.024 -0.6276 -0.1855  0.6307
 7131SOL    HW133029   4.255   3.642  13.100 -0.0588  0.3969  0.8766
 7131SOL    HW233030   4.292   3.529  13.010  1.7166 -0.6046  0.5575
 7132SOL     OW33031   3.123   0.217  12.237  0.1714  0.1224  0.3433
 7132SOL    HW133032   3.125   0.189  12.329 -2.9076 -0.6630  0.1883
 7132SOL    HW233033   3.172   0.298  12.251  0.4314 -0.1524  1.0672
 7133SOL     OW33034   0.739   3.989   5.993  0.1133 -0.3057  0.0013
 7133SOL    HW133035   0.696   3.927   5.935 -1.4917  2.7076 -2.0011
 7133SOL    HW233036   0.685   3.978   6.072 -1.9684  1.3559 -1.1965
 7134SOL     OW33037   4.211   0.797   2.486 -0.0952 -0.4105  0.2914
 7134SOL    HW133038   4.189   0.704   2.478 -2.3163  0.3824 -2.6846
 7134SOL    HW233039   4.212   0.814   2.581  0.7027 -0.0991  0.2211
 7135SOL     OW33040   2.578   1.991   4.642 -0.2314  0.3285 -0.6497
 7135SOL    HW133041   2.599   2.013   4.732  0.0616  2.0947 -1.1482
 7135SOL    HW233042   2.647   1.926   4.627  0.0062  0.6007 -0.7493
 7136SOL     OW33043   3.159   2.271   9.694 -0.6291 -0.1685  0.4510
 7136SOL    HW133044   3.197   2.250   9.608  1.5663 -1.4985  1.7362
 7136SOL    HW233045   3.218   2.338   9.730  0.3407 -0.2351 -0.9909
 7137SOL     OW33046   4.605   1.584   5.649 -0.1344  0.1571 -0.2392
 7137SOL    HW133047   4.570   1.529   5.578  2.2388  0.4523 -1.6677
 7137SOL    HW233048   4.531   1.636   5.680 -1.0313 -0.8546 -0.6506
 7138SOL     OW33049   2.657   4.098   8.403 -0.2197 -0.3901  0.4251
 7138SOL    HW133050   2.712   4.175   8.418 -0.8203  0.2901 -0.8861
 7138SOL    HW233051   2.589   4.141   8.351  3.2263  2.7672 -1.5289
 7139SOL     OW33052   0.078   3.032  16.999  0.3016 -0.0707 -0.1591
 7139SOL    HW133053   0.023   2.954  16.995 -0.6257  0.4767  2.3496
 7139SOL    HW233054   0.129   3.024  16.918 -0.6419 -0.6352 -0.7065
 7140SOL     OW33055   4.486   4.426   2.878  0.2086  0.3024  0.5793
 7140SOL    HW133056   4.397   4.394   2.858  0.7542 -1.7205  1.3566
 7140SOL    HW233057   4.481   4.518   2.854 -0.4536  0.0188 -0.3935
 7141SOL     OW33058   4.254   2.099   8.073 -0.0104 -0.7388  0.0458
 7141SOL    HW133059   4.233   2.017   8.118 -0.1635  0.5514  2.3240
 7141SOL    HW233060   4.334   2.114   8.123 -0.0597 -1.3413  0.3135
 7142SOL     OW33061   1.291   3.164  17.051  0.4516 -0.3607  0.2528
 7142SOL    HW133062   1.284   3.070  17.063 -0.9417 -0.4113 -0.8835
 7142SOL    HW233063   1.384   3.176  17.033  0.2074  1.3259  0.0828
 7143SOL     OW33064   2.295   3.817   9.495  0.3536 -0.6755  0.9822
 7143SOL    HW133065   2.323   3.793   9.407 -1.7817 -0.3426  0.2411
 7143SOL    HW233066   2.202   3.802   9.478  0.2230 -1.9615  2.7479
 7144SOL     OW33067   2.350   1.494  12.907  0.6432 -0.1957 -0.3344
 7144SOL    HW133068   2.272   1.546  12.887 -0.2784 -1.1048  0.8877
 7144SOL    HW233069   2.398   1.505  12.825  0.7927 -0.0186 -0.2257
 7145SOL     OW33070   1.885   2.132   3.426 -0.0758  0.7105  0.4282
 7145SOL    HW133071   1.846   2.050   3.396 -0.7281  2.0287 -2.3300
 7145SOL    HW233072   1.932   2.163   3.349 -1.4857 -1.0625 -1.1544
 7146SOL     OW33073   1.727   2.425   4.710  0.3508 -0.2663  0.0645
 7146SOL    HW133074   1.633   2.413   4.724  0.8731 -3.0322  1.0748
 7146SOL    HW233075   1.754   2.345   4.665  0.7037 -0.7915  1.2193
 7147SOL     OW33076   4.496   2.381   1.280  0.0744 -0.5916  0.3283
 7147SOL    HW133077   4.493   2.350   1.189 -2.2662  0.7787 -0.0557
 7147SOL    HW233078   4.443   2.459   1.265  0.3631 -0.2346  1.2080
 7148SOL     OW33079   0.626   3.054   3.514 -0.4259  0.5285  0.3148
 7148SOL    HW133080   0.685   3.078   3.585  1.6864 -2.0344 -0.5666
 7148SOL    HW233081   0.586   3.139   3.497 -0.5523  0.9503  2.6426
 7149SOL     OW33082   3.584   1.804   9.270  0.0447 -0.6548 -0.6927
 7149SOL    HW133083   3.649   1.857   9.317 -2.0604  0.3253  1.0693
 7149SOL    HW233084   3.555   1.857   9.197  3.5162 -0.0184 -1.6392
 7150SOL     OW33085   3.551   0.565  12.471  0.4008 -0.0372 -0.1330
 7150SOL    HW133086   3.615   0.505  12.432 -1.1697 -0.8755 -1.4428
 7150SOL    HW233087   3.474   0.507  12.468 -0.7566  1.4731  0.5788
 7151SOL     OW33088   3.659   0.307   9.401 -0.4613  0.8395  0.2442
 7151SOL    HW133089   3.744   0.344   9.377 -1.0915 -0.3579 -3.8000
 7151SOL    HW233090   3.637   0.381   9.458 -0.1031 -0.2527  1.8109
 7152SOL     OW33091   1.607   0.503   4.235 -0.4567  0.4001 -0.1778
 7152SOL    HW133092   1.518   0.518   4.204 -0.9931  0.6913  1.4848
 7152SOL    HW233093   1.590   0.435   4.301 -1.2136 -0.9048 -1.6996
 7153SOL     OW33094   4.691   2.602  17.296  0.6581 -0.4631 -0.4260
 7153SOL    HW133095   4.634   2.637  17.228 -0.5318 -0.2663  0.6630
 7153SOL    HW233096   0.038   2.627  17.257 -0.1759  1.4519 -0.9534
 7154SOL     OW33097   0.085   4.110   0.762  0.1291 -0.6551 -0.8295
 7154SOL    HW133098   0.070   4.076   0.673 -0.0032  2.1219 -1.8685
 7154SOL    HW233099   0.176   4.087   0.783 -0.1607 -0.3003  0.7531
 7155SOL     OW33100   2.032   3.040   0.289 -0.5099 -0.2424 -0.1033
 7155SOL    HW133101   1.959   3.087   0.331  1.5503  3.4508 -0.6307
 7155SOL    HW233102   2.035   3.062   0.196  1.0211 -0.0105  0.0013
 7156SOL     OW33103   0.954   2.091   1.599 -0.2594  0.2417  0.0286
 7156SOL    HW133104   0.915   2.093   1.512  1.4056 -1.0490 -0.7386
 7156SOL    HW233105   1.003   2.010   1.612 -1.4594 -0.2334  1.6626
 7157SOL     OW33106   0.339   1.614  14.414  0.6760  0.4466 -0.7065
 7157SOL    HW133107   0.406   1.556  14.448  1.3860  1.6916  0.0320
 7157SOL    HW233108   0.291   1.559  14.353  0.8803  1.0694 -1.4284
 7158SOL     OW33109   3.102   3.413   3.424 -0.5225 -0.6503 -0.0629
 7158SOL    HW133110   3.130   3.416   3.333  1.1067 -1.0667  0.4405
 7158SOL    HW233111   3.008   3.413   3.403 -0.8528  0.7241  1.4425
 7159SOL     OW33112   1.488   0.398   8.251  0.1074 -0.6177 -0.0490
 7159SOL    HW133113   1.578   0.376   8.277  1.5379  0.9020 -3.7735
 7159SOL    HW233114   1.481   0.489   8.280  0.5264 -0.6277  0.0931
 7160SOL     OW33115   4.442   2.279   2.077 -0.4223 -0.0609 -0.3674
 7160SOL    HW133116   4.522   2.330   2.064  0.3332 -1.0764  0.3533
 7160SOL    HW233117   4.449   2.252   1.986 -1.1521  0.5906 -0.6187
 7161SOL     OW33118   4.653   3.828   7.442  0.3565  0.1492 -0.0639
 7161SOL    HW133119   4.585   3.820   7.375  1.2968  0.5924 -1.0637
 7161SOL    HW233120   4.622   3.762   7.503 -0.2200  0.6474  0.1789
 7162SOL     OW33121   1.235   1.397   6.125 -0.4456  0.0399 -0.3182
 7162SOL    HW133122   1.206   1.472   6.177  1.8371  0.7213 -0.0550
 7162SOL    HW233123   1.169   1.334   6.154 -0.2256 -0.1564 -0.2427
 7163SOL     OW33124   3.972   4.666   8.780  0.3369 -0.4952  0.0515
 7163SOL    HW133125   3.904   4.611   8.741  0.9555  2.0485 -4.6518
 7163SOL    HW233126   3.922   4.692   8.857 -2.2655 -1.2092 -1.3889
 7164SOL     OW33127   0.453   3.665   7.580  0.0125 -0.3361  0.5441
 7164SOL    HW133128   0.501   3.706   7.652  0.5211 -0.1854  0.1201
 7164SOL    HW233129   0.367   3.660   7.622  0.2311 -0.8315  0.9400
 7165SOL     OW33130   0.562   3.052   4.383  0.1976 -0.0568  0.9499
 7165SOL    HW133131   0.656   3.063   4.374 -0.0340  0.8156 -0.3434
 7165SOL    HW233132   0.554   3.000   4.463  0.5854 -0.4453  0.7371
 7166SOL     OW33133   3.020   3.623   1.837  1.0293  0.5521  0.1412
 7166SOL    HW133134   2.986   3.555   1.779  3.2996 -0.2859 -0.1810
 7166SOL    HW233135   2.943   3.634   1.893 -0.3685 -2.8225 -1.1426
 7167SOL     OW33136   3.337   4.443   2.704  0.0721  0.0508 -0.2061
 7167SOL    HW133137   3.265   4.467   2.645 -1.2718  0.1564  1.4518
 7167SOL    HW233138   3.383   4.525   2.689 -1.2331  0.7427 -0.4207
 7168SOL     OW33139   1.696   0.419   5.674 -0.0815  0.0085  0.8209
 7168SOL    HW133140   1.617   0.468   5.653 -0.5032 -0.8175  0.4553
 7168SOL    HW233141   1.766   0.459   5.623 -0.6607  0.3434  0.2904
 7169SOL     OW33142   2.883   1.997   6.367  0.4083 -0.4790 -0.1715
 7169SOL    HW133143   2.955   1.934   6.370  1.9224  1.2883  0.1014
 7169SOL    HW233144   2.816   1.937   6.333 -1.1924  1.0824  0.2238
 7170SOL     OW33145   4.344   2.640  14.960  0.3198 -0.1147  0.4394
 7170SOL    HW133146   4.434   2.640  14.926  0.5831  1.4264  1.1093
 7170SOL    HW233147   4.301   2.698  14.896  1.1537  1.2236  1.0807
 7171SOL     OW33148   1.251   2.502  11.795  0.3670  0.3554  0.2094
 7171SOL    HW133149   1.303   2.506  11.875 -1.2821 -0.0380  1.2979
 7171SOL    HW233150   1.173   2.519  11.848 -0.0000 -1.6094  0.3048
 7172SOL     OW33151   2.160   0.699   4.968 -0.4590  0.1075  0.1887
 7172SOL    HW133152   2.212   0.743   5.036 -0.2375 -0.9824  0.7222
 7172SOL    HW233153   2.183   0.750   4.890 -2.3014 -2.1001 -1.8072
 7173SOL     OW33154   1.952   0.032  12.195 -0.0350 -0.0480 -0.6028
 7173SOL    HW133155   1.874   0.028  12.140  0.6620 -0.1952 -1.5929
 7173SOL    HW233156   1.923   4.719  12.271 -2.3268 -1.6528 -2.5140
 7174SOL     OW33157   2.503   3.732   8.740 -0.5614  0.1851  0.0360
 7174SOL    HW133158   2.445   3.659   8.759 -0.8080  0.3313 -0.1573
 7174SOL    HW233159   2.520   3.741   8.834  0.6683  1.6350 -0.3193
 7175SOL     OW33160   3.359   1.226   0.421 -0.4655  0.1535  0.4542
 7175SOL    HW133161   3.343   1.259   0.332  2.0293  0.0103 -0.0446
 7175SOL    HW233162   3.278   1.246   0.467 -0.4274  1.7904 -0.2034
 7176SOL     OW33163   1.976   0.466   7.232  0.9586  0.3152 -0.1623
 7176SOL    HW133164   2.007   0.501   7.148 -0.9577 -1.0156 -1.4293
 7176SOL    HW233165   2.056   0.422   7.261  0.9963 -0.7802 -1.9446
 7177SOL     OW33166   0.791   0.964  16.507  0.2514  0.1765 -0.7174
 7177SOL    HW133167   0.710   0.914  16.509  0.7083 -0.5690 -0.9238
 7177SOL    HW233168   0.848   0.915  16.448  0.0260  0.4445 -1.1575
 7178SOL     OW33169   0.154   4.648   6.328  0.2315  0.1917 -0.4994
 7178SOL    HW133170   0.144   4.736   6.366  1.1487 -0.6105  1.6134
 7178SOL    HW233171   0.103   4.588   6.382  0.8998 -0.3479 -0.4651
 7179SOL     OW33172   4.323   0.850  10.026 -0.1868  0.1291 -0.1680
 7179SOL    HW133173   4.404   0.832  10.075  0.4161 -0.0601 -1.2291
 7179SOL    HW233174   4.269   0.772  10.037  0.7180 -0.0704  2.6984
 7180SOL     OW33175   2.545   0.385  16.131  0.2186  0.6268  0.0062
 7180SOL    HW133176   2.484   0.381  16.058  0.2405  2.6890 -0.1067
 7180SOL    HW233177   2.594   0.304  16.115  1.3467  0.8979  2.1038
 7181SOL     OW33178   0.687   2.256  10.950 -0.2786  0.4733  0.1131
 7181SOL    HW133179   0.676   2.214  10.864  0.7547  1.9856 -0.7492
 7181SOL    HW233180   0.623   2.201  10.995  1.1593 -1.6591 -0.4218
 7182SOL     OW33181   4.112   4.525  14.966  0.8534  0.2131  0.6434
 7182SOL    HW133182   4.167   4.600  14.988 -0.8421  1.7236 -0.2906
 7182SOL    HW233183   4.091   4.485  15.050 -0.8313 -1.9669 -0.8169
 7183SOL     OW33184   1.627   3.919   1.123  0.0851  0.0160  0.7595
 7183SOL    HW133185   1.570   3.944   1.195 -0.5188  0.0806  0.2661
 7183SOL    HW233186   1.712   3.946   1.158  0.4544 -0.6891  0.4180
 7184SOL     OW33187   2.116   4.395  12.743  0.2007  0.4455  0.1271
 7184SOL    HW133188   2.032   4.368  12.779  1.4003 -0.6799  2.0480
 7184SOL    HW233189   2.090   4.465  12.683  0.2716 -0.4287 -0.9282
 7185SOL     OW33190   3.429   1.345   5.760 -0.2078 -0.6467  0.3660
 7185SOL    HW133191   3.435   1.331   5.854 -2.4181 -0.8584  0.4814
 7185SOL    HW233192   3.433   1.255   5.728  0.5565  0.1891 -1.8911
 7186SOL     OW33193   4.112   2.273  11.860  0.1360  0.3712 -0.2683
 7186SOL    HW133194   4.021   2.252  11.882 -0.1847  0.3249 -1.6968
 7186SOL    HW233195   4.095   2.333  11.788  0.2428 -1.2581 -1.6441
 7187SOL     OW33196   0.060   4.567   6.585  0.4747 -0.2556  0.1055
 7187SOL    HW133197   0.035   4.475   6.598 -0.3835 -0.2724 -1.6921
 7187SOL    HW233198   0.154   4.552   6.570  0.6352  1.9743 -1.0128
 7188SOL     OW33199   3.216   2.886   7.223  0.1621  0.1878 -0.3669
 7188SOL    HW133200   3.161   2.873   7.146 -2.3969  1.7068  1.2076
 7188SOL    HW233201   3.197   2.812   7.281  0.2657  0.2697 -0.2293
 7189SOL     OW33202   0.905   1.264   2.004 -0.7025  0.7053  0.7166
 7189SOL    HW133203   0.855   1.305   1.933  0.2784  1.1122  0.2739
 7189SOL    HW233204   0.833   1.222   2.052 -0.2951 -1.4234 -0.5238
 7190SOL     OW33205   0.168   2.249   6.189  0.3479  0.8604 -0.1066
 7190SOL    HW133206   0.194   2.168   6.145  0.7749  0.7642  0.3195
 7190SOL    HW233207   0.238   2.259   6.253 -1.2773 -3.3133  2.3431
 7191SOL     OW33208   4.439   1.641  12.162  0.0173  0.2849  0.0142
 7191SOL    HW133209   4.394   1.669  12.241  0.2999  0.4791  0.1099
 7191SOL    HW233210   4.527   1.619  12.193 -0.7521 -0.3724  1.6478
 7192SOL     OW33211   4.562   0.588  16.002 -0.0925  0.4521  0.5836
 7192SOL    HW133212   4.649   0.609  16.037  0.6549 -0.9527 -0.4133
 7192SOL    HW233213   4.530   0.674  15.975 -0.1389 -0.6371 -2.7988
 7193SOL     OW33214   0.397   3.731   5.597 -0.1233  0.1829 -0.3900
 7193SOL    HW133215   0.420   3.639   5.613 -4.2253 -0.7065  0.4266
 7193SOL    HW233216   0.483   3.771   5.588 -0.4460  0.7901 -0.7459
 7194SOL     OW33217   1.051   3.344   1.784 -0.2306  0.1479  0.4171
 7194SOL    HW133218   1.092   3.273   1.734 -0.3333  2.2295 -2.6639
 7194SOL    HW233219   0.982   3.294   1.828 -0.8105  2.0901  1.7013
 7195SOL     OW33220   0.250   1.904  13.668 -0.2543 -0.4657  0.2921
 7195SOL    HW133221   0.246   1.819  13.712  1.0498 -2.2026 -3.0387
 7195SOL    HW233222   0.232   1.893  13.575 -1.1533  0.3986  0.3607
 7196SOL     OW33223   4.537   4.401   5.593  0.0397 -0.2281  0.1168
 7196SOL    HW133224   4.480   4.373   5.664  1.5794  1.0156  1.8759
 7196SOL    HW233225   4.624   4.370   5.620  0.7611  0.5364 -1.3088
 7197SOL     OW33226   3.683   3.888  13.874  0.0320  0.1309 -0.0598
 7197SOL    HW133227   3.705   3.842  13.792 -3.3513  1.6149 -1.8009
 7197SOL    HW233228   3.590   3.905  13.859  0.2342  0.8956 -0.4379
 7198SOL     OW33229   1.975   2.157   7.746 -0.3529 -0.2313  0.3505
 7198SOL    HW133230   1.931   2.074   7.729  0.8552 -1.3099  2.4189
 7198SOL    HW233231   1.962   2.207   7.665 -2.0596 -0.0859  0.7249
 7199SOL     OW33232   0.988   2.825   6.690 -0.3405 -0.6221  0.8229
 7199SOL    HW133233   1.028   2.750   6.646 -0.1688 -0.0504  0.0051
 7199SOL    HW233234   1.011   2.813   6.782  0.6953 -0.6419  0.5625
 7200SOL     OW33235   1.187   1.893  12.424  0.4356  0.1963 -0.1273
 7200SOL    HW133236   1.192   1.809  12.378  1.8116  0.9040 -1.2702
 7200SOL    HW233237   1.272   1.897  12.468 -0.5427  0.3535  1.7438
 7201SOL     OW33238   0.964   4.339   1.818 -0.0565 -0.0045  0.4083
 7201SOL    HW133239   1.053   4.372   1.832  0.5530 -1.3922 -0.1953
 7201SOL    HW233240   0.954   4.261   1.872 -2.5888 -0.4229 -0.6779
 7202SOL     OW33241   2.779   2.035  15.947  0.2779  0.2056 -1.0792
 7202SOL    HW133242   2.839   2.109  15.957 -0.1598  0.4164 -0.0213
 7202SOL    HW233243   2.717   2.084  15.894  0.5780 -0.8424 -2.4067
 7203SOL     OW33244   4.189   0.053   2.623 -0.5540  0.0151  0.2664
 7203SOL    HW133245   4.101   0.014   2.629 -0.7101  0.4602  0.8275
 7203SOL    HW233246   4.190   0.054   2.528 -0.1471 -2.8563  0.2385
 7204SOL     OW33247   2.536   2.073   9.084  0.3723  0.1133  0.3385
 7204SOL    HW133248   2.498   2.155   9.054  0.4248  0.1453  0.3597
 7204SOL    HW233249   2.599   2.104   9.149  1.9391  0.3549 -1.2985
 7205SOL     OW33250   4.280   3.984   2.418 -0.3594 -0.9892  0.0834
 7205SOL    HW133251   4.190   3.991   2.452 -0.2140  1.2506 -0.0233
 7205SOL    HW233252   4.330   3.986   2.500 -0.3453  0.4518  0.0422
 7206SOL     OW33253   0.026   3.201   1.490  0.4176  0.0164  0.4443
 7206SOL    HW133254   0.013   3.122   1.541 -1.7155 -1.2745 -2.0988
 7206SOL    HW233255   0.060   3.257   1.560 -0.0693 -1.0633  1.5396
 7207SOL     OW33256   1.178   0.351   4.827  0.0507  0.0169 -0.0503
 7207SOL    HW133257   1.203   0.349   4.920  0.5246 -0.0382 -0.1780
 7207SOL    HW233258   1.092   0.393   4.824 -0.2364 -0.4376  1.8200
 7208SOL     OW33259   0.844   1.373  17.145  0.5971  0.0772 -0.2737
 7208SOL    HW133260   0.863   1.314  17.072 -0.6672 -1.6555  0.8037
 7208SOL    HW233261   0.754   1.348  17.166  1.4832 -0.9791  2.3432
 7209SOL     OW33262   0.454   3.235   8.228  0.2269 -0.1041  0.1787
 7209SOL    HW133263   0.374   3.280   8.200  0.5965 -0.0343 -0.7514
 7209SOL    HW233264   0.492   3.206   8.145  0.7632 -1.1302  0.7803
 7210SOL     OW33265   4.576   2.331   5.031  0.0081 -0.0744  0.1132
 7210SOL    HW133266   4.583   2.330   4.935 -1.5458  0.5036 -0.0020
 7210SOL    HW233267   4.573   2.426   5.045  2.0076 -0.0946  0.7191
 7211SOL     OW33268   0.018   4.310   5.747  0.4626 -0.2434 -0.2759
 7211SOL    HW133269   0.029   4.216   5.760  0.0797  0.2755  3.7428
 7211SOL    HW233270   0.068   4.341   5.823  0.4798 -3.8811  1.2029
 7212SOL     OW33271   0.523   1.511   8.011  0.1682 -0.2784  0.3791
 7212SOL    HW133272   0.573   1.592   8.005  0.8014 -0.8362 -2.0739
 7212SOL    HW233273   0.589   1.446   8.036 -1.9436 -2.7123 -0.3520
 7213SOL     OW33274   0.982   4.398  13.950 -0.0101  0.4410  0.1646
 7213SOL    HW133275   0.903   4.452  13.943 -0.6768 -0.5533  0.0704
 7213SOL    HW233276   1.019   4.415  14.036  2.1966 -1.6528 -0.3748
 7214SOL     OW33277   0.435   2.858   9.213 -0.4411  0.6236 -0.3679
 7214SOL    HW133278   0.431   2.949   9.243  3.5426  0.1174  1.6635
 7214SOL    HW233279   0.361   2.859   9.153 -0.6023  2.0891 -0.1299
 7215SOL     OW33280   1.270   3.574   2.189  0.1850 -0.1812  0.4714
 7215SOL    HW133281   1.356   3.615   2.176 -0.1085 -0.3429 -2.1021
 7215SOL    HW233282   1.287   3.481   2.204 -1.2486 -0.2592  1.5501
 7216SOL     OW33283   3.655   2.351   8.213  0.1560  0.4350 -0.3616
 7216SOL    HW133284   3.710   2.420   8.250 -2.9165  2.3933  0.5869
 7216SOL    HW233285   3.634   2.395   8.131 -0.4260  1.4219  0.3093
 7217SOL     OW33286   2.870   4.709  12.869 -0.1857 -0.6218 -0.3181
 7217SOL    HW133287   2.900   4.700  12.779 -2.6434 -0.6134 -1.1479
 7217SOL    HW233288   2.794   4.651  12.861 -0.1454 -0.8687  1.0704
 7218SOL     OW33289   2.806   4.293   9.270 -0.4119 -0.4732  0.1085
 7218SOL    HW133290   2.862   4.332   9.337 -0.7307 -2.0170  1.2838
 7218SOL    HW233291   2.867   4.273   9.199 -1.1708  2.5565 -1.4142
 7219SOL     OW33292   1.399   1.759   0.893 -1.2464 -0.1494 -0.0318
 7219SOL    HW133293   1.485   1.800   0.896 -0.7054 -1.0026 -3.9270
 7219SOL    HW233294   1.404   1.709   0.811  0.9640 -2.1739  1.3526
 7220SOL     OW33295   0.825   1.788   7.022  0.0029  0.4740  0.0236
 7220SOL    HW133296   0.869   1.733   7.087  0.4414  0.5442 -0.2132
 7220SOL    HW233297   0.763   1.832   7.080  1.6108  2.7285 -0.0114
 7221SOL     OW33298   3.455   2.211  12.000 -0.2244 -0.4273 -0.4347
 7221SOL    HW133299   3.436   2.299  12.033 -0.0362  0.3344 -2.3671
 7221SOL    HW233300   3.515   2.237  11.930 -1.4917  1.1063 -0.9404
 7222SOL     OW33301   0.787   1.586   3.869 -0.3394  0.1470 -0.0352
 7222SOL    HW133302   0.718   1.533   3.907  0.6853 -2.0377 -1.2450
 7222SOL    HW233303   0.805   1.548   3.783 -0.1373 -0.3048  0.2095
 7223SOL     OW33304   2.926   4.127   9.052  0.1591  0.3842  0.8002
 7223SOL    HW133305   2.944   4.213   9.013 -0.7984 -0.1720 -0.8640
 7223SOL    HW233306   2.845   4.091   9.017 -0.2801  1.1273  1.0554
 7224SOL     OW33307   3.872   0.603   3.626 -0.2519  0.8195 -0.1252
 7224SOL    HW133308   3.821   0.548   3.566 -0.3463 -1.3455  1.9528
 7224SOL    HW233309   3.929   0.652   3.567 -0.9134 -0.2447 -1.6620
 7225SOL     OW33310   3.471   1.861   3.850  0.4611  0.0588 -0.3872
 7225SOL    HW133311   3.377   1.878   3.861  1.1206  3.0445  0.4918
 7225SOL    HW233312   3.508   1.939   3.890  1.9057 -1.4018  1.1374
 7226SOL     OW33313   2.778   3.660   1.075  0.2201 -0.3307 -0.1150
 7226SOL    HW133314   2.702   3.685   1.022  1.7617  0.7749 -1.8008
 7226SOL    HW233315   2.745   3.674   1.164 -1.2672 -1.3548 -0.5132
 7227SOL     OW33316   3.579   2.801   1.913  0.1996  0.0461 -0.5095
 7227SOL    HW133317   3.636   2.822   1.839  3.7795 -0.5874  2.1014
 7227SOL    HW233318   3.521   2.732   1.880  0.6382  0.2070 -1.6110
 7228SOL     OW33319   4.165   3.764   5.674  0.2157 -0.2146  0.2077
 7228SOL    HW133320   4.140   3.833   5.612  1.0267  0.4421  0.6158
 7228SOL    HW233321   4.258   3.752   5.656  0.5915  1.3861  1.0990
 7229SOL     OW33322   1.602   4.148   4.750 -0.7362  0.3076  0.1180
 7229SOL    HW133323   1.597   4.226   4.805 -1.9756  1.6352 -1.9329
 7229SOL    HW233324   1.522   4.158   4.700  0.5374  0.5664 -1.8655
 7230SOL     OW33325   3.315   0.890   9.207  0.4384  0.0047  0.3238
 7230SOL    HW133326   3.325   0.937   9.290 -1.4463  0.6397  0.1809
 7230SOL    HW233327   3.394   0.836   9.207  0.2425 -0.2992 -1.5796
 7231SOL     OW33328   1.657   0.088   8.061  0.2838  0.1534  0.1671
 7231SOL    HW133329   1.564   0.102   8.042  0.1327  2.1330  2.3020
 7231SOL    HW233330   1.660   4.735   8.095  0.4466  0.8594  2.0063
 7232SOL     OW33331   2.326   4.057  10.512  0.7952 -0.3541  0.0299
 7232SOL    HW133332   2.417   4.049  10.542  0.7784 -2.8900 -0.6403
 7232SOL    HW233333   2.330   4.036  10.419  1.7369 -1.2676  0.2791
 7233SOL     OW33334   3.037   3.585   2.989 -0.4315 -0.0823 -0.5724
 7233SOL    HW133335   3.093   3.592   2.911 -0.6350  2.1463 -0.5161
 7233SOL    HW233336   2.969   3.650   2.974  0.2852  0.9275  0.5337
 7234SOL     OW33337   1.744   1.486   1.934 -0.4360 -0.4918  0.7063
 7234SOL    HW133338   1.765   1.553   1.869 -0.9733 -0.5761  0.4558
 7234SOL    HW233339   1.685   1.430   1.885 -0.6438 -0.4445  0.9052
 7235SOL     OW33340   1.929   3.758   4.479  0.1631  0.1700  0.3164
 7235SOL    HW133341   1.860   3.751   4.545  0.7444 -2.4069  0.6499
 7235SOL    HW233342   1.881   3.747   4.398  1.5512 -0.5514 -0.4134
 7236SOL     OW33343   1.205   0.160   6.228 -0.1839  0.0997  0.8092
 7236SOL    HW133344   1.223   0.124   6.141  3.1261  1.5386  0.9005
 7236SOL    HW233345   1.292   0.191   6.253  1.3703 -2.3055 -1.7168
 7237SOL     OW33346   2.535   2.448  13.673  0.7645  0.1654  0.0603
 7237SOL    HW133347   2.608   2.498  13.711 -0.3045  2.0836 -0.4409
 7237SOL    HW233348   2.484   2.440  13.754  0.6625  0.6944  0.0475
 7238SOL     OW33349   2.293   1.988  16.994  0.0398  0.3513  0.0943
 7238SOL    HW133350   2.242   1.977  17.074  0.1457  1.8921  0.3706
 7238SOL    HW233351   2.369   2.029  17.035  0.8348 -0.1017 -0.9177
 7239SOL     OW33352   4.678   3.594  15.763  0.6425  0.2918  0.7828
 7239SOL    HW133353   0.023   3.550  15.738 -0.5932 -1.0004 -0.8671
 7239SOL    HW233354   4.681   3.582  15.858  2.0894  0.3454  0.7553
 7240SOL     OW33355   2.172   0.341   3.470 -0.3818 -0.0192 -0.2103
 7240SOL    HW133356   2.151   0.402   3.400 -1.1472 -0.9022 -0.7453
 7240SOL    HW233357   2.188   0.411   3.534 -0.1353 -1.3655  1.2129
 7241SOL     OW33358   2.434   2.679   8.938 -0.3591  0.5416 -0.0468
 7241SOL    HW133359   2.363   2.723   8.891 -1.8585 -2.1359 -0.2901
 7241SOL    HW233360   2.473   2.627   8.868  0.7840 -0.4620  1.3231
 7242SOL     OW33361   0.040   0.948   5.840  0.3709 -0.1041 -0.2377
 7242SOL    HW133362   0.036   0.853   5.853 -4.2950  0.1235  0.0463
 7242SOL    HW233363   0.006   0.976   5.925 -0.8553 -2.1127 -0.0494
 7243SOL     OW33364   2.618   1.719   1.307 -0.3928  0.0123 -0.1694
 7243SOL    HW133365   2.640   1.645   1.250 -1.2051 -0.0057 -0.4609
 7243SOL    HW233366   2.659   1.795   1.265  1.2474 -1.5699 -1.4432
 7244SOL     OW33367   2.138   0.755   7.533  0.0223  0.2943 -0.6043
 7244SOL    HW133368   2.061   0.771   7.479  0.3437 -0.4845 -1.2919
 7244SOL    HW233369   2.184   0.830   7.495 -1.1211  0.1127 -2.3433
 7245SOL     OW33370   2.582   2.848   9.289  0.5643 -0.0808  0.5450
 7245SOL    HW133371   2.588   2.887   9.376 -0.0556  0.2275  0.4438
 7245SOL    HW233372   2.604   2.917   9.227 -1.4029 -0.0748 -0.1177
 7246SOL     OW33373   0.388   0.744   8.712 -0.1395  0.0288 -0.2079
 7246SOL    HW133374   0.385   0.834   8.742 -0.8405  0.4180 -1.4643
 7246SOL    HW233375   0.437   0.764   8.632  0.6141 -2.4739 -0.3975
 7247SOL     OW33376   0.694   2.616   4.571 -0.0522 -0.1355 -0.3951
 7247SOL    HW133377   0.709   2.624   4.665 -0.0341  2.9094 -0.6653
 7247SOL    HW233378   0.621   2.678   4.563  1.6946  1.7489 -1.5973
 7248SOL     OW33379   4.250   1.213   8.288  0.3078  0.6760  0.1512
 7248SOL    HW133380   4.156   1.196   8.285  0.3631  0.5473 -0.6718
 7248SOL    HW233381   4.272   1.164   8.368  0.8457  1.1845  0.3155
 7249SOL     OW33382   1.124   3.409   9.807  0.2023  0.1742 -0.4053
 7249SOL    HW133383   1.038   3.386   9.772 -0.8639 -0.0866  2.4369
 7249SOL    HW233384   1.096   3.426   9.897 -0.5303  1.0045 -0.7944
 7250SOL     OW33385   4.053   1.005   6.904 -0.4449 -0.2643  0.0813
 7250SOL    HW133386   4.010   1.008   6.990 -1.8651  1.6402 -0.6827
 7250SOL    HW233387   4.081   1.095   6.887 -2.0650  0.3786  0.7047
 7251SOL     OW33388   1.530   1.579   2.302  0.3645 -0.7527  0.2326
 7251SOL    HW133389   1.450   1.589   2.355 -0.5919  2.4797 -1.7875
 7251SOL    HW233390   1.567   1.666   2.315  2.1644 -1.2802 -1.4937
 7252SOL     OW33391   2.948   1.147   5.471 -0.1799 -0.1736  0.1781
 7252SOL    HW133392   2.873   1.093   5.497  1.4019 -2.9563 -1.0832
 7252SOL    HW233393   2.905   1.227   5.442 -0.4058  0.4607  2.2286
 7253SOL     OW33394   3.445   4.138   5.532 -0.0671  0.1155 -0.0164
 7253SOL    HW133395   3.385   4.079   5.487 -0.9827  0.3631  0.8742
 7253SOL    HW233396   3.389   4.170   5.603 -0.6628 -0.0995 -0.3911
 7254SOL     OW33397   2.147   2.812   6.727  0.1895  0.1283 -0.1778
 7254SOL    HW133398   2.169   2.854   6.644  1.5558 -2.0942 -0.9355
 7254SOL    HW233399   2.054   2.834   6.729 -0.3699 -2.3852  1.3359
 7255SOL     OW33400   0.104   2.310  16.243  0.2171  0.6052  0.4138
 7255SOL    HW133401   0.031   2.345  16.294 -0.2795  1.8218 -1.1199
 7255SOL    HW233402   0.058   2.231  16.213  0.7826  0.3020  0.3635
 7256SOL     OW33403   4.205   3.543   5.058 -0.5690  0.5134 -0.3990
 7256SOL    HW133404   4.210   3.468   4.998  2.0195  1.5277 -1.4696
 7256SOL    HW233405   4.254   3.509   5.133  1.0733  1.0358 -1.2378
 7257SOL     OW33406   3.209   2.608   4.804  0.8951  0.0909 -0.2896
 7257SOL    HW133407   3.140   2.674   4.812  0.6001 -0.2535  0.0198
 7257SOL    HW233408   3.279   2.661   4.765  2.3545 -1.4107  0.2626
 7258SOL     OW33409   3.157   1.771   3.239 -0.4736 -0.3655 -0.3279
 7258SOL    HW133410   3.212   1.744   3.165 -0.1433 -3.5892  1.0628
 7258SOL    HW233411   3.100   1.695   3.257  1.2919 -1.2851  1.3459
 7259SOL     OW33412   0.663   1.802   4.011 -0.6752  0.2905  0.0397
 7259SOL    HW133413   0.717   1.739   3.963 -0.4959  0.3645  0.1435
 7259SOL    HW233414   0.653   1.764   4.098  0.0464  0.6911  0.3026
 7260SOL     OW33415   3.019   0.691   6.533 -0.2053  0.3462  0.4744
 7260SOL    HW133416   2.966   0.766   6.562  0.1848  1.1131 -0.7976
 7260SOL    HW233417   3.005   0.629   6.605  1.9226 -0.0235  0.5530
 7261SOL     OW33418   0.181   1.756  13.111 -0.2893  0.3090  0.0898
 7261SOL    HW133419   0.147   1.726  13.026  1.6199  2.8259 -1.5423
 7261SOL    HW233420   0.123   1.823  13.148 -1.2972 -0.4293 -0.1373
 7262SOL     OW33421   0.961   4.721  13.575 -0.7190  0.2736 -0.0809
 7262SOL    HW133422   1.003   4.694  13.657  2.3389 -0.2932 -1.8129
 7262SOL    HW233423   0.869   4.732  13.598 -1.3561  0.3533 -2.6937
 7263SOL     OW33424   2.251   0.686   1.555 -0.4469  0.3002  0.5306
 7263SOL    HW133425   2.215   0.775   1.559  0.8256  0.8681 -0.4672
 7263SOL    HW233426   2.338   0.699   1.595 -1.0568  3.3935  0.8726
 7264SOL     OW33427   2.159   2.885   4.075 -0.0968  0.1043 -0.2922
 7264SOL    HW133428   2.082   2.837   4.106 -1.0141  1.3186 -0.6936
 7264SOL    HW233429   2.120   2.963   4.037  1.4561  0.4125 -1.2631
 7265SOL     OW33430   4.012   1.332   4.330 -0.5763  0.4812  0.2776
 7265SOL    HW133431   3.935   1.306   4.381 -1.2623 -0.9001 -1.4462
 7265SOL    HW233432   4.017   1.260   4.267 -2.6091  0.3568  0.2417
 7266SOL     OW33433   3.773   1.644  10.093  0.0109 -0.5785 -0.0642
 7266SOL    HW133434   3.835   1.685  10.153  0.0065 -1.7803  0.7698
 7266SOL    HW233435   3.746   1.566  10.143 -0.9930 -1.1938 -1.5612
 7267SOL     OW33436   2.506   4.105  12.851 -0.0341 -0.0430 -0.6987
 7267SOL    HW133437   2.595   4.126  12.882  0.3874 -1.4972 -0.9665
 7267SOL    HW233438   2.470   4.052  12.922 -1.3827  2.7891  0.7358
 7268SOL     OW33439   2.400   1.785  13.700  0.2664  0.4116  0.1617
 7268SOL    HW133440   2.420   1.813  13.611 -2.2149  0.9778 -0.2043
 7268SOL    HW233441   2.323   1.841  13.716 -0.9768 -1.3431  0.2890
 7269SOL     OW33442   3.539   0.287   0.841  0.2579  0.0648 -0.1558
 7269SOL    HW133443   3.619   0.319   0.882 -1.3720  1.0953  2.1871
 7269SOL    HW233444   3.564   0.274   0.749 -1.1048 -0.0102 -0.5045
 7270SOL     OW33445   2.956   3.916   3.676  0.1093  0.3831  0.3858
 7270SOL    HW133446   2.993   4.003   3.690  0.2382  0.2101  1.1052
 7270SOL    HW233447   3.022   3.879   3.618  0.6844  2.1033 -0.0579
 7271SOL     OW33448   3.558   1.499   2.887 -0.8405  0.0814 -0.8614
 7271SOL    HW133449   3.518   1.557   2.952  1.7112 -1.0568  1.7453
 7271SOL    HW233450   3.588   1.559   2.819  1.7487 -0.9767 -0.6287
 7272SOL     OW33451   4.587   0.174  12.321  0.1967  0.4076  0.2032
 7272SOL    HW133452   4.666   0.126  12.297  0.4337  1.2223 -0.6776
 7272SOL    HW233453   4.526   0.114  12.365 -0.3209  1.4100  0.8559
 7273SOL     OW33454   1.220   4.315   1.648  0.5601  0.1563  0.4334
 7273SOL    HW133455   1.304   4.357   1.629  1.8832 -2.2715  1.0045
 7273SOL    HW233456   1.243   4.224   1.665  0.2007  0.4669  2.4600
 7274SOL     OW33457   3.888   1.056  11.232  0.3336  0.1004  0.3945
 7274SOL    HW133458   3.982   1.072  11.221  0.5464 -1.6879 -0.3339
 7274SOL    HW233459   3.883   0.961  11.246  0.7504  0.0501  0.2024
 7275SOL     OW33460   2.731   4.134   5.623 -0.2833 -0.0199 -0.0837
 7275SOL    HW133461   2.707   4.139   5.716  0.6846 -0.3368  0.1892
 7275SOL    HW233462   2.805   4.074   5.631 -0.3692 -0.0848  0.2161
 7276SOL     OW33463   1.122   4.343   2.865  0.1063 -0.4779  0.3990
 7276SOL    HW133464   1.115   4.269   2.926  0.5805 -0.5608  0.3536
 7276SOL    HW233465   1.039   4.391   2.871  0.9506  1.2499 -2.2388
 7277SOL     OW33466   4.500   0.226   0.116  0.3868 -0.5616 -0.0955
 7277SOL    HW133467   4.579   0.178   0.140  0.5759  1.2457  2.9574
 7277SOL    HW233468   4.531   0.311   0.083  2.2164 -0.8186  0.9853
 7278SOL     OW33469   2.462   1.988   3.151 -0.2297  0.1997 -0.2889
 7278SOL    HW133470   2.370   1.970   3.174 -0.7249  1.7140 -1.0483
 7278SOL    HW233471   2.502   1.998   3.237 -2.7520  0.5837  0.8654
 7279SOL     OW33472   0.917   3.554   6.107  0.2895 -0.2550 -0.1452
 7279SOL    HW133473   0.975   3.540   6.182  0.1607  1.6453  0.2982
 7279SOL    HW233474   0.843   3.589   6.156  1.6504 -0.6010  2.1553
 7280SOL     OW33475   1.156   0.573   8.247 -0.1361 -0.3246 -0.0784
 7280SOL    HW133476   1.227   0.612   8.298 -0.2270 -0.0368 -0.1716
 7280SOL    HW233477   1.094   0.555   8.317 -0.1217  0.0284  0.0278
 7281SOL     OW33478   0.224   3.981   2.128 -0.0146  0.1346  0.4516
 7281SOL    HW133479   0.200   3.973   2.221  0.3341 -1.7236  0.3846
 7281SOL    HW233480   0.205   4.074   2.118  0.9666  0.4355  1.4000
 7282SOL     OW33481   1.257   3.472   7.192 -0.9797 -0.0469  0.1470
 7282SOL    HW133482   1.293   3.507   7.273 -0.7118  0.1416 -0.0539
 7282SOL    HW233483   1.262   3.549   7.135 -1.2689  1.5606  2.2881
 7283SOL     OW33484   1.956   1.512  15.263  0.1518 -0.2218 -0.4411
 7283SOL    HW133485   1.900   1.438  15.286 -0.5071 -0.0644 -1.5147
 7283SOL    HW233486   1.999   1.474  15.187 -0.5221 -1.2720 -0.2969
 7284SOL     OW33487   3.469   1.916   7.865  0.2205 -0.4896  0.1800
 7284SOL    HW133488   3.381   1.896   7.835  0.5393 -0.7202 -0.6143
 7284SOL    HW233489   3.456   1.947   7.955  0.4207 -0.4445  0.1936
 7285SOL     OW33490   0.299   3.955  11.672 -0.2536  0.3448  0.5011
 7285SOL    HW133491   0.354   4.000  11.737 -0.0780 -0.5069  0.9323
 7285SOL    HW233492   0.215   3.992  11.697 -0.6834  0.3163 -0.8884
 7286SOL     OW33493   3.884   2.008   8.858  0.0266 -0.1975  0.0577
 7286SOL    HW133494   3.924   2.089   8.825 -1.0767 -0.6069 -2.2830
 7286SOL    HW233495   3.810   2.035   8.912  0.1794  2.0859 -0.8636
 7287SOL     OW33496   0.713   3.806   3.229 -0.5387 -0.0772  0.0880
 7287SOL    HW133497   0.764   3.823   3.150 -1.1816 -0.8307 -0.5053
 7287SOL    HW233498   0.734   3.879   3.286 -1.3627  1.9233 -2.1863
 7288SOL     OW33499   1.784   3.794   8.318  0.0695 -0.0132  0.1607
 7288SOL    HW133500   1.698   3.817   8.352 -0.7006 -1.7918 -0.6402
 7288SOL    HW233501   1.772   3.710   8.275  3.1091  0.1025 -0.9495
 7289SOL     OW33502   4.427   3.460   4.803 -0.2026 -0.0695  0.2712
 7289SOL    HW133503   4.377   3.538   4.783 -2.0084 -0.9718  1.3220
 7289SOL    HW233504   4.488   3.451   4.729  2.3808  3.8333  1.9166
 7290SOL     OW33505   3.412   3.237   7.557  0.7414 -0.0023  0.3748
 7290SOL    HW133506   3.388   3.145   7.548  0.9898 -0.0133 -0.1357
 7290SOL    HW233507   3.386   3.250   7.649  2.8687  4.3922  0.3850
 7291SOL     OW33508   0.422   0.216   7.634  0.0599  0.6027 -0.7943
 7291SOL    HW133509   0.333   0.242   7.608 -0.4873 -0.5199 -0.0224
 7291SOL    HW233510   0.425   0.239   7.726  0.5207  0.7748 -0.8529
 7292SOL     OW33511   0.013   3.603   5.363 -0.2258 -0.0072  0.1609
 7292SOL    HW133512   0.063   3.606   5.282 -3.4478 -0.1455 -1.8426
 7292SOL    HW233513   0.076   3.594   5.434  0.0904 -0.4364 -0.1764
 7293SOL     OW33514   0.066   1.191  14.819 -0.2203  0.2113  0.1994
 7293SOL    HW133515   0.115   1.111  14.799 -1.5452 -0.1588 -1.5532
 7293SOL    HW233516   4.714   1.154  14.816  0.0028 -0.3565  0.7644
 7294SOL     OW33517   0.552   0.633  16.006 -0.2198 -0.1585  0.4866
 7294SOL    HW133518   0.633   0.597  15.969  1.3151  1.9492  1.7504
 7294SOL    HW233519   0.518   0.689  15.936 -2.5098  1.6769  3.0650
 7295SOL     OW33520   2.321   0.440   2.812  0.3444 -0.1010 -0.3366
 7295SOL    HW133521   2.403   0.443   2.862  0.4234  2.0886 -0.6024
 7295SOL    HW233522   2.336   0.485   2.729  0.1708  1.4921  0.4996
 7296SOL     OW33523   4.315   1.368   2.460  0.2630  0.3644 -0.0861
 7296SOL    HW133524   4.298   1.460   2.442  0.2056  0.3977  0.1335
 7296SOL    HW233525   4.322   1.368   2.556  1.6551 -1.5540 -0.1753
 7297SOL     OW33526   1.162   4.417   2.591  0.2510  0.1027 -0.1994
 7297SOL    HW133527   1.109   4.421   2.671  0.8019  1.5169  0.0954
 7297SOL    HW233528   1.092   4.440   2.530 -1.3017 -2.1011  0.7514
 7298SOL     OW33529   2.892   2.657   4.659 -0.1809  0.0009  0.1255
 7298SOL    HW133530   2.808   2.634   4.619 -0.4497  0.6903  0.3050
 7298SOL    HW233531   2.951   2.666   4.584  0.5697  1.8386  0.9632
 7299SOL     OW33532   3.704   3.011   5.082  0.1756 -0.1823  0.3890
 7299SOL    HW133533   3.753   3.018   5.164 -1.0605 -1.7643  1.2597
 7299SOL    HW233534   3.770   3.032   5.016 -0.3339  0.1607 -0.0101
 7300SOL     OW33535   2.323   3.168   8.958 -0.4397 -0.0343 -0.4211
 7300SOL    HW133536   2.381   3.244   8.955  1.1740 -1.2969 -0.8045
 7300SOL    HW233537   2.376   3.108   8.906 -0.9595 -1.6485  0.9489
 7301SOL     OW33538   0.490   0.150  12.516  0.7813  0.1623 -0.0297
 7301SOL    HW133539   0.396   0.150  12.499  0.5710  1.9790  1.1972
 7301SOL    HW233540   0.505   0.071  12.568 -0.5377 -0.1484 -0.1095
 7302SOL     OW33541   4.597   3.970  17.113 -0.1104 -0.2379 -0.3092
 7302SOL    HW133542   4.683   3.985  17.075  0.4242 -4.5237 -0.8034
 7302SOL    HW233543   4.625   3.924  17.193  0.1100 -0.8340 -0.7332
 7303SOL     OW33544   1.198   4.070  15.981 -0.7993 -0.9843  0.1822
 7303SOL    HW133545   1.249   4.127  15.923 -3.0016  1.3418  0.5316
 7303SOL    HW233546   1.112   4.065  15.940 -0.8365 -1.0311  0.2664
 7304SOL     OW33547   0.186   2.349   6.601 -0.2584 -0.4913  0.1705
 7304SOL    HW133548   0.268   2.356   6.553 -0.0723 -0.4159  0.5072
 7304SOL    HW233549   0.210   2.358   6.693 -0.8596 -0.0581  0.2887
 7305SOL     OW33550   1.815   1.930   6.874 -0.2383 -0.1425  0.4085
 7305SOL    HW133551   1.856   1.923   6.960  0.8353  0.8302 -0.0316
 7305SOL    HW233552   1.789   1.840   6.853 -0.5286  0.1798 -0.6151
 7306SOL     OW33553   3.982   0.619   5.569 -0.1463 -0.5227  0.1585
 7306SOL    HW133554   4.060   0.596   5.619  1.0967  0.8031 -1.1522
 7306SOL    HW233555   3.947   0.682   5.631  3.1656 -0.4422  1.9078
 7307SOL     OW33556   2.693   2.310  16.899 -0.3436  0.2952  0.4068
 7307SOL    HW133557   2.634   2.244  16.862  1.3502 -2.8060  3.1370
 7307SOL    HW233558   2.630   2.375  16.928  0.2729  1.4981 -0.9521
 7308SOL     OW33559   0.910   0.567  14.586 -0.3641 -0.2527 -0.1298
 7308SOL    HW133560   0.904   0.619  14.506 -0.0419  0.6360  0.4265
 7308SOL    HW233561   0.948   0.627  14.650 -0.4944 -0.8464  0.5009
 7309SOL     OW33562   1.554   0.385   4.457  0.3757 -0.0271  0.1255
 7309SOL    HW133563   1.473   0.425   4.490 -0.2142  0.3807 -1.7869
 7309SOL    HW233564   1.537   0.292   4.466  1.2245 -0.2655 -0.7856
 7310SOL     OW33565   2.333   1.813   7.472  0.2457  0.3027 -0.1906
 7310SOL    HW133566   2.392   1.866   7.525  0.4359 -0.0410 -0.0597
 7310SOL    HW233567   2.252   1.838   7.517 -0.1651 -1.5677  0.1055
 7311SOL     OW33568   2.567   2.727   8.659  0.3925  0.2048  0.4289
 7311SOL    HW133569   2.650   2.729   8.706  0.6940  0.3228 -0.1004
 7311SOL    HW233570   2.530   2.639   8.657  0.0540  0.3217  1.6961
 7312SOL     OW33571   3.814   1.509   3.360 -0.2498  0.8958 -0.5635
 7312SOL    HW133572   3.850   1.421   3.346 -1.1193  0.6616 -1.3332
 7312SOL    HW233573   3.732   1.507   3.310 -0.6773 -0.8668  0.2127
 7313SOL     OW33574   1.450   0.829   5.458  0.7305 -0.5451 -0.0344
 7313SOL    HW133575   1.410   0.875   5.385 -1.2261 -1.3705  0.5127
 7313SOL    HW233576   1.542   0.834   5.435  0.4402  1.0462 -0.8283
 7314SOL     OW33577   3.774   1.800  12.690  0.2464 -0.0271  0.4559
 7314SOL    HW133578   3.849   1.740  12.692  2.2478  2.4397  0.6498
 7314SOL    HW233579   3.802   1.840  12.773 -1.4123  0.8741  0.5801
 7315SOL     OW33580   0.788   2.068   3.649 -0.2792  0.3434 -0.7255
 7315SOL    HW133581   0.781   1.974   3.666  2.4630  0.0749 -1.1615
 7315SOL    HW233582   0.716   2.079   3.588 -0.3797 -1.6488 -0.9623
 7316SOL     OW33583   3.626   1.985   1.706  0.1358 -0.5299 -0.0402
 7316SOL    HW133584   3.717   1.976   1.679  0.0373 -0.5158 -0.3744
 7316SOL    HW233585   3.616   1.898   1.746  3.3344 -0.9042 -0.0606
 7317SOL     OW33586   2.904   0.487  12.396  0.6572  0.0982 -0.1802
 7317SOL    HW133587   2.888   0.566  12.448 -1.4615 -0.2994 -0.2317
 7317SOL    HW233588   2.846   0.419  12.430  1.3276  0.7539  2.2992
 7318SOL     OW33589   0.811   4.436  15.849  0.2492  0.3987 -0.0925
 7318SOL    HW133590   0.876   4.505  15.837 -0.1693  0.7135 -0.5323
 7318SOL    HW233591   0.847   4.363  15.800 -0.8018 -1.9255  2.6248
 7319SOL     OW33592   1.054   2.109   8.937 -0.4134  0.3690  0.6771
 7319SOL    HW133593   1.044   2.151   9.022  1.6455  0.8556  0.6800
 7319SOL    HW233594   1.150   2.103   8.934 -0.6949 -2.7433 -1.9161
 7320SOL     OW33595   3.356   2.076  12.492 -0.4069 -0.1676 -0.7175
 7320SOL    HW133596   3.429   2.029  12.533  0.7551 -0.2170 -2.8144
 7320SOL    HW233597   3.294   2.054  12.561  1.4064  1.3586  1.3904
 7321SOL     OW33598   2.613   3.326   4.799  0.1863  0.1205 -0.4369
 7321SOL    HW133599   2.555   3.374   4.739 -1.2642  0.2166  1.0628
 7321SOL    HW233600   2.549   3.277   4.849  0.9675  2.3114  2.6867
 7322SOL     OW33601   2.023   1.017   6.861  0.5862  0.1624 -0.1246
 7322SOL    HW133602   1.993   1.034   6.772  1.7432  2.0282 -0.1583
 7322SOL    HW233603   1.978   0.935   6.882 -0.5688  0.7559 -0.2896
 7323SOL     OW33604   2.002   0.633  12.462 -0.1392 -0.6187 -0.2462
 7323SOL    HW133605   1.913   0.599  12.474 -0.1272 -0.3501  0.5870
 7323SOL    HW233606   2.058   0.557  12.480  0.2851 -0.1405  0.4440
 7324SOL     OW33607   3.907   2.156   4.534  0.7534  0.2085 -0.1248
 7324SOL    HW133608   3.878   2.065   4.539 -0.0690  0.4659 -0.2463
 7324SOL    HW233609   3.931   2.169   4.442 -1.3112  0.1527 -0.6735
 7325SOL     OW33610   0.542   3.359   4.879  0.1688  0.4677  0.1796
 7325SOL    HW133611   0.560   3.425   4.946  1.7414 -1.9395  2.1459
 7325SOL    HW233612   0.469   3.310   4.918 -0.2974  0.0160 -1.2844
 7326SOL     OW33613   0.912   0.344   7.684  0.0767 -0.4025  0.1572
 7326SOL    HW133614   0.856   0.421   7.692 -0.0226 -0.6361  1.7219
 7326SOL    HW233615   0.861   0.265   7.705  2.1289 -2.2329 -1.6986
 7327SOL     OW33616   0.158   2.371   4.913 -0.1826 -0.2206 -0.0516
 7327SOL    HW133617   0.248   2.340   4.915  0.3850  1.3982 -0.9615
 7327SOL    HW233618   0.120   2.296   4.959  0.3515 -1.2364 -1.2633
 7328SOL     OW33619   1.547   4.305  11.873 -0.1662  0.3451  0.1829
 7328SOL    HW133620   1.528   4.395  11.901  2.3144  0.3851  1.6774
 7328SOL    HW233621   1.639   4.312  11.849 -0.1377  1.3848  0.6019
 7329SOL     OW33622   3.122   2.321   8.444 -0.0431  0.4802  0.2200
 7329SOL    HW133623   3.117   2.345   8.537 -1.1745 -0.5750  0.4313
 7329SOL    HW233624   3.108   2.227   8.450  1.0892  0.2230 -1.1655
 7330SOL     OW33625   2.387   3.329   3.624 -0.0684 -0.1710 -0.1686
 7330SOL    HW133626   2.396   3.303   3.716  1.5596  0.4511 -0.1575
 7330SOL    HW233627   2.446   3.404   3.630  1.0668 -0.9387 -1.8406
 7331SOL     OW33628   3.648   4.126   1.863  0.4192 -0.0512  0.4184
 7331SOL    HW133629   3.612   4.094   1.780 -0.9260  0.0431  0.9752
 7331SOL    HW233630   3.567   4.140   1.912  0.0656  0.9515 -0.4553
 7332SOL     OW33631   0.841   3.345   3.649  0.3390  0.1945 -1.1378
 7332SOL    HW133632   0.901   3.417   3.629  0.7752 -0.2460 -1.4311
 7332SOL    HW233633   0.758   3.386   3.626 -1.1257 -1.5886  0.9032
 7333SOL     OW33634   2.122   2.028   8.336  0.3948 -0.0728  0.1312
 7333SOL    HW133635   2.031   2.058   8.342  0.1527 -1.1770  1.7788
 7333SOL    HW233636   2.158   2.082   8.406  0.6979 -0.8168  0.5463
 7334SOL     OW33637   4.091   3.130   5.271 -0.7646 -0.0427 -0.3747
 7334SOL    HW133638   4.106   3.220   5.300  0.3253 -0.8300  1.5119
 7334SOL    HW233639   4.123   3.083   5.348 -0.3901  0.6259 -0.1245
 7335SOL     OW33640   2.520   0.428  14.792  0.3946  0.5563 -0.2749
 7335SOL    HW133641   2.522   0.344  14.837 -0.7383  0.4879 -0.3609
 7335SOL    HW233642   2.608   0.460  14.813  0.4050  0.0149  0.4867
 7336SOL     OW33643   4.532   3.916   5.797  0.3235  0.3671 -0.1087
 7336SOL    HW133644   4.615   3.950   5.830 -1.7991  0.8428  4.8189
 7336SOL    HW233645   4.471   3.982   5.829  0.2368 -0.0331  0.5512
 7337SOL     OW33646   2.958   3.398  15.516  0.0418 -0.2989  0.1581
 7337SOL    HW133647   2.955   3.393  15.421 -1.7643 -3.0285  0.3657
 7337SOL    HW233648   2.881   3.451  15.537  1.0069  0.3826  2.0345
 7338SOL     OW33649   3.221   0.753  12.314  0.0091 -0.3991 -0.2878
 7338SOL    HW133650   3.149   0.808  12.283  0.5955  0.8232  0.5477
 7338SOL    HW233651   3.299   0.804  12.292 -1.0080  1.1822 -0.1643
 7339SOL     OW33652   0.343   3.692   7.309 -0.8424 -0.7276 -0.3015
 7339SOL    HW133653   0.425   3.669   7.354 -0.9326 -0.2693  0.1021
 7339SOL    HW233654   0.309   3.738   7.386 -1.1663 -0.8638 -0.3619
 7340SOL     OW33655   0.335   2.356   2.546 -0.0541 -0.3143 -0.0998
 7340SOL    HW133656   0.283   2.350   2.626  1.0089 -1.2817  0.5242
 7340SOL    HW233657   0.415   2.309   2.570 -0.9188 -0.7391  2.0131
 7341SOL     OW33658   4.092   1.711   6.922  0.0816 -0.5229  0.1036
 7341SOL    HW133659   4.029   1.780   6.939  0.7894  0.3251 -0.7231
 7341SOL    HW233660   4.145   1.739   6.847 -0.6940  1.0814  0.1652
 7342SOL     OW33661   3.572   2.060   7.027  0.0174 -0.0206 -0.0207
 7342SOL    HW133662   3.571   2.079   6.933  0.2374 -0.7055 -0.1637
 7342SOL    HW233663   3.484   2.023   7.030  0.6770 -1.5444  0.6088
 7343SOL     OW33664   4.249   1.263  17.537  0.5781  0.1939  0.1488
 7343SOL    HW133665   4.286   1.274  17.625 -1.6158  0.4228  1.0321
 7343SOL    HW233666   4.315   1.299  17.478 -0.1772  0.6314 -0.4252
 7344SOL     OW33667   3.384   4.654   6.016 -0.2748  0.2767 -0.7435
 7344SOL    HW133668   3.313   4.658   6.079 -0.0562  3.6361 -0.7142
 7344SOL    HW233669   3.419   0.003   6.041 -0.1449  0.0215 -0.0528
 7345SOL     OW33670   3.476   0.330   4.035 -0.8293  0.5986 -0.2150
 7345SOL    HW133671   3.439   0.338   4.123 -0.7595  0.9334 -0.2169
 7345SOL    HW233672   3.545   0.397   4.039 -1.5875  1.3379  0.4681
 7346SOL     OW33673   1.994   1.235   2.993 -0.1206 -0.1244 -0.5005
 7346SOL    HW133674   2.034   1.273   2.914 -0.5030  1.4206  0.0337
 7346SOL    HW233675   1.949   1.312   3.028  0.9416  0.0167  0.5619
 7347SOL     OW33676   1.632   3.423   8.940 -0.1196 -0.0809  0.0201
 7347SOL    HW133677   1.553   3.402   8.990 -0.5727  1.3110 -0.1148
 7347SOL    HW233678   1.596   3.437   8.852  0.3164  1.2093  0.0491
 7348SOL     OW33679   3.084   1.174   6.490  0.0354  0.0039 -0.3195
 7348SOL    HW133680   2.996   1.158   6.455  0.8525 -2.1722 -1.3705
 7348SOL    HW233681   3.110   1.090   6.529 -1.6187 -0.1943  0.3997
 7349SOL     OW33682   1.604   4.304  12.895  0.1317  0.1886 -0.2531
 7349SOL    HW133683   1.615   4.361  12.972 -0.5220  1.3766 -1.0288
 7349SOL    HW233684   1.513   4.317  12.867 -0.7897 -3.1527  1.2073
 7350SOL     OW33685   0.374   4.119   6.015 -0.3861 -0.1591 -0.0912
 7350SOL    HW133686   0.367   4.214   6.012  1.5552  0.0468  1.0816
 7350SOL    HW233687   0.359   4.086   5.927  1.8064 -0.7749 -0.2360
 7351SOL     OW33688   3.548   2.622  11.575 -0.1657  0.2926  0.1525
 7351SOL    HW133689   3.627   2.640  11.626  0.5604  0.6658 -1.1018
 7351SOL    HW233690   3.493   2.698  11.593  1.4465  0.8269  2.7953
 7352SOL     OW33691   4.520   2.467   3.416  0.1236 -0.1129 -0.2397
 7352SOL    HW133692   4.433   2.502   3.401  0.2720  0.3074 -0.1227
 7352SOL    HW233693   4.522   2.399   3.349 -1.0141 -0.4743  0.0960
 7353SOL     OW33694   1.134   4.357   6.824 -0.5668 -0.5974  0.1874
 7353SOL    HW133695   1.148   4.443   6.863  0.9355 -0.5004 -0.5658
 7353SOL    HW233696   1.120   4.386   6.733 -1.7487 -1.3850  0.1217
 7354SOL     OW33697   3.361   4.042   5.289  0.1001 -0.5354  0.2478
 7354SOL    HW133698   3.330   4.095   5.215  0.6245  1.3267  1.3731
 7354SOL    HW233699   3.453   4.062   5.276 -0.1892 -0.1979 -1.3355
 7355SOL     OW33700   3.056   3.258   5.925 -1.2446 -0.1487  0.1545
 7355SOL    HW133701   2.982   3.271   5.865 -0.1702  2.3292 -0.6244
 7355SOL    HW233702   3.045   3.169   5.960  0.4282  0.5945  2.5403
 7356SOL     OW33703   1.503   1.822   4.569 -0.6807 -0.8658 -0.2495
 7356SOL    HW133704   1.597   1.830   4.583 -0.7107 -0.6807 -0.1463
 7356SOL    HW233705   1.481   1.915   4.566  2.7229 -0.0738 -0.3436
 7357SOL     OW33706   1.472   3.436   0.308  0.1390 -0.6927 -0.8080
 7357SOL    HW133707   1.538   3.406   0.246  0.7806  2.5564 -1.6845
 7357SOL    HW233708   1.430   3.362   0.352 -0.6533 -0.5890 -1.4025
 7358SOL     OW33709   3.858   1.121   3.367 -0.4244  0.2470 -0.0719
 7358SOL    HW133710   3.834   1.034   3.334 -4.8350  1.1087  0.8175
 7358SOL    HW233711   3.922   1.150   3.302  1.2496  0.6586  1.7387
 7359SOL     OW33712   0.113   3.302   2.370 -0.1471 -0.2535 -0.7967
 7359SOL    HW133713   0.188   3.333   2.319 -0.1546 -1.6327 -1.6535
 7359SOL    HW233714   0.045   3.362   2.340  0.2242  0.5061 -0.0938
 7360SOL     OW33715   3.280   3.460  16.472 -0.1435  0.1614  0.6598
 7360SOL    HW133716   3.266   3.378  16.425 -0.1750  0.1787  0.6385
 7360SOL    HW233717   3.360   3.447  16.523 -0.5817  3.0423  2.1273
 7361SOL     OW33718   4.032   0.475  11.084 -0.3558 -0.3057  0.0796
 7361SOL    HW133719   3.943   0.470  11.119 -0.4099  2.2270  0.2589
 7361SOL    HW233720   4.057   0.566  11.097  0.5258 -0.4545 -0.6244
 7362SOL     OW33721   0.509   1.961   7.784 -0.4301  0.2042 -0.3656
 7362SOL    HW133722   0.454   1.962   7.705 -1.1775  3.3817  0.1799
 7362SOL    HW233723   0.585   1.914   7.750 -1.3808 -0.0231 -2.1526
 7363SOL     OW33724   2.390   3.854   4.441 -0.3431  0.1464  0.1699
 7363SOL    HW133725   2.411   3.946   4.422 -0.1606  0.0767  0.0390
 7363SOL    HW233726   2.433   3.833   4.523 -0.2246 -0.5422 -0.0714
 7364SOL     OW33727   0.524   0.879   4.540  0.4589 -0.1171  0.6328
 7364SOL    HW133728   0.587   0.950   4.546  0.8899 -0.5366  1.0662
 7364SOL    HW233729   0.485   0.895   4.625  1.1291  1.6322  0.5930
 7365SOL     OW33730   1.460   3.342   3.041  0.0323 -0.6580 -0.0352
 7365SOL    HW133731   1.417   3.352   3.126  1.1976  1.2224  0.3379
 7365SOL    HW233732   1.416   3.258   3.027 -2.1072  0.3728  0.4965
 7366SOL     OW33733   2.271   2.536   7.101  0.0665  0.2060  0.4410
 7366SOL    HW133734   2.320   2.614   7.074  0.1817  0.1062  0.3572
 7366SOL    HW233735   2.241   2.506   7.015  0.3820  0.9384  0.0739
 7367SOL     OW33736   4.609   1.587   6.855  0.5101  0.1888  0.6064
 7367SOL    HW133737   4.556   1.509   6.839 -0.1211  0.7001  0.1917
 7367SOL    HW233738   4.674   1.549   6.914  0.0137 -0.6511  0.6136
 7368SOL     OW33739   4.628   1.750  16.794 -0.1811 -0.1472  0.6748
 7368SOL    HW133740   4.718   1.781  16.805 -0.3203  0.8544 -0.9840
 7368SOL    HW233741   4.642   1.657  16.781  4.0033  0.3524  1.4762
 7369SOL     OW33742   0.509   3.138  16.235 -0.6035  0.2223  0.0885
 7369SOL    HW133743   0.512   3.201  16.163  2.8997  1.1440  1.0526
 7369SOL    HW233744   0.468   3.185  16.307 -2.4562  0.5060 -1.1460
 7370SOL     OW33745   0.012   2.917   8.028  0.4330  0.2668  0.3092
 7370SOL    HW133746   0.037   2.901   8.119  0.4732  0.7668  0.3852
 7370SOL    HW233747   0.078   2.858   7.990  2.7200  2.7595  0.3760
 7371SOL     OW33748   4.700   1.098   5.182 -0.2327  0.2140  0.1248
 7371SOL    HW133749   4.629   1.057   5.132 -0.9913  0.1907  1.2065
 7371SOL    HW233750   0.004   1.019   5.217 -0.7853 -0.4711 -0.7697
 7372SOL     OW33751   4.329   0.645  11.145 -0.4432  0.1136 -0.1827
 7372SOL    HW133752   4.331   0.565  11.197 -0.3570  0.1888 -0.0710
 7372SOL    HW233753   4.316   0.616  11.055 -0.2933 -0.4926 -0.0129
 7373SOL     OW33754   0.658   1.829   6.810 -0.0556 -0.0415  0.1431
 7373SOL    HW133755   0.734   1.817   6.867  0.9831  0.2121 -1.2052
 7373SOL    HW233756   0.692   1.888   6.742  0.2639  0.8755  1.0860
 7374SOL     OW33757   3.851   4.297   2.368  0.8693 -0.6294  0.3131
 7374SOL    HW133758   3.784   4.366   2.371  2.9200  1.4785 -1.5525
 7374SOL    HW233759   3.806   4.225   2.412  0.4807 -1.1871 -1.0114
 7375SOL     OW33760   3.503   2.130   0.208 -0.2928 -0.0056 -0.3115
 7375SOL    HW133761   3.572   2.083   0.255  0.4363  0.3659 -1.0276
 7375SOL    HW233762   3.520   2.217   0.242 -0.5869 -0.4533  0.9884
 7376SOL     OW33763   4.435   0.404  12.289  0.6975 -0.1688  0.4223
 7376SOL    HW133764   4.494   0.460  12.238  0.3217 -0.5242 -0.3974
 7376SOL    HW233765   4.490   0.326  12.300  2.3829  0.6203 -2.2998
 7377SOL     OW33766   4.601   2.965   8.540 -0.2907 -0.3301 -0.3090
 7377SOL    HW133767   4.517   2.959   8.494 -0.5877 -1.1034  0.3393
 7377SOL    HW233768   4.614   2.891   8.599  0.8881  0.1218 -0.0079
 7378SOL     OW33769   4.164   4.002   9.099 -0.4825  0.0950 -0.0667
 7378SOL    HW133770   4.099   3.951   9.051 -0.1828  1.7326 -2.1883
 7378SOL    HW233771   4.221   3.927   9.118 -1.4233 -0.8244 -0.8420
 7379SOL     OW33772   4.203   2.144   1.306 -0.2946 -0.6556 -0.2362
 7379SOL    HW133773   4.155   2.202   1.365  0.3536 -0.3617  0.0038
 7379SOL    HW233774   4.197   2.186   1.220  1.0814 -2.1370 -1.0536
 7380SOL     OW33775   2.616   3.952   0.399  0.0530  0.6434  0.1593
 7380SOL    HW133776   2.706   3.984   0.398  0.1940  0.2799  1.1092
 7380SOL    HW233777   2.588   4.000   0.320  0.0273  1.2211  0.5195
 7381SOL     OW33778   0.191   2.704   5.310 -0.3699 -0.3735 -0.1831
 7381SOL    HW133779   0.105   2.727   5.345  1.7654  1.9327  3.5059
 7381SOL    HW233780   0.200   2.611   5.332  0.9233 -0.5663 -1.4855
 7382SOL     OW33781   0.885   3.448  16.096 -0.4289  0.4677  0.2039
 7382SOL    HW133782   0.936   3.524  16.124  1.2375 -1.1722  1.5729
 7382SOL    HW233783   0.854   3.475  16.009 -0.9457 -2.1069 -0.3951
 7383SOL     OW33784   0.967   1.916   2.996  0.4410 -0.4357 -0.3079
 7383SOL    HW133785   0.965   1.868   3.079  1.7709 -0.6724 -0.4080
 7383SOL    HW233786   1.034   1.984   3.011 -2.4335  2.2429  0.3840
 7384SOL     OW33787   4.238   4.493   6.242  0.5320  0.3027 -0.0906
 7384SOL    HW133788   4.166   4.447   6.199 -0.3405  1.5410  0.0622
 7384SOL    HW233789   4.210   4.584   6.241  0.9990  0.4466 -0.3240
 7385SOL     OW33790   4.162   3.372   5.335 -0.2640 -0.2715  0.3953
 7385SOL    HW133791   4.250   3.398   5.308 -0.0073  0.2109  1.7084
 7385SOL    HW233792   4.166   3.358   5.429  1.4916  4.2365  0.9785
 7386SOL     OW33793   1.653   1.338   8.528  0.5842  0.2553  0.4292
 7386SOL    HW133794   1.728   1.394   8.549  0.5954 -0.6017  2.6666
 7386SOL    HW233795   1.577   1.397   8.523  0.1407 -0.3065  0.5818
 7387SOL     OW33796   4.641   4.202   3.337 -0.1772 -0.0912 -0.4800
 7387SOL    HW133797   4.611   4.291   3.317  0.4082  0.6676  2.0407
 7387SOL    HW233798   4.717   4.217   3.394 -1.1985  0.7981  0.6539
 7388SOL     OW33799   1.143   2.994   9.064  0.1888 -0.0797 -0.3612
 7388SOL    HW133800   1.162   2.971   9.155  0.5143 -0.6796 -0.5820
 7388SOL    HW233801   1.110   3.080   9.090 -0.2553 -0.1330 -0.7437
 7389SOL     OW33802   1.142   1.281   5.553 -0.0892 -0.1699 -0.1088
 7389SOL    HW133803   1.214   1.250   5.498  0.7923  2.3335 -0.3573
 7389SOL    HW233804   1.151   1.376   5.552 -2.2571  0.0634  0.9848
 7390SOL     OW33805   2.935   1.364   1.630 -0.5344  1.4075  0.4219
 7390SOL    HW133806   2.928   1.459   1.623  0.6649  1.6552  2.6405
 7390SOL    HW233807   2.843   1.344   1.650 -0.1461 -0.5351  0.2670
 7391SOL     OW33808   1.494   2.786   5.463  0.2426  0.5885  0.0531
 7391SOL    HW133809   1.409   2.746   5.480  0.2263  0.6845  0.1936
 7391SOL    HW233810   1.505   2.839   5.542 -2.4053  1.3428 -0.1201
 7392SOL     OW33811   4.549   4.439   5.320  0.2991  0.0636  0.3888
 7392SOL    HW133812   4.563   4.406   5.409 -0.1082 -0.0776  0.3995
 7392SOL    HW233813   4.580   4.362   5.273  2.1394  1.2873 -0.3926
 7393SOL     OW33814   1.233   1.155   2.239 -0.2375  0.3708 -0.1210
 7393SOL    HW133815   1.199   1.214   2.172 -0.7808 -0.4032 -0.5261
 7393SOL    HW233816   1.208   1.068   2.208  0.1633 -0.1030  0.9001
 7394SOL     OW33817   4.483   2.497   1.651 -0.3369 -0.5916  0.7248
 7394SOL    HW133818   4.483   2.559   1.724  0.3732 -1.1211  1.1648
 7394SOL    HW233819   4.413   2.533   1.596 -0.2476  0.8864  1.5575
 7395SOL     OW33820   3.569   3.804  15.240  0.2429 -0.4889 -0.3544
 7395SOL    HW133821   3.601   3.722  15.279  0.6962  0.2574  0.8588
 7395SOL    HW233822   3.537   3.776  15.154 -2.7719 -1.0732  0.9548
 7396SOL     OW33823   4.654   3.658   6.372 -0.0815  0.0961  0.3705
 7396SOL    HW133824   4.681   3.604   6.298 -4.3512 -0.9811 -0.3601
 7396SOL    HW233825   4.623   3.731   6.319  0.4490  1.7418  2.3482
 7397SOL     OW33826   3.162   0.331   4.764  0.4248 -0.0255 -0.3310
 7397SOL    HW133827   3.103   0.293   4.829 -1.0967  2.3458 -0.3028
 7397SOL    HW233828   3.245   0.295   4.795 -0.8580 -0.6145  2.3863
 7398SOL     OW33829   2.331   2.831   9.175 -0.4359  0.4636 -0.1583
 7398SOL    HW133830   2.418   2.840   9.213 -0.1895 -2.8629  0.0095
 7398SOL    HW233831   2.362   2.802   9.090 -3.4984 -0.0813 -1.1104
 7399SOL     OW33832   1.697   2.965   9.626  0.1073  0.2667 -0.2139
 7399SOL    HW133833   1.619   2.955   9.680 -0.2242 -0.2818 -0.8071
 7399SOL    HW233834   1.740   2.881   9.639 -0.2423  0.1072 -0.0929
 7400SOL     OW33835   2.478   0.853   2.068  0.2135 -0.3753  0.0834
 7400SOL    HW133836   2.474   0.872   1.974  0.5455  2.1458  0.5910
 7400SOL    HW233837   2.535   0.777   2.057  2.0571  1.2856 -1.7648
 7401SOL     OW33838   3.422   4.533   3.284  0.1971 -0.5337  0.4795
 7401SOL    HW133839   3.365   4.521   3.360 -0.5579  0.1824  0.0208
 7401SOL    HW233840   3.441   4.627   3.279 -0.2838 -0.4490  0.2764
 7402SOL     OW33841   2.287   3.414   2.790 -0.9564 -0.0543 -0.6531
 7402SOL    HW133842   2.288   3.385   2.698  0.6352 -0.3122 -0.5555
 7402SOL    HW233843   2.330   3.335   2.824 -1.6536 -0.3707 -0.5068
 7403SOL     OW33844   4.327   0.864   9.750  0.4460  0.1716 -0.1303
 7403SOL    HW133845   4.318   0.869   9.846 -1.5744  1.5324 -0.3936
 7403SOL    HW233846   4.329   0.957   9.728  2.3706  0.3294  0.6740
 7404SOL     OW33847   0.342   3.126   5.457  0.1714  0.3770  0.4328
 7404SOL    HW133848   0.301   3.041   5.475 -2.3245  1.6855  0.8480
 7404SOL    HW233849   0.380   3.146   5.543 -4.3256 -1.1140  2.7731
 7405SOL     OW33850   4.511   4.731  12.729 -0.1093  0.0128  0.1066
 7405SOL    HW133851   4.545   4.714  12.817  2.1997  0.1621 -0.7492
 7405SOL    HW233852   4.578   0.048  12.685  1.0000  0.0290  1.8459
 7406SOL     OW33853   0.047   2.423   8.953  0.3093 -0.1624  0.5185
 7406SOL    HW133854   4.711   2.459   9.005  0.6826  0.8637  0.3190
 7406SOL    HW233855   0.003   2.347   8.914  0.5613  0.6481 -1.3548
 7407SOL     OW33856   0.013   0.449   4.922 -0.0046  0.1803  0.1988
 7407SOL    HW133857   4.676   0.460   4.982  0.5155 -1.1617  1.1023
 7407SOL    HW233858   0.015   0.353   4.923 -2.4342  0.1444  2.3302
 7408SOL     OW33859   0.711   1.051   4.641 -0.0420  0.1827 -0.5945
 7408SOL    HW133860   0.675   1.135   4.671  0.4284  0.4700 -0.8305
 7408SOL    HW233861   0.772   1.084   4.575  0.4369  0.4235 -0.0228
 7409SOL     OW33862   2.085   1.886   7.570 -0.0126 -0.0781  0.6525
 7409SOL    HW133863   2.018   1.830   7.531 -0.1695  1.7563 -1.7089
 7409SOL    HW233864   2.083   1.855   7.661  0.6817  0.3372  0.8112
 7410SOL     OW33865   0.483   1.677  17.080 -0.2778  0.3274 -0.1811
 7410SOL    HW133866   0.491   1.599  17.135  0.4087 -0.4307 -1.3571
 7410SOL    HW233867   0.451   1.636  17.000  0.6476  1.4567 -1.1199
 7411SOL     OW33868   3.187   0.501  14.109 -1.1968  0.8647 -0.1209
 7411SOL    HW133869   3.110   0.499  14.167 -0.8628 -2.5261  0.2241
 7411SOL    HW233870   3.217   0.589  14.130 -1.7014  0.6539  1.5802
 7412SOL     OW33871   4.346   0.060   2.342  0.4976 -0.0903  0.1776
 7412SOL    HW133872   4.310   0.140   2.304 -0.7814 -1.2929 -1.1372
 7412SOL    HW233873   4.362   0.020   2.256 -0.5241 -0.8719  0.3538
 7413SOL     OW33874   3.662   1.267   1.861 -0.2366  0.1424 -0.9091
 7413SOL    HW133875   3.684   1.231   1.775 -0.3271 -1.7278 -0.1321
 7413SOL    HW233876   3.725   1.233   1.925  0.1303  1.8521 -0.3419
 7414SOL     OW33877   1.472   4.583  10.422  0.2924  0.5098  0.5697
 7414SOL    HW133878   1.418   4.602  10.499 -0.5270 -0.2318  0.1774
 7414SOL    HW233879   1.556   4.566  10.464  0.4698  1.6793  0.6847
 7415SOL     OW33880   3.838   3.516   1.890  0.0837  0.2267  0.3815
 7415SOL    HW133881   3.793   3.441   1.929  3.9402 -3.0293 -1.3480
 7415SOL    HW233882   3.920   3.511   1.940  1.1025  0.6412 -1.2540
 7416SOL     OW33883   0.524   1.497  16.174 -0.2570 -0.0109  0.6485
 7416SOL    HW133884   0.490   1.506  16.263 -0.8673  0.1809  0.3983
 7416SOL    HW233885   0.463   1.434  16.134  0.2149  2.0488 -3.3173
 7417SOL     OW33886   1.301   0.488   7.479 -0.4840 -0.4739 -0.0927
 7417SOL    HW133887   1.337   0.549   7.415 -0.3446 -0.5066 -0.0449
 7417SOL    HW233888   1.295   0.550   7.552  3.5851  0.4400 -0.5344
 7418SOL     OW33889   3.697   0.055   6.842  0.3630 -0.4666  0.2063
 7418SOL    HW133890   3.623   0.060   6.902 -1.1988 -1.7871 -1.6093
 7418SOL    HW233891   3.733   4.713   6.884  0.9065 -0.2082  0.2218
 7419SOL     OW33892   0.947   3.678   1.067  0.0126 -0.0829  0.5267
 7419SOL    HW133893   0.883   3.698   1.135  0.1162 -0.0874  0.6248
 7419SOL    HW233894   0.991   3.757   1.038 -3.0004  1.1761 -0.6817
 7420SOL     OW33895   3.084   4.664   8.370  0.1198 -0.0548  0.0492
 7420SOL    HW133896   3.165   4.714   8.380 -0.5614  1.0731 -0.0612
 7420SOL    HW233897   3.072   4.627   8.457  0.1896  0.5499  0.3106
 7421SOL     OW33898   3.782   1.956   2.261  1.0072  0.1076  0.4684
 7421SOL    HW133899   3.871   1.951   2.296  1.1954 -0.4511 -0.0952
 7421SOL    HW233900   3.791   1.917   2.174 -0.4999 -1.7890  1.1674
 7422SOL     OW33901   3.453   2.089   4.271 -0.0597 -0.7747  0.4656
 7422SOL    HW133902   3.358   2.078   4.267 -0.5621  3.2270  1.1583
 7422SOL    HW233903   3.468   2.038   4.351  3.2150 -0.7812 -0.1634
 7423SOL     OW33904   2.597   2.821   4.722 -0.1771 -0.6734  0.6076
 7423SOL    HW133905   2.654   2.785   4.790 -0.2975 -0.8186  0.6318
 7423SOL    HW233906   2.622   2.780   4.639  1.6292  1.3295  0.1884
 7424SOL     OW33907   4.037   2.521   0.896  0.2461  0.2972 -0.2849
 7424SOL    HW133908   4.090   2.562   0.965  0.0253 -0.2474  0.2155
 7424SOL    HW233909   4.042   2.430   0.926  0.1663  0.4186  0.0908
 7425SOL     OW33910   3.303   1.581   6.815  0.6979 -0.1584  0.1870
 7425SOL    HW133911   3.276   1.514   6.752 -1.2385 -0.7219  1.5927
 7425SOL    HW233912   3.215   1.603   6.846 -0.1662 -2.8016 -0.3889
 7426SOL     OW33913   4.155   1.015   8.829 -0.6431 -0.6322 -0.4522
 7426SOL    HW133914   4.121   0.957   8.898 -1.0215 -0.0611 -0.1599
 7426SOL    HW233915   4.088   1.081   8.847  2.2638  1.8336  1.3096
 7427SOL     OW33916   0.552   0.868   2.263 -0.3077  0.1935  0.0537
 7427SOL    HW133917   0.626   0.859   2.323 -1.0149  0.4093  0.9610
 7427SOL    HW233918   0.487   0.886   2.332  0.0420  1.6072  0.0239
 7428SOL     OW33919   1.560   0.096   1.940 -0.1120  0.3606 -0.2724
 7428SOL    HW133920   1.628   0.163   1.954 -0.9618  0.8976  1.3266
 7428SOL    HW233921   1.557   0.054   2.026  0.7129 -0.0352 -0.4376
 7429SOL     OW33922   2.726   0.875  12.833 -0.6609 -0.3584 -0.4804
 7429SOL    HW133923   2.743   0.780  12.831  0.0293 -0.2491  0.6836
 7429SOL    HW233924   2.704   0.885  12.740 -0.1908  0.7072 -0.4708
 7430SOL     OW33925   1.909   4.470   3.825 -0.4103 -0.6978 -0.3906
 7430SOL    HW133926   1.818   4.475   3.795 -0.7958  0.4019  0.9289
 7430SOL    HW233927   1.907   4.415   3.904  0.0604 -0.6151 -0.3221
 7431SOL     OW33928   1.372   2.317   5.863 -0.5154  0.4426  0.0823
 7431SOL    HW133929   1.421   2.370   5.926 -0.1661 -2.4311  2.2230
 7431SOL    HW233930   1.388   2.370   5.785  1.4340 -1.3249 -0.7122
 7432SOL     OW33931   0.723   1.225   8.768  0.1902  0.1943  0.2169
 7432SOL    HW133932   0.700   1.316   8.751  0.5735  0.4562  1.0921
 7432SOL    HW233933   0.794   1.231   8.832  1.7327  0.1819 -1.4751
 7433SOL     OW33934   0.060   0.127   3.170 -0.7189 -0.2327  0.2854
 7433SOL    HW133935   0.006   0.052   3.148  0.7612 -0.5963 -2.1230
 7433SOL    HW233936   0.024   0.190   3.108 -0.2711  1.3444  1.6195
 7434SOL     OW33937   4.539   4.406   3.150  0.6627 -0.7420 -0.0717
 7434SOL    HW133938   4.532   4.370   3.062  0.6687 -0.3149 -0.2475
 7434SOL    HW233939   4.449   4.399   3.181 -0.1931 -1.1898 -2.6664
 7435SOL     OW33940   1.028   3.901  16.780 -0.3021 -0.1924 -0.1379
 7435SOL    HW133941   1.043   3.807  16.781 -2.9741 -0.6010  1.0349
 7435SOL    HW233942   1.054   3.936  16.865 -0.5521 -0.5295  0.0749
 7436SOL     OW33943   4.609   0.510  17.703 -0.1226 -0.5864 -0.1519
 7436SOL    HW133944   4.673   0.442  17.724  0.4257  0.4534  1.5465
 7436SOL    HW233945   4.591   0.508  17.609 -2.6810  2.6971  0.2997
 7437SOL     OW33946   0.153   3.385   5.891  0.0543 -0.4327 -0.0245
 7437SOL    HW133947   0.245   3.364   5.878  0.3185 -0.5874  2.2036
 7437SOL    HW233948   0.130   3.343   5.973  0.7813 -0.5883  0.0959
 7438SOL     OW33949   4.012   1.991   4.117 -0.3019  0.1673 -0.1219
 7438SOL    HW133950   3.996   1.974   4.024 -0.8994  2.7979 -0.4818
 7438SOL    HW233951   4.012   2.086   4.122 -0.2327  0.0317  2.6770
 7439SOL     OW33952   3.086   0.609   3.493  0.1430 -0.9188  0.1017
 7439SOL    HW133953   3.166   0.650   3.461 -0.8139  2.2950  1.8950
 7439SOL    HW233954   3.108   0.607   3.586  0.5014 -0.8148  0.0220
 7440SOL     OW33955   3.717   0.613   7.930  0.5292  0.1378  0.4681
 7440SOL    HW133956   3.805   0.621   7.967  0.5368  1.0905  0.2409
 7440SOL    HW233957   3.721   0.522   7.900  0.9783 -0.6414  2.9529
 7441SOL     OW33958   3.657   4.690  15.879 -0.0646  0.2836 -0.4939
 7441SOL    HW133959   3.622   0.004  15.805 -3.2821  1.0569  1.5320
 7441SOL    HW233960   3.611   4.730  15.953 -0.3472  0.3923 -0.7239
 7442SOL     OW33961   2.766   1.299   2.702 -0.0389  0.0883 -0.1220
 7442SOL    HW133962   2.777   1.382   2.655 -2.4634  0.0593 -0.7315
 7442SOL    HW233963   2.838   1.253   2.658 -0.8519 -1.6256  0.3517
 7443SOL     OW33964   3.750   3.752   2.024 -0.0479  0.2247  0.7501
 7443SOL    HW133965   3.668   3.728   1.982 -0.8782  3.3050  0.6563
 7443SOL    HW233966   3.809   3.678   2.010  0.0598  0.8818 -2.2954
 7444SOL     OW33967   2.144   4.124   4.818  0.6630 -0.2152  0.1721
 7444SOL    HW133968   2.048   4.135   4.819  0.7400  0.6166 -0.8353
 7444SOL    HW233969   2.150   4.032   4.796  0.6255 -0.3898  0.8973
 7445SOL     OW33970   2.021   1.035   6.278  0.1511  0.6711 -0.3890
 7445SOL    HW133971   1.968   1.113   6.294  0.0430  1.1958 -3.1473
 7445SOL    HW233972   1.986   1.033   6.188  2.4536 -0.2925 -1.2700
 7446SOL     OW33973   1.889   3.557   5.873  0.4682 -0.1025  0.2856
 7446SOL    HW133974   1.860   3.600   5.953 -0.3556  0.9954 -0.5832
 7446SOL    HW233975   1.814   3.507   5.840  0.7824 -0.4180  0.0536
 7447SOL     OW33976   1.969   2.466   7.015 -0.6165  0.3601 -0.1831
 7447SOL    HW133977   1.980   2.540   7.076 -2.0525 -0.3522  0.9377
 7447SOL    HW233978   1.971   2.511   6.930  1.9393 -0.8887 -0.7777
 7448SOL     OW33979   1.047   2.941   7.989  0.1527 -0.4255 -0.0480
 7448SOL    HW133980   1.001   2.962   7.908 -1.1179 -1.6060  0.3654
 7448SOL    HW233981   1.021   3.013   8.046 -1.0204 -0.4585 -0.5364
 7449SOL     OW33982   0.248   1.842  16.527  0.0818 -0.8744 -0.0195
 7449SOL    HW133983   0.284   1.914  16.475  0.2720 -0.4083  0.7660
 7449SOL    HW233984   0.321   1.781  16.539 -0.4758 -1.6673 -0.6518
 7450SOL     OW33985   0.853   2.536   7.444 -0.2956 -0.5087 -0.1881
 7450SOL    HW133986   0.762   2.558   7.465 -0.9978 -2.2157 -1.4991
 7450SOL    HW233987   0.851   2.494   7.358 -0.6450 -0.0298 -0.4155
 7451SOL     OW33988   1.875   3.000   4.246  0.0373 -0.5538  0.1514
 7451SOL    HW133989   1.873   2.985   4.341  2.0924  1.8907  0.6064
 7451SOL    HW233990   1.915   2.924   4.205  0.4655 -0.9814  1.3466
 7452SOL     OW33991   4.381   0.088   8.382  0.2162 -0.2125  0.8138
 7452SOL    HW133992   4.459   0.140   8.364  0.9262 -2.5397 -2.6933
 7452SOL    HW233993   4.417   0.013   8.428 -3.0814 -1.6606  1.0669
 7453SOL     OW33994   2.005   1.895   5.995  0.0466  0.6482  0.7491
 7453SOL    HW133995   1.914   1.922   5.977  1.0114  1.4023 -3.0468
 7453SOL    HW233996   2.050   1.979   6.000  2.0395 -0.3545 -0.6987
 7454SOL     OW33997   2.616   2.879   8.249  0.3406  0.0710 -0.5439
 7454SOL    HW133998   2.534   2.929   8.242  1.3360  1.8446  0.4305
 7454SOL    HW233999   2.597   2.799   8.298 -1.0666  0.0864 -1.0326
 7455SOL     OW34000   2.667   2.170   7.033  0.8868 -0.4357 -0.0554
 7455SOL    HW134001   2.605   2.125   6.976 -1.2753  0.8703  1.2738
 7455SOL    HW234002   2.634   2.144   7.119  2.4335 -1.2785  0.2888
 7456SOL     OW34003   2.336   2.691   7.411  0.0714 -0.0314 -0.2322
 7456SOL    HW134004   2.350   2.632   7.485  0.1948  0.8881  0.4857
 7456SOL    HW234005   2.371   2.644   7.336 -2.0818 -2.5172  0.3535
 7457SOL     OW34006   1.758   0.814   3.760  0.3636 -0.3587  0.6102
 7457SOL    HW134007   1.695   0.882   3.786  0.8236 -0.0758  0.9813
 7457SOL    HW234008   1.817   0.797   3.833  2.4988 -1.7740 -1.4485
 7458SOL     OW34009   1.135   3.280   3.831 -0.6280 -0.1249 -0.3094
 7458SOL    HW134010   1.051   3.277   3.783  0.4674  0.3534 -2.2730
 7458SOL    HW234011   1.156   3.188   3.840  0.1530  0.1639  0.8156
 7459SOL     OW34012   4.165   4.555  14.310 -0.1487 -0.1794 -0.0642
 7459SOL    HW134013   4.085   4.554  14.362 -0.5632  1.1268 -0.6789
 7459SOL    HW234014   4.232   4.589  14.370 -1.5920  1.9447  0.3507
 7460SOL     OW34015   0.632   0.467   4.887 -0.2786  0.6873  0.5332
 7460SOL    HW134016   0.648   0.544   4.833 -1.0729  0.3838 -0.1233
 7460SOL    HW234017   0.708   0.486   4.942  1.4568 -1.6607 -1.0407
 7461SOL     OW34018   3.807   0.293   8.133  0.5192 -0.3139  0.0054
 7461SOL    HW134019   3.746   0.229   8.171 -0.5549  1.1951  0.8217
 7461SOL    HW234020   3.887   0.263   8.177  1.6513  0.4583 -1.5346
 7462SOL     OW34021   4.564   4.728   4.094  0.0673  0.3808  0.2021
 7462SOL    HW134022   4.550   0.077   4.135 -2.3746  0.0025  0.1620
 7462SOL    HW234023   4.519   4.665   4.151  0.2240 -1.0678 -1.2947
 7463SOL     OW34024   3.828   4.725   4.602  0.0718  0.3321 -0.2082
 7463SOL    HW134025   3.838   4.632   4.624  0.2761  0.3282 -0.3176
 7463SOL    HW234026   3.836   0.032   4.687 -1.6681  0.6054 -0.1872
 7464SOL     OW34027   1.265   1.683   4.525  0.7338  0.0064  0.3840
 7464SOL    HW134028   1.342   1.737   4.539  0.1215  1.2396 -1.1456
 7464SOL    HW234029   1.294   1.637   4.447 -0.9119 -0.1231 -0.1563
 7465SOL     OW34030   4.522   0.957   1.373 -0.0196 -0.3940  0.4326
 7465SOL    HW134031   4.441   0.958   1.423  0.7485 -0.7174  1.6877
 7465SOL    HW234032   4.511   1.030   1.313  0.9792  1.2644  2.2362
 7466SOL     OW34033   0.264   1.156   7.060 -0.3701  0.6955  0.4021
 7466SOL    HW134034   0.272   1.234   7.116  0.3503  1.7783 -1.2134
 7466SOL    HW234035   0.349   1.119   7.084  1.2525  1.0985 -4.8354
 7467SOL     OW34036   3.103   0.273   0.108  0.4551 -0.1831  0.7910
 7467SOL    HW134037   3.062   0.194   0.144  1.6228 -0.7522  0.8838
 7467SOL    HW234038   3.094   0.254   0.014  0.9659 -1.2540  0.9543
 7468SOL     OW34039   1.049   0.235   5.624 -0.3484 -0.5249  0.1085
 7468SOL    HW134040   0.985   0.190   5.569 -2.2039  0.6656  1.2928
 7468SOL    HW234041   1.002   0.245   5.707 -0.4103  0.6026 -0.0569
 7469SOL     OW34042   3.680   3.045  15.609 -0.0312 -0.4849 -0.0342
 7469SOL    HW134043   3.752   3.079  15.555 -1.2831  1.2738 -0.5892
 7469SOL    HW234044   3.665   2.969  15.553 -0.0146 -0.3154 -0.2704
 7470SOL     OW34045   3.932   0.652   2.387 -0.0836 -0.1317 -0.0787
 7470SOL    HW134046   3.912   0.745   2.389 -0.5124 -0.2702  1.5312
 7470SOL    HW234047   3.847   0.607   2.390  0.5869 -1.2886  1.3937
 7471SOL     OW34048   0.650   4.735   3.249  0.0881 -0.1649 -0.6492
 7471SOL    HW134049   0.728   4.679   3.246  0.6423  0.6430 -1.4185
 7471SOL    HW234050   0.591   4.700   3.182  0.1436  1.1575 -1.3801
 7472SOL     OW34051   4.039   2.090   5.262  0.6555  0.0363 -0.6200
 7472SOL    HW134052   3.946   2.078   5.243  0.3630  0.2654  0.6137
 7472SOL    HW234053   4.059   1.996   5.267  1.7816  0.3822  1.4548
 7473SOL     OW34054   0.885   4.696   5.589 -0.2272  0.1533 -0.0356
 7473SOL    HW134055   0.838   4.613   5.594  0.9271 -0.5178 -0.4266
 7473SOL    HW234056   0.864   4.736   5.504  0.8973 -0.7489 -0.7391
 7474SOL     OW34057   0.084   2.667   2.209 -0.0899  0.1214 -0.3205
 7474SOL    HW134058   0.121   2.614   2.279 -0.1699  1.2134  0.5481
 7474SOL    HW234059   0.079   2.749   2.258  0.9023 -0.1420  0.2199
 7475SOL     OW34060   2.626   0.500   1.961  0.5897  0.4078  0.1323
 7475SOL    HW134061   2.693   0.448   1.917  0.5041  0.2905  0.1392
 7475SOL    HW234062   2.609   0.443   2.036  1.5787  0.4316  0.3785
 7476SOL     OW34063   0.346   0.659   2.820  0.0575  0.1488  0.2668
 7476SOL    HW134064   0.257   0.628   2.840  1.1205 -2.1817  1.4348
 7476SOL    HW234065   0.385   0.578   2.786 -1.0713 -0.2842  0.0021
 7477SOL     OW34066   2.289   3.483  12.514 -0.3080  0.0934 -0.3277
 7477SOL    HW134067   2.216   3.422  12.525  0.8002 -1.6117 -2.3458
 7477SOL    HW234068   2.335   3.466  12.596  2.6862  2.2026 -1.5717
 7478SOL     OW34069   0.862   1.711   6.570  0.0219 -0.3417 -0.1360
 7478SOL    HW134070   0.923   1.757   6.512  0.1267 -0.0349  0.2107
 7478SOL    HW234071   0.799   1.783   6.581  1.0321  0.5638 -0.2362
 7479SOL     OW34072   3.777   2.690   3.378  0.3786 -0.1396 -0.0858
 7479SOL    HW134073   3.711   2.623   3.358  0.8667 -0.7411  0.3257
 7479SOL    HW234074   3.723   2.768   3.385  0.0401 -0.2147 -1.8932
 7480SOL     OW34075   3.724   0.472   6.272 -0.0481 -0.2094  0.2309
 7480SOL    HW134076   3.806   0.431   6.300  0.3098 -0.7823 -1.6653
 7480SOL    HW234077   3.732   0.473   6.177 -2.6770 -0.3084  0.0003
 7481SOL     OW34078   3.457   1.992  11.807  0.4659 -0.3434  0.0089
 7481SOL    HW134079   3.467   2.040  11.725  2.8000  0.0701  0.5263
 7481SOL    HW234080   3.445   2.063  11.870 -0.9118  0.6571 -1.3778
 7482SOL     OW34081   2.858   4.522  13.955  0.5924  0.2005 -0.1275
 7482SOL    HW134082   2.807   4.512  13.875 -0.7662  1.5676  0.5675
 7482SOL    HW234083   2.800   4.566  14.017 -0.4450 -0.4603 -0.6249
 7483SOL     OW34084   0.291   2.781  16.378 -0.1046 -0.3550 -0.1024
 7483SOL    HW134085   0.366   2.814  16.428 -0.5548 -0.3260  0.5606
 7483SOL    HW234086   0.238   2.721  16.430 -0.8316  0.4178  0.0524
 7484SOL     OW34087   4.502   3.177   3.924  0.4669 -0.3574 -0.6352
 7484SOL    HW134088   4.491   3.146   4.014 -1.0390 -2.1882 -1.4542
 7484SOL    HW234089   4.421   3.224   3.905  0.8463  0.3552 -0.4969
 7485SOL     OW34090   0.535   0.963   2.016 -0.1183 -0.0889  0.1867
 7485SOL    HW134091   0.531   0.893   1.951  1.3993  0.8721 -0.9453
 7485SOL    HW234092   0.526   0.913   2.097 -0.0548 -0.4124 -0.0069
 7486SOL     OW34093   3.447   2.986   4.193 -0.6648  0.4861  0.4754
 7486SOL    HW134094   3.524   2.932   4.176 -1.0610  0.0812 -0.0385
 7486SOL    HW234095   3.384   2.928   4.150  2.3593 -1.3660 -1.4557
 7487SOL     OW34096   4.608   2.107   7.299 -0.5344 -0.0764  0.0161
 7487SOL    HW134097   4.646   2.194   7.287  3.7499 -2.2415 -1.9275
 7487SOL    HW234098   4.681   2.065   7.345  1.4616  2.9488 -0.4534
 7488SOL     OW34099   1.519   4.615   9.452  0.2010 -0.6654 -0.1590
 7488SOL    HW134100   1.578   4.540   9.441  0.9420  0.2333 -2.2723
 7488SOL    HW234101   1.543   4.631   9.544  1.5724 -1.1960 -0.4202
 7489SOL     OW34102   4.136   0.930   7.631 -0.0204  0.5168  0.3081
 7489SOL    HW134103   4.060   0.966   7.587 -0.4051 -1.8648 -0.9692
 7489SOL    HW234104   4.187   0.911   7.552 -2.6467  0.1388 -1.2808
 7490SOL     OW34105   2.349   2.070  13.343  0.2547  0.4828  0.7932
 7490SOL    HW134106   2.254   2.060  13.345  0.2782  0.7352  2.7759
 7490SOL    HW234107   2.362   2.132  13.415 -0.9301 -1.2322  2.4884
 7491SOL     OW34108   3.290   3.801   8.584  0.0281 -0.2046 -0.0196
 7491SOL    HW134109   3.334   3.883   8.607  0.4768 -0.7104  0.9473
 7491SOL    HW234110   3.253   3.784   8.671  1.3238  1.8910  0.9510
 7492SOL     OW34111   1.963   3.892  15.725 -0.6985  0.0445 -0.1372
 7492SOL    HW134112   2.049   3.903  15.685 -0.3784  0.7508  0.7569
 7492SOL    HW234113   1.926   3.810  15.691  0.4465 -0.3315 -0.4625
 7493SOL     OW34114   4.500   4.235  15.843  0.0842 -0.8130 -0.5724
 7493SOL    HW134115   4.406   4.213  15.840 -0.0685 -0.6026  2.5017
 7493SOL    HW234116   4.527   4.203  15.757 -0.0791 -3.3011  0.3106
 7494SOL     OW34117   1.328   3.967   2.966  0.0867  0.3789 -0.6068
 7494SOL    HW134118   1.322   3.966   2.870  0.9036  0.4055 -0.6614
 7494SOL    HW234119   1.421   3.989   2.975  0.6645 -0.0809 -5.3953
 7495SOL     OW34120   0.837   3.714   7.926  0.6834  0.2515  0.2685
 7495SOL    HW134121   0.865   3.624   7.907  0.7236  0.4684 -0.7336
 7495SOL    HW234122   0.822   3.713   8.020 -1.7988  0.2667 -0.1126
 7496SOL     OW34123   0.822   0.375   5.253  0.1244  0.2811 -0.1830
 7496SOL    HW134124   0.844   0.461   5.289 -1.4048  0.2033  0.9054
 7496SOL    HW234125   0.844   0.385   5.160 -1.6053  0.8221 -0.5257
 7497SOL     OW34126   2.897   4.116  16.431  0.0015 -0.1355  0.0648
 7497SOL    HW134127   2.949   4.036  16.439  0.9719  0.4638 -0.3473
 7497SOL    HW234128   2.870   4.098  16.341  0.5151  0.9610 -0.3046
 7498SOL     OW34129   0.472   0.896   3.764 -0.4188  0.1421 -0.1044
 7498SOL    HW134130   0.446   0.858   3.848  0.3518  3.5589  1.6819
 7498SOL    HW234131   0.489   0.982   3.802 -0.8192  0.0847  0.2022
 7499SOL     OW34132   0.762   1.129  10.770  0.8765  0.0293  0.2048
 7499SOL    HW134133   0.822   1.159  10.838 -0.5984 -1.4301  2.1685
 7499SOL    HW234134   0.771   1.034  10.772  1.7656  0.0939 -0.6456
 7500SOL     OW34135   0.836   3.305  16.381 -0.3771 -0.6931  0.0320
 7500SOL    HW134136   0.850   3.400  16.384  1.9369 -1.0331 -0.3137
 7500SOL    HW234137   0.842   3.288  16.287 -0.4971  0.5650 -0.2117
 7501SOL     OW34138   1.945   4.015   9.022  0.1669 -0.1126  0.0486
 7501SOL    HW134139   2.014   3.954   8.997 -0.0039 -0.3894  0.2563
 7501SOL    HW234140   1.915   4.057   8.942 -2.7468 -0.1397  1.1381
 7502SOL     OW34141   3.485   1.088   8.234 -0.4303  0.0950 -0.2756
 7502SOL    HW134142   3.444   1.054   8.313 -1.0205  1.3556 -0.0517
 7502SOL    HW234143   3.537   1.012   8.207 -0.9690  0.5659 -2.6300
 7503SOL     OW34144   2.140   1.062  12.582  0.7184 -0.2752  0.1421
 7503SOL    HW134145   2.134   1.111  12.500 -0.5332 -1.7281 -0.6384
 7503SOL    HW234146   2.157   1.136  12.640  1.4360  1.4355 -2.2180
 7504SOL     OW34147   4.482   1.911   9.046 -0.1202  0.2248  0.6041
 7504SOL    HW134148   4.451   1.823   9.027  3.3043 -1.1553  1.5047
 7504SOL    HW234149   4.575   1.889   9.051 -0.5892 -1.5182  1.5894
 7505SOL     OW34150   3.870   1.271  10.656 -0.8954 -0.3529  0.0041
 7505SOL    HW134151   3.957   1.238  10.634 -1.5547 -0.5075 -2.4385
 7505SOL    HW234152   3.885   1.324  10.734 -0.0749 -1.1092  0.3674
 7506SOL     OW34153   3.388   4.587   7.494  0.0057 -0.3668  0.4667
 7506SOL    HW134154   3.323   4.658   7.493 -2.2732 -2.4766 -0.1675
 7506SOL    HW234155   3.461   4.623   7.544  0.3547  1.3429 -1.2601
 7507SOL     OW34156   3.910   1.143   8.875 -0.1975 -0.4498  0.0998
 7507SOL    HW134157   3.842   1.210   8.863 -1.1393 -1.0340  2.0959
 7507SOL    HW234158   3.907   1.141   8.971 -0.5714  1.8693  0.1431
 7508SOL     OW34159   0.769   0.322   6.463 -0.1651 -0.0549 -0.1104
 7508SOL    HW134160   0.830   0.249   6.475  0.6034  1.1180  3.1384
 7508SOL    HW234161   0.766   0.351   6.555 -1.0801 -1.2920  0.2423
 7509SOL     OW34162   3.193   1.330   2.414  0.0116  0.0049  0.1314
 7509SOL    HW134163   3.263   1.383   2.453  1.0040  0.0887 -1.7645
 7509SOL    HW234164   3.198   1.368   2.326 -1.5438 -1.5107 -0.6206
 7510SOL     OW34165   3.206   1.087   9.008 -0.2772  0.5984 -0.0156
 7510SOL    HW134166   3.289   1.133   8.995  0.8410 -0.9922  1.5681
 7510SOL    HW234167   3.228   1.020   9.072  0.9786  0.4958 -0.5538
 7511SOL     OW34168   4.004   1.663  12.715 -0.0510 -0.3078 -0.7813
 7511SOL    HW134169   4.061   1.655  12.791 -0.4799 -1.3143 -0.5699
 7511SOL    HW234170   4.064   1.673  12.641 -0.0525  1.9649 -0.4675
 7512SOL     OW34171   0.212   3.384   9.505 -0.5889 -0.2314 -0.4206
 7512SOL    HW134172   0.205   3.378   9.600 -0.1241 -2.6017 -0.5223
 7512SOL    HW234173   0.277   3.320   9.475  0.3973  0.5259  0.1344
 7513SOL     OW34174   4.019   2.931   1.772  0.4325  0.1569  0.1564
 7513SOL    HW134175   4.107   2.892   1.772 -0.0279 -0.8869 -0.1507
 7513SOL    HW234176   4.038   3.023   1.791  2.8405 -0.8096  2.4255
 7514SOL     OW34177   3.263   0.321   8.700  0.2694 -0.3267 -0.5330
 7514SOL    HW134178   3.203   0.360   8.636 -1.4711 -0.5233  0.9792
 7514SOL    HW234179   3.299   0.394   8.750  1.1125 -0.8739 -0.3557
 7515SOL     OW34180   0.430   1.995   4.555 -0.1334 -0.0721  0.1200
 7515SOL    HW134181   0.451   2.061   4.620  0.7506  0.8403 -1.0968
 7515SOL    HW234182   0.500   1.987   4.490  0.5809  0.4660  0.8333
 7516SOL     OW34183   2.366   1.364   5.850 -0.2581 -0.0827  0.2003
 7516SOL    HW134184   2.460   1.362   5.834 -0.4020 -2.1203 -0.4312
 7516SOL    HW234185   2.374   1.398   5.939  3.4000 -2.5106  0.7798
 7517SOL     OW34186   2.080   0.483   2.995 -0.1767  0.8228  0.1689
 7517SOL    HW134187   2.070   0.508   3.087 -1.9869  0.1300  0.1527
 7517SOL    HW234188   2.168   0.446   2.987 -0.5059  0.5704 -2.1252
 7518SOL     OW34189   4.241   4.692   4.123  0.1232  0.0116  0.6183
 7518SOL    HW134190   4.239   4.696   4.218 -0.0335 -1.5548  0.6874
 7518SOL    HW234191   4.260   0.048   4.108  1.7769 -0.4931 -0.5104
 7519SOL     OW34192   0.551   0.170   2.932 -0.0416 -0.0028 -0.4228
 7519SOL    HW134193   0.591   0.084   2.945 -1.9837 -0.5293  2.0602
 7519SOL    HW234194   0.563   0.174   2.837  0.8443 -1.0426 -0.3519
 7520SOL     OW34195   2.067   4.450   5.689 -0.4902 -0.4211 -0.3452
 7520SOL    HW134196   2.086   4.427   5.598 -1.1148  0.1179 -0.6126
 7520SOL    HW234197   1.986   4.400   5.696  0.8494 -2.3403  1.2595
 7521SOL     OW34198   1.217   0.097   6.995  0.0647 -0.1069 -0.5810
 7521SOL    HW134199   1.197   0.152   6.919  0.3463  1.8719  0.7724
 7521SOL    HW234200   1.152   0.135   7.053  0.3364  0.9428 -0.9562
 7522SOL     OW34201   1.639   3.115   8.878 -0.1266 -0.0398  0.4000
 7522SOL    HW134202   1.663   3.137   8.967 -0.5959  0.1022  0.4918
 7522SOL    HW234203   1.543   3.111   8.881 -0.0973 -1.0970  0.1404
 7523SOL     OW34204   4.518   2.110   8.431  0.2435  1.0980  0.1841
 7523SOL    HW134205   4.607   2.140   8.449  0.9415 -1.1658  0.5293
 7523SOL    HW234206   4.492   2.172   8.363  0.3123  1.4760  0.5037
 7524SOL     OW34207   1.817   0.139  11.531  0.2329  0.2268  0.2484
 7524SOL    HW134208   1.875   0.063  11.522  1.5886  1.1598  1.1744
 7524SOL    HW234209   1.769   0.117  11.610  1.1280  0.5803  0.8893
 7525SOL     OW34210   1.429   3.205   5.257  0.3515  0.4526 -0.2147
 7525SOL    HW134211   1.479   3.280   5.290 -1.2679  0.9505  1.1237
 7525SOL    HW234212   1.501   3.162   5.210  0.5860 -0.0680  0.6143
 7526SOL     OW34213   3.637   2.414   8.888  0.3729  0.0632 -0.5636
 7526SOL    HW134214   3.638   2.320   8.870 -0.3949  0.0789 -0.6705
 7526SOL    HW234215   3.568   2.450   8.832  0.2980  0.3541 -0.2855
 7527SOL     OW34216   1.334   1.893   2.419  0.0525 -0.1925  0.2064
 7527SOL    HW134217   1.265   1.827   2.419  0.0077 -0.1350  1.2985
 7527SOL    HW234218   1.292   1.972   2.385  0.9990 -0.0732 -0.7042
 7528SOL     OW34219   1.029   1.940   8.205  0.0646  0.0116  0.1329
 7528SOL    HW134220   1.037   1.864   8.263 -2.2714 -0.9514 -0.8276
 7528SOL    HW234221   0.940   1.964   8.231 -1.4629 -1.7762 -3.3799
 7529SOL     OW34222   0.165   0.859  10.741  0.4849 -0.2104 -0.6719
 7529SOL    HW134223   0.088   0.905  10.708 -0.2282  0.3107  1.7209
 7529SOL    HW234224   0.191   0.912  10.817 -1.6623 -0.6466  0.3556
 7530SOL     OW34225   0.942   0.986  11.006  0.2929 -0.0594  0.1516
 7530SOL    HW134226   1.035   0.999  11.021  0.0115 -0.9652  2.5874
 7530SOL    HW234227   0.916   1.071  11.043 -0.1877 -1.7506  3.7138
 7531SOL     OW34228   0.616   1.273   8.136 -0.4871  0.3940 -0.2156
 7531SOL    HW134229   0.613   1.184   8.099 -1.1797  0.4112 -0.1953
 7531SOL    HW234230   0.524   1.292   8.155 -0.6034 -0.6248  0.2559
 7532SOL     OW34231   0.534   0.501   5.261  0.4585 -0.0288  0.3289
 7532SOL    HW134232   0.580   0.478   5.180 -0.9190 -1.3842 -0.0659
 7532SOL    HW234233   0.454   0.530   5.218  0.6369  1.5762  1.0899
 7533SOL     OW34234   3.728   1.068   4.802  0.0377 -0.4770 -0.3497
 7533SOL    HW134235   3.723   1.155   4.763 -0.4703 -0.7996 -1.0060
 7533SOL    HW234236   3.643   1.063   4.845  1.0033  1.9890  1.8135
 7534SOL     OW34237   1.657   3.414  15.812 -0.5255 -0.4917 -0.9115
 7534SOL    HW134238   1.684   3.466  15.888 -0.4129 -0.7369 -0.7845
 7534SOL    HW234239   1.657   3.479  15.741 -0.4658  2.5409  1.8631
 7535SOL     OW34240   3.268   3.186  11.624  0.0314  0.3452  0.0453
 7535SOL    HW134241   3.218   3.126  11.680  0.1640  0.0132 -0.1911
 7535SOL    HW234242   3.225   3.271  11.631  1.0167  0.8194  0.3327
 7536SOL     OW34243   1.596   4.434  17.369 -0.2657  0.0496  0.6357
 7536SOL    HW134244   1.562   4.519  17.341  0.8730  0.4601  0.5064
 7536SOL    HW234245   1.636   4.470  17.448 -2.4208 -0.6346  2.0183
 7537SOL     OW34246   2.088   4.619   8.101  0.2722 -0.2902 -0.4868
 7537SOL    HW134247   2.000   4.656   8.087 -0.9756 -2.5283  1.3186
 7537SOL    HW234248   2.145   4.690   8.072 -3.6105  1.8952 -2.7305
 7538SOL     OW34249   0.435   1.486   2.922 -0.2445  0.6520  0.1114
 7538SOL    HW134250   0.511   1.435   2.895 -1.0639 -0.8364  0.6161
 7538SOL    HW234251   0.465   1.505   3.011  2.3252  0.0236 -0.6231
 7539SOL     OW34252   4.616   4.443  13.595 -0.6739 -0.3769  0.2171
 7539SOL    HW134253   4.661   4.482  13.520  2.0297 -1.5257  1.2526
 7539SOL    HW234254   4.638   4.510  13.659  0.0773  0.7618 -1.2452
 7540SOL     OW34255   0.713   0.918   8.025 -0.5797 -0.0646  0.3163
 7540SOL    HW134256   0.797   0.916   8.070  0.5632  0.9564 -1.7937
 7540SOL    HW234257   0.707   0.832   7.983  0.3479  0.0167  0.0330
 7541SOL     OW34258   4.602   2.057   4.324 -0.0509 -0.1728  0.3147
 7541SOL    HW134259   4.682   2.061   4.271 -0.9087 -0.0440 -0.9765
 7541SOL    HW234260   4.530   2.053   4.261 -1.0954  1.7318  1.4093
 7542SOL     OW34261   1.722   4.160  14.807 -0.3613 -0.0157  0.2805
 7542SOL    HW134262   1.728   4.065  14.818 -1.2603 -0.0891  0.1214
 7542SOL    HW234263   1.634   4.162  14.844 -0.3722  0.3807  0.2360
 7543SOL     OW34264   2.444   3.446   4.624  0.2417 -0.0700 -0.0316
 7543SOL    HW134265   2.351   3.426   4.617  0.2239 -0.6544  1.8350
 7543SOL    HW234266   2.478   3.434   4.535 -0.8847 -1.8690 -0.2287
 7544SOL     OW34267   0.456   1.671  15.360 -0.5693 -0.3984  0.0443
 7544SOL    HW134268   0.405   1.737  15.407  0.7676 -0.3156  1.3863
 7544SOL    HW234269   0.382   1.611  15.352  0.7095 -2.1835  1.5592
 7545SOL     OW34270   0.716   1.260  12.256  0.0130 -0.4363 -0.0862
 7545SOL    HW134271   0.726   1.194  12.325 -1.1076  0.4473  0.9279
 7545SOL    HW234272   0.692   1.199  12.186  1.7152  0.3089 -1.3255
 7546SOL     OW34273   2.668   2.223   4.520 -0.2038 -0.0455 -0.2705
 7546SOL    HW134274   2.620   2.152   4.562 -1.8043  2.7884  2.6903
 7546SOL    HW234275   2.644   2.219   4.427  0.1511 -2.3896 -0.2518
 7547SOL     OW34276   0.528   3.711   9.149 -0.3487 -0.0830  0.3940
 7547SOL    HW134277   0.599   3.650   9.168  0.9380  1.7760  1.5629
 7547SOL    HW234278   0.565   3.797   9.169 -2.1175  0.9121 -0.6927
 7548SOL     OW34279   1.601   0.306   4.915 -0.0819 -0.0538  0.6296
 7548SOL    HW134280   1.595   0.343   5.003 -0.0676  0.3321  0.4675
 7548SOL    HW234281   1.655   0.374   4.874  1.6637 -1.7570  0.1364
 7549SOL     OW34282   2.095   4.503   8.350  0.0871  0.4237  0.0699
 7549SOL    HW134283   2.040   4.426   8.339 -0.0878  0.7454 -1.3643
 7549SOL    HW234284   2.091   4.535   8.259  0.0490  0.3016  0.0294
 7550SOL     OW34285   4.714   3.261  16.030  0.3107 -0.3096 -0.3148
 7550SOL    HW134286   4.667   3.260  15.946  1.3850 -0.9288 -0.9162
 7550SOL    HW234287   0.066   3.267  15.993  0.3188  0.2417 -0.2096
 7551SOL     OW34288   0.422   0.258   8.747  0.3052 -0.4788 -0.2436
 7551SOL    HW134289   0.382   0.172   8.760  1.8017 -1.0583  0.5301
 7551SOL    HW234290   0.340   0.304   8.729 -0.3392 -0.7638  1.9116
 7552SOL     OW34291   4.711   4.390   7.836 -0.2149 -0.3626  0.3127
 7552SOL    HW134292   0.022   4.438   7.768  1.3321  0.0174  1.6429
 7552SOL    HW234293   0.018   4.305   7.847  0.5336  0.0319  0.4243
 7553SOL     OW34294   0.533   3.532   9.718  0.4851  0.1053 -0.2087
 7553SOL    HW134295   0.557   3.618   9.753  0.7532 -0.1129  0.1529
 7553SOL    HW234296   0.439   3.542   9.734  1.0242  1.3721  2.1509
 7554SOL     OW34297   2.607   1.518   4.457 -0.1182  0.0248 -0.5902
 7554SOL    HW134298   2.631   1.466   4.380  0.3079  0.6015 -0.8472
 7554SOL    HW234299   2.552   1.587   4.421 -1.5084 -1.0359 -0.4994
 7555SOL     OW34300   4.692   1.856   0.805  0.0760 -0.2544  0.0344
 7555SOL    HW134301   0.009   1.860   0.884 -0.3658 -1.3849  0.3801
 7555SOL    HW234302   4.609   1.823   0.840  0.5917 -1.1844  0.3689
 7556SOL     OW34303   2.615   4.652   2.932  0.0656  0.6043  0.2136
 7556SOL    HW134304   2.541   4.712   2.929 -0.9326 -0.5934  0.8674
 7556SOL    HW234305   2.597   4.605   3.013  0.3340  0.0342 -0.0524
 7557SOL     OW34306   3.758   2.731   5.210  0.1186  0.2171 -0.6059
 7557SOL    HW134307   3.783   2.807   5.263  0.6693 -1.6273  1.7191
 7557SOL    HW234308   3.672   2.749   5.172 -0.2222 -2.7998 -1.2167
 7558SOL     OW34309   4.050   4.107   6.702  0.6069 -0.1706 -0.1150
 7558SOL    HW134310   4.086   4.192   6.677 -0.5084  0.2876 -0.1434
 7558SOL    HW234311   4.041   4.133   6.794  3.9353 -1.2144  0.5132
 7559SOL     OW34312   0.726   1.124  11.984 -0.1520 -0.0524  0.6337
 7559SOL    HW134313   0.783   1.160  11.917 -0.0216 -0.7273  0.3794
 7559SOL    HW234314   0.646   1.174  11.970  0.3477  0.8341  1.0156
 7560SOL     OW34315   1.676   3.542   7.557  0.1059 -0.3400  0.0932
 7560SOL    HW134316   1.646   3.607   7.621  0.7890 -0.3216  0.4045
 7560SOL    HW234317   1.607   3.476   7.553  0.4675 -0.6158 -1.4956
 7561SOL     OW34318   1.365   0.878   2.439 -0.2140 -0.0141  0.0980
 7561SOL    HW134319   1.455   0.897   2.415  0.1166 -0.8202  0.7026
 7561SOL    HW234320   1.357   0.906   2.530 -1.9948 -1.0516  0.2718
 7562SOL     OW34321   1.626   1.554   0.917  0.1484 -0.2700  0.0688
 7562SOL    HW134322   1.663   1.637   0.888  0.3438  0.5289  2.6612
 7562SOL    HW234323   1.594   1.528   0.830  0.3255  2.7729 -0.9009
 7563SOL     OW34324   1.378   3.324   2.228  0.5302  0.3164  0.1980
 7563SOL    HW134325   1.367   3.302   2.321 -1.5370  0.1695 -0.0980
 7563SOL    HW234326   1.294   3.300   2.188  0.6490 -1.4506  1.0037
 7564SOL     OW34327   4.653   2.177   8.847 -0.3954  0.4274 -0.6836
 7564SOL    HW134328   4.655   2.087   8.814  1.0425  0.4674 -0.6861
 7564SOL    HW234329   4.558   2.192   8.843 -0.5072 -0.3200 -1.0081
 7565SOL     OW34330   2.892   2.279   2.709 -0.3389 -0.7475  0.5710
 7565SOL    HW134331   2.882   2.219   2.636 -1.4853 -1.2409  1.1321
 7565SOL    HW234332   2.835   2.354   2.691 -1.2312 -1.3968  0.7225
 7566SOL     OW34333   1.090   2.698  14.241 -0.3739 -0.0075 -0.3283
 7566SOL    HW134334   1.073   2.776  14.294  1.5997  0.8832 -1.0179
 7566SOL    HW234335   1.120   2.740  14.161  1.7262  0.7904  0.8800
 7567SOL     OW34336   2.878   0.017   4.550 -0.3053 -0.2269 -0.1036
 7567SOL    HW134337   2.813   4.684   4.559  1.5643 -1.8386  1.0492
 7567SOL    HW234338   2.848   0.099   4.590 -0.1888  0.6061 -1.7467
 7568SOL     OW34339   4.234   0.944   7.907 -0.8088 -1.0805 -0.7547
 7568SOL    HW134340   4.238   0.980   7.818 -1.2083  1.8390  0.4323
 7568SOL    HW234341   4.315   0.893   7.911  0.3392  0.7225 -0.7213
 7569SOL     OW34342   3.154   1.974  16.550 -0.6148  0.9498 -0.4180
 7569SOL    HW134343   3.162   1.915  16.625  1.8160  0.6607 -0.9204
 7569SOL    HW234344   3.074   2.017  16.580 -2.2330 -2.2377 -0.0806
 7570SOL     OW34345   2.664   3.268  14.392 -0.1753 -0.2608  0.5520
 7570SOL    HW134346   2.735   3.332  14.386 -1.3483  0.9744 -0.2696
 7570SOL    HW234347   2.701   3.194  14.344  4.1353  2.3811 -0.1773
 7571SOL     OW34348   3.753   1.493   9.695  0.7239  0.2314 -0.1138
 7571SOL    HW134349   3.746   1.516   9.602  3.5620  1.7705  0.0378
 7571SOL    HW234350   3.661   1.496   9.718  0.2895  3.2731 -2.3024
 7572SOL     OW34351   4.348   2.486   2.442  0.1095 -0.0192  0.1729
 7572SOL    HW134352   4.293   2.471   2.519  0.7192 -0.5699  0.5056
 7572SOL    HW234353   4.303   2.441   2.371  0.1705 -0.9347  0.7178
 7573SOL     OW34354   3.606   3.959   9.202  0.0319  0.0138  0.4332
 7573SOL    HW134355   3.607   3.960   9.298  1.7375 -1.2136  0.4096
 7573SOL    HW234356   3.633   4.049   9.185 -0.5735  0.2222  0.5556
 7574SOL     OW34357   3.607   3.121  13.830 -0.4452  0.3862 -0.0380
 7574SOL    HW134358   3.663   3.105  13.754  0.0976 -0.5180  0.5542
 7574SOL    HW234359   3.636   3.203  13.871 -0.4575  0.3670  0.0093
 7575SOL     OW34360   3.637   1.940  15.361  0.2205  0.2357  0.5231
 7575SOL    HW134361   3.623   1.872  15.295 -0.6627 -0.3372  1.3000
 7575SOL    HW234362   3.545   1.964  15.378 -0.5488 -0.6382 -2.4352
 7576SOL     OW34363   2.732   4.282   7.733 -0.1707  0.0410  0.1521
 7576SOL    HW134364   2.667   4.219   7.702  1.5748 -1.2281 -0.8962
 7576SOL    HW234365   2.718   4.269   7.827 -1.6987 -0.1727 -0.1138
 7577SOL     OW34366   4.253   1.993  16.325 -0.3024 -0.4972  0.3235
 7577SOL    HW134367   4.260   2.079  16.364  0.1728 -0.9801  1.2886
 7577SOL    HW234368   4.266   2.019  16.233 -0.1135 -2.7689 -0.2926
 7578SOL     OW34369   0.882   1.035   5.980  0.5379  0.1048 -0.2573
 7578SOL    HW134370   0.833   0.953   5.975  0.1539  0.3059  0.1473
 7578SOL    HW234371   0.961   1.023   5.929  0.8554 -1.4191  0.6066
 7579SOL     OW34372   0.703   4.226   7.641 -1.1056  0.0645 -0.1093
 7579SOL    HW134373   0.637   4.276   7.593  0.0757  0.6788 -1.0889
 7579SOL    HW234374   0.686   4.140   7.601  2.9475 -0.3102 -1.0284
 7580SOL     OW34375   3.651   3.816   5.308  0.5705 -0.4456  0.8285
 7580SOL    HW134376   3.621   3.794   5.396 -1.4528 -0.3971  0.1413
 7580SOL    HW234377   3.621   3.906   5.295 -0.0888 -1.0058 -1.5890
 7581SOL     OW34378   3.192   2.285   2.326 -0.2371 -0.2658  0.0665
 7581SOL    HW134379   3.229   2.250   2.407  0.3321  1.9920  0.7875
 7581SOL    HW234380   3.116   2.334   2.355 -0.8619 -0.4903 -1.1754
 7582SOL     OW34381   4.564   2.329   3.965 -0.1934  0.7590  0.7819
 7582SOL    HW134382   4.496   2.344   4.031 -1.0755 -1.3426  0.3651
 7582SOL    HW234383   4.511   2.294   3.893  2.1091 -1.0725 -0.0191
 7583SOL     OW34384   4.428   2.098   5.544 -0.5330 -0.1756  0.5343
 7583SOL    HW134385   4.401   2.041   5.472  0.2906 -0.0838  0.1545
 7583SOL    HW234386   4.377   2.179   5.536  1.1343  0.7700 -0.4020
 7584SOL     OW34387   2.194   2.270  15.108  0.3632 -0.1509  0.6879
 7584SOL    HW134388   2.140   2.326  15.053 -1.2542 -1.6124  0.7852
 7584SOL    HW234389   2.278   2.273  15.062 -0.2522 -0.3019 -0.4344
 7585SOL     OW34390   0.315   0.623  11.188 -0.3447 -0.0238 -0.6404
 7585SOL    HW134391   0.239   0.587  11.143  0.6928 -2.3602 -0.5517
 7585SOL    HW234392   0.350   0.538  11.216  0.1371  0.3002 -0.2415
 7586SOL     OW34393   1.957   2.450   9.199 -0.2182  0.4868 -0.3119
 7586SOL    HW134394   1.983   2.537   9.231 -1.3178 -0.0762  2.0687
 7586SOL    HW234395   2.040   2.417   9.163  0.5081  0.8572  1.0031
 7587SOL     OW34396   3.880   0.630   1.772 -0.1800 -0.3364  0.4388
 7587SOL    HW134397   3.909   0.718   1.797 -0.7475  0.4325 -1.6236
 7587SOL    HW234398   3.789   0.647   1.750 -0.9480 -2.6755  1.8509
 7588SOL     OW34399   1.041   1.116   7.451  0.1110 -0.5474  0.2616
 7588SOL    HW134400   0.978   1.058   7.494  0.0194 -1.2505 -0.8374
 7588SOL    HW234401   1.113   1.092   7.509 -0.2655 -0.0968  0.9223
 7589SOL     OW34402   2.509   3.249   8.358  0.3373  0.3083 -0.1429
 7589SOL    HW134403   2.593   3.243   8.404 -0.5308 -0.1692  1.3898
 7589SOL    HW234404   2.485   3.156   8.355 -0.2431  0.4648 -0.2926
 7590SOL     OW34405   2.831   0.297  11.978 -0.6174  0.2856  0.0150
 7590SOL    HW134406   2.768   0.308  12.049 -2.2643 -2.1870 -1.0944
 7590SOL    HW234407   2.888   0.367  12.011  0.1422 -0.9054  1.2099
 7591SOL     OW34408   1.245   1.722   9.970  0.1659 -0.0232 -0.5091
 7591SOL    HW134409   1.209   1.634   9.958  1.0007 -0.4081 -0.1890
 7591SOL    HW234410   1.224   1.739  10.062 -0.2315  3.9816 -1.3211
 7592SOL     OW34411   2.742   1.921   0.669 -0.1969 -0.2382  0.0129
 7592SOL    HW134412   2.832   1.950   0.657 -1.1776  1.7121 -2.7235
 7592SOL    HW234413   2.732   1.940   0.763  1.3988  0.2457  0.0748
 7593SOL     OW34414   0.834   4.015  14.043  0.2100 -0.1012 -0.0389
 7593SOL    HW134415   0.789   3.956  14.104  1.3955 -0.9874 -0.0187
 7593SOL    HW234416   0.899   4.057  14.100 -0.4881  0.7879  0.0952
 7594SOL     OW34417   2.706   0.988   4.868 -0.7723  0.1404 -0.1073
 7594SOL    HW134418   2.714   0.951   4.780  0.0724  1.5139 -0.6036
 7594SOL    HW234419   2.721   1.080   4.849  3.4832 -0.6923 -0.8667
 7595SOL     OW34420   2.990   1.521  12.104 -0.5969  0.0152 -0.8818
 7595SOL    HW134421   2.915   1.565  12.063 -0.1370  1.3371 -0.3234
 7595SOL    HW234422   3.064   1.559  12.057 -0.4603  1.6516  0.6630
 7596SOL     OW34423   0.432   0.073   6.988 -0.6498 -0.1245 -0.0609
 7596SOL    HW134424   0.428   4.731   6.932 -1.5158  0.9529 -1.5068
 7596SOL    HW234425   0.510   0.110   6.948 -2.4354  1.1129 -2.3745
 7597SOL     OW34426   4.219   0.599   1.001  0.4892  0.3510 -0.4774
 7597SOL    HW134427   4.239   0.609   1.094  0.9910 -2.2312 -0.2932
 7597SOL    HW234428   4.303   0.606   0.955  0.4159 -0.4170 -0.7393
 7598SOL     OW34429   3.131   0.001   3.229 -0.2806  0.2766  0.0216
 7598SOL    HW134430   3.221   0.008   3.259 -0.7553  2.6416  0.8892
 7598SOL    HW234431   3.119   0.092   3.202  0.8389  0.5079  0.3006
 7599SOL     OW34432   0.160   4.166   5.316 -0.1600  0.2155  0.6548
 7599SOL    HW134433   0.161   4.176   5.221  0.4656 -0.0705  0.6294
 7599SOL    HW234434   0.126   4.078   5.326 -3.9438  1.7244  1.0847
 7600SOL     OW34435   1.296   0.570   9.500  0.0081 -0.3811  0.3047
 7600SOL    HW134436   1.256   0.484   9.513 -2.9284  1.0386  0.5524
 7600SOL    HW234437   1.217   0.622   9.516  1.0899  1.2997  0.1955
 7601SOL     OW34438   3.988   1.170   1.036 -0.2687  0.2661 -0.0274
 7601SOL    HW134439   3.967   1.245   0.980  0.9713  1.2655  0.8437
 7601SOL    HW234440   3.941   1.108   0.980  0.1305  2.2575 -2.5795
 7602SOL     OW34441   2.210   0.425   8.619  0.5045  0.2613  0.3223
 7602SOL    HW134442   2.123   0.436   8.656  0.9770  0.3521  1.4021
 7602SOL    HW234443   2.215   0.506   8.569  0.8672  0.1916  0.2436
 7603SOL     OW34444   4.322   2.420  14.272  0.4405  0.2269  0.0751
 7603SOL    HW134445   4.264   2.479  14.225  0.0643  0.6543  1.0745
 7603SOL    HW234446   4.352   2.381  14.190  1.4146 -1.6127  1.3153
 7604SOL     OW34447   1.516   4.530   8.027  0.3024 -0.4243 -0.5970
 7604SOL    HW134448   1.430   4.549   7.990  0.4527  0.6460 -0.4015
 7604SOL    HW234449   1.516   4.435   8.016 -0.1548 -0.6097  0.8837
 7605SOL     OW34450   2.041   0.332   6.411 -0.1416 -0.0512  0.0897
 7605SOL    HW134451   2.058   0.248   6.367 -0.6922  1.2456 -2.6270
 7605SOL    HW234452   1.946   0.342   6.405 -0.0681  0.5025 -0.1096
 7606SOL     OW34453   2.809   2.429   6.943 -0.5402  0.4752 -0.4403
 7606SOL    HW134454   2.770   2.343   6.962 -0.4791  0.6948  0.6743
 7606SOL    HW234455   2.885   2.402   6.892 -0.9639 -1.1249 -0.2395
 7607SOL     OW34456   3.207   4.386   7.452 -0.1529  0.3962  0.2304
 7607SOL    HW134457   3.253   4.470   7.457  0.4830  0.0553  0.1335
 7607SOL    HW234458   3.142   4.401   7.383  2.9319  0.0096 -2.8003
 7608SOL     OW34459   2.957   0.686   7.353  0.1744  0.0852 -0.2009
 7608SOL    HW134460   3.023   0.754   7.338  1.7168 -1.0376  1.5006
 7608SOL    HW234461   3.003   0.604   7.335  0.3164  0.3740 -1.1291
 7609SOL     OW34462   3.499   0.001   7.016  0.0848 -0.2335 -0.7664
 7609SOL    HW134463   3.414   4.719   7.058  0.7224 -1.7050 -0.1405
 7609SOL    HW234464   3.518   0.091   7.042 -0.8241 -0.6621  1.3724
 7610SOL     OW34465   2.727   0.704   6.249 -0.2282 -0.0129  0.1272
 7610SOL    HW134466   2.796   0.684   6.186  0.4318 -0.9250  1.1323
 7610SOL    HW234467   2.685   0.787   6.225  0.4702  0.8047  1.7126
 7611SOL     OW34468   0.390   1.157   2.658 -0.4485  0.4086 -0.6988
 7611SOL    HW134469   0.393   1.253   2.660  0.3420  0.3914 -1.0257
 7611SOL    HW234470   0.465   1.139   2.714 -1.4765  2.4486  1.3231
 7612SOL     OW34471   4.545   3.673  14.892 -0.3111  0.2371  0.5690
 7612SOL    HW134472   4.582   3.684  14.804 -0.2844  1.0291  0.6754
 7612SOL    HW234473   4.617   3.706  14.945  1.2839 -0.3945 -1.1978
 7613SOL     OW34474   2.504   0.463  12.617 -0.3652 -0.2851 -0.0931
 7613SOL    HW134475   2.430   0.489  12.672 -0.2902  0.9688 -0.5809
 7613SOL    HW234476   2.455   0.461  12.535  0.2545  0.5036 -0.4876
 7614SOL     OW34477   1.133   3.416   6.776  0.1703 -0.3523  0.2780
 7614SOL    HW134478   1.208   3.391   6.721  0.1023  0.7856 -0.3258
 7614SOL    HW234479   1.107   3.327   6.800 -0.9060 -0.2960 -0.6407
 7615SOL     OW34480   2.316   2.695  12.096 -0.3547  0.1023  0.3197
 7615SOL    HW134481   2.393   2.748  12.116 -0.7603  1.1733 -0.9408
 7615SOL    HW234482   2.243   2.755  12.081  1.5719  2.5633  0.7720
 7616SOL     OW34483   2.785   3.788   2.360 -0.0000 -0.4338 -0.3342
 7616SOL    HW134484   2.698   3.750   2.371  0.5095 -1.6640 -0.6294
 7616SOL    HW234485   2.838   3.712   2.384  0.0640 -0.3973 -0.3576
 7617SOL     OW34486   1.429   1.691   1.791 -0.2385 -0.1768  0.1321
 7617SOL    HW134487   1.419   1.693   1.886 -0.3523 -2.6848  0.1838
 7617SOL    HW234488   1.416   1.782   1.766  0.7234 -0.2956 -0.7793
 7618SOL     OW34489   2.364   0.537   6.407  0.1750  0.0271  0.5274
 7618SOL    HW134490   2.358   0.441   6.406 -2.2406  0.1713  0.1003
 7618SOL    HW234491   2.278   0.575   6.428 -0.3158  0.7243 -2.7336
 7619SOL     OW34492   1.413   2.717   1.214 -0.0798 -0.2832 -0.1328
 7619SOL    HW134493   1.429   2.698   1.121  0.5925 -0.7988  0.0896
 7619SOL    HW234494   1.498   2.700   1.254  0.5826 -0.3982 -1.5673
 7620SOL     OW34495   3.454   3.173   5.928 -0.0178 -0.6651  0.4162
 7620SOL    HW134496   3.412   3.158   5.844 -1.4393 -2.0684  1.3993
 7620SOL    HW234497   3.381   3.198   5.984  2.2522  2.1431  2.1589
 7621SOL     OW34498   0.760   0.798  13.066 -0.3882 -0.3424  0.4157
 7621SOL    HW134499   0.738   0.716  13.110  3.3605 -1.1397  0.8662
 7621SOL    HW234500   0.828   0.770  13.005 -0.7941  2.0181 -1.1193
 7622SOL     OW34501   2.793   0.144  17.732 -0.2314 -0.0949  0.1085
 7622SOL    HW134502   2.815   0.173  17.643 -1.8279 -2.4223 -1.0363
 7622SOL    HW234503   2.793   0.230   0.030  0.7694  0.2476 -0.5749
 7623SOL     OW34504   3.369   4.727   3.624 -0.0897  0.4443  0.2005
 7623SOL    HW134505   3.442   4.733   3.561 -1.6385  4.1819 -1.2492
 7623SOL    HW234506   3.365   4.634   3.648 -0.1741 -0.5028 -3.3658
 7624SOL     OW34507   4.001   0.895  15.280 -0.7906  0.0974 -0.1614
 7624SOL    HW134508   4.022   0.987  15.296 -1.8202  0.3709 -0.3619
 7624SOL    HW234509   4.009   0.866  15.371  0.8855  0.0192 -0.3327
 7625SOL     OW34510   3.689   1.481   4.404 -0.1600  0.7280 -0.0469
 7625SOL    HW134511   3.745   1.495   4.328  0.5445 -1.9901 -0.0537
 7625SOL    HW234512   3.708   1.561   4.453  1.4018  0.7470 -0.7021
 7626SOL     OW34513   0.849   0.906  11.381 -0.1815  0.3445  0.1915
 7626SOL    HW134514   0.807   0.820  11.382 -0.3606  0.4304  0.1043
 7626SOL    HW234515   0.914   0.904  11.311 -0.8452  3.0578 -0.5072
 7627SOL     OW34516   1.698   1.791   0.834  0.3600  0.2072 -0.5314
 7627SOL    HW134517   1.733   1.795   0.745  1.2230 -2.2215 -0.3067
 7627SOL    HW234518   1.771   1.825   0.886  0.2726  1.3236 -1.1344
 7628SOL     OW34519   2.052   3.766   1.865  0.5468  0.1225 -0.5821
 7628SOL    HW134520   2.137   3.722   1.878  0.2259 -0.1409  0.5628
 7628SOL    HW234521   1.993   3.730   1.931  0.1793  1.3217 -0.2640
 7629SOL     OW34522   3.405   2.428   6.159  0.3286 -0.3797 -0.2998
 7629SOL    HW134523   3.416   2.333   6.164 -0.7189 -0.4766  0.0142
 7629SOL    HW234524   3.433   2.435   6.068 -0.7605 -2.6004 -0.8111
 7630SOL     OW34525   2.250   0.279  16.243 -0.1515 -0.0798 -0.4739
 7630SOL    HW134526   2.193   0.279  16.319  0.5048 -0.0908  0.0184
 7630SOL    HW234527   2.322   0.219  16.263 -0.1476 -0.1391 -0.6612
 7631SOL     OW34528   3.971   1.720   3.418  0.2570 -0.5038 -0.4593
 7631SOL    HW134529   3.908   1.650   3.403 -0.6783  0.2291  0.0170
 7631SOL    HW234530   3.999   1.690   3.504 -1.1911 -0.6109 -0.0349
 7632SOL     OW34531   1.844   1.732   2.455  0.3906 -0.1250 -0.6141
 7632SOL    HW134532   1.857   1.769   2.367  2.6150 -2.6059 -1.3283
 7632SOL    HW234533   1.757   1.770   2.468  0.7637 -0.1025  1.8199
 7633SOL     OW34534   3.057   3.839   5.161 -0.3413 -0.0426  0.3742
 7633SOL    HW134535   3.044   3.817   5.069 -2.2335 -0.1006  0.6538
 7633SOL    HW234536   3.111   3.764   5.187  1.0103  1.2845  1.3988
 7634SOL     OW34537   4.564   4.432   4.821 -0.4350 -0.0518  0.1821
 7634SOL    HW134538   4.539   4.404   4.733 -1.3938  0.8130  0.1810
 7634SOL    HW234539   4.484   4.396   4.860 -0.9897 -2.2711 -3.0462
 7635SOL     OW34540   2.496   4.726   5.591 -0.0951 -0.2155  0.1270
 7635SOL    HW134541   2.556   4.699   5.660 -0.2741 -2.7920 -0.7027
 7635SOL    HW234542   2.474   4.639   5.555 -0.1433 -0.3354  0.4499
 7636SOL     OW34543   4.600   4.474   6.113 -0.4183 -0.3728  1.1240
 7636SOL    HW134544   4.695   4.477   6.107 -0.5510  0.3007 -0.7735
 7636SOL    HW234545   4.579   4.533   6.186 -0.3433  1.7637 -0.5725
 7637SOL     OW34546   3.576   0.524   9.565 -0.3002  0.0937  0.4016
 7637SOL    HW134547   3.631   0.513   9.642  0.6929  0.5441 -0.2474
 7637SOL    HW234548   3.528   0.603   9.588 -0.6058  0.4690 -1.5014
 7638SOL     OW34549   0.775   1.805   3.679 -0.8605  0.1738 -0.2585
 7638SOL    HW134550   0.767   1.786   3.585  1.4522 -0.8360 -0.2532
 7638SOL    HW234551   0.785   1.718   3.718 -0.5871 -0.4703 -1.7574
 7639SOL     OW34552   4.639   2.376   2.505 -0.1172 -0.1782  0.2651
 7639SOL    HW134553   4.606   2.287   2.493  0.0142 -0.2854  0.7057
 7639SOL    HW234554   4.553   2.414   2.489  0.1093  0.4715  0.5696
 7640SOL     OW34555   0.955   4.483   6.357  0.4039  0.3432 -0.0569
 7640SOL    HW134556   0.973   4.411   6.296  0.1153  0.5578 -0.3927
 7640SOL    HW234557   0.860   4.486   6.350  0.2291 -1.1844  1.7103
 7641SOL     OW34558   0.440   2.824   7.553  0.1453 -0.5024 -0.0861
 7641SOL    HW134559   0.436   2.821   7.649  0.7529  1.0011 -0.0055
 7641SOL    HW234560   0.401   2.905   7.519  0.7911  0.4019  1.3239
 7642SOL     OW34561   1.436   1.341   8.294 -0.0211 -0.2649  0.0250
 7642SOL    HW134562   1.465   1.276   8.230  0.6308 -0.2582  0.3094
 7642SOL    HW234563   1.500   1.412   8.282  0.4272 -0.3749  1.7632
 7643SOL     OW34564   1.959   3.134   0.005 -0.9043  0.0961 -0.7078
 7643SOL    HW134565   1.981   3.133  17.656  0.0401  3.0578 -0.5108
 7643SOL    HW234566   2.008   3.214   0.023  0.9393 -1.3372  0.7282
 7644SOL     OW34567   0.535   1.999   3.482 -0.7463  0.2513  0.5869
 7644SOL    HW134568   0.452   1.973   3.442 -0.7027  4.0360 -1.9766
 7644SOL    HW234569   0.590   1.934   3.439 -0.5958  0.8506 -0.1188
 7645SOL     OW34570   3.333   3.219   5.699 -0.1903  1.1932 -0.1454
 7645SOL    HW134571   3.370   3.206   5.612  1.0352  0.6889  0.4545
 7645SOL    HW234572   3.244   3.249   5.681 -0.6426 -0.6362 -0.8900
 7646SOL     OW34573   2.978   0.461  12.117  0.2955  0.1869 -0.3423
 7646SOL    HW134574   2.965   0.471  12.211  1.2986  0.4485 -0.2271
 7646SOL    HW234575   3.074   0.466  12.122  0.3699 -0.8883 -0.8830
 7647SOL     OW34576   3.387   0.203  17.174  0.3564  0.3825  0.5510
 7647SOL    HW134577   3.295   0.184  17.158  0.4451  0.0502  0.4276
 7647SOL    HW234578   3.430   0.124  17.143 -3.6615 -1.2716 -0.7510
 7648SOL     OW34579   2.890   1.545   8.891  0.0358 -0.6201 -0.1092
 7648SOL    HW134580   2.956   1.577   8.952 -1.0309  0.0229  0.7167
 7648SOL    HW234581   2.937   1.476   8.845  0.2375 -1.8268  1.8990
 7649SOL     OW34582   2.443   1.741   2.373  0.4379  0.8568  0.1738
 7649SOL    HW134583   2.355   1.704   2.379 -0.1411  1.7885 -2.4854
 7649SOL    HW234584   2.428   1.801   2.300 -1.8060  1.1508  0.8772
 7650SOL     OW34585   3.254   4.406  11.774 -0.9569 -0.5774  0.9387
 7650SOL    HW134586   3.316   4.371  11.838 -1.4670  1.5630  2.6159
 7650SOL    HW234587   3.209   4.477  11.821  2.4019  1.9321  0.3093
 7651SOL     OW34588   3.019   1.859   8.907 -0.2650 -0.4053 -0.3861
 7651SOL    HW134589   3.019   1.818   8.993  1.8140  0.3612 -0.0311
 7651SOL    HW234590   3.106   1.843   8.870  0.2573 -1.2408  1.1921
 7652SOL     OW34591   3.320   2.623  14.344 -0.0410  0.6378  0.4892
 7652SOL    HW134592   3.374   2.544  14.337 -2.1956 -0.7553 -0.4288
 7652SOL    HW234593   3.287   2.626  14.434  0.8995 -0.8044  0.9005
 7653SOL     OW34594   2.065   0.343   6.720 -0.7990  0.4897  0.0369
 7653SOL    HW134595   1.982   0.387   6.736 -0.7297  0.7901 -0.4395
 7653SOL    HW234596   2.048   0.312   6.631  0.9302  1.1685 -0.5379
 7654SOL     OW34597   0.334   1.750   7.897 -0.5843  0.3411  0.4741
 7654SOL    HW134598   0.367   1.671   7.855 -1.7607 -0.1065  0.3737
 7654SOL    HW234599   0.410   1.806   7.910 -0.6021  0.7882 -1.4219
 7655SOL     OW34600   3.820   0.376   5.534  0.3025 -0.6466 -0.5341
 7655SOL    HW134601   3.872   0.439   5.584  1.0430 -0.9275 -0.9527
 7655SOL    HW234602   3.757   0.435   5.493 -0.8202 -1.8582 -0.5552
 7656SOL     OW34603   3.519   1.831   8.308 -0.0618  0.2767  0.2629
 7656SOL    HW134604   3.478   1.891   8.246  1.7241  2.3858  1.1447
 7656SOL    HW234605   3.599   1.804   8.263 -0.2318  0.5065 -0.1718
 7657SOL     OW34606   3.215   3.883  12.823  0.2216  0.5081  0.1931
 7657SOL    HW134607   3.149   3.907  12.888 -0.2551  0.0732 -0.1297
 7657SOL    HW234608   3.289   3.935  12.854  0.6278 -0.2263  0.4571
 7658SOL     OW34609   4.644   4.345   8.431 -0.1502  0.2274 -0.2777
 7658SOL    HW134610   4.580   4.281   8.463  0.9759 -1.0066 -0.5116
 7658SOL    HW234611   4.707   4.279   8.402 -0.1594  0.2334 -0.3113
 7659SOL     OW34612   3.332   1.107   5.634 -0.0356 -0.9092 -0.3066
 7659SOL    HW134613   3.359   1.023   5.673  0.9759 -0.4780 -0.0773
 7659SOL    HW234614   3.392   1.097   5.560 -0.2497 -1.9401 -0.3535
 7660SOL     OW34615   2.524   0.284  12.934 -0.4497  0.3245  0.2379
 7660SOL    HW134616   2.432   0.294  12.960 -0.6683 -0.3845 -0.2728
 7660SOL    HW234617   2.573   0.348  12.986  0.3736 -1.7716  2.0596
 7661SOL     OW34618   0.034   0.882   8.668  0.1797  0.4037  0.1074
 7661SOL    HW134619   0.084   0.961   8.645  0.4578 -0.1651 -1.1985
 7661SOL    HW234620   0.009   0.849   8.582  1.5871 -1.6194  0.4731
 7662SOL     OW34621   0.201   0.272   7.420 -0.2617 -0.0264  0.1844
 7662SOL    HW134622   0.278   0.301   7.371 -0.9741  2.1381  0.3331
 7662SOL    HW234623   0.132   0.258   7.355  1.0081 -0.2590 -1.1161
 7663SOL     OW34624   2.937   4.205   5.175 -0.7445  0.7507  0.1322
 7663SOL    HW134625   2.857   4.203   5.123  1.0965  0.6935 -2.7382
 7663SOL    HW234626   2.939   4.120   5.218 -2.4988  0.5266 -0.2543
 7664SOL     OW34627   0.326   3.352  11.842 -0.1378  0.3732 -0.0759
 7664SOL    HW134628   0.238   3.314  11.833 -0.6258  2.0928 -2.7080
 7664SOL    HW234629   0.350   3.326  11.931  1.5850  0.7243 -0.4487
 7665SOL     OW34630   0.534   0.667  11.035  0.0743  0.3850 -0.1973
 7665SOL    HW134631   0.517   0.708  10.951 -0.2937  0.2015 -0.2120
 7665SOL    HW234632   0.456   0.698  11.083  1.4202 -0.7740  2.7197
 7666SOL     OW34633   3.887   1.570   1.044 -0.7039 -0.0642 -0.1305
 7666SOL    HW134634   3.889   1.502   0.977 -2.8846 -0.0805 -0.1835
 7666SOL    HW234635   3.794   1.582   1.065  0.0841  1.7315  2.3489
 7667SOL     OW34636   3.291   1.400   3.942  0.2035 -0.9914 -0.2733
 7667SOL    HW134637   3.302   1.466   3.874  1.0368 -0.7666  0.0869
 7667SOL    HW234638   3.306   1.449   4.023 -0.7371 -2.2351  0.6467
 7668SOL     OW34639   2.203   0.268  17.362  0.3140 -0.1339 -0.0788
 7668SOL    HW134640   2.146   0.206  17.408  1.5397 -0.7819  0.5577
 7668SOL    HW234641   2.147   0.344  17.377 -0.8375 -0.8636 -0.6825
 7669SOL     OW34642   4.472   4.429   0.531  0.0878  0.1843  0.2806
 7669SOL    HW134643   4.497   4.459   0.618  2.2295 -0.2030 -0.2163
 7669SOL    HW234644   4.376   4.434   0.532 -0.0733 -2.6457 -0.1331
 7670SOL     OW34645   0.710   2.329   7.670  0.8152 -0.2382 -0.1732
 7670SOL    HW134646   0.686   2.282   7.750 -1.1515  0.6675 -0.2344
 7670SOL    HW234647   0.804   2.341   7.687  0.7829 -0.7300  0.3541
 7671SOL     OW34648   2.560   0.018   1.781  0.1484 -0.5544  0.1196
 7671SOL    HW134649   2.550   4.723   1.692  1.1517  2.9823 -1.2572
 7671SOL    HW234650   2.492   4.715   1.836 -0.0934  0.3473  0.4670
 7672SOL     OW34651   3.185   0.217   8.046  0.3169 -0.5744  0.2982
 7672SOL    HW134652   3.242   0.266   8.104 -0.0572 -1.7359  1.6397
 7672SOL    HW234653   3.244   0.141   8.047  1.3067  0.2070  0.9860
 7673SOL     OW34654   2.120   3.053   5.183 -0.4439 -0.3614 -0.4780
 7673SOL    HW134655   2.167   3.021   5.260 -1.5524  1.2467  0.8855
 7673SOL    HW234656   2.039   3.088   5.221  1.5924 -0.9766  4.3788
 7674SOL     OW34657   3.582   2.989  15.273  0.5582 -0.3315  0.3367
 7674SOL    HW134658   3.524   3.060  15.299 -2.4361 -2.4357 -0.6198
 7674SOL    HW234659   3.525   2.919  15.241 -0.9287  1.1714 -0.2866
 7675SOL     OW34660   3.471   1.432   6.643 -0.0552 -0.5058  0.2014
 7675SOL    HW134661   3.523   1.432   6.722  1.1991 -1.6361 -0.6196
 7675SOL    HW234662   3.522   1.493   6.590  0.6045 -1.0314  0.2301
 7676SOL     OW34663   4.156   1.422   9.155 -0.0806 -0.3140  0.3061
 7676SOL    HW134664   4.100   1.465   9.219  1.3331 -0.6367  1.7671
 7676SOL    HW234665   4.104   1.427   9.074  2.0576 -2.0962 -1.1868
 7677SOL     OW34666   1.990   2.501  15.343 -0.2666 -0.2940  0.1426
 7677SOL    HW134667   2.028   2.588  15.351 -0.2269 -0.3423  0.5025
 7677SOL    HW234668   1.921   2.513  15.278 -0.3414 -3.1254 -0.3333
 7678SOL     OW34669   3.511   2.266   9.970  0.5760 -0.5718  0.0897
 7678SOL    HW134670   3.472   2.241  10.054  1.2127  1.6804  1.0543
 7678SOL    HW234671   3.602   2.264  10.001  0.1616 -1.5316  1.2321
 7679SOL     OW34672   1.358   4.057   9.228 -0.7203 -0.1376  0.0019
 7679SOL    HW134673   1.419   3.988   9.254  1.1346  1.1271 -0.9657
 7679SOL    HW234674   1.276   4.008   9.239 -1.5338  1.6996  2.1658
 7680SOL     OW34675   4.375   3.722  17.095  0.2130  0.2608 -0.2381
 7680SOL    HW134676   4.443   3.654  17.085  1.1542  0.9541  1.4930
 7680SOL    HW234677   4.364   3.764  17.010 -0.6087 -1.3088 -0.9065
 7681SOL     OW34678   2.125   2.945   7.103  0.2710 -0.0040  0.1100
 7681SOL    HW134679   2.217   2.922   7.089  0.7612  1.4353  1.0598
 7681SOL    HW234680   2.127   2.951   7.198 -0.0506  0.6874  0.0720
 7682SOL     OW34681   2.862   0.551   3.336 -0.3517 -0.1674  0.6236
 7682SOL    HW134682   2.893   0.464   3.311 -1.1219 -0.3542  0.3129
 7682SOL    HW234683   2.940   0.577   3.385 -1.1243  0.4863  1.5024
 7683SOL     OW34684   2.718   0.454  13.029  1.0202 -0.1053  0.0705
 7683SOL    HW134685   2.785   0.392  13.055  1.9321  0.6249 -0.5028
 7683SOL    HW234686   2.768   0.511  12.970  1.3990 -0.0119  0.4858
 7684SOL     OW34687   3.964   1.031   3.641  0.3581 -0.0880 -0.5542
 7684SOL    HW134688   3.968   0.939   3.616  2.1718 -0.5990  1.6473
 7684SOL    HW234689   3.916   1.068   3.567 -0.9656 -1.3606 -0.3271
 7685SOL     OW34690   3.896   3.933   9.403  0.0808 -0.3862 -0.1941
 7685SOL    HW134691   3.856   3.864   9.351  1.9102 -1.8381  0.3071
 7685SOL    HW234692   3.822   3.965   9.455  0.2017  1.6399 -1.2564
 7686SOL     OW34693   4.689   4.016   5.101 -0.2794 -0.0754 -0.4483
 7686SOL    HW134694   4.634   4.027   5.024 -0.2995 -1.3137 -0.6140
 7686SOL    HW234695   4.642   4.066   5.167 -1.4399 -1.2987 -0.3313
 7687SOL     OW34696   2.592   1.281   7.752  0.0662 -0.0400  0.2231
 7687SOL    HW134697   2.604   1.258   7.660 -2.4132  2.6080 -0.7657
 7687SOL    HW234698   2.505   1.243   7.766 -0.0475  0.3154  0.4906
 7688SOL     OW34699   2.559   3.367   8.983 -0.6403  0.0165 -0.1999
 7688SOL    HW134700   2.606   3.340   8.904 -0.1241 -3.0313  1.1594
 7688SOL    HW234701   2.547   3.461   8.965  2.7497  0.4585 -0.1579
 7689SOL     OW34702   0.567   0.879   8.244 -0.3818  0.6251  0.4730
 7689SOL    HW134703   0.615   0.924   8.174  0.4528  1.4928  1.5993
 7689SOL    HW234704   0.569   0.788   8.212 -3.7328  1.1478 -1.2524
 7690SOL     OW34705   0.588   1.343  17.205 -0.0413 -0.2572 -0.2482
 7690SOL    HW134706   0.520   1.373  17.265 -0.6090  0.5069 -1.2685
 7690SOL    HW234707   0.542   1.339  17.122  1.7268 -0.9021 -1.2081
 7691SOL     OW34708   3.626   4.116   6.092 -0.4117  0.1096 -0.1040
 7691SOL    HW134709   3.667   4.086   6.010 -0.5762 -1.0459  0.2320
 7691SOL    HW234710   3.533   4.097   6.078 -0.3600  1.3074 -2.1353
 7692SOL     OW34711   0.749   0.095   7.742 -0.1723 -0.0018 -0.1799
 7692SOL    HW134712   0.816   0.027   7.756  2.2399  1.9926 -1.9358
 7692SOL    HW234713   0.725   0.078   7.651  2.9606 -0.5122 -0.9365
 7693SOL     OW34714   0.798   2.501  10.309  0.2656  0.2111  0.0167
 7693SOL    HW134715   0.766   2.540  10.391  2.0750  1.8678 -0.0714
 7693SOL    HW234716   0.816   2.574  10.250  1.1427 -0.4962 -0.5952
 7694SOL     OW34717   2.199   0.052   5.304 -0.4030  0.3080  0.7262
 7694SOL    HW134718   2.286   0.031   5.270  0.2450  1.0183  1.9730
 7694SOL    HW234719   2.176   0.103   5.226 -0.6313 -1.9389 -0.6848
 7695SOL     OW34720   1.324   0.494   6.285 -0.4836  0.3712 -0.5313
 7695SOL    HW134721   1.375   0.433   6.231 -0.0972  0.5798 -0.3968
 7695SOL    HW234722   1.388   0.504   6.355 -2.1796 -0.9048  1.2173
 7696SOL     OW34723   1.226   4.121  14.520  0.1150  0.1128  0.2526
 7696SOL    HW134724   1.199   4.059  14.452 -4.2940  1.5870  0.6560
 7696SOL    HW234725   1.304   4.075  14.552  0.9045  1.1418 -0.1804
 7697SOL     OW34726   4.590   4.467  16.469 -0.4108 -0.3645  0.0647
 7697SOL    HW134727   4.639   4.454  16.388 -0.2608 -0.3033  0.1478
 7697SOL    HW234728   4.644   4.533  16.513 -1.4260 -1.6861  3.3049
 7698SOL     OW34729   3.388   0.796   6.716 -0.0979  0.3308 -0.5999
 7698SOL    HW134730   3.400   0.786   6.810 -0.7026 -0.6481 -0.6265
 7698SOL    HW234731   3.345   0.716   6.686 -0.5321  0.3725 -0.0889
 7699SOL     OW34732   2.980   1.557  10.059  0.1374 -0.2754  0.4774
 7699SOL    HW134733   3.041   1.485  10.079 -0.8037 -1.5138 -1.1616
 7699SOL    HW234734   3.014   1.594   9.978 -2.0486  1.5059  0.3749
 7700SOL     OW34735   1.330   0.625  17.667 -0.1800 -0.0390 -0.2029
 7700SOL    HW134736   1.415   0.653  17.634 -0.8549 -0.8491 -2.6379
 7700SOL    HW234737   1.290   0.584  17.590 -0.3782  1.5842 -0.9474
 7701SOL     OW34738   0.853   2.883   3.080  0.1101 -0.1839 -0.5225
 7701SOL    HW134739   0.780   2.932   3.118  2.2541  1.9896  0.8120
 7701SOL    HW234740   0.803   2.828   3.019 -0.8157 -0.6966  0.6980
 7702SOL     OW34741   1.416   0.328   6.055  0.0380  0.5824  0.3821
 7702SOL    HW134742   1.489   0.382   6.026  0.0840  0.4118  0.1729
 7702SOL    HW234743   1.446   0.240   6.030 -0.3072  0.7238 -0.5424
 7703SOL     OW34744   1.724   3.319  10.731 -0.1827  0.1843  0.3872
 7703SOL    HW134745   1.798   3.334  10.790 -1.1728  0.5544  1.5427
 7703SOL    HW234746   1.685   3.234  10.751  0.6472 -0.1479  0.6113
 7704SOL     OW34747   1.283   0.017  15.178  0.6512  0.1634 -0.0592
 7704SOL    HW134748   1.375   4.729  15.173  0.6315  0.0837 -0.0427
 7704SOL    HW234749   1.244   4.666  15.168  0.3770  0.0425  2.1830
 7705SOL     OW34750   4.203   1.937   4.302  0.0607 -0.0410 -0.4569
 7705SOL    HW134751   4.251   2.015   4.273  0.6393  0.0129  0.6283
 7705SOL    HW234752   4.142   1.928   4.229  0.2699 -0.1198 -0.6215
 7706SOL     OW34753   2.288   1.437   9.085 -0.6732 -0.0818  0.1675
 7706SOL    HW134754   2.351   1.426   9.157 -0.6254 -2.0137 -0.1621
 7706SOL    HW234755   2.335   1.404   9.009 -1.4909  0.3717 -0.5245
 7707SOL     OW34756   4.719   2.039  10.296  0.2926  0.2934 -0.2659
 7707SOL    HW134757   4.724   2.124  10.340 -0.1686  0.2833 -0.1902
 7707SOL    HW234758   4.720   2.064  10.204 -0.4441  0.2358 -0.2888
 7708SOL     OW34759   3.763   4.309   6.597  0.6377 -0.1183  0.1901
 7708SOL    HW134760   3.736   4.343   6.511 -1.3305 -3.6655 -0.5956
 7708SOL    HW234761   3.765   4.388   6.651  0.3553  0.2677 -0.3614
 7709SOL     OW34762   1.141   0.003   0.125  0.1981  0.7630 -0.1925
 7709SOL    HW134763   1.069   0.036   0.178  0.0236 -0.2679  0.2006
 7709SOL    HW234764   1.163   0.081   0.073  1.4003  0.9943  0.6689
 7710SOL     OW34765   2.584   2.873   5.978 -0.0453 -0.1301  0.1612
 7710SOL    HW134766   2.616   2.938   5.916 -3.4351 -0.6470 -2.1562
 7710SOL    HW234767   2.667   2.831   5.998 -0.1789  0.4837  1.9843
 7711SOL     OW34768   3.404   1.758   7.564 -0.5059 -0.3411 -0.1768
 7711SOL    HW134769   3.412   1.832   7.624 -0.1492 -0.8064  0.3464
 7711SOL    HW234770   3.340   1.795   7.502 -1.4762  0.5322  1.3515
 7712SOL     OW34771   1.172   1.140  16.885  0.0551  0.3150 -0.1255
 7712SOL    HW134772   1.209   1.053  16.900  0.3178  0.6362  1.0632
 7712SOL    HW234773   1.110   1.121  16.814  0.7019 -2.9004  0.1726
 7713SOL     OW34774   0.667   2.234   9.273  0.1153 -0.0052  0.4180
 7713SOL    HW134775   0.708   2.171   9.332  2.3999 -1.6522 -2.9325
 7713SOL    HW234776   0.593   2.263   9.326  0.3004  0.3108  0.5011
 7714SOL     OW34777   2.852   1.562   7.077 -0.1624  0.0382  0.2605
 7714SOL    HW134778   2.775   1.616   7.062 -0.2703 -0.5043 -1.1582
 7714SOL    HW234779   2.897   1.585   6.996 -4.2985  2.3671 -1.3799
 7715SOL     OW34780   3.448   0.062  17.488  0.0121 -0.3376 -0.2843
 7715SOL    HW134781   3.441   0.044  17.394  0.7282 -0.0905 -0.3845
 7715SOL    HW234782   3.373   0.013  17.522  0.2620  1.6275  3.1347
 7716SOL     OW34783   0.865   2.735   4.108  0.3359 -0.1680  0.2146
 7716SOL    HW134784   0.924   2.661   4.097  0.6353  0.0924  0.0896
 7716SOL    HW234785   0.789   2.711   4.055 -0.5649 -0.5268  1.6681
 7717SOL     OW34786   4.660   1.558   1.975 -0.2654 -1.1956  0.2749
 7717SOL    HW134787   4.642   1.611   2.052 -1.8894 -1.3722  0.0031
 7717SOL    HW234788   0.003   1.605   1.947 -1.2985  1.2027  1.3449
 7718SOL     OW34789   3.153   0.957  12.076 -0.0837  0.2928 -0.2884
 7718SOL    HW134790   3.169   1.051  12.068 -1.0441  0.4034 -0.9282
 7718SOL    HW234791   3.115   0.961  12.164  0.3130 -3.1992  0.0434
 7719SOL     OW34792   3.392   0.900   8.419 -0.2080  0.5479  0.0760
 7719SOL    HW134793   3.397   0.836   8.490  2.0554 -0.0306 -0.6117
 7719SOL    HW234794   3.326   0.868   8.358 -0.9453  0.8511  0.7002
 7720SOL     OW34795   2.677   4.201   4.663  0.3724  0.4078 -0.0823
 7720SOL    HW134796   2.737   4.265   4.700 -0.1796  1.4930 -1.0736
 7720SOL    HW234797   2.595   4.248   4.679  0.3388  0.9456 -1.8735
 7721SOL     OW34798   4.069   3.617   2.711 -0.1327 -0.2138  0.0505
 7721SOL    HW134799   4.161   3.631   2.735 -0.0053  0.7704 -1.0116
 7721SOL    HW234800   4.073   3.526   2.683  0.2459 -1.1996  3.2600
 7722SOL     OW34801   1.913   3.823   6.261 -0.0655 -0.4098  0.0929
 7722SOL    HW134802   2.003   3.841   6.289 -0.1965  0.3127  0.0378
 7722SOL    HW234803   1.864   3.834   6.342  1.0338  0.6996  0.6129
 7723SOL     OW34804   3.042   4.681   7.264 -0.1764  0.3797  0.2729
 7723SOL    HW134805   3.018   4.726   7.345  2.9693 -0.5533  1.7164
 7723SOL    HW234806   2.953   4.669   7.230 -0.2507  1.5584  0.0301
 7724SOL     OW34807   0.655   0.224   3.893  0.0143  0.3095 -0.2726
 7724SOL    HW134808   0.569   0.186   3.875 -0.1085  0.1295  0.6747
 7724SOL    HW234809   0.672   0.262   3.807 -1.2029  0.9663 -0.2340
 7725SOL     OW34810   2.118   2.987   5.950  0.1614 -0.0421 -0.1360
 7725SOL    HW134811   2.040   2.953   5.907 -1.3674  0.2707  2.4165
 7725SOL    HW234812   2.175   2.910   5.938  1.2945  0.8718 -0.6132
 7726SOL     OW34813   1.313   3.415  11.667  0.6706 -0.0824 -0.0651
 7726SOL    HW134814   1.300   3.387  11.577  3.2345  0.5937 -0.6460
 7726SOL    HW234815   1.405   3.442  11.668 -0.0376  2.3610 -1.3994
 7727SOL     OW34816   2.878   2.655   7.211  0.1847 -0.0940  0.5910
 7727SOL    HW134817   2.857   2.566   7.241  1.3350 -0.5788 -0.0803
 7727SOL    HW234818   2.867   2.637   7.117 -0.3082 -0.3160  0.6912
 7728SOL     OW34819   3.270   1.294   8.653  0.5971  0.2663  0.1142
 7728SOL    HW134820   3.271   1.312   8.747  0.4698  0.4739  0.0757
 7728SOL    HW234821   3.187   1.334   8.625  1.0515  0.0761 -1.5421
 7729SOL     OW34822   4.511   1.160  17.275 -0.3413 -0.1476 -0.1019
 7729SOL    HW134823   4.510   1.240  17.326 -2.8421  0.3946 -1.0294
 7729SOL    HW234824   4.607   1.155  17.271 -0.3225  0.1939 -0.0861
 7730SOL     OW34825   3.036   1.278   5.134 -0.2828 -0.3324  0.1275
 7730SOL    HW134826   3.073   1.358   5.096 -0.5956 -0.0794  0.3546
 7730SOL    HW234827   3.109   1.238   5.182  1.6170  2.3551 -0.5225
 7731SOL     OW34828   4.516   4.703   6.962  0.2794  0.4188  0.0528
 7731SOL    HW134829   4.612   4.703   6.967  0.2833  0.9440 -0.0464
 7731SOL    HW234830   4.485   4.640   7.026 -0.4210  0.6452 -0.0610
 7732SOL     OW34831   0.844   3.706   4.587  0.3476 -0.5145  0.2133
 7732SOL    HW134832   0.766   3.712   4.533  0.7157  0.1812 -0.2407
 7732SOL    HW234833   0.883   3.634   4.536  0.0340 -0.4770 -0.0733
 7733SOL     OW34834   2.424   1.063   8.862 -0.3464 -0.0783  0.3698
 7733SOL    HW134835   2.352   1.020   8.815 -0.6275 -0.3258  1.0308
 7733SOL    HW234836   2.505   1.014   8.851 -0.3360  0.3262 -1.3830
 7734SOL     OW34837   0.924   2.305   3.610  0.0390 -0.4879  0.0431
 7734SOL    HW134838   0.960   2.308   3.699 -0.5649  1.5875  0.2215
 7734SOL    HW234839   0.886   2.218   3.618 -2.3964  0.4939 -0.8520
 7735SOL     OW34840   4.061   4.122   4.837  0.1611  0.1007 -0.6280
 7735SOL    HW134841   4.133   4.060   4.841 -1.6034 -1.8201  1.1270
 7735SOL    HW234842   3.996   4.076   4.785 -0.4508  2.3335 -1.8343
 7736SOL     OW34843   2.112   2.604   3.335 -0.1201  0.4730  0.2867
 7736SOL    HW134844   2.060   2.543   3.388 -0.0376 -0.4207 -0.6439
 7736SOL    HW234845   2.131   2.541   3.265  1.3571  0.0293  1.1001
 7737SOL     OW34846   1.950   1.602   3.391 -0.0160 -0.0183  0.9789
 7737SOL    HW134847   1.903   1.527   3.354 -0.2163  1.5274 -1.9027
 7737SOL    HW234848   1.959   1.584   3.484 -0.5938 -0.0562  1.0310
 7738SOL     OW34849   3.144   0.947  17.391 -0.3842 -0.3324  0.0075
 7738SOL    HW134850   3.120   0.868  17.440 -1.0325 -1.0123 -1.3948
 7738SOL    HW234851   3.111   0.929  17.303  0.6149  0.2713 -0.4870
 7739SOL     OW34852   4.288   1.284  11.798 -0.9870  0.1745  0.7350
 7739SOL    HW134853   4.238   1.366  11.803 -2.1312 -0.5227  0.6942
 7739SOL    HW234854   4.355   1.323  11.742 -1.2105 -1.4861 -0.6934
 7740SOL     OW34855   3.363   0.859  16.000  0.1613  0.2090 -0.1266
 7740SOL    HW134856   3.285   0.886  15.951  1.7672  1.7300 -1.8661
 7740SOL    HW234857   3.413   0.869  15.918 -3.5796 -0.5977 -2.5099
 7741SOL     OW34858   4.539   4.736  11.285  0.0719  0.5441 -0.5780
 7741SOL    HW134859   4.577   0.084  11.262  0.4395  0.6898  0.5537
 7741SOL    HW234860   4.617   4.704  11.331 -1.0627  0.9870  1.6382
 7742SOL     OW34861   0.187   2.682  17.158  0.5105 -0.6287 -0.6058
 7742SOL    HW134862   0.227   2.707  17.075 -0.9171 -0.0127 -1.1248
 7742SOL    HW234863   0.188   2.759  17.215  2.8264 -0.6807 -0.6052
 7743SOL     OW34864   3.788   3.268   4.230  0.1381  0.2475  0.1484
 7743SOL    HW134865   3.875   3.233   4.251  0.2278  0.4904  0.1802
 7743SOL    HW234866   3.726   3.206   4.269 -1.0640  1.0621 -0.4823
 7744SOL     OW34867   2.814   2.926   3.711  0.0057  0.1173 -0.6796
 7744SOL    HW134868   2.769   2.899   3.791  0.3211  1.9962  0.1237
 7744SOL    HW234869   2.757   2.877   3.651 -1.8327  0.2268  0.9547
 7745SOL     OW34870   3.068   0.216   1.487 -0.4881 -0.3942 -0.2424
 7745SOL    HW134871   3.114   0.275   1.547 -0.6798 -0.6097  0.1160
 7745SOL    HW234872   3.137   0.159   1.451  0.8353  0.9505  0.1656
 7746SOL     OW34873   2.341   1.169   3.116  0.0206  0.6870  0.2118
 7746SOL    HW134874   2.319   1.228   3.044  1.3755  1.8171  0.7108
 7746SOL    HW234875   2.279   1.098   3.101 -0.1953  1.1103 -0.8672
 7747SOL     OW34876   1.066   2.367   3.367 -0.1042  0.0339  0.0016
 7747SOL    HW134877   0.971   2.366   3.367 -0.1019  0.3435 -1.6141
 7747SOL    HW234878   1.083   2.356   3.461  1.8071  0.9979 -0.2261
 7748SOL     OW34879   1.700   3.088   7.723 -0.4367 -0.7719  0.3174
 7748SOL    HW134880   1.682   3.030   7.797 -0.2431  0.4167  1.2989
 7748SOL    HW234881   1.651   3.165   7.753  0.3666 -0.2628  0.3192
 7749SOL     OW34882   4.164   3.675   7.345  0.0305  0.4228 -0.5368
 7749SOL    HW134883   4.115   3.701   7.423  0.6756 -0.5226  0.1832
 7749SOL    HW234884   4.105   3.706   7.276 -1.3605 -0.4801  0.2524
 7750SOL     OW34885   4.335   3.703   6.553  0.0263  0.4502 -0.4627
 7750SOL    HW134886   4.260   3.729   6.498  0.8989  1.9574 -0.9518
 7750SOL    HW234887   4.356   3.794   6.574  2.4916  0.0311 -1.1888
 7751SOL     OW34888   3.795   2.205   6.769  0.1819  0.1132 -0.4151
 7751SOL    HW134889   3.766   2.234   6.855  0.3421  0.0210 -0.3310
 7751SOL    HW234890   3.859   2.271   6.744  0.5842  0.0987  0.6196
 7752SOL     OW34891   0.621   0.300   3.637  0.1757 -0.2774 -0.1895
 7752SOL    HW134892   0.597   0.216   3.599  1.1278 -0.0355 -1.3153
 7752SOL    HW234893   0.561   0.361   3.593  1.1757  1.0354  0.2738
 7753SOL     OW34894   2.066   4.502   6.878 -0.4667 -0.4468  0.3370
 7753SOL    HW134895   2.040   4.592   6.857 -1.2325 -1.1588 -1.7652
 7753SOL    HW234896   2.087   4.498   6.972 -0.8505 -1.2893  0.3877
 7754SOL     OW34897   1.587   0.741   6.237 -0.2181 -0.0802  0.6478
 7754SOL    HW134898   1.547   0.695   6.163  0.0386 -1.9462  1.6653
 7754SOL    HW234899   1.613   0.829   6.211 -0.9060 -0.6837 -2.0312
 7755SOL     OW34900   2.602   1.324   3.519  0.4592 -0.1512 -0.1824
 7755SOL    HW134901   2.593   1.348   3.427  1.7246  0.7379 -0.0631
 7755SOL    HW234902   2.540   1.251   3.523 -1.7889  1.6826 -1.2013
 7756SOL     OW34903   0.024   1.957   9.029 -0.2148 -0.2997 -0.0226
 7756SOL    HW134904   0.021   2.034   9.086  2.0389 -1.1018  1.1599
 7756SOL    HW234905   0.021   2.008   8.948  0.4170  1.1349  0.8613
 7757SOL     OW34906   3.470   4.098   4.285 -0.1751 -0.4493 -0.4423
 7757SOL    HW134907   3.434   4.177   4.244  2.5950  0.2432 -1.5451
 7757SOL    HW234908   3.449   4.036   4.215 -2.4323  0.1717 -0.3257
 7758SOL     OW34909   4.463   3.629   0.694 -0.1503 -0.1790  0.0268
 7758SOL    HW134910   4.476   3.561   0.629 -0.1801  1.2344 -1.4517
 7758SOL    HW234911   4.543   3.618   0.745  0.4570 -0.6855 -1.0499
 7759SOL     OW34912   1.571   0.602   9.014  0.4444 -0.1274 -0.7868
 7759SOL    HW134913   1.622   0.667   8.966  2.1422 -0.2603  0.8532
 7759SOL    HW234914   1.638   0.559   9.067  0.0059 -0.0726 -0.1873
 7760SOL     OW34915   1.448   0.761   8.839  0.4208 -0.2229 -0.3185
 7760SOL    HW134916   1.453   0.710   8.920 -2.3562  0.2316  0.1362
 7760SOL    HW234917   1.357   0.743   8.815  0.3598 -0.1388 -0.1462
 7761SOL     OW34918   4.025   0.413   1.820  0.5895 -0.3173  0.0355
 7761SOL    HW134919   4.106   0.446   1.780  0.6265  0.2956  0.6179
 7761SOL    HW234920   3.969   0.488   1.797  0.9525  0.2209  0.9232
 7762SOL     OW34921   2.544   0.288   2.102  0.3180  0.2996  0.0866
 7762SOL    HW134922   2.499   0.326   2.026 -1.0533 -0.3266  0.5842
 7762SOL    HW234923   2.478   0.222   2.124 -0.8027  1.1011 -0.8611
 7763SOL     OW34924   1.483   2.492   4.283  0.2646 -0.1254 -0.1279
 7763SOL    HW134925   1.421   2.448   4.225  0.6675 -1.3943  0.4103
 7763SOL    HW234926   1.457   2.584   4.289 -0.3416 -0.3580  0.7766
 7764SOL     OW34927   0.658   4.147   6.502 -0.2654  0.0404  0.1168
 7764SOL    HW134928   0.563   4.136   6.505 -0.3888  1.0052 -0.0340
 7764SOL    HW234929   0.683   4.057   6.521  1.2478  0.7321  1.4264
 7765SOL     OW34930   3.444   4.419  17.485 -0.4083  0.2048 -0.1945
 7765SOL    HW134931   3.526   4.425  17.437 -1.0877  2.6989 -1.0306
 7765SOL    HW234932   3.385   4.453  17.418 -0.0796 -0.7371 -0.9652
 7766SOL     OW34933   0.924   2.819   5.921 -1.0615 -0.0447 -0.5423
 7766SOL    HW134934   0.924   2.882   5.849  1.3165  1.4792  0.8047
 7766SOL    HW234935   0.892   2.878   5.989 -1.7775 -0.4021 -0.5623
 7767SOL     OW34936   4.624   4.689   5.260 -0.2254 -0.6672  0.1224
 7767SOL    HW134937   4.585   4.686   5.172  0.4824  1.5964 -0.2671
 7767SOL    HW234938   4.617   4.594   5.272 -1.9908 -0.7781 -1.6590
 7768SOL     OW34939   4.448   2.858   8.946  0.3984 -0.2283 -0.0563
 7768SOL    HW134940   4.404   2.931   8.989 -0.0286  0.2696 -1.3620
 7768SOL    HW234941   4.373   2.842   8.889 -0.4157 -0.3950  1.0441
 7769SOL     OW34942   3.937   2.109  14.943  0.5729  0.3159 -0.6094
 7769SOL    HW134943   3.881   2.155  14.880 -0.1629 -0.5732 -0.5957
 7769SOL    HW234944   4.022   2.145  14.919  0.6224 -0.6267 -1.8809
 7770SOL     OW34945   3.065   0.660   4.258 -0.1728  0.1485 -0.8449
 7770SOL    HW134946   3.055   0.683   4.350 -2.1230 -1.8945 -0.5569
 7770SOL    HW234947   2.980   0.625   4.231 -1.0383 -0.4626  2.6690
 7771SOL     OW34948   1.954   3.875  17.651  0.1833 -0.1961  0.3873
 7771SOL    HW134949   1.913   3.916  17.575 -0.9081  0.6660  1.4510
 7771SOL    HW234950   1.925   3.938  17.717  0.6293 -0.4740  0.8456
 7772SOL     OW34951   3.656   0.610   6.618  0.8020  0.1518  0.4158
 7772SOL    HW134952   3.687   0.653   6.698  1.4799 -0.3350  0.4166
 7772SOL    HW234953   3.738   0.618   6.569 -0.8572  0.4320 -2.2888
 7773SOL     OW34954   0.476   1.410  10.540  0.3602  0.0854 -0.2529
 7773SOL    HW134955   0.488   1.401  10.634 -0.4519  0.0168 -0.1574
 7773SOL    HW234956   0.519   1.494  10.527  1.8564 -0.4514  1.3116
 7774SOL     OW34957   4.708   4.325   2.388 -0.0472  0.2470 -0.0200
 7774SOL    HW134958   4.692   4.411   2.350  0.4812  0.1972 -0.3470
 7774SOL    HW234959   0.009   4.361   2.468 -0.1694  0.4361 -0.0485
 7775SOL     OW34960   2.092   0.151  13.384 -0.2871  0.0576 -0.1841
 7775SOL    HW134961   2.005   0.126  13.352 -0.1454 -0.4174 -0.1912
 7775SOL    HW234962   2.125   0.208  13.315  3.7031  1.6209  3.0075
 7776SOL     OW34963   2.642   2.790   4.253  0.2703  0.1821  0.2545
 7776SOL    HW134964   2.568   2.849   4.244 -0.1917 -0.4934 -0.3905
 7776SOL    HW234965   2.714   2.833   4.206  1.0499 -1.2859  0.0964
 7777SOL     OW34966   2.581   3.306  16.207 -0.1365 -0.6058  0.1707
 7777SOL    HW134967   2.667   3.298  16.248  0.3468 -0.8055 -0.8629
 7777SOL    HW234968   2.518   3.315  16.278  1.0758 -0.3187  1.2026
 7778SOL     OW34969   1.429   4.308   3.280 -0.0600  0.5663  0.8889
 7778SOL    HW134970   1.362   4.245   3.306  0.3224 -0.6431 -1.0378
 7778SOL    HW234971   1.491   4.240   3.252 -0.1371  0.4867  0.9136
 7779SOL     OW34972   2.093   4.580  16.753 -0.0995  0.3259 -0.0732
 7779SOL    HW134973   2.107   4.515  16.684 -2.1835 -0.2572  0.0594
 7779SOL    HW234974   2.175   4.567  16.801 -0.8913 -0.0640  1.1904
 7780SOL     OW34975   3.171   2.033   4.316  0.0194  0.2446  0.7074
 7780SOL    HW134976   3.127   2.015   4.399 -0.8062 -2.0073 -0.2252
 7780SOL    HW234977   3.162   2.128   4.322 -2.6396  0.0755 -0.6219
 7781SOL     OW34978   2.118   3.156  13.424 -0.2001  0.2775  0.2978
 7781SOL    HW134979   2.169   3.144  13.504 -0.4554 -1.1389  0.2535
 7781SOL    HW234980   2.028   3.162  13.457  0.0358  1.6779  0.7003
 7782SOL     OW34981   1.922   1.133   8.483 -0.0632  0.1781 -0.1272
 7782SOL    HW134982   1.940   1.176   8.567  0.8537 -2.0980  0.8311
 7782SOL    HW234983   1.950   1.199   8.419  2.1633 -0.9785 -0.3330
 7783SOL     OW34984   2.774   4.231   1.827  0.2057 -0.2636  0.0004
 7783SOL    HW134985   2.732   4.288   1.891  0.9159  0.3655 -0.0799
 7783SOL    HW234986   2.718   4.155   1.837 -0.7232  0.0678 -2.6442
 7784SOL     OW34987   1.996   0.769   2.502  0.0379  0.0510  0.3709
 7784SOL    HW134988   2.054   0.845   2.510 -0.4733  0.4657  0.1751
 7784SOL    HW234989   2.044   0.722   2.570 -0.0270  0.2480  0.5542
 7785SOL     OW34990   0.871   2.907   6.941 -1.0876 -0.4987  0.1316
 7785SOL    HW134991   0.833   2.964   6.873 -0.0115  1.3528  1.0847
 7785SOL    HW234992   0.852   2.958   7.019 -2.3262 -0.8625  0.0630
 7786SOL     OW34993   1.983   2.149   2.494  0.3326  0.3688 -0.2505
 7786SOL    HW134994   2.029   2.233   2.504 -1.3264  1.3082 -0.3332
 7786SOL    HW234995   2.039   2.098   2.436 -1.7907 -0.7953 -1.2882
 7787SOL     OW34996   1.966   0.654   5.864  0.2076  0.2359 -0.0755
 7787SOL    HW134997   2.004   0.637   5.778  0.3247  1.2404 -0.2263
 7787SOL    HW234998   2.034   0.656   5.932 -0.5393 -0.1435  0.6927
 7788SOL     OW34999   1.063   0.899   5.089  0.4015 -0.4960 -0.5242
 7788SOL    HW135000   1.100   0.986   5.073 -2.5824  1.4242  2.9177
 7788SOL    HW235001   0.987   0.930   5.138  0.9120 -1.8914  1.1283
 7789SOL     OW35002   2.060   2.319   5.623 -0.3134  0.1016  0.0957
 7789SOL    HW135003   2.022   2.239   5.588  1.3269 -1.1258  1.1414
 7789SOL    HW235004   2.049   2.387   5.556 -0.4821 -0.4913 -0.4837
 7790SOL     OW35005   1.573   4.675  14.230 -0.1522  0.1329  0.8167
 7790SOL    HW135006   1.524   4.683  14.312 -0.0016  2.0399  0.7177
 7790SOL    HW235007   1.637   4.605  14.242  0.7576  1.2094  2.3121
 7791SOL     OW35008   2.760   4.037   2.508  0.1648 -0.1228 -0.1286
 7791SOL    HW135009   2.777   3.965   2.447  0.3535 -0.1777 -0.0147
 7791SOL    HW235010   2.721   4.094   2.442 -0.4033 -3.9157 -3.0535
 7792SOL     OW35011   3.920   3.163   7.159 -0.2547 -0.1980 -0.3988
 7792SOL    HW135012   4.015   3.174   7.154 -0.2475 -0.1415 -0.0937
 7792SOL    HW235013   3.899   3.071   7.143  0.5247 -0.6389  1.1646
 7793SOL     OW35014   2.047   3.212   8.409  0.0074  0.5604 -0.1683
 7793SOL    HW135015   2.113   3.281   8.399  0.8010 -0.3680 -1.2195
 7793SOL    HW235016   2.102   3.136   8.427 -0.1438  0.6858  0.8313
 7794SOL     OW35017   0.832   0.936   7.551 -0.1225 -0.0322 -0.0603
 7794SOL    HW135018   0.804   1.007   7.609  1.0348 -0.6336  1.2408
 7794SOL    HW235019   0.762   0.874   7.570 -1.5323  1.3862 -0.5976
 7795SOL     OW35020   4.659   3.053   5.876 -0.1412  0.2077  0.1746
 7795SOL    HW135021   4.599   3.126   5.860 -1.3678 -0.9400 -0.4682
 7795SOL    HW235022   4.655   3.061   5.971  3.1962 -0.4912  0.3456
 7796SOL     OW35023   3.657   4.229  14.788 -0.5075 -0.8007  0.1637
 7796SOL    HW135024   3.695   4.294  14.729 -0.7089 -0.3550  0.5268
 7796SOL    HW235025   3.721   4.227  14.859  1.4876 -0.8816 -1.6337
 7797SOL     OW35026   3.138   2.865   7.733  0.1606 -0.1202 -0.0288
 7797SOL    HW135027   3.055   2.848   7.689 -0.4097 -0.9927  1.3793
 7797SOL    HW235028   3.193   2.850   7.656  0.3386 -2.0119  0.4693
 7798SOL     OW35029   4.515   1.577   4.512  0.0825  0.0120  0.1105
 7798SOL    HW135030   4.456   1.634   4.463  0.8558  1.7544  1.1786
 7798SOL    HW235031   4.504   1.614   4.600  0.7204  1.6504 -0.4850
 7799SOL     OW35032   0.880   3.858   2.919  0.2012 -0.3404  0.1065
 7799SOL    HW135033   0.801   3.913   2.924  0.3243 -0.4227  2.9189
 7799SOL    HW235034   0.935   3.904   2.855 -0.0664 -0.3397 -0.1268
 7800SOL     OW35035   3.016   0.670   7.787  0.1347  0.5807 -0.2589
 7800SOL    HW135036   3.076   0.648   7.859  1.1001  0.6828 -1.0234
 7800SOL    HW235037   3.050   0.753   7.753  0.8940  1.0910  1.7426
 7801SOL     OW35038   3.807   4.714  16.815 -0.6330  0.4306  0.0727
 7801SOL    HW135039   3.817   4.730  16.721  1.1029  0.1804  0.2163
 7801SOL    HW235040   3.854   4.631  16.817  1.5098  1.6314 -0.4243
 7802SOL     OW35041   1.353   0.218  16.398  0.4853 -0.5677  0.7451
 7802SOL    HW135042   1.405   0.236  16.477  0.4060 -1.7986  1.0902
 7802SOL    HW235043   1.417   0.181  16.337 -1.3430 -2.9157  0.2702
 7803SOL     OW35044   1.749   1.773   9.172  0.1006 -0.1708  0.4017
 7803SOL    HW135045   1.718   1.825   9.246 -0.7813 -0.3342  0.1474
 7803SOL    HW235046   1.840   1.756   9.196  0.0282 -1.1562  0.0100
 7804SOL     OW35047   2.810   3.548  11.243 -0.2821 -0.3537  0.2871
 7804SOL    HW135048   2.784   3.458  11.263  2.1171 -0.8407  1.1674
 7804SOL    HW235049   2.844   3.535  11.155 -0.9710 -0.4152  0.0344
 7805SOL     OW35050   1.431   2.793   4.251  0.2840  0.0632 -0.4721
 7805SOL    HW135051   1.453   2.850   4.325 -0.0156 -0.0535 -0.2928
 7805SOL    HW235052   1.496   2.825   4.189 -0.4450 -0.5947 -1.5612
 7806SOL     OW35053   0.887   1.162  15.613 -0.1397 -0.0928  0.4360
 7806SOL    HW135054   0.854   1.248  15.641 -0.3751 -0.0114 -0.0921
 7806SOL    HW235055   0.936   1.130  15.688 -1.3358 -0.4167  1.0819
 7807SOL     OW35056   2.418   3.185  16.039 -0.2480 -0.4904 -0.0076
 7807SOL    HW135057   2.496   3.224  16.078 -2.5302  0.5650  3.4499
 7807SOL    HW235058   2.404   3.259  15.980 -0.7513  2.1179  3.4091
 7808SOL     OW35059   3.141   4.265  16.229 -0.6347 -0.1286  0.0049
 7808SOL    HW135060   3.061   4.237  16.183 -0.8805 -1.4030  1.2027
 7808SOL    HW235061   3.203   4.193  16.227 -1.5600 -0.9147 -0.4745
 7809SOL     OW35062   1.152   3.835   0.480  0.5202 -0.3539 -0.4596
 7809SOL    HW135063   1.201   3.908   0.444  0.9941  0.0807  1.0643
 7809SOL    HW235064   1.070   3.839   0.432 -0.0097 -0.9461  0.3875
 7810SOL     OW35065   3.445   4.697  14.598 -0.5346  0.6325 -0.1706
 7810SOL    HW135066   3.490   4.653  14.670  1.1672 -1.0457 -2.2400
 7810SOL    HW235067   3.411   4.629  14.540 -1.3757  1.6532 -0.8636
 7811SOL     OW35068   3.516   1.693  14.273 -0.0973 -0.2164  0.1645
 7811SOL    HW135069   3.433   1.659  14.307 -1.6012  0.3801 -2.8440
 7811SOL    HW235070   3.578   1.692  14.345  0.6586  1.4634 -0.4636
 7812SOL     OW35071   2.263   0.644   1.881  0.0445  0.2378  0.2259
 7812SOL    HW135072   2.223   0.676   1.962  2.0003  2.3394  0.3863
 7812SOL    HW235073   2.246   0.550   1.876 -1.1401  0.4847 -0.2866
 7813SOL     OW35074   4.169   2.320   3.799  0.2066  0.1761  0.1339
 7813SOL    HW135075   4.115   2.357   3.868  0.3012 -3.1615  2.0036
 7813SOL    HW235076   4.209   2.248   3.849 -2.8554 -0.6893  1.3206
 7814SOL     OW35077   4.488   4.227   2.591  0.4314 -0.5077 -0.1750
 7814SOL    HW135078   4.582   4.221   2.609  0.2578  0.4461  1.0648
 7814SOL    HW235079   4.463   4.143   2.628  1.0041 -0.5972  0.0064
 7815SOL     OW35080   1.842   4.323  11.517  1.0308 -0.3031 -0.5853
 7815SOL    HW135081   1.865   4.289  11.430  1.0981  2.0028 -1.4823
 7815SOL    HW235082   1.748   4.304  11.514  0.5206  2.1228 -0.5050
 7816SOL     OW35083   2.801   1.307   3.706  0.3000  0.1390  0.4026
 7816SOL    HW135084   2.844   1.233   3.663  1.9920  2.1939 -1.5330
 7816SOL    HW235085   2.726   1.318   3.648  1.1902  1.3210 -0.5425
 7817SOL     OW35086   3.884   0.934   1.744  0.1054 -0.1417 -0.2230
 7817SOL    HW135087   3.830   0.919   1.666 -1.2279  0.0207  0.6676
 7817SOL    HW235088   3.851   0.994   1.810  2.2812  0.0657  0.6851
 7818SOL     OW35089   1.293   0.409  15.198 -0.8700  0.0401 -0.2148
 7818SOL    HW135090   1.280   0.501  15.221  0.0296 -0.3079  1.6736
 7818SOL    HW235091   1.381   0.411  15.162 -1.0019  0.0809 -0.5374
 7819SOL     OW35092   0.206   2.107  12.457 -0.3297 -0.0234  1.1088
 7819SOL    HW135093   0.264   2.038  12.425 -1.7359 -0.4202 -0.5919
 7819SOL    HW235094   0.145   2.130  12.387  1.0460  0.3152  0.0283
 7820SOL     OW35095   3.698   4.711  12.482  0.9185 -0.2340  0.3964
 7820SOL    HW135096   3.624   0.010  12.433 -0.1263 -1.4516  1.1236
 7820SOL    HW235097   3.732   0.056  12.519  1.9154 -0.2082 -0.5731
 7821SOL     OW35098   3.227   0.415   7.044 -0.4130 -0.3959  0.2479
 7821SOL    HW135099   3.166   0.478   7.006  2.0206  1.3978 -0.7029
 7821SOL    HW235100   3.172   0.338   7.059  0.7966 -1.2920  0.1002
 7822SOL     OW35101   2.062   3.175   3.066  0.5047  0.1653 -0.1190
 7822SOL    HW135102   1.974   3.163   3.029 -0.7105  1.0405  2.4461
 7822SOL    HW235103   2.060   3.116   3.141  0.1248  1.0361  0.5580
 7823SOL     OW35104   3.443   2.162   6.203 -0.6675  0.2506  0.3891
 7823SOL    HW135105   3.452   2.108   6.282 -0.9229 -0.5296 -0.1128
 7823SOL    HW235106   3.497   2.113   6.141 -1.9132  0.7772 -1.1024
 7824SOL     OW35107   2.688   2.808   7.465  0.5490  0.2510  0.2878
 7824SOL    HW135108   2.636   2.879   7.501  2.0709  1.4693  0.1281
 7824SOL    HW235109   2.717   2.838   7.378  0.8256  1.0267  0.6426
 7825SOL     OW35110   0.578   3.638   1.974  0.0326 -0.0030  0.1693
 7825SOL    HW135111   0.501   3.664   2.024  0.9813 -0.1689  1.7172
 7825SOL    HW235112   0.549   3.587   1.898 -2.3826  1.1899  0.2756
 7826SOL     OW35113   0.611   1.553  13.034 -0.5973  0.3228 -0.2082
 7826SOL    HW135114   0.544   1.485  13.033  0.0070 -0.2265 -1.9178
 7826SOL    HW235115   0.569   1.630  13.072 -1.9563 -0.0456 -0.9622
 7827SOL     OW35116   1.077   3.966   7.131 -0.9695  0.5068  0.2022
 7827SOL    HW135117   1.003   3.988   7.188 -1.0858  2.8732 -0.8669
 7827SOL    HW235118   1.050   4.011   7.051 -4.0607 -0.7515  0.5206
 7828SOL     OW35119   2.614   2.015   3.360 -0.0272  0.4557 -0.0862
 7828SOL    HW135120   2.627   2.054   3.446 -1.1321  0.7433 -0.0416
 7828SOL    HW235121   2.609   1.921   3.378 -0.9844  0.5574  0.2177
 7829SOL     OW35122   0.534   4.353  15.873 -0.2674 -0.5122  0.7576
 7829SOL    HW135123   0.474   4.427  15.880  0.4011 -0.0342  1.4146
 7829SOL    HW235124   0.615   4.401  15.857 -1.1038 -0.3335 -2.8505
 7830SOL     OW35125   1.270   2.900   4.750  0.2268  0.3017 -0.5705
 7830SOL    HW135126   1.180   2.927   4.767  0.2014 -1.3842  1.9086
 7830SOL    HW235127   1.292   2.868   4.837 -1.1381  1.0406  0.0446
 7831SOL     OW35128   4.495   2.694   2.126  0.1104 -0.0213  0.0234
 7831SOL    HW135129   4.482   2.720   2.218 -0.9075  0.9510 -0.3967
 7831SOL    HW235130   4.510   2.785   2.099 -1.4950 -0.3130 -1.7836
 7832SOL     OW35131   2.725   1.412   5.453 -0.1778 -0.7513 -0.6461
 7832SOL    HW135132   2.667   1.364   5.394 -2.1270  1.2902 -0.3883
 7832SOL    HW235133   2.776   1.466   5.393  0.1205  0.9148  1.0816
 7833SOL     OW35134   2.619   0.385   7.287 -0.0762  0.2787  0.1820
 7833SOL    HW135135   2.634   0.450   7.218  2.3302  0.9936  1.3560
 7833SOL    HW235136   2.705   0.342   7.288  0.6404  1.7772  2.3538
 7834SOL     OW35137   3.492   1.426  13.490  0.4877  0.2375 -0.0646
 7834SOL    HW135138   3.436   1.450  13.416 -0.0254 -0.7111  0.0065
 7834SOL    HW235139   3.568   1.481  13.472  1.8571 -1.7562 -0.3445
 7835SOL     OW35140   3.178   3.647   9.265  0.2254 -0.0720  0.0986
 7835SOL    HW135141   3.117   3.720   9.251  1.3305  0.9054  0.4738
 7835SOL    HW235142   3.222   3.631   9.182  2.1330  0.1198  1.0862
 7836SOL     OW35143   2.578   1.583   9.456  0.2053 -0.2506  0.0945
 7836SOL    HW135144   2.540   1.560   9.541 -1.0872  4.1320  0.7140
 7836SOL    HW235145   2.667   1.583   9.490  0.3790  0.3884 -0.3530
 7837SOL     OW35146   2.693   2.793   4.979 -0.7139 -0.2165 -0.6363
 7837SOL    HW135147   2.602   2.789   5.006 -0.5801  1.2402  0.0823
 7837SOL    HW235148   2.697   2.885   4.952  1.7783 -0.3424 -0.7205
 7838SOL     OW35149   1.042   2.263   5.770  0.1054  0.5814 -0.5480
 7838SOL    HW135150   0.989   2.333   5.733 -1.0768  0.8075  1.5399
 7838SOL    HW235151   1.045   2.288   5.863 -1.7385 -3.3927  0.5797
 7839SOL     OW35152   0.266   2.646   1.105 -0.1282 -0.4042  0.1482
 7839SOL    HW135153   0.211   2.632   1.182  0.7655  0.3818  0.9399
 7839SOL    HW235154   0.310   2.730   1.123  0.5099 -0.9581  1.1694
 7840SOL     OW35155   2.502   0.429   4.321  0.2368 -0.2088  0.0196
 7840SOL    HW135156   2.457   0.512   4.303 -0.5085 -0.0536  2.5407
 7840SOL    HW235157   2.491   0.385   4.238  3.3217 -1.1940  0.1444
 7841SOL     OW35158   4.643   1.824   8.284  0.3390  0.5516 -0.6936
 7841SOL    HW135159   4.713   1.863   8.335 -0.6845  0.9622  0.3920
 7841SOL    HW235160   4.647   1.736   8.321  0.5377  0.7077 -0.3529
 7842SOL     OW35161   0.644   1.785   4.303 -0.3625 -0.0543  0.2410
 7842SOL    HW135162   0.635   1.709   4.360 -1.7257 -1.1695 -1.4795
 7842SOL    HW235163   0.740   1.782   4.308 -0.4151 -1.9893 -0.1788
 7843SOL     OW35164   3.909   1.315   3.980  0.3885  0.4346 -0.6938
 7843SOL    HW135165   3.835   1.285   3.927 -0.4045  0.8509  0.1901
 7843SOL    HW235166   3.865   1.394   4.009 -0.0205  0.2914 -0.9244
 7844SOL     OW35167   0.657   3.811   5.820  0.7030  0.0553 -0.3611
 7844SOL    HW135168   0.646   3.728   5.865 -0.5535  0.5093  0.1768
 7844SOL    HW235169   0.735   3.784   5.772  0.7225  1.8155 -1.3257
 7845SOL     OW35170   2.031   2.212   3.213 -0.9881 -0.0380  0.3250
 7845SOL    HW135171   2.007   2.147   3.147  1.6157 -1.6127  0.9170
 7845SOL    HW235172   2.031   2.303   3.185  0.1502 -0.5604 -1.3788
 7846SOL     OW35173   1.375   1.357   0.364  0.2952 -0.4635  0.3285
 7846SOL    HW135174   1.336   1.298   0.429  1.1962 -0.7430  0.6313
 7846SOL    HW235175   1.463   1.321   0.380  1.2546  1.5069 -0.4444
 7847SOL     OW35176   0.663   1.263   5.476  0.2092 -0.6710  0.3580
 7847SOL    HW135177   0.672   1.182   5.526  2.3187  0.3652  1.6544
 7847SOL    HW235178   0.724   1.324   5.517 -1.7337  2.4148 -1.3124
 7848SOL     OW35179   0.436   2.864  13.998  0.6975 -0.5350  0.6943
 7848SOL    HW135180   0.502   2.797  14.019  0.6713 -0.1260  2.0935
 7848SOL    HW235181   0.422   2.905  14.083  1.3948  0.9096  0.1078
 7849SOL     OW35182   3.298   1.980   0.196  0.5417 -0.3327  0.5051
 7849SOL    HW135183   3.281   1.957   0.105 -0.2452 -0.7465  0.7513
 7849SOL    HW235184   3.380   2.029   0.193  0.2391  0.1877  0.6317
 7850SOL     OW35185   0.195   4.685   7.197  0.1888 -0.4554 -0.5183
 7850SOL    HW135186   0.201   4.589   7.193  1.0253 -0.3890 -0.9701
 7850SOL    HW235187   0.103   4.706   7.206  0.5761  1.1541 -0.4330
 7851SOL     OW35188   3.408   0.365   4.283 -0.0939 -0.2214  0.7342
 7851SOL    HW135189   3.384   0.429   4.350 -0.5383 -1.1470  1.4587
 7851SOL    HW235190   3.422   0.293   4.345 -1.7050 -0.7354  0.4883
 7852SOL     OW35191   2.928   0.045   4.280 -0.1300  0.0449  0.1739
 7852SOL    HW135192   3.003   0.104   4.272 -2.0238  2.5261  0.8532
 7852SOL    HW235193   2.922   0.017   4.372 -1.9696 -4.1031 -1.2035
 7853SOL     OW35194   3.431   1.017   7.857  0.1782 -0.1000 -0.6475
 7853SOL    HW135195   3.399   0.960   7.927 -0.5292  0.0605 -0.8438
 7853SOL    HW235196   3.511   0.969   7.837  1.1220  0.5740  1.5107
 7854SOL     OW35197   3.030   1.600   5.759 -0.1961  0.3376 -0.0935
 7854SOL    HW135198   2.986   1.530   5.712  2.8763 -1.4526 -0.3495
 7854SOL    HW235199   3.046   1.555   5.842  1.1725 -3.9566 -2.6577
 7855SOL     OW35200   1.067   0.930   1.498 -0.1159 -0.1325  0.6193
 7855SOL    HW135201   1.022   0.847   1.512  0.3826 -0.6029 -0.5208
 7855SOL    HW235202   1.135   0.889   1.444 -0.4269  0.9275 -0.5771
 7856SOL     OW35203   2.769   2.373   3.264  0.2148 -0.4565 -0.2201
 7856SOL    HW135204   2.810   2.330   3.189  1.4603  0.4749 -0.0792
 7856SOL    HW235205   2.734   2.458   3.237 -1.3804 -1.3478 -0.9604
 7857SOL     OW35206   2.890   3.637   4.707  0.6903 -0.4801  0.2968
 7857SOL    HW135207   2.831   3.637   4.782 -2.3691 -1.2919 -2.1314
 7857SOL    HW235208   2.831   3.610   4.637  1.9684 -1.6230 -0.3442
 7858SOL     OW35209   2.545   1.510  13.392 -0.4782 -0.2906  0.0000
 7858SOL    HW135210   2.467   1.522  13.446 -0.7286 -1.5021 -0.1097
 7858SOL    HW235211   2.586   1.442  13.446  0.3098 -0.4336 -0.7743
 7859SOL     OW35212   1.205   2.762   7.173 -0.0307  0.1657  0.0722
 7859SOL    HW135213   1.287   2.718   7.151  0.5321  0.7920  0.8937
 7859SOL    HW235214   1.152   2.713   7.110 -0.4127 -0.6110  0.9886
 7860SOL     OW35215   4.553   0.829   0.269  0.0253  0.3373  0.0007
 7860SOL    HW135216   4.517   0.916   0.253  0.1935  0.4828  0.3983
 7860SOL    HW235217   4.529   0.831   0.362 -1.3368  1.1033 -0.3668
 7861SOL     OW35218   4.464   0.839   6.697  0.2871 -0.2938  0.3048
 7861SOL    HW135219   4.544   0.835   6.644  1.4245  1.0550  1.9485
 7861SOL    HW235220   4.394   0.877   6.644  1.0512  0.7576  0.0503
 7862SOL     OW35221   4.012   3.711   5.245 -0.1240 -0.4493  0.1642
 7862SOL    HW135222   4.086   3.761   5.209 -0.8306  0.3700 -0.1707
 7862SOL    HW235223   3.945   3.749   5.189  1.5818  2.4766  0.0870
 7863SOL     OW35224   1.034   0.377   3.752  0.2584 -0.0004  0.3527
 7863SOL    HW135225   1.024   0.354   3.660 -2.7517 -1.4511  1.0319
 7863SOL    HW235226   0.957   0.432   3.764  0.6964  0.6820  0.0570
 7864SOL     OW35227   1.689   3.250   9.679 -0.4953 -0.7129 -0.5211
 7864SOL    HW135228   1.677   3.165   9.637 -1.2576 -0.3845 -0.9767
 7864SOL    HW235229   1.720   3.221   9.765 -0.6567  1.9559  0.4417
 7865SOL     OW35230   2.785   1.196   9.595 -0.1928  0.4341 -0.1493
 7865SOL    HW135231   2.720   1.130   9.569  0.9939 -0.3232 -1.1530
 7865SOL    HW235232   2.731   1.263   9.638 -0.6578 -0.0941  0.0797
 7866SOL     OW35233   1.465   0.860   1.344 -0.2946  0.0798  0.2055
 7866SOL    HW135234   1.519   0.925   1.299  0.1202 -0.4382 -0.0474
 7866SOL    HW235235   1.523   0.821   1.410  1.5654  2.4060 -0.0490
 7867SOL     OW35236   1.744   1.545   2.708 -0.0543  0.2738 -0.1543
 7867SOL    HW135237   1.770   1.636   2.690  0.6462  0.2292  0.5971
 7867SOL    HW235238   1.672   1.552   2.770 -1.4696 -1.8342 -1.5842
 7868SOL     OW35239   1.472   0.040  12.359 -0.5426  0.2745  0.0247
 7868SOL    HW135240   1.377   0.042  12.371 -0.3873  1.0523  1.1653
 7868SOL    HW235241   1.500   4.686  12.368 -0.7896 -0.1440 -3.4513
 7869SOL     OW35242   1.432   3.003   8.415  0.6111  0.2710 -0.1875
 7869SOL    HW135243   1.389   2.928   8.374  1.4813  0.1015 -0.7602
 7869SOL    HW235244   1.370   3.021   8.487 -1.5651 -0.6437 -1.8357
 7870SOL     OW35245   0.086   2.166   5.141 -0.1780  0.7939 -0.4519
 7870SOL    HW135246   0.110   2.172   5.234  1.1436  0.6056 -0.7750
 7870SOL    HW235247   4.731   2.138   5.148 -0.2429  0.7125 -1.6577
 7871SOL     OW35248   1.663   0.064  17.100  0.2734  0.2651  0.5098
 7871SOL    HW135249   1.579   0.018  17.108  0.2160  0.1192 -0.9957
 7871SOL    HW235250   1.651   0.092  17.009 -1.1406  2.3623  1.3289
 7872SOL     OW35251   3.704   0.682   3.205 -0.0138 -0.1061 -0.2164
 7872SOL    HW135252   3.780   0.736   3.184 -0.0707 -0.3984 -1.1738
 7872SOL    HW235253   3.715   0.645   3.292 -3.1943  1.4041  0.8356
 7873SOL     OW35254   0.934   4.320  13.016 -0.0086  0.5131  0.3992
 7873SOL    HW135255   0.877   4.334  13.092 -2.1746  0.0943 -1.1480
 7873SOL    HW235256   1.013   4.347  13.062  0.5307 -0.3295 -0.0425
 7874SOL     OW35257   1.140   4.696   5.339  0.0923 -0.2080 -0.3628
 7874SOL    HW135258   1.104   0.046   5.323 -0.4135 -0.0466  1.6364
 7874SOL    HW235259   1.155   4.663   5.250  1.8090  1.3599 -0.6646
 7875SOL     OW35260   3.236   4.207  12.829  0.1729  0.4694  0.1746
 7875SOL    HW135261   3.236   4.226  12.736  0.6303 -0.0635  0.0634
 7875SOL    HW235262   3.309   4.144  12.837 -0.9074 -0.7487  0.4344
 7876SOL     OW35263   3.048   1.352   7.677 -0.0664  0.1348 -0.2443
 7876SOL    HW135264   3.092   1.425   7.633  0.8104  0.8694  1.8697
 7876SOL    HW235265   3.127   1.297   7.682  0.5437  1.1578  1.3984
 7877SOL     OW35266   2.422   0.007   4.650 -0.0627 -0.9644 -0.1279
 7877SOL    HW135267   2.464   0.071   4.592 -1.4153 -0.2820 -0.3670
 7877SOL    HW235268   2.338   0.008   4.605 -0.0400 -0.2883 -0.1580
 7878SOL     OW35269   1.755   2.846   1.948  0.0043  0.1703  0.7654
 7878SOL    HW135270   1.773   2.894   2.028  2.5241  1.0604 -0.3063
 7878SOL    HW235271   1.843   2.834   1.910  0.0457  1.3364  0.4942
 7879SOL     OW35272   2.206   2.513   0.757  0.1825 -0.2769 -0.5598
 7879SOL    HW135273   2.266   2.512   0.683  1.3059 -1.0376  0.3624
 7879SOL    HW235274   2.271   2.539   0.822 -0.5448  0.7442 -0.2251
 7880SOL     OW35275   1.059   0.566   8.583 -0.0595 -0.0999  0.3472
 7880SOL    HW135276   1.006   0.545   8.660 -0.0406 -0.0390  0.3767
 7880SOL    HW235277   1.142   0.522   8.602  0.3567  0.0323 -1.1245
 7881SOL     OW35278   2.256   2.475   6.779  0.0104 -0.0134  0.2725
 7881SOL    HW135279   2.306   2.550   6.811 -0.4401  0.3118  0.2131
 7881SOL    HW235280   2.255   2.493   6.685 -0.8752  0.6295  0.4053
 7882SOL     OW35281   4.102   2.882   7.214 -0.1163 -0.2051 -0.4420
 7882SOL    HW135282   4.152   2.860   7.135 -0.4689  0.5224 -0.8677
 7882SOL    HW235283   4.008   2.875   7.202 -0.2556 -0.1388  0.6349
 7883SOL     OW35284   4.355   1.082  11.262  0.0657  0.4399  0.3791
 7883SOL    HW135285   4.430   1.126  11.302  0.4941  1.0043 -1.0492
 7883SOL    HW235286   4.386   0.993  11.244 -0.5358  0.7901 -2.3484
 7884SOL     OW35287   1.490   1.830   7.297  0.1976 -0.1977  0.4831
 7884SOL    HW135288   1.474   1.736   7.298 -0.1509 -0.1617 -1.9181
 7884SOL    HW235289   1.449   1.849   7.212  0.4739  0.0664  0.4069
 7885SOL     OW35290   3.757   0.528   5.987  0.0184  0.0765  0.0747
 7885SOL    HW135291   3.789   0.452   5.938  3.5310  0.6438  1.5363
 7885SOL    HW235292   3.841   0.560   6.020  0.3004 -1.0166  0.4194
 7886SOL     OW35293   3.275   3.149  12.228 -0.0960  0.0800  0.0832
 7886SOL    HW135294   3.251   3.066  12.188  0.7417 -0.4006  0.5888
 7886SOL    HW235295   3.360   3.165  12.188 -0.4091 -0.5451 -0.8529
 7887SOL     OW35296   1.031   1.508  16.820 -0.6637  0.0540 -0.6421
 7887SOL    HW135297   1.092   1.464  16.760  2.7203  2.0014  1.3802
 7887SOL    HW235298   0.988   1.433  16.861 -2.8653  0.6976 -1.7645
 7888SOL     OW35299   2.979   2.437   2.455  0.0527 -0.0899  0.5875
 7888SOL    HW135300   2.900   2.489   2.444  0.5569  0.7639  0.9981
 7888SOL    HW235301   3.015   2.479   2.533 -1.2028  1.4951  0.3177
 7889SOL     OW35302   0.081   0.960   3.962  0.2983  0.0907 -0.0525
 7889SOL    HW135303   0.005   1.012   3.991 -0.6211 -1.4060  0.2373
 7889SOL    HW235304   0.040   0.926   3.882  0.3000  2.0053 -0.8649
 7890SOL     OW35305   4.114   1.143  10.620 -0.3749 -0.4263 -0.4418
 7890SOL    HW135306   4.194   1.190  10.597  1.9199 -4.4114 -0.6475
 7890SOL    HW235307   4.139   1.104  10.703  1.6209  0.9371 -0.3915
 7891SOL     OW35308   1.103   4.467   6.593  0.7676 -0.4845 -0.0490
 7891SOL    HW135309   1.076   4.466   6.501  0.1765 -1.1077  0.1373
 7891SOL    HW235310   1.148   4.552   6.599  1.6063 -1.0734  1.8467
 7892SOL     OW35311   0.061   1.449  16.534 -0.1895 -0.3228 -0.4409
 7892SOL    HW135312   4.729   1.445  16.467  0.1752 -3.0992 -0.6871
 7892SOL    HW235313   0.003   1.473  16.606 -2.5369 -2.2328 -1.6631
 7893SOL     OW35314   1.740   3.689  17.480  0.2108  0.5377  0.3270
 7893SOL    HW135315   1.799   3.681  17.404  0.0479  0.4825  0.2071
 7893SOL    HW235316   1.688   3.764  17.451  0.5069 -0.0932 -1.8205
 7894SOL     OW35317   2.289   1.884   4.162 -0.2654 -0.4285  0.1985
 7894SOL    HW135318   2.202   1.879   4.121 -0.5197 -0.8791  0.7912
 7894SOL    HW235319   2.266   1.954   4.224 -0.3810 -0.2698 -0.0205
 7895SOL     OW35320   2.833   3.712   3.236  0.4366  0.2611 -0.8222
 7895SOL    HW135321   2.778   3.756   3.301  1.6973 -1.0907  1.1462
 7895SOL    HW235322   2.921   3.744   3.253 -0.7638  3.8527 -1.3323
 7896SOL     OW35323   2.826   4.529   7.632 -0.4598 -0.3385  0.5403
 7896SOL    HW135324   2.826   4.506   7.539 -1.0214  0.8942  0.2396
 7896SOL    HW235325   2.773   4.462   7.676 -1.4301  0.0094 -0.1081
 7897SOL     OW35326   0.308   4.186   7.144  0.2606  0.3073  0.1164
 7897SOL    HW135327   0.339   4.255   7.086 -3.3849  0.3797 -1.7869
 7897SOL    HW235328   0.380   4.127   7.164  1.1507  2.5824  3.5327
 7898SOL     OW35329   3.317   3.831  12.552 -0.3320  0.1068  0.0189
 7898SOL    HW135330   3.269   3.824  12.635 -4.3744 -1.4697 -2.4554
 7898SOL    HW235331   3.278   3.765  12.495 -0.7441  1.9227 -1.7866
 7899SOL     OW35332   2.677   4.242   3.773 -0.1951 -0.2263  0.3989
 7899SOL    HW135333   2.592   4.246   3.729  0.2813 -0.9643 -0.5956
 7899SOL    HW235334   2.689   4.337   3.782 -0.0256  0.2337 -4.7899
 7900SOL     OW35335   2.939   2.797   9.681  0.4923 -0.3827 -0.7197
 7900SOL    HW135336   2.923   2.785   9.587 -0.6557  0.8584 -0.6848
 7900SOL    HW235337   2.856   2.833   9.711  2.4086  1.8104  1.9318
 7901SOL     OW35338   4.682   1.850   4.972  0.2284 -0.6433  0.5803
 7901SOL    HW135339   4.671   1.922   5.034 -2.1285  1.0482 -1.8523
 7901SOL    HW235340   0.039   1.829   4.975  0.2339 -0.7280 -0.2706
 7902SOL     OW35341   2.541   1.423   3.274 -0.0692 -0.2518  0.1866
 7902SOL    HW135342   2.456   1.425   3.231 -0.3256  0.8370  0.7398
 7902SOL    HW235343   2.584   1.507   3.257  1.7936 -1.2081  0.2814
 7903SOL     OW35344   2.931   0.844  10.003 -0.0004 -0.5064  0.0791
 7903SOL    HW135345   3.003   0.798  10.047  2.0204  0.8696 -1.7256
 7903SOL    HW235346   2.904   0.775   9.942 -0.7438 -0.5420  0.4581
 7904SOL     OW35347   0.604   4.223   1.334  0.0595 -0.5227  0.2393
 7904SOL    HW135348   0.560   4.304   1.309  0.7097 -0.0765  0.5409
 7904SOL    HW235349   0.554   4.156   1.288  0.8554 -0.0869 -1.2931
 7905SOL     OW35350   0.382   4.186   4.554 -0.0636 -0.5899  0.7018
 7905SOL    HW135351   0.335   4.168   4.635 -2.0800 -1.2181 -0.5960
 7905SOL    HW235352   0.387   4.280   4.570 -1.7025 -0.2033 -1.0058
 7906SOL     OW35353   1.773   2.573   6.390  0.5782 -0.1422 -0.7082
 7906SOL    HW135354   1.799   2.659   6.424  0.3145 -0.6331  0.7459
 7906SOL    HW235355   1.796   2.514   6.462  0.5402  2.3980  1.4177
 7907SOL     OW35356   2.075   4.421   6.447 -0.1241  0.1384 -0.3493
 7907SOL    HW135357   2.127   4.344   6.422 -3.3423 -1.5711 -1.8024
 7907SOL    HW235358   2.106   4.479   6.378  1.5104 -0.4938 -0.1729
 7908SOL     OW35359   3.848   1.103  12.007  0.3233 -0.4340 -0.3791
 7908SOL    HW135360   3.942   1.097  11.988  0.2965  2.4630 -1.4907
 7908SOL    HW235361   3.812   1.146  11.929 -1.5485 -0.1058  0.6817
 7909SOL     OW35362   1.564   4.079  15.914 -0.1012 -0.3090 -0.0549
 7909SOL    HW135363   1.560   4.079  15.818 -2.7231  0.5552  0.0481
 7909SOL    HW235364   1.507   4.154  15.928 -0.3958 -0.5129 -0.1626
 7910SOL     OW35365   4.485   0.520   7.255 -0.0064 -0.2212 -0.0545
 7910SOL    HW135366   4.454   0.464   7.327 -0.7563  1.0746  0.6268
 7910SOL    HW235367   4.409   0.511   7.197 -2.2554 -0.4765  2.9261
 7911SOL     OW35368   2.232   4.075   7.303  0.9817 -0.0812  0.3179
 7911SOL    HW135369   2.186   4.038   7.228  0.1487  0.6321  0.4751
 7911SOL    HW235370   2.302   4.011   7.312  1.0221 -0.2190 -0.9615
 7912SOL     OW35371   2.305   2.246   3.881  0.0076  0.1784  1.0800
 7912SOL    HW135372   2.322   2.340   3.874  0.4150  0.1403  1.5773
 7912SOL    HW235373   2.255   2.234   3.801  1.1369 -1.1147  0.5700
 7913SOL     OW35374   0.980   4.279   3.395  0.2070 -0.3832 -0.1366
 7913SOL    HW135375   0.986   4.256   3.302 -1.9045 -0.4979 -0.2428
 7913SOL    HW235376   0.989   4.193   3.435 -0.5514  0.3892  1.7096
 7914SOL     OW35377   0.841   2.112   7.385 -0.3105  0.2820  0.4529
 7914SOL    HW135378   0.922   2.069   7.357 -0.1356  0.8612  0.0628
 7914SOL    HW235379   0.857   2.190   7.331  3.1647 -1.5188 -1.1209
 7915SOL     OW35380   1.624   0.351   7.836  0.1103  0.4281 -0.2284
 7915SOL    HW135381   1.567   0.281   7.869 -2.7834  2.4907 -0.8686
 7915SOL    HW235382   1.680   0.362   7.913 -0.4834 -0.2335  0.3009
 7916SOL     OW35383   1.282   1.298   5.871 -0.4364 -0.9108  0.4733
 7916SOL    HW135384   1.243   1.314   5.957 -1.9214 -1.3578 -0.1136
 7916SOL    HW235385   1.308   1.386   5.844 -0.5644 -0.7903  0.7445
 7917SOL     OW35386   2.736   4.677   3.269 -0.1275 -0.3561 -1.2403
 7917SOL    HW135387   2.810   4.632   3.228 -0.7661 -0.7857 -1.9291
 7917SOL    HW235388   2.663   4.616   3.257 -0.1978 -0.1665 -1.7910
 7918SOL     OW35389   1.495   2.356   6.312  0.1052 -0.1555 -0.3723
 7918SOL    HW135390   1.442   2.301   6.254  1.4783 -1.9055  0.0092
 7918SOL    HW235391   1.524   2.303   6.386 -2.6749 -0.9567  0.1532
 7919SOL     OW35392   2.462   4.385   6.129  0.2350  0.3404  0.3432
 7919SOL    HW135393   2.486   4.429   6.211 -0.1348  0.8724  0.1737
 7919SOL    HW235394   2.524   4.428   6.071 -1.4493 -0.3232 -1.9597
 7920SOL     OW35395   0.201   3.685   2.477 -0.0052  0.4822 -0.3431
 7920SOL    HW135396   0.282   3.638   2.458  0.7957  2.1272 -1.0569
 7920SOL    HW235397   0.220   3.720   2.564  0.1545 -0.1944 -0.1062
 7921SOL     OW35398   3.652   0.852   7.842  0.1721 -0.2050 -0.2494
 7921SOL    HW135399   3.655   0.761   7.871 -1.0261  0.0852  0.8182
 7921SOL    HW235400   3.708   0.883   7.913  1.2694  0.6574 -1.4987
 7922SOL     OW35401   3.041   3.709   7.879  0.1792  0.2865 -0.0858
 7922SOL    HW135402   3.007   3.796   7.902  1.1518  1.1575 -1.9815
 7922SOL    HW235403   3.120   3.691   7.929 -1.0646 -1.4819  1.2675
 7923SOL     OW35404   4.263   4.728  15.063  0.0017  0.2671  0.3759
 7923SOL    HW135405   4.210   0.024  15.136  0.0826 -1.5361  1.2273
 7923SOL    HW235406   4.333   0.056  15.077  2.0496 -1.6310 -1.3156
 7924SOL     OW35407   1.847   3.287   5.565 -0.7187 -0.0675  0.2625
 7924SOL    HW135408   1.900   3.365   5.583  1.7510 -1.3412 -1.5949
 7924SOL    HW235409   1.782   3.302   5.634  0.0915 -0.5193  1.1205
 7925SOL     OW35410   3.225   3.646  11.120  0.2295 -0.4801  0.0172
 7925SOL    HW135411   3.259   3.560  11.144  2.8882  1.1599  2.0808
 7925SOL    HW235412   3.294   3.669  11.058  0.8820 -1.2481  0.4653
 7926SOL     OW35413   3.898   4.618  15.762 -0.6535 -0.9592 -0.2652
 7926SOL    HW135414   3.895   4.711  15.742  0.3194 -1.0823 -1.0290
 7926SOL    HW235415   3.831   4.603  15.828  0.9865  1.3686  1.9199
 7927SOL     OW35416   2.793   0.186   2.195 -0.1064  0.2292  0.0121
 7927SOL    HW135417   2.809   0.134   2.273 -1.9072  1.3283  1.1036
 7927SOL    HW235418   2.701   0.211   2.206 -0.1758  0.0692 -0.2054
 7928SOL     OW35419   2.740   0.506  16.457  0.4336  0.0490  0.3114
 7928SOL    HW135420   2.775   0.591  16.482  2.1665 -0.9170  1.2152
 7928SOL    HW235421   2.689   0.534  16.382  0.3760  1.3334  0.8286
 7929SOL     OW35422   2.046   3.679   8.263 -0.5028  0.4394 -0.4108
 7929SOL    HW135423   1.969   3.726   8.296 -1.1254 -1.3551  0.6890
 7929SOL    HW235424   2.035   3.716   8.175  1.1623  0.0266 -0.7874
 7930SOL     OW35425   0.580   4.277   2.445  0.2226 -0.1558  0.2744
 7930SOL    HW135426   0.625   4.361   2.438 -2.2040  1.3361  2.8899
 7930SOL    HW235427   0.623   4.224   2.377 -1.4935 -0.2368 -0.7550
 7931SOL     OW35428   0.341   0.887   4.730  0.6693  0.0797 -0.5483
 7931SOL    HW135429   0.328   0.876   4.824  0.9125  1.0384 -0.4089
 7931SOL    HW235430   0.321   0.796   4.707  1.1904 -0.3110  0.5447
 7932SOL     OW35431   1.522   2.483   9.717  0.8099  0.2083 -0.2208
 7932SOL    HW135432   1.459   2.552   9.735  0.8421  0.7912 -2.4176
 7932SOL    HW235433   1.475   2.406   9.750  0.9686  0.2822  0.1855
 7933SOL     OW35434   2.992   2.247   4.972 -0.6844 -0.3921 -0.2480
 7933SOL    HW135435   2.953   2.193   5.040  0.5853 -0.1357  0.6793
 7933SOL    HW235436   3.082   2.247   5.004  0.0736 -1.5820 -2.4045
 7934SOL     OW35437   2.632   0.624   6.481  0.6145  0.2337  0.2517
 7934SOL    HW135438   2.671   0.646   6.397 -0.3099 -1.4558 -0.6169
 7934SOL    HW235439   2.552   0.586   6.444  0.7328 -0.2244  0.4654
 7935SOL     OW35440   3.509   4.694   4.898 -0.2176  0.5280  0.4365
 7935SOL    HW135441   3.449   4.639   4.949  0.7601 -1.3344 -0.4160
 7935SOL    HW235442   3.519   4.632   4.825 -1.2027  2.0122 -0.9409
 7936SOL     OW35443   2.979   2.121   9.890  0.1189  0.2339 -0.3060
 7936SOL    HW135444   2.950   2.212   9.882 -0.1358  0.2696  0.9167
 7936SOL    HW235445   3.060   2.144   9.846  2.3991  0.5883  4.0225
 7937SOL     OW35446   4.449   1.820   9.889 -0.1760  0.1442  0.0217
 7937SOL    HW135447   4.485   1.741   9.930 -0.3006  0.5032  0.8234
 7937SOL    HW235448   4.392   1.787   9.820  0.0550 -1.2326  0.4791
 7938SOL     OW35449   1.964   3.190   5.365  0.8239  0.3007 -0.5478
 7938SOL    HW135450   2.019   3.171   5.440  0.6227  1.5507 -0.0917
 7938SOL    HW235451   1.899   3.233   5.421 -1.1800 -3.1789 -0.1527
 7939SOL     OW35452   1.821   2.242   5.806  0.2013 -0.1942  0.3378
 7939SOL    HW135453   1.911   2.257   5.780  0.2901 -0.9083  0.2266
 7939SOL    HW235454   1.781   2.249   5.719 -1.0826  0.3691  0.9678
 7940SOL     OW35455   1.393   3.651  10.401 -0.0789  0.6364  0.3388
 7940SOL    HW135456   1.482   3.630  10.430 -0.5903 -0.8403  0.8551
 7940SOL    HW235457   1.393   3.634  10.307 -0.8382  1.2924  0.2204
 7941SOL     OW35458   0.724   1.801  14.129  0.4036 -0.0290  0.5661
 7941SOL    HW135459   0.729   1.709  14.155  0.2267 -0.7352 -1.9215
 7941SOL    HW235460   0.656   1.803  14.062 -0.5159  2.2531  1.5710
 7942SOL     OW35461   2.950   3.279  14.333 -0.4796 -0.4499 -0.2066
 7942SOL    HW135462   2.961   3.259  14.240  1.9932  1.4529 -0.3515
 7942SOL    HW235463   2.992   3.199  14.365  0.2998 -0.4119 -1.1380
 7943SOL     OW35464   4.097   1.949  11.996  0.4569  0.4922 -0.4620
 7943SOL    HW135465   4.076   1.873  12.050  0.3761  1.5443  1.0015
 7943SOL    HW235466   4.035   2.014  12.031 -0.1523  0.0739 -0.7673
 7944SOL     OW35467   1.632   2.401  11.777  0.0321  0.7828  0.4401
 7944SOL    HW135468   1.591   2.323  11.739 -1.1023  1.4455  0.3331
 7944SOL    HW235469   1.713   2.402  11.725 -1.4550 -0.6279 -1.8989
 7945SOL     OW35470   1.840   2.783   2.639  0.2422 -0.4674  0.1918
 7945SOL    HW135471   1.909   2.836   2.600  0.9987 -1.1066  0.6818
 7945SOL    HW235472   1.777   2.797   2.568  0.0166  3.8221  1.2307
 7946SOL     OW35473   1.861   3.555   1.690 -0.2399 -0.4062  0.1913
 7946SOL    HW135474   1.792   3.497   1.723  0.0976  0.7179  2.9463
 7946SOL    HW235475   1.933   3.521   1.743  0.3343 -0.8062 -0.8535
 7947SOL     OW35476   0.536   2.995   1.936 -0.1322 -0.0658  0.1548
 7947SOL    HW135477   0.585   2.926   1.982  0.2153  0.1634  0.1273
 7947SOL    HW235478   0.470   3.010   2.004 -1.5699 -1.7518 -0.8511
 7948SOL     OW35479   2.572   1.737   3.104  0.0066  0.7170  0.1461
 7948SOL    HW135480   2.503   1.708   3.045  0.2112  0.4347  0.0500
 7948SOL    HW235481   2.541   1.827   3.119 -1.4390  0.2404  0.0044
 7949SOL     OW35482   1.143   4.030  12.727  0.6282 -0.1147  0.3696
 7949SOL    HW135483   1.219   4.022  12.670  1.5836 -0.2842  1.6817
 7949SOL    HW235484   1.179   3.995  12.808  1.0758  1.4546  0.8479
 7950SOL     OW35485   1.530   4.346   8.776  0.2734 -0.2289  0.1794
 7950SOL    HW135486   1.502   4.435   8.796 -1.1077 -0.4831 -0.6223
 7950SOL    HW235487   1.535   4.314   8.866  0.7214  1.5959  0.7904
 7951SOL     OW35488   0.628   3.512   7.401 -0.4917 -0.3417 -0.3846
 7951SOL    HW135489   0.600   3.554   7.482 -2.5308 -1.4214 -0.5230
 7951SOL    HW235490   0.702   3.564   7.370  0.5613 -0.8209  1.3347
 7952SOL     OW35491   4.688   0.188   6.022 -0.1602  0.6977 -0.5871
 7952SOL    HW135492   4.675   0.157   6.112 -1.0081 -2.4398 -1.8037
 7952SOL    HW235493   4.682   0.104   5.976  2.0288 -1.0024  2.2345
 7953SOL     OW35494   4.545   3.440   2.016  0.3171  0.2018  0.6297
 7953SOL    HW135495   4.575   3.531   2.022  0.3253  0.3345 -1.3210
 7953SOL    HW235496   4.492   3.438   2.096 -0.0524  0.5812  0.3970
 7954SOL     OW35497   2.827   1.108  12.244  0.3589  0.1184  0.0053
 7954SOL    HW135498   2.732   1.097  12.250  0.2711 -0.1258 -1.8652
 7954SOL    HW235499   2.831   1.203  12.235  0.2791  0.1636  0.4510
 7955SOL     OW35500   4.470   1.568   0.718  0.4553  0.0134  0.6031
 7955SOL    HW135501   4.497   1.622   0.792 -0.5569  2.3909 -0.7578
 7955SOL    HW235502   4.550   1.518   0.706 -0.6549 -0.8082 -3.2732
 7956SOL     OW35503   3.449   1.068   2.007 -0.0358  0.0415 -0.4336
 7956SOL    HW135504   3.511   0.997   1.988  0.5500  0.9369 -1.8961
 7956SOL    HW235505   3.422   1.081   1.916 -1.0481  0.8527 -0.0170
 7957SOL     OW35506   3.873   3.360   8.506  0.0555  0.0932  0.1046
 7957SOL    HW135507   3.889   3.454   8.512  0.4111  0.1331 -1.5738
 7957SOL    HW235508   3.793   3.355   8.558  0.0941  1.5396  0.2985
 7958SOL     OW35509   0.407   0.229   5.041 -0.3258 -0.2444 -0.4216
 7958SOL    HW135510   0.373   0.307   4.995  2.5121 -0.3996 -2.7582
 7958SOL    HW235511   0.370   0.248   5.127 -1.0779 -0.8508 -0.6154
 7959SOL     OW35512   3.636   1.994   0.407 -0.8098  0.2014 -0.1454
 7959SOL    HW135513   3.729   1.974   0.416 -1.0126 -0.5126  0.3261
 7959SOL    HW235514   3.593   1.912   0.432  2.2592 -1.6006 -0.8515
 7960SOL     OW35515   1.869   2.613  14.015  0.3813 -0.2341 -0.4366
 7960SOL    HW135516   1.777   2.638  14.010  1.2188  2.7105 -0.9007
 7960SOL    HW235517   1.871   2.547  14.085  2.4528  0.7410  0.4346
 7961SOL     OW35518   4.386   3.067   4.873  0.0455  0.0609 -0.0785
 7961SOL    HW135519   4.353   2.983   4.905  1.4281 -0.3151  0.3900
 7961SOL    HW235520   4.436   3.030   4.800 -0.2701 -2.0718  0.7836
 7962SOL     OW35521   2.538   1.578  11.377  0.5866  0.1921  0.0853
 7962SOL    HW135522   2.583   1.611  11.454 -0.6536 -0.7710  1.2106
 7962SOL    HW235523   2.609   1.588  11.314  0.9733 -1.2411  0.3085
 7963SOL     OW35524   2.346   1.967   0.011  0.0254  0.0110 -0.4171
 7963SOL    HW135525   2.429   1.924   0.032  0.7333  0.0339 -3.1198
 7963SOL    HW235526   2.376   2.056   0.031 -2.2717  0.3561  1.4690
 7964SOL     OW35527   2.360   2.312  13.499 -0.1045 -0.1181  0.0628
 7964SOL    HW135528   2.388   2.366  13.573 -1.9535 -2.8728  2.7929
 7964SOL    HW235529   2.287   2.366  13.467  0.7329  2.4739  2.5548
 7965SOL     OW35530   0.853   0.699   5.093  0.6499  0.2457  0.0956
 7965SOL    HW135531   0.814   0.707   5.180  0.4294  2.2822 -0.2062
 7965SOL    HW235532   0.921   0.766   5.100  1.0845 -0.3339  1.5133
 7966SOL     OW35533   3.707   1.222  11.100 -0.4523  0.4560  0.6724
 7966SOL    HW135534   3.793   1.189  11.124 -0.2717  0.0596 -0.5151
 7966SOL    HW235535   3.663   1.137  11.089  1.9431 -0.6469 -0.3329
 7967SOL     OW35536   4.695   4.567   9.029  0.9172  0.5240 -0.3452
 7967SOL    HW135537   4.601   4.555   9.040  1.1405  1.0205  1.9662
 7967SOL    HW235538   4.729   4.486   9.067  1.5653  1.1699  0.4572
 7968SOL     OW35539   1.020   4.367  17.573 -0.2004  0.5227  0.1875
 7968SOL    HW135540   0.959   4.300  17.604  0.1669 -1.4991 -3.3914
 7968SOL    HW235541   1.094   4.353  17.631 -0.7049 -1.2117  0.3999
 7969SOL     OW35542   2.955   2.597   3.701 -0.0101  0.0763  0.8265
 7969SOL    HW135543   2.918   2.615   3.788  1.7312  0.0737  1.5668
 7969SOL    HW235544   3.040   2.640   3.708 -0.3034  0.5467  1.5521
 7970SOL     OW35545   1.392   2.473  12.025 -0.6915 -0.5482  0.3962
 7970SOL    HW135546   1.456   2.402  12.013 -2.5161 -2.4171  1.7349
 7970SOL    HW235547   1.319   2.425  12.063  0.3996  0.0157  3.1513
 7971SOL     OW35548   3.089   2.231   3.897  0.0928 -0.5529 -0.4947
 7971SOL    HW135549   3.138   2.275   3.827 -2.3148  3.9944  0.6693
 7971SOL    HW235550   2.999   2.255   3.873  0.0890  1.1455  1.2764
 7972SOL     OW35551   0.882   1.070   4.126  0.0379 -0.7412  0.7345
 7972SOL    HW135552   0.925   1.015   4.060  0.0902 -0.2124  0.3304
 7972SOL    HW235553   0.936   1.070   4.205 -0.5889  0.9295  1.1660
 7973SOL     OW35554   3.283   2.642   9.632 -0.5771  0.4601  0.0476
 7973SOL    HW135555   3.342   2.604   9.697 -0.4047 -0.7526 -0.8147
 7973SOL    HW235556   3.214   2.661   9.695 -2.3380 -2.3650 -1.0054
 7974SOL     OW35557   3.634   1.850   5.350 -0.4778 -0.0881  0.6540
 7974SOL    HW135558   3.619   1.756   5.367  1.5952 -0.4482  0.4441
 7974SOL    HW235559   3.553   1.871   5.304 -1.1177 -0.0982  1.7746
 7975SOL     OW35560   1.183   3.973   4.535 -0.5398  0.4068  0.2978
 7975SOL    HW135561   1.170   4.019   4.452 -0.3398  0.7074  0.4334
 7975SOL    HW235562   1.201   3.886   4.501 -0.7798  0.5306 -0.1377
 7976SOL     OW35563   0.207   0.460   0.755 -0.4688  0.2605 -0.3952
 7976SOL    HW135564   0.285   0.514   0.770 -0.8112  0.9109 -0.9329
 7976SOL    HW235565   0.226   0.410   0.675  2.3689  1.8738 -0.7126
 7977SOL     OW35566   4.332   3.595   1.021  0.3807 -0.3958 -0.3161
 7977SOL    HW135567   4.322   3.523   1.083  0.0926  1.3188  1.6095
 7977SOL    HW235568   4.412   3.641   1.047  0.2370 -0.9896  1.1276
 7978SOL     OW35569   3.175   1.095  10.803  0.7646  0.7144  0.3864
 7978SOL    HW135570   3.109   1.042  10.757  2.1383 -0.6419 -0.0214
 7978SOL    HW235571   3.134   1.182  10.802  0.4613  0.5708 -0.1966
 7979SOL     OW35572   1.522   1.562   6.639 -0.4033  0.1833 -0.0581
 7979SOL    HW135573   1.535   1.470   6.619 -0.2864  0.5211 -1.5537
 7979SOL    HW235574   1.436   1.582   6.601 -0.5010 -0.2627 -0.0628
 7980SOL     OW35575   0.616   2.626   8.334  0.1639  0.1758  0.4259
 7980SOL    HW135576   0.571   2.542   8.335 -0.7177  0.6427 -0.7253
 7980SOL    HW235577   0.596   2.666   8.250 -4.7858 -0.4764  1.2755
 7981SOL     OW35578   3.489   2.772  11.835  0.0440  0.1528 -0.0880
 7981SOL    HW135579   3.446   2.852  11.865  0.1003  0.2710 -0.3166
 7981SOL    HW235580   3.571   2.786  11.883 -0.0351 -1.9774  0.6292
 7982SOL     OW35581   0.574   2.502  12.452 -0.0261 -0.4327  0.1007
 7982SOL    HW135582   0.661   2.462  12.462 -0.8689 -2.5636 -1.2848
 7982SOL    HW235583   0.527   2.420  12.466 -0.8638 -0.4167 -2.6169
 7983SOL     OW35584   2.627   1.438   8.497  0.5110  0.1219  0.8469
 7983SOL    HW135585   2.546   1.483   8.521  0.9160  1.9092 -1.1512
 7983SOL    HW235586   2.667   1.507   8.445 -1.5809  1.8607  1.5138
 7984SOL     OW35587   0.380   2.385   3.048  0.2500  1.0174 -0.0713
 7984SOL    HW135588   0.335   2.459   3.007  1.5423  1.5658 -0.4908
 7984SOL    HW235589   0.472   2.387   3.020  0.5895 -1.1126  0.8688
 7985SOL     OW35590   1.074   2.312   6.199  0.0917 -0.1878 -0.3680
 7985SOL    HW135591   1.090   2.387   6.141  2.3555 -1.0078 -0.8002
 7985SOL    HW235592   1.105   2.336   6.287  0.7290 -0.6014 -0.4861
 7986SOL     OW35593   4.390   4.541  13.070  0.2464  0.3900  0.3407
 7986SOL    HW135594   4.382   4.548  13.165  1.1658 -0.9788  0.5128
 7986SOL    HW235595   4.425   4.628  13.054  0.7975  0.3096  1.1191
 7987SOL     OW35596   1.868   2.978   8.082 -0.2727  0.1416 -0.0224
 7987SOL    HW135597   1.779   2.982   8.047 -0.4820  1.5919  0.7043
 7987SOL    HW235598   1.896   2.903   8.029  0.3993 -0.8911  1.7489
 7988SOL     OW35599   0.194   1.954   3.016 -0.0009  0.2597 -0.3147
 7988SOL    HW135600   0.115   1.964   2.963 -0.6567  0.3678  0.6909
 7988SOL    HW235601   0.247   1.897   2.960 -1.1961 -3.3266  2.1691
 7989SOL     OW35602   0.872   4.296  14.906  0.5395 -0.1284 -0.2179
 7989SOL    HW135603   0.909   4.216  14.944  2.0586  1.4223  1.5518
 7989SOL    HW235604   0.913   4.306  14.819  1.6675 -0.7964  0.2407
 7990SOL     OW35605   2.004   3.584   2.420  0.0810 -0.3800  0.1360
 7990SOL    HW135606   2.019   3.663   2.368  2.1851 -1.2683 -0.6216
 7990SOL    HW235607   2.000   3.633   2.502  0.2165  2.1921 -1.4104
 7991SOL     OW35608   4.235   2.300   1.062  0.0214 -0.2657 -0.0097
 7991SOL    HW135609   4.237   2.392   1.088 -1.2222 -0.6452  1.4178
 7991SOL    HW235610   4.142   2.288   1.039 -0.3730  1.1695  0.8435
 7992SOL     OW35611   3.894   4.049  16.067  0.2433 -0.2525 -0.1844
 7992SOL    HW135612   3.965   3.986  16.056  1.1426  0.7321  0.0696
 7992SOL    HW235613   3.938   4.132  16.050 -0.4202 -0.1975 -1.6435
 7993SOL     OW35614   1.164   2.569  14.008 -0.2411 -0.0571 -0.3035
 7993SOL    HW135615   1.132   2.483  14.036  1.3859 -0.8402 -0.8247
 7993SOL    HW235616   1.100   2.591  13.941  0.6235 -0.0627 -1.1370
 7994SOL     OW35617   3.355   2.916   6.245  0.3610  0.4540 -0.5613
 7994SOL    HW135618   3.295   2.874   6.184  0.4823  1.9606 -1.7380
 7994SOL    HW235619   3.427   2.854   6.237  0.1572  0.1239  0.1413
 7995SOL     OW35620   1.814   0.766   2.728  0.0241  0.0148 -0.0304
 7995SOL    HW135621   1.797   0.679   2.764  0.0663 -0.0468 -0.1582
 7995SOL    HW235622   1.848   0.745   2.641 -2.4520  0.4543 -1.1064
 7996SOL     OW35623   1.633   0.412  13.302  0.3326 -0.4718  0.0037
 7996SOL    HW135624   1.694   0.482  13.326 -0.5812 -0.2194  1.5766
 7996SOL    HW235625   1.550   0.453  13.326 -0.0252 -0.2175 -1.6268
 7997SOL     OW35626   3.918   3.605   5.638  0.2124 -0.1251 -0.4345
 7997SOL    HW135627   3.921   3.509   5.630  0.9818 -0.2388  1.1920
 7997SOL    HW235628   3.996   3.622   5.692 -1.4796  0.6647  1.7497
 7998SOL     OW35629   3.914   1.657  16.051  0.2958  0.4681  0.2688
 7998SOL    HW135630   3.931   1.638  15.959  0.2595 -0.8386  0.5243
 7998SOL    HW235631   3.994   1.697  16.086 -1.4444  1.7010  2.8556
 7999SOL     OW35632   1.411   3.871   5.599  0.3692  0.1091 -0.1245
 7999SOL    HW135633   1.354   3.808   5.642 -1.4685  0.6162 -1.8312
 7999SOL    HW235634   1.496   3.826   5.602 -0.2439 -0.9018  1.6879
 8000SOL     OW35635   0.791   1.214  16.407 -0.0423 -0.0172  0.0686
 8000SOL    HW135636   0.797   1.125  16.443 -0.2545 -1.1290 -2.6497
 8000SOL    HW235637   0.824   1.205  16.317 -0.7558 -2.6009  0.0602
 8001SOL     OW35638   3.811   0.283   5.187 -0.4862 -0.1286 -0.4192
 8001SOL    HW135639   3.792   0.252   5.276  2.0526 -2.1446 -0.5662
 8001SOL    HW235640   3.780   0.373   5.189 -1.5270 -0.4865 -0.6142
 8002SOL     OW35641   4.243   1.114   8.548 -0.0032  0.4956  0.4260
 8002SOL    HW135642   4.277   1.088   8.633 -1.9349 -1.0168  0.7444
 8002SOL    HW235643   4.149   1.130   8.559  0.0324  0.9498  0.0596
 8003SOL     OW35644   1.424   0.504  10.866  0.4528  0.1888  0.4149
 8003SOL    HW135645   1.437   0.494  10.772  1.2084  0.0373  0.5370
 8003SOL    HW235646   1.512   0.509  10.905  1.6289 -1.1830 -2.0648
 8004SOL     OW35647   3.757   1.251   7.690  0.0380 -0.0984  0.1739
 8004SOL    HW135648   3.689   1.283   7.750  1.0945  2.0779  0.2163
 8004SOL    HW235649   3.718   1.239   7.603 -4.7467 -0.6509  2.4088
 8005SOL     OW35650   0.714   1.258   5.818 -0.0345 -0.4277 -0.7945
 8005SOL    HW135651   0.808   1.246   5.819 -0.1595 -1.2701  0.7952
 8005SOL    HW235652   0.677   1.172   5.838 -1.8642  0.5079 -0.0758
 8006SOL     OW35653   3.288   2.801   4.369 -0.2348 -0.6932  0.0351
 8006SOL    HW135654   3.218   2.739   4.390 -0.3719  0.0565  1.7620
 8006SOL    HW235655   3.358   2.753   4.414  0.5087  0.1542 -0.2163
 8007SOL     OW35656   0.774   2.526   6.873  0.8601 -0.6302  0.3550
 8007SOL    HW135657   0.765   2.437   6.839  0.9696  0.1217 -1.6770
 8007SOL    HW235658   0.736   2.584   6.807 -0.5791 -0.4597  1.3545
 8008SOL     OW35659   2.022   4.381   7.722 -0.1934  0.2134 -0.3152
 8008SOL    HW135660   2.098   4.366   7.778 -1.0272 -1.6172  0.3381
 8008SOL    HW235661   2.061   4.347   7.642  2.5231 -0.4906  1.2993
 8009SOL     OW35662   4.049   2.692   4.017  0.4037  0.1353  0.3404
 8009SOL    HW135663   4.017   2.604   3.995 -0.9805  0.4576  1.1215
 8009SOL    HW235664   3.964   2.735   4.016  0.6881  0.6747 -0.5959
 8010SOL     OW35665   4.037   2.930  15.222 -0.1808  0.1341 -0.5042
 8010SOL    HW135666   4.039   2.992  15.150 -0.9627  0.5533 -0.1610
 8010SOL    HW235667   4.121   2.934  15.267 -0.3228  0.2763 -0.2491
 8011SOL     OW35668   1.824   2.440  11.431  0.3479  0.0963 -0.0903
 8011SOL    HW135669   1.738   2.479  11.446  0.4445  1.1814 -2.4199
 8011SOL    HW235670   1.825   2.443  11.335  1.8619  0.3517 -0.0610
 8012SOL     OW35671   3.057   2.904  12.636  1.1207 -0.4150 -0.0664
 8012SOL    HW135672   3.138   2.944  12.666  1.1716  0.8177 -1.8920
 8012SOL    HW235673   2.995   2.944  12.697  0.4230  0.2977 -1.2486
 8013SOL     OW35674   1.755   0.596  15.029 -0.6644  0.5481  0.4784
 8013SOL    HW135675   1.757   0.682  14.986 -0.6211  0.6537  0.6907
 8013SOL    HW235676   1.828   0.551  14.987  0.0479  1.4971  0.7024
 8014SOL     OW35677   0.926   1.947  15.909 -0.3588  0.1848 -0.0727
 8014SOL    HW135678   0.844   1.929  15.862  0.1400  0.5073 -1.0590
 8014SOL    HW235679   0.973   1.978  15.831 -0.4709  1.3299  0.3131
 8015SOL     OW35680   0.974   2.929   3.709 -0.3244  0.7639  0.1115
 8015SOL    HW135681   1.052   2.951   3.760  0.4231 -1.1431 -0.2422
 8015SOL    HW235682   0.964   2.836   3.728 -0.4276  0.5497 -1.0266
 8016SOL     OW35683   4.593   3.368   8.462  0.0321 -0.5437  0.5803
 8016SOL    HW135684   4.646   3.347   8.539 -0.9059 -2.1909  0.7818
 8016SOL    HW235685   4.566   3.286   8.421  1.0518 -0.4131 -0.3378
 8017SOL     OW35686   4.690   2.760   8.715 -1.0761 -0.3161 -0.0732
 8017SOL    HW135687   0.030   2.710   8.745 -1.9711 -1.1349  0.8309
 8017SOL    HW235688   4.645   2.773   8.798 -1.7922  4.1766 -1.1812
 8018SOL     OW35689   4.222   1.000   4.273 -0.1930 -0.0792 -0.2893
 8018SOL    HW135690   4.276   1.077   4.292  0.0851 -0.1525 -0.7822
 8018SOL    HW235691   4.144   1.047   4.241  0.0754  1.3536  1.1600
 8019SOL     OW35692   3.962   3.954  17.244  0.4750 -0.5612 -0.0788
 8019SOL    HW135693   3.985   3.926  17.156 -0.0881  1.2027 -0.7868
 8019SOL    HW235694   4.046   3.943  17.290 -1.0890 -4.3869  1.8444
 8020SOL     OW35695   3.114   1.683   9.854 -0.2139  0.1711  0.2328
 8020SOL    HW135696   3.087   1.657   9.766 -0.9248  0.5848  0.3320
 8020SOL    HW235697   3.209   1.690   9.840 -0.0700 -2.2031  0.0496
 8021SOL     OW35698   2.200   0.140  12.105 -0.2531 -0.2536  0.3710
 8021SOL    HW135699   2.268   0.075  12.084 -0.5288 -0.2552 -0.4764
 8021SOL    HW235700   2.119   0.093  12.123 -0.8347  0.6909  0.1551
 8022SOL     OW35701   1.182   0.351  11.399  0.3699  0.3902  0.0425
 8022SOL    HW135702   1.111   0.415  11.406 -0.5422 -0.6177 -0.0216
 8022SOL    HW235703   1.159   0.295  11.325  0.4059 -1.2695  1.2985
 8023SOL     OW35704   2.414   2.161   2.507  0.2240  0.4087 -0.2087
 8023SOL    HW135705   2.384   2.127   2.591  2.7421  1.8434  1.2660
 8023SOL    HW235706   2.502   2.123   2.507  0.2578  0.4845 -0.0432
 8024SOL     OW35707   3.155   2.440   4.548 -0.8586  0.3715  0.4262
 8024SOL    HW135708   3.178   2.479   4.633 -1.2038  0.8959  0.2827
 8024SOL    HW235709   3.079   2.387   4.572  0.7407 -2.3898 -0.6665
 8025SOL     OW35710   4.621   1.593  17.045 -0.3783  0.0833  0.7159
 8025SOL    HW135711   4.527   1.607  17.038 -0.5686 -0.7082  1.6194
 8025SOL    HW235712   4.653   1.672  17.002 -2.6938  0.1905 -0.7976
 8026SOL     OW35713   1.516   4.514   8.345  0.3234 -0.0284  0.9885
 8026SOL    HW135714   1.455   4.456   8.300  0.4491  1.4589 -1.0737
 8026SOL    HW235715   1.547   4.449   8.409 -3.1508 -1.0305  1.6336
 8027SOL     OW35716   0.841   1.925   0.102 -0.6276 -0.5051 -0.0772
 8027SOL    HW135717   0.910   1.967   0.153  0.2075 -0.9058 -0.8659
 8027SOL    HW235718   0.764   1.947   0.154 -0.8818  0.6724 -0.9414
 8028SOL     OW35719   1.147   1.442  17.634  0.9378 -0.1464  0.2020
 8028SOL    HW135720   1.131   1.395  17.716  0.6391 -1.9288 -0.8798
 8028SOL    HW235721   1.060   1.480  17.623  2.1965  2.6615 -0.0588
 8029SOL     OW35722   1.927   2.413   5.054  0.2397  0.3349  0.0375
 8029SOL    HW135723   1.876   2.469   5.112 -0.9600  0.3175 -0.9980
 8029SOL    HW235724   1.866   2.339   5.060  0.2428  0.2808 -0.6110
 8030SOL     OW35725   0.171   2.721   6.168  0.1354 -0.3209 -0.1217
 8030SOL    HW135726   0.251   2.697   6.216  0.4526  1.1538  0.0927
 8030SOL    HW235727   0.121   2.640   6.161 -0.6881  0.0828  1.1398
 8031SOL     OW35728   4.289   1.302   0.071  0.1646  0.3414  0.7769
 8031SOL    HW135729   4.344   1.226   0.090  0.9064 -0.0228 -2.9245
 8031SOL    HW235730   4.216   1.264   0.120 -1.1753  0.9181 -0.7779
 8032SOL     OW35731   0.605   2.273   2.615  0.0396 -0.2107 -0.8157
 8032SOL    HW135732   0.559   2.212   2.557 -0.5692 -0.3366 -0.2045
 8032SOL    HW235733   0.690   2.277   2.572  0.7365 -0.1830  0.5663
 8033SOL     OW35734   0.656   1.902   9.273 -0.4680 -0.1778  0.2889
 8033SOL    HW135735   0.702   1.965   9.329  1.0783 -0.0674 -1.0918
 8033SOL    HW235736   0.710   1.908   9.194 -0.6214 -0.7810  0.1387
 8034SOL     OW35737   2.168   0.633   5.431  0.0585 -0.3576  0.0110
 8034SOL    HW135738   2.193   0.581   5.507  1.8072  2.5457  1.4436
 8034SOL    HW235739   2.226   0.603   5.361  0.1056  2.6039 -1.2160
 8035SOL     OW35740   4.231   3.880   0.405 -0.3312 -0.0787  0.7063
 8035SOL    HW135741   4.232   3.847   0.495 -0.3923  0.5440  0.9307
 8035SOL    HW235742   4.211   3.799   0.357  0.4146  0.2900 -0.2269
 8036SOL     OW35743   4.021   4.412  11.851 -0.4432 -0.2776  0.6595
 8036SOL    HW135744   4.059   4.339  11.900 -0.3747  0.0586  1.1020
 8036SOL    HW235745   3.941   4.432  11.900 -1.0289 -0.4139 -0.2223
 8037SOL     OW35746   2.821   1.259   4.858 -0.1417 -0.1496 -0.4090
 8037SOL    HW135747   2.801   1.325   4.791  0.3379  1.6352  1.2156
 8037SOL    HW235748   2.912   1.237   4.838  0.5998  3.4633 -1.1188
 8038SOL     OW35749   2.255   3.966   8.321  0.0944 -0.1330  0.5097
 8038SOL    HW135750   2.304   3.886   8.301  2.4316  1.3230  0.3054
 8038SOL    HW235751   2.280   3.988   8.410  1.5271  1.4055 -0.2570
 8039SOL     OW35752   3.068   1.599  13.406 -0.2053 -0.2046 -0.0877
 8039SOL    HW135753   3.041   1.530  13.466  0.1790  0.1573  0.5010
 8039SOL    HW235754   2.991   1.620  13.352 -0.5491  0.3350  0.6140
 8040SOL     OW35755   2.570   3.908  13.257 -0.5743  0.2161 -0.4622
 8040SOL    HW135756   2.603   3.990  13.293 -1.5834  0.1496  0.5976
 8040SOL    HW235757   2.635   3.845  13.288 -1.9870 -1.3935 -0.7413
 8041SOL     OW35758   1.113   4.527   0.334 -0.0759  0.6798  0.6047
 8041SOL    HW135759   1.059   4.606   0.325 -0.7706  0.2989  1.4025
 8041SOL    HW235760   1.162   4.533   0.253 -0.2691 -0.9876  0.3669
 8042SOL     OW35761   4.023   2.161   1.775  0.0020 -0.6389  0.7232
 8042SOL    HW135762   3.934   2.186   1.801  0.2902  0.9002  0.2464
 8042SOL    HW235763   4.010   2.071   1.745  0.3914 -0.7707  0.9585
 8043SOL     OW35764   0.456   3.670   0.345 -0.2198  0.2196 -0.3775
 8043SOL    HW135765   0.429   3.639   0.259  0.5617 -2.6483  0.4199
 8043SOL    HW235766   0.437   3.589   0.392 -0.1343  0.8664  0.7598
 8044SOL     OW35767   4.402   0.397   3.840 -0.0840  0.4300  0.2597
 8044SOL    HW135768   4.324   0.440   3.804  0.7289  1.2621 -0.4916
 8044SOL    HW235769   4.437   0.361   3.758 -0.9758 -2.7841  1.2823
 8045SOL     OW35770   0.221   3.371   6.404 -0.4206  0.1667 -0.0343
 8045SOL    HW135771   0.277   3.303   6.366 -2.9677 -1.1573 -1.4357
 8045SOL    HW235772   0.286   3.440   6.419  0.9044 -1.2156  0.5794
 8046SOL     OW35773   1.525   1.036   8.882  0.1722 -0.0913  0.3825
 8046SOL    HW135774   1.483   0.950   8.874  1.5773 -0.9504  2.1168
 8046SOL    HW235775   1.490   1.078   8.804  1.3127  1.1427  0.5336
 8047SOL     OW35776   1.240   4.205   5.066 -0.3439 -0.0655 -0.3336
 8047SOL    HW135777   1.319   4.249   5.098  0.9948 -0.2880 -3.3787
 8047SOL    HW235778   1.271   4.159   4.988  0.2386 -0.7078  0.2716
 8048SOL     OW35779   4.685   2.090  16.241  0.0903  0.1794  0.5554
 8048SOL    HW135780   4.700   2.013  16.296 -2.5810 -0.5835  0.1929
 8048SOL    HW235781   4.621   2.061  16.176  0.6165  2.2385 -0.8718
 8049SOL     OW35782   3.254   1.696  17.717 -0.5572 -0.0532  0.0288
 8049SOL    HW135783   3.330   1.699   0.032  0.8879 -1.4421 -1.7413
 8049SOL    HW235784   3.261   1.783  17.679 -0.4514 -0.6118 -1.2558
 8050SOL     OW35785   1.087   4.403  14.203  0.1194  0.1111 -0.0233
 8050SOL    HW135786   1.146   4.417  14.277 -0.4474 -0.1810  0.4773
 8050SOL    HW235787   1.061   4.311  14.207  2.1556 -0.5416 -1.7009
 8051SOL     OW35788   3.053   0.973  12.337  0.1156 -0.3645 -0.4163
 8051SOL    HW135789   2.962   0.995  12.317  0.9015  2.5747 -0.8345
 8051SOL    HW235790   3.075   1.049  12.392 -1.8574  0.4308 -0.7156
 8052SOL     OW35791   1.435   0.140   4.520  0.6611 -0.1543  0.2023
 8052SOL    HW135792   1.425   0.111   4.611  0.4627  2.2028  0.9163
 8052SOL    HW235793   1.342   0.147   4.497  0.3478 -0.9499  1.2119
 8053SOL     OW35794   2.122   1.949   6.668  0.8541 -0.2872 -0.1025
 8053SOL    HW135795   2.176   1.967   6.591 -1.4014  0.4980 -1.5095
 8053SOL    HW235796   2.194   1.938   6.731  0.9380  2.5327  0.2684
 8054SOL     OW35797   2.514   0.905   3.645  0.0522  0.9853 -0.2006
 8054SOL    HW135798   2.430   0.874   3.678 -1.5821  2.3955 -3.0860
 8054SOL    HW235799   2.561   0.822   3.635 -0.9653  0.3217  0.5706
 8055SOL     OW35800   4.267   3.163   6.553 -0.1899 -0.3284 -0.5775
 8055SOL    HW135801   4.171   3.160   6.558 -0.1047 -0.7229  0.6971
 8055SOL    HW235802   4.278   3.255   6.579 -1.1991 -0.7267  1.2932
 8056SOL     OW35803   1.241   0.939   4.282  0.7521  0.1085 -0.0111
 8056SOL    HW135804   1.330   0.950   4.248 -0.3078 -0.0866 -2.9022
 8056SOL    HW235805   1.209   0.853   4.252  1.0885  0.1005 -0.3457
 8057SOL     OW35806   1.375   2.548   8.959 -0.1647 -0.0576 -0.2816
 8057SOL    HW135807   1.411   2.632   8.934 -1.1940  0.7179  0.8424
 8057SOL    HW235808   1.295   2.573   9.006 -0.7472 -1.9265 -0.2558
 8058SOL     OW35809   1.472   2.595  15.216 -0.0046 -0.1103 -0.2972
 8058SOL    HW135810   1.508   2.683  15.211  1.6984 -0.8297 -0.9013
 8058SOL    HW235811   1.379   2.599  15.194  0.1980  1.5637 -0.8078
 8059SOL     OW35812   1.829   2.205   6.780  0.1242  0.2328 -0.5831
 8059SOL    HW135813   1.848   2.166   6.694  0.5554 -1.4179  0.2466
 8059SOL    HW235814   1.802   2.124   6.824 -4.5130  1.6869 -0.7522
 8060SOL     OW35815   2.786   3.893   1.930  0.2035  0.3674  0.3505
 8060SOL    HW135816   2.831   3.931   1.854  0.2337  1.1927  0.7824
 8060SOL    HW235817   2.747   3.813   1.894  3.2377 -0.6229 -0.8259
 8061SOL     OW35818   1.217   2.433   8.053  0.8143  0.2666 -0.0213
 8061SOL    HW135819   1.234   2.413   7.961  0.0469 -0.5861  0.0243
 8061SOL    HW235820   1.218   2.343   8.085  3.7112  0.2403 -0.1388
 8062SOL     OW35821   4.058   2.336   2.029  0.0192  0.0528  0.0532
 8062SOL    HW135822   4.066   2.403   1.961 -0.1141 -0.6864 -0.7030
 8062SOL    HW235823   4.001   2.263   2.003 -0.6143  0.7937 -0.6578
 8063SOL     OW35824   3.205   2.805   8.510  0.2675  0.0512  0.3235
 8063SOL    HW135825   3.259   2.868   8.557  3.5349 -2.9937  0.6388
 8063SOL    HW235826   3.171   2.754   8.583  0.3744 -0.1614  0.2232
 8064SOL     OW35827   3.482   1.981   3.160  0.3546  0.6222  0.4163
 8064SOL    HW135828   3.454   2.038   3.088  0.7375 -0.9348 -0.9673
 8064SOL    HW235829   3.410   1.987   3.223 -0.7789  2.1184 -1.0014
 8065SOL     OW35830   3.736   0.850   1.513 -0.2671  0.8832 -0.0090
 8065SOL    HW135831   3.722   0.773   1.569 -2.5280 -0.1969 -2.0035
 8065SOL    HW235832   3.649   0.872   1.479 -0.5849  1.1070  0.9613
 8066SOL     OW35833   1.505   1.530   5.410  0.0614 -0.1535 -0.1469
 8066SOL    HW135834   1.450   1.608   5.418  0.8158  0.3637 -0.0386
 8066SOL    HW235835   1.492   1.499   5.321  3.3151  0.2197 -0.7339
 8067SOL     OW35836   1.367   2.018   7.466 -0.4992  0.6554  0.2071
 8067SOL    HW135837   1.398   1.945   7.412  1.8362  0.7137  1.4746
 8067SOL    HW235838   1.439   2.018   7.529 -1.5236 -0.8535  1.3530
 8068SOL     OW35839   0.071   3.988  11.844 -0.8155 -0.4775 -0.2682
 8068SOL    HW135840   0.114   3.917  11.892  0.1317  1.1181  1.1867
 8068SOL    HW235841   0.001   3.952  11.789 -0.1100  0.3566 -1.7027
 8069SOL     OW35842   3.690   0.440  15.566  0.0669 -0.1005  0.1510
 8069SOL    HW135843   3.679   0.379  15.639  0.7422 -0.6428 -0.1991
 8069SOL    HW235844   3.616   0.500  15.566  0.0603 -0.1090  1.2205
 8070SOL     OW35845   1.435   2.538   7.741  0.0380  0.2908 -0.0033
 8070SOL    HW135846   1.497   2.555   7.670 -1.4550 -2.5424 -1.9741
 8070SOL    HW235847   1.357   2.527   7.687 -1.2451  2.5090  1.3938
 8071SOL     OW35848   1.056   1.794  16.112  0.6026 -0.4033 -0.0481
 8071SOL    HW135849   1.046   1.723  16.048  1.9169 -0.7995  0.1945
 8071SOL    HW235850   1.029   1.859  16.046 -0.5503 -0.0987  0.7168
 8072SOL     OW35851   1.999   1.914   9.364  0.0874  0.0177 -0.2794
 8072SOL    HW135852   2.009   1.960   9.281 -0.4234  0.3320 -0.1586
 8072SOL    HW235853   1.910   1.944   9.383  0.1179 -0.6951  1.0144
 8073SOL     OW35854   2.981   2.555  11.924  0.2043  0.1458 -0.0046
 8073SOL    HW135855   3.016   2.481  11.972  1.7700  0.7963 -0.1450
 8073SOL    HW235856   2.908   2.584  11.979  0.7897  0.5111  0.5735
 8074SOL     OW35857   3.155   4.731   7.530 -0.9391 -0.3788 -0.0151
 8074SOL    HW135858   3.184   0.084   7.510 -2.0522 -0.2602 -1.0420
 8074SOL    HW235859   3.060   0.003   7.531 -0.7243  2.3031 -0.4481
 8075SOL     OW35860   3.887   1.844  12.948  0.5417  0.1433  0.3522
 8075SOL    HW135861   3.936   1.914  12.905 -0.1540 -0.9987 -2.3517
 8075SOL    HW235862   3.954   1.776  12.943 -0.3734 -0.6548 -1.4313
 8076SOL     OW35863   1.046   0.186   5.224 -0.0852 -0.2054  0.1536
 8076SOL    HW135864   0.982   0.201   5.293 -2.5574 -0.1832 -2.1536
 8076SOL    HW235865   1.003   0.143   5.150  0.8817  3.6460 -2.6110
 8077SOL     OW35866   1.118   3.245   7.829  0.0496 -0.0815 -0.3119
 8077SOL    HW135867   1.172   3.209   7.758 -1.3131  0.7935 -1.7697
 8077SOL    HW235868   1.060   3.171   7.846  2.5004 -2.2770 -1.3662
 8078SOL     OW35869   3.810   0.337   2.502 -0.6121  0.2335 -0.2513
 8078SOL    HW135870   3.773   0.385   2.428  4.1961  1.4033 -1.9088
 8078SOL    HW235871   3.733   0.321   2.556  0.4503 -0.9749  0.9036
 8079SOL     OW35872   0.683   3.434   4.205 -0.1032  0.0378 -0.3287
 8079SOL    HW135873   0.707   3.458   4.116 -0.1084 -0.6830 -0.5168
 8079SOL    HW235874   0.682   3.341   4.187  0.9273  0.2511 -1.4933
 8080SOL     OW35875   0.803   2.028   3.995 -0.2195  0.0906  0.2270
 8080SOL    HW135876   0.747   2.103   4.019  0.4575  1.1985 -1.6929
 8080SOL    HW235877   0.733   1.963   4.007 -1.1283  1.2825  1.4763
 8081SOL     OW35878   2.576   0.155   6.704  0.2028  0.2156 -0.0605
 8081SOL    HW135879   2.585   0.086   6.638 -1.0357 -1.8903  1.9673
 8081SOL    HW235880   2.499   0.137   6.757 -0.2548  0.4411 -0.6526
 8082SOL     OW35881   0.889   2.845   7.351 -0.1114  0.1201  0.2989
 8082SOL    HW135882   0.862   2.929   7.314 -0.3449  0.3986  1.1137
 8082SOL    HW235883   0.831   2.793   7.296 -0.5144  1.6808 -0.7469
 8083SOL     OW35884   1.994   4.588   4.364 -0.1744 -0.0227  0.1623
 8083SOL    HW135885   1.924   4.525   4.381  1.5453 -2.0885 -0.2167
 8083SOL    HW235886   1.943   4.652   4.315 -0.3950  0.7324  1.3870
 8084SOL     OW35887   1.828   3.433   2.074  0.5705 -0.0932 -0.0977
 8084SOL    HW135888   1.889   3.399   2.008 -0.8948 -1.4570 -0.7459
 8084SOL    HW235889   1.847   3.525   2.052  2.7486 -0.1432  1.6221
 8085SOL     OW35890   4.474   1.318   6.241  0.2703 -0.2883  0.8158
 8085SOL    HW135891   4.534   1.267   6.294  1.7207 -0.1564 -0.6856
 8085SOL    HW235892   4.523   1.400   6.236  0.3017 -0.1776  2.9398
 8086SOL     OW35893   2.870   1.573   7.630 -0.5032 -0.2024 -0.3726
 8086SOL    HW135894   2.913   1.509   7.574 -1.8576 -0.0471 -1.5919
 8086SOL    HW235895   2.890   1.661   7.598  0.5871 -0.2028  0.3077
 8087SOL     OW35896   1.909   3.873   5.293  0.0115  0.8952  0.1658
 8087SOL    HW135897   1.839   3.932   5.322 -0.0844  0.8378  0.0498
 8087SOL    HW235898   1.913   3.810   5.365 -0.0312  0.1537 -0.4820
 8088SOL     OW35899   2.791   0.635   7.573 -0.5791 -0.5612 -0.4274
 8088SOL    HW135900   2.793   0.729   7.593 -1.8010 -0.6871  0.2683
 8088SOL    HW235901   2.843   0.635   7.492  0.0944 -1.7835  0.0152
 8089SOL     OW35902   0.977   4.552   7.381  0.3354 -0.8266 -0.6557
 8089SOL    HW135903   1.056   4.606   7.391 -0.1123 -0.4534  0.9417
 8089SOL    HW235904   0.936   4.600   7.310 -0.1374 -0.2193  0.0252
 8090SOL     OW35905   2.798   3.062   4.948  0.0535  0.1229 -0.3716
 8090SOL    HW135906   2.838   3.115   4.879  2.8842 -0.4305  0.8378
 8090SOL    HW235907   2.872   3.073   5.008 -0.9000 -1.2363  1.0645
 8091SOL     OW35908   0.256   2.510   5.525  0.1170  0.5308  0.4868
 8091SOL    HW135909   0.204   2.432   5.543  3.2325 -1.6756  0.0347
 8091SOL    HW235910   0.301   2.479   5.447  0.1029  0.5215  0.4824
 8092SOL     OW35911   0.690   0.152   6.779  0.2510 -0.1369  0.6035
 8092SOL    HW135912   0.772   0.113   6.748 -0.0804  1.6975 -2.4731
 8092SOL    HW235913   0.709   0.182   6.868 -3.4142 -1.2237  1.7622
 8093SOL     OW35914   3.396   1.115   9.680 -0.1718 -0.1558  0.1232
 8093SOL    HW135915   3.320   1.074   9.722 -0.2897 -0.8360 -0.7516
 8093SOL    HW235916   3.383   1.201   9.719  1.7232  0.2153 -0.0584
 8094SOL     OW35917   3.536   4.536   9.246  0.6233  0.1108 -0.5833
 8094SOL    HW135918   3.485   4.605   9.204  0.5325  0.5818  0.2988
 8094SOL    HW235919   3.480   4.459   9.244  0.5347  0.1908 -1.0624
 8095SOL     OW35920   0.985   3.970   1.701 -0.0898 -0.3700 -0.3235
 8095SOL    HW135921   0.962   3.879   1.720 -2.0056  0.1092 -0.4208
 8095SOL    HW235922   0.978   4.016   1.785  0.6815  0.8362 -0.9223
 8096SOL     OW35923   1.730   0.226  14.678  0.0392 -0.0580  0.5043
 8096SOL    HW135924   1.650   0.184  14.648  0.3046 -0.6549  0.6391
 8096SOL    HW235925   1.685   0.292  14.731  0.2564  1.2856 -1.0104
 8097SOL     OW35926   3.568   2.039   5.688 -0.0486  0.2241 -0.1768
 8097SOL    HW135927   3.501   2.044   5.620  0.4686  1.0473 -0.6380
 8097SOL    HW235928   3.563   1.944   5.699  0.6541  0.5192  2.8365
 8098SOL     OW35929   0.990   0.962   3.316  0.1832  0.3671 -0.0986
 8098SOL    HW135930   1.063   0.947   3.257  0.3922  0.4246  0.1475
 8098SOL    HW235931   1.024   0.931   3.400 -2.4057  0.6622  1.0692
 8099SOL     OW35932   2.128   2.258   6.254 -0.0472  0.3895  0.1590
 8099SOL    HW135933   2.218   2.287   6.238 -1.3398  2.9238 -2.4594
 8099SOL    HW235934   2.084   2.342   6.262 -1.6333 -0.2418 -1.9044
 8100SOL     OW35935   4.312   2.089   9.238 -0.1003  0.0080  0.0386
 8100SOL    HW135936   4.334   2.064   9.148 -0.3320 -2.3156  0.6147
 8100SOL    HW235937   4.353   2.016   9.285  1.6134 -1.6729 -3.9873
 8101SOL     OW35938   0.650   0.391   7.500 -0.3904 -0.6137 -0.4741
 8101SOL    HW135939   0.622   0.302   7.521 -0.6694 -0.1633  1.0664
 8101SOL    HW235940   0.586   0.415   7.434  0.6985 -0.1336 -1.3650
 8102SOL     OW35941   1.399   3.151   2.468 -0.0781  0.1269  0.3492
 8102SOL    HW135942   1.388   3.185   2.557 -1.3851  1.1791 -0.2122
 8102SOL    HW235943   1.334   3.081   2.459  2.0545 -1.9335  0.8977
 8103SOL     OW35944   1.207   1.914  12.991 -0.1778 -0.2814 -0.5667
 8103SOL    HW135945   1.211   1.944  12.901  0.9107  1.0124 -0.0872
 8103SOL    HW235946   1.211   1.819  12.981 -2.5859 -0.6501  1.9992
 8104SOL     OW35947   3.719   1.818   7.412  0.3357  0.1732  0.2811
 8104SOL    HW135948   3.733   1.800   7.505  0.6332  0.7549  0.3527
 8104SOL    HW235949   3.764   1.903   7.411 -2.3124  1.5821  1.3907
 8105SOL     OW35950   1.042   3.533   5.601  0.2902 -0.1678 -0.2670
 8105SOL    HW135951   1.001   3.457   5.642 -0.5756  1.0991  1.2039
 8105SOL    HW235952   0.996   3.539   5.517 -0.3018 -3.5590 -0.1734
 8106SOL     OW35953   2.155   4.006  11.763 -0.0479  0.0317  0.2806
 8106SOL    HW135954   2.127   4.076  11.704  1.2472  0.4794  0.1984
 8106SOL    HW235955   2.075   3.953  11.770  0.2098 -0.3045  0.6681
 8107SOL     OW35956   1.983   4.713   5.737  0.4402 -0.5979 -0.1564
 8107SOL    HW135957   2.041   0.027   5.679 -0.9498  1.9970  0.7039
 8107SOL    HW235958   1.995   4.621   5.712  0.1007 -0.2335 -1.6401
 8108SOL     OW35959   0.175   2.689   3.131  0.4786  0.2569 -0.0389
 8108SOL    HW135960   0.090   2.707   3.091  0.4212  0.3143  0.1109
 8108SOL    HW235961   0.182   2.770   3.181  0.5117 -0.8877  1.7796
 8109SOL     OW35962   2.032   2.458   3.615  0.7883  0.1008  0.0548
 8109SOL    HW135963   1.949   2.418   3.592  1.2030  1.9992 -4.8670
 8109SOL    HW235964   2.085   2.388   3.654  1.7563  1.4082  1.0986
 8110SOL     OW35965   0.082   3.723   8.156  0.4147 -0.2218  0.1236
 8110SOL    HW135966   0.138   3.799   8.143  1.0942 -0.5883  0.9265
 8110SOL    HW235967   0.138   3.662   8.204  0.9160 -0.4481 -0.7540
 8111SOL     OW35968   1.965   3.834   4.125  0.0037  0.1881  0.2291
 8111SOL    HW135969   1.901   3.796   4.184  2.9130 -1.9660  2.0020
 8111SOL    HW235970   1.948   3.790   4.041 -0.1636 -0.7837  0.7771
 8112SOL     OW35971   2.288   0.512  12.786  0.3908 -0.1314  0.2886
 8112SOL    HW135972   2.243   0.468  12.714 -0.4402 -2.5879  2.3413
 8112SOL    HW235973   2.276   0.462  12.867  0.6413 -1.6300 -0.6010
 8113SOL     OW35974   2.351   4.358   4.486  0.4401 -0.5479 -0.2791
 8113SOL    HW135975   2.268   4.310   4.472 -0.5145  0.3406  2.3537
 8113SOL    HW235976   2.347   4.354   4.581 -2.6189 -1.2845 -0.4189
 8114SOL     OW35977   0.715   3.184   1.815  0.0605  0.4229 -0.1348
 8114SOL    HW135978   0.793   3.131   1.798 -0.4001 -0.8319  1.7064
 8114SOL    HW235979   0.652   3.121   1.849  0.0090 -0.2890 -1.5766
 8115SOL     OW35980   3.073   3.282   7.297 -0.0951 -0.1462  0.2155
 8115SOL    HW135981   3.097   3.204   7.348  1.1260  0.5898  0.7650
 8115SOL    HW235982   2.988   3.301   7.337 -1.0050  2.0258 -2.7619
 8116SOL     OW35983   4.351   4.155   3.718 -0.1816  0.5377  0.0420
 8116SOL    HW135984   4.406   4.207   3.659  0.8833 -1.5837 -0.8276
 8116SOL    HW235985   4.357   4.204   3.800  2.0759 -2.0483  1.4484
 8117SOL     OW35986   4.296   2.443   7.249 -0.1242 -0.1836  0.1263
 8117SOL    HW135987   4.319   2.486   7.166  0.0407  1.9930  1.2936
 8117SOL    HW235988   4.302   2.350   7.228 -1.4672  0.2194 -2.1135
 8118SOL     OW35989   4.097   3.848  16.925  0.5825 -0.5556  0.2387
 8118SOL    HW135990   4.097   3.756  16.949 -0.4833 -0.5091  0.4031
 8118SOL    HW235991   4.191   3.844  16.909  0.5710  1.8696 -0.5369
 8119SOL     OW35992   0.579   4.528   7.644 -0.4862  0.7278  0.1434
 8119SOL    HW135993   0.559   4.532   7.551  0.3848  1.5418 -0.0195
 8119SOL    HW235994   0.656   4.585   7.658  1.0367 -1.0108 -1.1512
 8120SOL     OW35995   4.209   2.799   9.610  0.0684 -0.0848  0.0868
 8120SOL    HW135996   4.236   2.890   9.595  1.8167 -0.6691 -0.2746
 8120SOL    HW235997   4.141   2.818   9.675 -1.7721  0.2857 -1.9691
 8121SOL     OW35998   0.272   0.830   5.390  0.0727 -0.0666  0.3235
 8121SOL    HW135999   0.186   0.795   5.415  1.4336 -2.5659  1.4134
 8121SOL    HW236000   0.325   0.800   5.463 -0.9508 -1.3525  0.5300
 8122SOL     OW36001   3.502   0.795   9.618 -0.5749 -0.6400 -0.5019
 8122SOL    HW136002   3.562   0.857   9.659  0.7752 -2.4245  0.2579
 8122SOL    HW236003   3.438   0.795   9.689  1.5177 -0.2699  1.3844
 8123SOL     OW36004   3.700   2.730   8.973  0.5071  0.0467 -0.6788
 8123SOL    HW136005   3.776   2.724   8.915  0.4539  0.6975 -0.8173
 8123SOL    HW236006   3.654   2.656   8.934  0.5230 -0.7404  0.8316
 8124SOL     OW36007   1.795   4.632   8.642 -0.2489  0.3286 -0.0016
 8124SOL    HW136008   1.836   4.563   8.694  1.8810  0.3759 -1.5897
 8124SOL    HW236009   1.875   4.662   8.599  0.6819  1.8835  2.8168
 8125SOL     OW36010   2.303   0.454   6.961  0.1347  1.0075 -0.1822
 8125SOL    HW136011   2.208   0.447   6.954  0.2379  0.4234 -1.1435
 8125SOL    HW236012   2.337   0.438   6.873 -1.5075  1.5698 -0.9248
 8126SOL     OW36013   1.444   3.353   7.580 -0.1234 -0.1308 -0.5446
 8126SOL    HW136014   1.450   3.286   7.512  1.6198 -1.0391  0.5022
 8126SOL    HW236015   1.431   3.292   7.653  0.0226 -1.0060 -1.2465
 8127SOL     OW36016   4.371   4.378  13.360  1.0283 -0.1173 -0.5395
 8127SOL    HW136017   4.423   4.430  13.421  3.2107 -0.8615 -1.7596
 8127SOL    HW236018   4.425   4.299  13.354  1.3268  0.0652 -0.2480
 8128SOL     OW36019   1.113   1.788  10.231 -0.3075  0.2289 -0.5139
 8128SOL    HW136020   1.165   1.857  10.273 -0.6121  1.2391 -1.7782
 8128SOL    HW236021   1.028   1.824  10.255 -0.2551  1.0929 -1.5603
 8129SOL     OW36022   1.825   1.053  15.518 -0.2067  0.3313 -0.3470
 8129SOL    HW136023   1.820   1.144  15.547  2.2299 -0.1292  1.4734
 8129SOL    HW236024   1.917   1.031  15.531 -0.0522  0.9824 -0.3557
 8130SOL     OW36025   2.577   2.357  17.336 -0.6080  0.1004  0.3096
 8130SOL    HW136026   2.501   2.299  17.328  0.1550 -1.1076  1.7750
 8130SOL    HW236027   2.631   2.325  17.409 -0.6259  0.1788  0.3571
 8131SOL     OW36028   4.599   3.754   8.724 -0.0995  0.1215 -0.7827
 8131SOL    HW136029   4.641   3.815   8.663  0.6744  1.1863  0.8092
 8131SOL    HW236030   4.635   3.673   8.688 -1.2583 -0.6760 -0.1284
 8132SOL     OW36031   0.143   1.431   5.815  0.0082 -0.7636  0.0719
 8132SOL    HW136032   0.142   1.393   5.727 -4.7931 -1.3055  0.3316
 8132SOL    HW236033   0.052   1.406   5.834  0.4264  0.9979  4.4394
 8133SOL     OW36034   4.620   1.575  10.216  0.3803  0.0054  0.3778
 8133SOL    HW136035   4.539   1.534  10.247  0.1139 -0.2901 -0.7109
 8133SOL    HW236036   4.626   1.652  10.273  0.4546 -0.0156  0.3983
 8134SOL     OW36037   4.303   1.124   3.477  0.1347 -0.1000 -0.2480
 8134SOL    HW136038   4.265   1.048   3.433 -0.8203  0.6656 -0.7392
 8134SOL    HW236039   4.230   1.180   3.503  0.5971  0.1422  0.5309
 8135SOL     OW36040   0.659   2.643   2.629  0.2276  0.3913  0.2104
 8135SOL    HW136041   0.704   2.559   2.628 -1.2802 -0.3991 -2.7318
 8135SOL    HW236042   0.671   2.667   2.721  0.2897  1.3640 -0.0462
 8136SOL     OW36043   3.787   0.054   6.194  0.1001 -0.3960 -0.3967
 8136SOL    HW136044   3.697   0.068   6.162 -0.0195 -0.0375  0.1050
 8136SOL    HW236045   3.775   4.707   6.239 -1.0325  0.6366  1.1872
 8137SOL     OW36046   0.596   0.174  10.374  0.1067  0.7789  0.0967
 8137SOL    HW136047   0.550   0.255  10.353 -0.1608  0.1507 -1.7207
 8137SOL    HW236048   0.544   0.121  10.435 -1.2290  1.4743 -0.4453
 8138SOL     OW36049   3.589   4.440  13.697 -0.6770 -0.5141 -0.2414
 8138SOL    HW136050   3.493   4.447  13.692 -0.7129  0.2780  1.6874
 8138SOL    HW236051   3.622   4.530  13.699 -1.9866  0.0444 -2.6786
 8139SOL     OW36052   3.225   3.022  10.801 -0.1057 -0.3231 -0.4273
 8139SOL    HW136053   3.167   3.096  10.816  0.8586  0.6581 -1.5361
 8139SOL    HW236054   3.197   2.951  10.860 -1.2028 -0.2494 -0.8739
 8140SOL     OW36055   1.969   0.837   5.452  0.7239 -0.4364  0.2072
 8140SOL    HW136056   2.018   0.762   5.418  0.8949 -0.2027 -0.0646
 8140SOL    HW236057   1.977   0.888   5.371 -1.4889  0.7757  0.7488
 8141SOL     OW36058   1.863   0.853   4.619 -0.2763  0.4318  0.1525
 8141SOL    HW136059   1.918   0.781   4.590  0.5660  0.5929  1.3290
 8141SOL    HW236060   1.800   0.834   4.550 -1.0613 -2.2291  1.6010
 8142SOL     OW36061   4.520   3.797  14.389 -0.1159  0.4829 -0.0057
 8142SOL    HW136062   4.444   3.743  14.410 -0.4687  0.9085 -0.1982
 8142SOL    HW236063   4.518   3.861  14.461  1.7426 -1.2264  1.5600
 8143SOL     OW36064   1.976   2.319  15.511 -0.0560  0.0286 -0.0991
 8143SOL    HW136065   1.977   2.380  15.438  1.4185  0.9930  0.7200
 8143SOL    HW236066   2.041   2.259  15.473  2.0385  2.1493  0.1693
 8144SOL     OW36067   3.517   2.120  16.127  0.0334  0.1625  0.2868
 8144SOL    HW136068   3.423   2.122  16.148 -0.0456 -0.8902  0.0260
 8144SOL    HW236069   3.521   2.192  16.063 -0.3720  2.4852  2.8645
 8145SOL     OW36070   0.419   3.736   3.369  0.7681 -0.1532  0.8131
 8145SOL    HW136071   0.465   3.808   3.325 -0.2233 -0.2445 -0.3642
 8145SOL    HW236072   0.328   3.748   3.340  0.3687 -1.3923  1.5620
 8146SOL     OW36073   4.103   1.148  11.936  0.4385  0.0231 -0.9759
 8146SOL    HW136074   4.154   1.196  11.870 -0.2557  1.0653 -0.7669
 8146SOL    HW236075   4.066   1.086  11.874  0.3545 -0.2025 -0.6987
 8147SOL     OW36076   1.035   2.751   9.709  0.7986  0.2446  0.0239
 8147SOL    HW136077   0.960   2.692   9.714 -0.8469  2.4789  1.4564
 8147SOL    HW236078   1.073   2.749   9.796 -0.7360  2.0009  0.7425
 8148SOL     OW36079   2.616   2.367   8.704  0.2674  0.7236 -0.0880
 8148SOL    HW136080   2.550   2.429   8.673  0.1232  0.2727 -0.6868
 8148SOL    HW236081   2.658   2.334   8.624  0.2516  1.9210 -0.5951
 8149SOL     OW36082   3.475   1.731   0.128  0.1453 -0.1651  0.4321
 8149SOL    HW136083   3.562   1.725   0.087  0.1355  4.3757 -0.1954
 8149SOL    HW236084   3.493   1.734   0.222  0.3176  0.1879  0.3892
 8150SOL     OW36085   0.138   4.230   3.512 -0.5759 -0.0274 -0.6183
 8150SOL    HW136086   0.196   4.176   3.565 -0.4778  0.9808  0.3084
 8150SOL    HW236087   0.131   4.307   3.569 -0.4015  1.5649 -2.7506
 8151SOL     OW36088   3.870   0.642  13.324  0.6509  0.3277 -0.0992
 8151SOL    HW136089   3.927   0.697  13.377  0.5061 -0.7921  1.2127
 8151SOL    HW236090   3.898   0.552  13.341  0.0807  0.1862  0.0840
 8152SOL     OW36091   2.821   0.354   3.939 -0.1612  0.4011 -0.4454
 8152SOL    HW136092   2.784   0.269   3.963  0.5917 -0.0732 -0.9705
 8152SOL    HW236093   2.820   0.351   3.844 -1.3006  0.7212 -0.4470
 8153SOL     OW36094   3.132   2.854  10.995 -0.0735  0.6142  0.4502
 8153SOL    HW136095   3.190   2.855  11.071  1.6436 -1.3141 -0.8126
 8153SOL    HW236096   3.102   2.763  10.991 -0.0886  0.6877 -1.3064
 8154SOL     OW36097   4.457   2.914   8.010 -0.0757 -0.0611  0.1584
 8154SOL    HW136098   4.535   2.949   7.967 -1.4674  1.6918 -0.9503
 8154SOL    HW236099   4.493   2.899   8.097 -0.3562  1.0211  0.4631
 8155SOL     OW36100   2.116   4.482  15.504 -0.0638  0.0380  0.3062
 8155SOL    HW136101   2.063   4.429  15.444  1.2187 -1.5708  0.6071
 8155SOL    HW236102   2.164   4.549  15.456  1.3668 -2.0527 -1.1627
 8156SOL     OW36103   1.218   0.040   9.297  0.2785  0.5443 -0.3270
 8156SOL    HW136104   1.258   0.127   9.293  1.7579 -0.1653 -0.9254
 8156SOL    HW236105   1.254   4.733   9.220  0.8077  0.6519 -0.1402
 8157SOL     OW36106   3.801   1.439  10.951  0.7117  0.0760 -0.3232
 8157SOL    HW136107   3.894   1.415  10.948  0.6992  0.2124 -1.7411
 8157SOL    HW236108   3.771   1.377  11.017  1.9342 -0.8550 -0.6401
 8158SOL     OW36109   3.113   2.167   1.527  0.5587  0.4938 -0.1270
 8158SOL    HW136110   3.123   2.236   1.592 -0.1290 -0.2616  0.7678
 8158SOL    HW236111   3.191   2.114   1.539 -1.2714 -1.8559  1.2245
 8159SOL     OW36112   2.443   3.663   0.837  0.0873  1.0376  0.4255
 8159SOL    HW136113   2.454   3.638   0.745  1.0195  0.2389  0.7644
 8159SOL    HW236114   2.448   3.584   0.891 -1.5211  1.0310  0.5673
 8160SOL     OW36115   3.081   0.828  13.651 -0.9475  0.0571 -0.0174
 8160SOL    HW136116   3.095   0.875  13.734  1.2796  0.5532 -0.6664
 8160SOL    HW236117   3.116   0.742  13.675  0.9622  0.3718 -1.7471
 8161SOL     OW36118   1.910   3.863  11.734  0.6118  0.4059  0.2378
 8161SOL    HW136119   1.859   3.783  11.736 -1.0063  1.4470  0.3576
 8161SOL    HW236120   1.893   3.888  11.643  1.8119  1.7467  0.3649
 8162SOL     OW36121   2.774   0.924   7.586 -0.5168 -0.3269 -0.1568
 8162SOL    HW136122   2.811   1.011   7.574  0.0264 -0.4099  1.0093
 8162SOL    HW236123   2.693   0.940   7.537 -0.0663 -0.5702 -0.9969
 8163SOL     OW36124   2.684   0.303   8.112  0.5680 -0.2883 -0.0261
 8163SOL    HW136125   2.619   0.371   8.131 -0.0814 -0.4583 -1.6599
 8163SOL    HW236126   2.683   0.301   8.016  0.0672  0.0219 -0.0264
 8164SOL     OW36127   2.539   3.591   3.077 -0.2876  0.0978 -0.3278
 8164SOL    HW136128   2.588   3.511   3.058 -0.0590 -0.0663  0.9706
 8164SOL    HW236129   2.600   3.661   3.054  2.7358 -1.7153  2.2356
 8165SOL     OW36130   2.387   4.268   1.724 -0.1480 -0.1438  0.4054
 8165SOL    HW136131   2.346   4.209   1.787 -2.9172  0.6747 -0.6250
 8165SOL    HW236132   2.417   4.343   1.775 -0.1663  0.0092  0.1945
 8166SOL     OW36133   3.919   2.009   6.424  0.2416 -1.0605 -0.2696
 8166SOL    HW136134   3.947   2.095   6.454 -1.8216 -0.7089  0.6587
 8166SOL    HW236135   3.946   2.016   6.333  1.7488 -2.1556  0.0899
 8167SOL     OW36136   3.755   3.201   8.335 -0.1916 -0.2349  0.3304
 8167SOL    HW136137   3.799   3.260   8.397  0.8779  0.1644 -0.8224
 8167SOL    HW236138   3.825   3.164   8.281 -0.6038  0.5439 -0.7138
 8168SOL     OW36139   1.791   3.282   3.215 -0.4824  0.3033 -0.3725
 8168SOL    HW136140   1.759   3.356   3.267 -1.1573  0.5314 -1.1079
 8168SOL    HW236141   1.885   3.296   3.221 -0.3748  0.4930 -2.5845
 8169SOL     OW36142   2.568   0.249   3.467 -0.0588 -1.1206 -0.2624
 8169SOL    HW136143   2.495   0.223   3.411 -0.9720 -1.3411  1.0254
 8169SOL    HW236144   2.640   0.238   3.405 -0.6135 -2.3601 -0.6921
 8170SOL     OW36145   3.468   2.592   8.731 -0.7891 -0.0966 -0.5823
 8170SOL    HW136146   3.499   2.561   8.646  0.0365  1.8054 -0.9731
 8170SOL    HW236147   3.379   2.558   8.735 -0.2946 -1.4182 -0.8320
 8171SOL     OW36148   4.666   2.145   3.339  0.3455 -0.9201 -0.1415
 8171SOL    HW136149   4.691   2.067   3.388 -0.9462 -0.2520  1.5883
 8171SOL    HW236150   0.006   2.202   3.348  0.0255 -0.9066  2.4409
 8172SOL     OW36151   0.849   1.266   0.077  0.3667 -0.4607 -0.1356
 8172SOL    HW136152   0.836   1.183   0.032 -2.0255 -0.5657  0.7504
 8172SOL    HW236153   0.837   1.328   0.005  0.5185  0.9132  1.0106
 8173SOL     OW36154   0.538   0.500   7.730 -0.1787  0.2674  0.2929
 8173SOL    HW136155   0.552   0.478   7.638 -0.1816 -0.7830  0.5368
 8173SOL    HW236156   0.589   0.439   7.783 -1.2467  0.4882  1.5873
 8174SOL     OW36157   0.523   2.137   3.704  0.0975 -0.3479  0.6937
 8174SOL    HW136158   0.529   2.093   3.619 -0.1969 -1.0317  1.0308
 8174SOL    HW236159   0.498   2.067   3.763 -1.9845 -0.1604  0.0096
 8175SOL     OW36160   3.679   2.437   9.732 -0.1105  0.1409  0.6171
 8175SOL    HW136161   3.774   2.442   9.741 -0.0355  0.6552 -0.4177
 8175SOL    HW236162   3.665   2.377   9.805 -0.7937 -0.1107  0.2838
 8176SOL     OW36163   0.373   1.144  10.498  0.9360 -0.7202 -0.2726
 8176SOL    HW136164   0.362   1.114  10.408 -0.5299 -0.3550 -0.2181
 8176SOL    HW236165   0.404   1.234  10.485  1.4194 -1.0753 -1.6351
 8177SOL     OW36166   3.074   3.757   4.907  0.1693 -0.1436  0.1724
 8177SOL    HW136167   3.031   3.719   4.830  1.6465  0.2144 -0.8423
 8177SOL    HW236168   3.160   3.720   4.884  0.0439  0.2623 -0.9192
 8178SOL     OW36169   4.431   3.561   1.572 -0.5849 -0.8708 -0.0196
 8178SOL    HW136170   4.429   3.647   1.613 -0.6365  0.1810 -2.2120
 8178SOL    HW236171   4.480   3.512   1.639 -0.6781 -1.7250 -0.5718
 8179SOL     OW36172   1.163   4.371   0.078  0.1772  0.2069  0.2696
 8179SOL    HW136173   1.093   4.329   0.129  0.8371 -0.1145  0.9167
 8179SOL    HW236174   1.240   4.341   0.126  1.6399  3.4055 -0.1352
 8180SOL     OW36175   3.650   0.107   8.260  0.0493 -0.1057  0.5781
 8180SOL    HW136176   3.593   0.158   8.318  0.6401  1.1213  0.0639
 8180SOL    HW236177   3.705   0.057   8.320 -0.4921  1.4224  2.3234
 8181SOL     OW36178   1.858   2.049   6.567  0.3954  0.2012 -0.1912
 8181SOL    HW136179   1.889   2.041   6.477 -0.0114 -1.4630 -0.1816
 8181SOL    HW236180   1.909   1.985   6.616  1.3442  1.0032 -0.1505
 8182SOL     OW36181   0.752   4.237   6.880  0.1590 -0.3058 -0.1242
 8182SOL    HW136182   0.738   4.306   6.945 -1.4997  0.3917 -1.2159
 8182SOL    HW236183   0.837   4.199   6.902  0.6991  1.7182  1.2725
 8183SOL     OW36184   1.671   4.015   7.481  0.4847  0.1249  0.0508
 8183SOL    HW136185   1.747   4.040   7.534 -0.9421  1.5072  1.4444
 8183SOL    HW236186   1.613   4.084   7.511 -1.6866 -1.4867 -0.4136
 8184SOL     OW36187   0.798   2.170   8.050 -0.2753  0.1204  0.5533
 8184SOL    HW136188   0.831   2.252   8.086 -0.5886 -0.3422  1.8687
 8184SOL    HW236189   0.778   2.128   8.133  0.9981  1.2430  1.4267
 8185SOL     OW36190   2.198   1.216   1.686  0.1258 -0.3190 -0.2520
 8185SOL    HW136191   2.230   1.213   1.776 -0.1572 -1.6551 -0.1981
 8185SOL    HW236192   2.110   1.252   1.696  0.0552 -0.4565 -0.3826
 8186SOL     OW36193   2.811   1.923   6.032  0.2561  0.0170  0.6734
 8186SOL    HW136194   2.796   1.877   6.115 -1.5175 -1.5052 -0.4841
 8186SOL    HW236195   2.895   1.884   6.007 -0.2225 -0.5623 -0.0450
 8187SOL     OW36196   1.427   2.241  12.267 -0.3017 -0.0041 -0.2069
 8187SOL    HW136197   1.483   2.245  12.189  0.8933 -0.3724  0.6225
 8187SOL    HW236198   1.391   2.329  12.281 -0.8239 -0.5336  1.7562
 8188SOL     OW36199   3.822   2.454   5.262  0.0672 -0.4061  0.3129
 8188SOL    HW136200   3.745   2.455   5.318  1.4130 -2.1468  2.1791
 8188SOL    HW236201   3.839   2.545   5.238  0.3285 -0.7461 -0.8410
 8189SOL     OW36202   1.237   3.871  13.492 -0.3563  0.6172  0.0696
 8189SOL    HW136203   1.196   3.839  13.411  1.1158 -1.6520  0.2247
 8189SOL    HW236204   1.169   3.857  13.558 -1.5483 -0.7592 -1.4671
 8190SOL     OW36205   3.705   1.723  14.474  0.0081  0.5365 -0.1269
 8190SOL    HW136206   3.760   1.653  14.509  0.3110  0.5972 -0.4687
 8190SOL    HW236207   3.647   1.748  14.546 -0.0011 -0.4758  0.2142
 8191SOL     OW36208   3.123   3.348  10.287 -0.0649 -0.0363  0.2670
 8191SOL    HW136209   3.155   3.258  10.281  2.4811  0.8143  1.2311
 8191SOL    HW236210   3.053   3.350  10.222 -1.4434 -0.9313  1.7215
 8192SOL     OW36211   3.702   3.100   3.883  0.1251  0.4157 -0.1732
 8192SOL    HW136212   3.682   3.162   3.813  1.7060  2.6730  1.3550
 8192SOL    HW236213   3.638   3.127   3.950  0.7645  0.0522  0.5829
 8193SOL     OW36214   3.308   3.294   7.164  0.3754  0.0500 -0.8626
 8193SOL    HW136215   3.351   3.354   7.225  1.6878 -1.2195 -0.5305
 8193SOL    HW236216   3.232   3.273   7.219 -0.7564  1.9460 -1.7243
 8194SOL     OW36217   0.791   1.374  14.092 -0.2508 -0.4114  0.0422
 8194SOL    HW136218   0.760   1.287  14.115 -0.7720 -0.9433 -2.7805
 8194SOL    HW236219   0.852   1.345  14.024 -1.4337  0.2549 -1.2864
 8195SOL     OW36220   0.640   2.673   5.362 -0.2730 -0.3649 -0.7020
 8195SOL    HW136221   0.577   2.742   5.342  0.4232  0.9667  1.7922
 8195SOL    HW236222   0.628   2.615   5.287 -1.7224 -0.3245 -0.4925
 8196SOL     OW36223   0.287   0.643   4.611  0.5299  0.8082  0.2096
 8196SOL    HW136224   0.252   0.678   4.529 -0.8897 -0.7647  0.1406
 8196SOL    HW236225   0.207   0.613   4.653  0.5800  3.2920  2.0236
 8197SOL     OW36226   4.403   3.078   7.147  0.0994  0.0989  0.3517
 8197SOL    HW136227   4.352   3.023   7.087 -1.9283 -1.0105  3.0575
 8197SOL    HW236228   4.348   3.065   7.224  0.4121 -0.4671  0.4766
 8198SOL     OW36229   3.783   1.172  11.443  0.2491  0.2205 -0.0100
 8198SOL    HW136230   3.812   1.263  11.453  0.1694  0.2814 -0.3259
 8198SOL    HW236231   3.837   1.135  11.373  1.7627  0.6899  0.9055
 8199SOL     OW36232   2.698   0.729   8.768 -0.0931  0.1700  0.5235
 8199SOL    HW136233   2.622   0.734   8.710 -0.2421  2.8647  0.9523
 8199SOL    HW236234   2.659   0.712   8.854  0.2310 -1.6583  0.3022
 8200SOL     OW36235   0.101   4.258   7.504 -0.7413 -0.1521  0.5432
 8200SOL    HW136236   0.137   4.173   7.531 -1.6889 -0.7500 -0.0612
 8200SOL    HW236237   0.144   4.311   7.571 -0.3198  0.0227  0.1274
 8201SOL     OW36238   0.135   2.378   1.660  0.1922 -0.1645 -0.3931
 8201SOL    HW136239   0.077   2.419   1.596  0.6851 -0.5315 -1.0799
 8201SOL    HW236240   0.106   2.431   1.735 -1.2928 -1.1098 -0.3003
 8202SOL     OW36241   1.015   3.079  13.389  0.3371  0.2384  0.2851
 8202SOL    HW136242   1.028   3.015  13.459  1.9244 -1.3572 -1.4804
 8202SOL    HW236243   1.090   3.075  13.330 -0.5728 -1.1344 -0.7850
 8203SOL     OW36244   0.385   3.779   4.771  0.3309  0.7090 -0.1402
 8203SOL    HW136245   0.333   3.700   4.782 -1.4554  1.8387 -0.4596
 8203SOL    HW236246   0.359   3.818   4.687  0.2200  0.3295 -0.2808
 8204SOL     OW36247   2.170   4.474  16.281 -0.2301  0.0244 -0.4613
 8204SOL    HW136248   2.114   4.488  16.357  3.0586  1.8947  1.6364
 8204SOL    HW236249   2.110   4.451  16.211  1.0684 -2.9050 -0.6035
 8205SOL     OW36250   3.924   2.957  12.997  0.5967  0.1635 -0.4406
 8205SOL    HW136251   3.909   2.982  13.088  1.9558 -2.0845  0.4099
 8205SOL    HW236252   3.881   3.034  12.959 -1.5315 -0.7477  0.1467
 8206SOL     OW36253   2.831   4.067   0.382  0.6164  0.6495  0.3301
 8206SOL    HW136254   2.839   4.101   0.472  2.3353 -2.9326  1.5484
 8206SOL    HW236255   2.913   4.017   0.374 -0.3084 -1.5177  4.2345
 8207SOL     OW36256   2.147   3.650   1.390 -0.2738 -0.5990 -0.5094
 8207SOL    HW136257   2.207   3.649   1.315  1.2296  0.7448  0.6557
 8207SOL    HW236258   2.186   3.724   1.437 -0.8824  1.0501 -2.6621
 8208SOL     OW36259   3.256   2.695   6.497  0.1014 -0.0979  0.0523
 8208SOL    HW136260   3.209   2.647   6.565  2.1654 -0.2729  1.3610
 8208SOL    HW236261   3.277   2.628   6.432 -1.6965 -1.1234  0.5282
 8209SOL     OW36262   0.133   1.322  14.577 -0.0701  0.8058  0.0935
 8209SOL    HW136263   0.116   1.280  14.662 -0.1206 -0.7904 -0.7173
 8209SOL    HW236264   0.078   1.397  14.598 -0.9464 -0.2487  1.6295
 8210SOL     OW36265   3.525   0.896   3.244  0.3703 -0.1737  0.2308
 8210SOL    HW136266   3.531   0.934   3.156  0.4941  0.2123  0.4047
 8210SOL    HW236267   3.603   0.840   3.242  1.5794  1.5465 -1.4630
 8211SOL     OW36268   4.450   3.636  16.121 -0.2974 -0.2902  1.1030
 8211SOL    HW136269   4.391   3.709  16.139 -2.0065 -1.3436 -0.2104
 8211SOL    HW236270   4.478   3.609  16.208 -0.1906 -2.0300  0.5357
 8212SOL     OW36271   0.792   4.707  12.164 -0.5009 -0.0307  0.1302
 8212SOL    HW136272   0.886   4.725  12.151 -0.1196 -1.6647  0.7147
 8212SOL    HW236273   0.767   0.050  12.211  1.3704  0.4439  0.3399
 8213SOL     OW36274   3.367   3.998   1.441  0.0107  0.0783  0.4423
 8213SOL    HW136275   3.385   4.084   1.479 -2.2708 -0.0110  1.7624
 8213SOL    HW236276   3.437   4.001   1.377 -0.3586 -3.0478 -0.1095
 8214SOL     OW36277   1.701   3.092   9.404  0.3015 -0.3083  0.8453
 8214SOL    HW136278   1.691   3.040   9.483  0.4711 -0.7546  0.5707
 8214SOL    HW236279   1.786   3.060   9.373  0.4484 -0.0936  1.0248
 8215SOL     OW36280   0.660   3.115  14.342 -0.4149 -0.0842 -0.1520
 8215SOL    HW136281   0.747   3.078  14.359 -0.1724  1.4064  1.9161
 8215SOL    HW236282   0.673   3.149  14.254  0.1800  0.6452  0.2191
 8216SOL     OW36283   3.817   4.310   1.579 -0.8552 -0.3993 -0.0762
 8216SOL    HW136284   3.815   4.344   1.669 -0.5305 -0.8639  0.1057
 8216SOL    HW236285   3.876   4.368   1.531 -0.6663 -0.8772 -0.4134
 8217SOL     OW36286   3.136   0.814   3.125 -0.2345 -0.5306  0.0361
 8217SOL    HW136287   3.049   0.807   3.086 -0.4983  0.4956  0.4258
 8217SOL    HW236288   3.130   0.908   3.142  1.2926 -0.4721  0.2043
 8218SOL     OW36289   0.724   3.855   1.946  0.4862  0.1979 -0.5927
 8218SOL    HW136290   0.671   3.854   1.866  0.5443  0.3294 -0.6328
 8218SOL    HW236291   0.675   3.781   1.982  2.7607 -2.5584 -3.2026
 8219SOL     OW36292   3.996   2.956  11.164 -0.2797 -0.5915 -0.2206
 8219SOL    HW136293   3.997   2.889  11.232 -0.9144 -0.2636  0.1159
 8219SOL    HW236294   4.028   3.021  11.227 -0.3718 -0.6099 -0.1542
 8220SOL     OW36295   3.375   0.274   5.967 -0.1753 -0.0701 -0.1080
 8220SOL    HW136296   3.376   0.365   5.938  0.7612 -0.2769 -0.7415
 8220SOL    HW236297   3.309   0.266   6.036  0.2522 -2.6692 -0.0049
 8221SOL     OW36298   3.559   1.989  14.979 -0.2198 -1.7087  0.1474
 8221SOL    HW136299   3.559   2.004  14.884 -0.4669 -1.9323  0.1143
 8221SOL    HW236300   3.575   1.898  15.003  1.6149 -1.7504 -1.2700
 8222SOL     OW36301   1.722   1.579   9.943 -0.5017 -0.3730 -0.2801
 8222SOL    HW136302   1.717   1.518   9.869 -1.8019  0.2690 -0.7283
 8222SOL    HW236303   1.647   1.638   9.933 -0.8014 -0.7385 -0.2234
 8223SOL     OW36304   2.902   3.924  17.632  0.3740  0.0830  0.2825
 8223SOL    HW136305   2.812   3.918  17.601  1.1052 -3.7366 -1.2090
 8223SOL    HW236306   2.903   3.985  17.705  0.9460  0.7082 -0.2514
 8224SOL     OW36307   0.005   3.372  11.517  0.3928 -0.4143  0.1722
 8224SOL    HW136308   0.089   3.329  11.531  0.1707 -0.7434  0.4865
 8224SOL    HW236309   4.693   3.297  11.483  0.0690  0.3917 -1.1875
 8225SOL     OW36310   3.445   1.142   8.537  0.8134 -0.0203 -0.4879
 8225SOL    HW136311   3.388   1.068   8.515 -0.5628  0.5608  1.1269
 8225SOL    HW236312   3.373   1.202   8.559  2.4379  1.3292  1.1388
 8226SOL     OW36313   2.111   4.275   5.466  0.7350 -0.6725 -0.6165
 8226SOL    HW136314   2.109   4.212   5.394  0.8106 -0.1347 -1.0831
 8226SOL    HW236315   2.105   4.353   5.411 -3.4850 -1.7323 -1.6898
 8227SOL     OW36316   3.974   1.640   5.544 -0.0232  0.1396  0.2955
 8227SOL    HW136317   3.931   1.715   5.503 -2.3698  0.5358  3.4915
 8227SOL    HW236318   4.029   1.606   5.474  0.5425  2.0554 -0.1768
 8228SOL     OW36319   3.025   1.392   8.643 -0.3590 -0.2475 -0.7527
 8228SOL    HW136320   2.949   1.349   8.603  0.7438 -2.2826 -0.6564
 8228SOL    HW236321   3.001   1.483   8.630  2.4395  0.7423  1.1043
 8229SOL     OW36322   2.248   2.263   3.608 -0.2727 -0.0462 -0.4056
 8229SOL    HW136323   2.247   2.203   3.534  1.1200 -1.3787  0.6410
 8229SOL    HW236324   2.310   2.329   3.576  0.8084 -0.9350 -0.1506
 8230SOL     OW36325   2.859   2.682   9.029  0.0293  0.4928  0.2149
 8230SOL    HW136326   2.857   2.727   9.113  1.5864 -1.0355  1.0730
 8230SOL    HW236327   2.921   2.612   9.048 -0.0598  0.4177  0.2316
 8231SOL     OW36328   1.816   3.167   5.921  0.2091 -0.1519  0.0731
 8231SOL    HW136329   1.902   3.131   5.944  0.6780  1.0688  0.2363
 8231SOL    HW236330   1.772   3.096   5.874 -0.8001 -0.6474  1.7943
 8232SOL     OW36331   1.940   4.384   9.396  0.3293  0.3705  0.1566
 8232SOL    HW136332   2.007   4.326   9.360  0.6044 -0.9083  2.7442
 8232SOL    HW236333   1.928   4.450   9.328 -2.3600 -0.9108 -0.6091
 8233SOL     OW36334   1.136   4.158   8.059 -0.2763  0.1795  0.1839
 8233SOL    HW136335   1.179   4.080   8.025 -0.9574 -0.1301  0.0347
 8233SOL    HW236336   1.154   4.234   8.004 -0.3928 -1.0177 -1.5110
 8234SOL     OW36337   0.529   0.762   3.081  0.3167 -0.6853  0.4136
 8234SOL    HW136338   0.596   0.829   3.094 -0.2422 -0.2521  1.0378
 8234SOL    HW236339   0.566   0.727   2.999 -0.8718 -1.8609  0.3776
 8235SOL     OW36340   4.499   4.236   2.119  0.2885 -0.1190 -0.0664
 8235SOL    HW136341   4.406   4.219   2.131  0.5949 -1.9008 -0.1683
 8235SOL    HW236342   4.514   4.305   2.184 -3.1247  0.6329 -0.0674
 8236SOL     OW36343   4.486   1.355   6.939  0.3166 -0.2292 -0.5841
 8236SOL    HW136344   4.520   1.333   7.025 -1.3029 -0.3894  0.0201
 8236SOL    HW236345   4.453   1.269   6.913 -3.4460  0.9726  0.1399
 8237SOL     OW36346   0.607   1.127   8.540  0.1981  0.4080  0.1124
 8237SOL    HW136347   0.588   1.215   8.506 -1.4306 -0.5587 -1.4767
 8237SOL    HW236348   0.649   1.151   8.623 -1.5181 -1.8419  1.6310
 8238SOL     OW36349   1.499   0.483   6.474  0.3061 -0.2083 -0.3135
 8238SOL    HW136350   1.588   0.515   6.491 -0.1193  0.0341  1.5143
 8238SOL    HW236351   1.504   0.388   6.476 -0.0961 -0.1999  1.6991
 8239SOL     OW36352   1.994   2.087   5.532 -0.2702  0.0170 -0.0066
 8239SOL    HW136353   1.960   2.009   5.576  1.9198 -1.1415 -0.3137
 8239SOL    HW236354   2.075   2.050   5.495 -1.0741 -2.8781  1.0987
 8240SOL     OW36355   1.817   4.615   9.129  0.0559  0.6508  0.4975
 8240SOL    HW136356   1.735   4.665   9.123  0.0372  0.7402  1.6162
 8240SOL    HW236357   1.828   4.618   9.224 -0.0825  0.8751  0.5082
 8241SOL     OW36358   0.270   1.458   1.396 -0.0886 -0.2697 -0.9066
 8241SOL    HW136359   0.344   1.410   1.359  0.9246  0.6587 -0.1121
 8241SOL    HW236360   0.280   1.440   1.490  0.5936  1.2296 -0.6848
 8242SOL     OW36361   3.864   3.015  11.992 -0.0833 -0.3810 -0.0243
 8242SOL    HW136362   3.897   3.051  12.074 -1.5902  0.7760  0.0748
 8242SOL    HW236363   3.790   3.073  11.976 -1.1801 -1.9865 -0.8015
 8243SOL     OW36364   0.910   3.461   5.066 -0.1325 -0.4012 -0.1429
 8243SOL    HW136365   0.837   3.408   5.097 -0.5245  1.6196  2.4411
 8243SOL    HW236366   0.863   3.524   5.011 -1.7565 -1.1625  0.3598
 8244SOL     OW36367   1.353   4.202  16.966 -0.0810 -0.2520 -0.1206
 8244SOL    HW136368   1.287   4.208  17.035  0.6045  1.4705  0.3780
 8244SOL    HW236369   1.316   4.254  16.895 -0.0544 -1.0845 -0.7456
 8245SOL     OW36370   1.804   0.195   2.297 -0.0573 -0.5184  0.5443
 8245SOL    HW136371   1.835   0.276   2.338 -1.4498  1.3953 -2.1821
 8245SOL    HW236372   1.816   0.129   2.365  2.6995  1.5762  2.1204
 8246SOL     OW36373   3.913   0.184   7.510 -0.1976  0.3319  0.1221
 8246SOL    HW136374   3.894   0.273   7.480 -1.1826 -0.7137 -2.3490
 8246SOL    HW236375   3.936   0.220   7.596  1.9795  0.4379 -0.5045
 8247SOL     OW36376   4.010   3.632   9.670  0.2235 -0.0566  0.3694
 8247SOL    HW136377   4.021   3.631   9.765  1.1378 -1.8146  0.2348
 8247SOL    HW236378   4.033   3.724   9.655 -1.8207  0.1516 -1.5545
 8248SOL     OW36379   4.395   0.190   6.118 -0.2137 -0.2723 -0.0793
 8248SOL    HW136380   4.399   0.137   6.038 -0.9154  0.1243 -0.3759
 8248SOL    HW236381   4.402   0.273   6.070  0.8816 -0.7127 -0.6871
 8249SOL     OW36382   0.129   2.727   7.873 -0.2571 -0.2389  0.5740
 8249SOL    HW136383   0.202   2.766   7.824 -0.6015 -2.3094 -1.5749
 8249SOL    HW236384   0.176   2.655   7.916  2.6145  0.8260 -0.7458
 8250SOL     OW36385   2.074   3.721   3.618  0.5249  0.8794  0.0191
 8250SOL    HW136386   2.161   3.743   3.586  0.9068 -0.0752  0.3958
 8250SOL    HW236387   2.095   3.639   3.663 -1.0619  1.7495  2.4025
 8251SOL     OW36388   4.500   4.500   2.534 -0.7391 -0.1361 -0.2420
 8251SOL    HW136389   4.437   4.504   2.462  0.9850 -2.4198 -1.8771
 8251SOL    HW236390   4.492   4.405   2.545  0.5476 -0.0496  1.5565
 8252SOL     OW36391   4.041   1.538   1.358  0.4581  0.4960 -0.0523
 8252SOL    HW136392   4.083   1.512   1.276  2.0952 -0.2106  1.0136
 8252SOL    HW236393   3.948   1.534   1.336  0.1880  1.3270  0.9276
 8253SOL     OW36394   2.304   3.564   7.882 -0.4745  0.2454 -0.1528
 8253SOL    HW136395   2.257   3.492   7.840 -1.3070  0.6966  0.0132
 8253SOL    HW236396   2.314   3.524   7.968 -1.4354 -0.0965 -0.2046
 8254SOL     OW36397   0.202   0.925   4.964 -0.4532  0.0030 -0.1322
 8254SOL    HW136398   0.143   0.990   4.925  0.1213  0.0606 -0.9188
 8254SOL    HW236399   0.237   0.981   5.033 -0.5080  2.0744 -1.7928
 8255SOL     OW36400   0.004   2.415   9.777 -0.1606  0.1448  0.1247
 8255SOL    HW136401   0.013   2.376   9.690  0.1890 -1.5483  0.9093
 8255SOL    HW236402   0.030   2.343   9.834 -0.9364 -0.5603 -0.4062
 8256SOL     OW36403   2.632   3.622   0.355 -0.0603 -0.1701  0.2495
 8256SOL    HW136404   2.711   3.571   0.333  1.7769  1.4249  3.1350
 8256SOL    HW236405   2.651   3.715   0.346  0.6964 -0.2810  0.6997
 8257SOL     OW36406   4.554   1.916  16.600 -0.4111 -0.2907  0.0244
 8257SOL    HW136407   4.593   1.990  16.646 -1.0776  0.7153 -1.0137
 8257SOL    HW236408   4.576   1.847  16.663  0.0810  0.3774  0.5766
 8258SOL     OW36409   2.762   3.469   4.068  0.5205 -0.0900  0.2741
 8258SOL    HW136410   2.847   3.488   4.028  1.2549 -0.2942  1.7462
 8258SOL    HW236411   2.764   3.543   4.129  3.8808 -0.6879  0.9193
 8259SOL     OW36412   1.374   0.009   8.252 -0.0077  0.1609  0.0737
 8259SOL    HW136413   1.287   4.709   8.271  0.8373 -1.2942  1.1160
 8259SOL    HW236414   1.419   4.664   8.276 -0.6389 -0.3213 -0.3420
 8260SOL     OW36415   1.567   3.266  12.399  0.0027 -0.0004  0.7199
 8260SOL    HW136416   1.518   3.186  12.377 -0.7452  0.6335  0.0913
 8260SOL    HW236417   1.619   3.228  12.470  0.3673  0.8414  0.8962
 8261SOL     OW36418   2.564   4.475   3.164 -0.6874 -0.3926 -0.0793
 8261SOL    HW136419   2.575   4.397   3.218 -2.1985  0.0298  0.8360
 8261SOL    HW236420   2.589   4.430   3.083  0.7011 -1.8990  1.2060
 8262SOL     OW36421   4.673   4.192   4.163 -0.4191  0.9989  0.3518
 8262SOL    HW136422   4.598   4.137   4.141  1.4085 -0.5892 -1.8167
 8262SOL    HW236423   4.679   4.192   4.258 -0.6866 -1.1368  0.3644
 8263SOL     OW36424   2.272   0.668   1.022 -0.7516 -0.3239  0.1432
 8263SOL    HW136425   2.284   0.573   1.024 -0.0717 -0.2602 -1.3188
 8263SOL    HW236426   2.290   0.699   1.111  0.1381 -2.9355  0.8624
 8264SOL     OW36427   4.046   2.996   6.849  0.0499 -0.1439 -0.2853
 8264SOL    HW136428   4.041   2.932   6.778 -0.3978 -0.1657 -0.2349
 8264SOL    HW236429   3.981   3.061   6.820  1.5269  0.4635 -2.2452
 8265SOL     OW36430   2.272   0.705  16.280  0.2305  0.2704 -0.0661
 8265SOL    HW136431   2.227   0.763  16.341 -0.3041 -0.8284  0.5712
 8265SOL    HW236432   2.244   0.724  16.191  1.9904 -0.6583 -0.8211
 8266SOL     OW36433   4.338   1.687   9.116  0.1351  0.3005 -0.2247
 8266SOL    HW136434   4.262   1.630   9.130  0.3918  0.0082 -0.0110
 8266SOL    HW236435   4.373   1.664   9.030  1.8809 -1.0148  0.8347
 8267SOL     OW36436   2.409   2.849   5.056  0.0105  0.7740 -0.3766
 8267SOL    HW136437   2.388   2.762   5.090 -1.2978  0.6690 -1.4498
 8267SOL    HW236438   2.435   2.887   5.140 -0.0686 -0.3767  0.1665
 8268SOL     OW36439   4.250   0.224   4.020 -0.3938  0.2956 -0.3962
 8268SOL    HW136440   4.192   0.300   4.014 -2.4376 -1.2467 -0.4435
 8268SOL    HW236441   4.315   0.243   3.952  1.0612  0.8312  1.1645
 8269SOL     OW36442   4.142   1.255   6.894  0.2561  0.0413 -0.3258
 8269SOL    HW136443   4.191   1.295   6.966  0.7335 -1.9662  0.4536
 8269SOL    HW236444   4.217   1.249   6.835  1.1038  0.4977  0.7155
 8270SOL     OW36445   2.595   1.580  15.789 -0.8994 -0.4271  0.6288
 8270SOL    HW136446   2.620   1.636  15.863  0.0194 -0.9723  0.7345
 8270SOL    HW236447   2.563   1.648  15.731 -1.1690 -0.5239  0.6673
 8271SOL     OW36448   2.327   0.698  11.392 -0.7721  0.2895  0.0262
 8271SOL    HW136449   2.244   0.736  11.363  0.2885  1.0910 -1.9565
 8271SOL    HW236450   2.357   0.756  11.462  0.2219 -1.7795  1.3113
 8272SOL     OW36451   4.437   2.412   7.528 -0.1300  0.3322  0.0053
 8272SOL    HW136452   4.355   2.457   7.548 -0.5665 -1.0153  1.2695
 8272SOL    HW236453   4.420   2.374   7.441 -2.4270 -0.5241  0.8584
 8273SOL     OW36454   1.061   2.630   6.512 -0.1986  0.4100  0.0087
 8273SOL    HW136455   1.103   2.544   6.512  0.0272  0.5049  1.3657
 8273SOL    HW236456   0.968   2.608   6.499  0.4454 -1.4819 -1.4585
 8274SOL     OW36457   0.770   3.703   7.264 -0.0671 -0.2180 -1.0414
 8274SOL    HW136458   0.856   3.733   7.295  0.0435  0.3861 -1.9419
 8274SOL    HW236459   0.714   3.777   7.285 -0.6843 -0.4850 -1.7469
 8275SOL     OW36460   1.716   1.977   9.368  0.1947  0.1621  0.7709
 8275SOL    HW136461   1.671   1.912   9.421 -0.9343  0.0964 -0.2893
 8275SOL    HW236462   1.712   2.053   9.427 -0.2305  1.4743 -0.9481
 8276SOL     OW36463   0.772   1.185   7.297 -0.2239  0.4328  0.2342
 8276SOL    HW136464   0.829   1.155   7.369 -0.7089  0.7303  0.7426
 8276SOL    HW236465   0.698   1.126   7.310  0.5483 -0.4758  0.5288
 8277SOL     OW36466   1.872   0.138   6.081  0.1637  0.1828  0.2629
 8277SOL    HW136467   1.792   0.106   6.124  0.1488  0.5705  0.5228
 8277SOL    HW236468   1.835   0.182   6.004 -0.9804 -0.2790  0.5448
 8278SOL     OW36469   2.507   4.586   3.660 -0.3520 -0.6214 -0.6128
 8278SOL    HW136470   2.432   4.598   3.718  0.8532 -0.0658  0.8153
 8278SOL    HW236471   2.500   4.493   3.640 -1.4442  0.3770 -4.8839
 8279SOL     OW36472   2.851   2.673   3.966 -1.2587 -0.2018  0.3042
 8279SOL    HW136473   2.932   2.709   4.003  0.2916 -1.9103 -1.4465
 8279SOL    HW236474   2.794   2.750   3.967 -1.2899 -0.2214 -0.0214
 8280SOL     OW36475   4.051   3.436   3.831 -0.1906 -0.1313  0.4026
 8280SOL    HW136476   4.029   3.511   3.886  2.5419  2.5439 -2.2093
 8280SOL    HW236477   4.000   3.362   3.865  1.5924 -1.3669  0.4024
 8281SOL     OW36478   4.183   4.041   4.377  0.1560 -0.1317 -0.6249
 8281SOL    HW136479   4.233   3.960   4.382  0.4443  0.2724  2.6590
 8281SOL    HW236480   4.112   4.017   4.317  0.8593 -0.5645 -1.2819
 8282SOL     OW36481   0.207   0.071   9.089 -0.2101  0.2229  0.1638
 8282SOL    HW136482   0.218   0.087   8.995 -1.0397  0.8973  0.1796
 8282SOL    HW236483   0.240   4.718   9.097 -1.6126 -0.2851  0.1993
 8283SOL     OW36484   1.346   3.634   8.562  0.1962  0.3535  0.3605
 8283SOL    HW136485   1.319   3.646   8.653  2.0459 -2.9319  1.3275
 8283SOL    HW236486   1.431   3.680   8.562  0.3806  0.0025  3.5936
 8284SOL     OW36487   2.604   0.934   6.200 -0.2965  0.2213  0.2086
 8284SOL    HW136488   2.557   0.913   6.281 -2.7000 -0.0272 -1.2657
 8284SOL    HW236489   2.597   1.029   6.208  0.0618  0.3780 -1.2415
 8285SOL     OW36490   3.165   0.234   3.078 -0.5422  0.2696  0.7687
 8285SOL    HW136491   3.193   0.301   3.015  1.0421  0.9804  2.2655
 8285SOL    HW236492   3.184   0.156   3.025 -1.8023 -0.8480  1.9814
 8286SOL     OW36493   0.242   0.040   2.909  0.2501 -0.0406  0.2563
 8286SOL    HW136494   0.332   0.074   2.911  0.2975 -0.0559 -2.1952
 8286SOL    HW236495   0.228   0.043   3.004  0.5015 -0.4017  0.3061
 8287SOL     OW36496   4.477   1.435   5.440  1.0896  0.4684 -0.2615
 8287SOL    HW136497   4.532   1.359   5.422  2.2278  1.1306  0.4189
 8287SOL    HW236498   4.473   1.463   5.348 -0.0417  0.1948 -0.2933
 8288SOL     OW36499   3.612   2.519   3.618 -0.5466 -0.2696  0.5359
 8288SOL    HW136500   3.591   2.430   3.646  0.3733 -0.7146 -0.1913
 8288SOL    HW236501   3.659   2.495   3.538 -2.1546 -2.9982  0.4193
 8289SOL     OW36502   2.786   0.653   9.391  0.4480 -0.6866 -0.1817
 8289SOL    HW136503   2.695   0.660   9.421  1.1302  3.8776  0.7852
 8289SOL    HW236504   2.787   0.624   9.300  0.4408  0.2801 -0.4821
 8290SOL     OW36505   1.202   2.301   7.277 -0.2019 -0.1375 -0.5656
 8290SOL    HW136506   1.288   2.293   7.236  0.9757 -2.9193  2.4163
 8290SOL    HW236507   1.222   2.372   7.339  0.3499  0.4831 -1.4524
 8291SOL     OW36508   3.276   4.179   2.579 -0.2971 -0.4645  0.4091
 8291SOL    HW136509   3.275   4.256   2.635  2.4653 -0.9609  1.1860
 8291SOL    HW236510   3.306   4.112   2.641  1.5450  0.3114  0.3676
 8292SOL     OW36511   0.346   1.889  17.184 -0.8196 -0.1994 -0.4279
 8292SOL    HW136512   0.394   1.971  17.179 -3.1798  1.0665 -1.9514
 8292SOL    HW236513   0.407   1.821  17.155  0.4723  0.8058 -0.0728
 8293SOL     OW36514   3.817   0.547  15.012 -0.3648  0.4717 -0.0483
 8293SOL    HW136515   3.862   0.629  15.029 -0.3554  1.5157 -5.1677
 8293SOL    HW236516   3.788   0.548  14.921  1.2250 -0.9750 -0.5653
 8294SOL     OW36517   0.866   1.649  15.336  0.6328 -0.6579 -0.1231
 8294SOL    HW136518   0.822   1.699  15.266  1.0464 -0.9796 -0.6128
 8294SOL    HW236519   0.799   1.619  15.397  2.5323 -0.9901  1.7681
 8295SOL     OW36520   1.823   3.999   4.719 -0.4913 -0.5442  0.4837
 8295SOL    HW136521   1.740   4.048   4.719  0.9558  1.9266  0.5404
 8295SOL    HW236522   1.866   4.053   4.652 -0.1087  1.3516  2.2596
 8296SOL     OW36523   1.841   1.592   5.307  0.4926  0.1943  0.0816
 8296SOL    HW136524   1.783   1.667   5.311  1.8797  1.0715  3.7916
 8296SOL    HW236525   1.818   1.552   5.391  1.0580 -0.7181 -0.1971
 8297SOL     OW36526   0.291   1.038  12.477  0.2519 -0.0826  0.5398
 8297SOL    HW136527   0.349   1.111  12.498  1.7003 -1.1540  0.2827
 8297SOL    HW236528   0.257   1.063  12.391  2.7205 -0.2189 -0.4921
 8298SOL     OW36529   1.975   3.147   6.948  0.3678  0.0107  0.0066
 8298SOL    HW136530   2.044   3.082   6.961 -0.3692 -1.5004 -3.5423
 8298SOL    HW236531   2.031   3.205   6.896 -0.3252 -0.0098 -0.7720
 8299SOL     OW36532   1.233   1.457  15.079  0.4719  0.3563 -0.1553
 8299SOL    HW136533   1.324   1.486  15.071  0.2953  0.9070 -0.2036
 8299SOL    HW236534   1.188   1.533  15.044 -2.3568 -0.8032  0.9823
 8300SOL     OW36535   2.505   4.655   4.019  0.4207 -0.0440 -0.3448
 8300SOL    HW136536   2.465   4.614   3.942  0.1358 -0.1731 -0.1254
 8300SOL    HW236537   2.478   4.602   4.093 -0.4544 -0.1936 -0.7747
 8301SOL     OW36538   2.588   3.878  17.213  0.0300 -0.3551 -0.2219
 8301SOL    HW136539   2.544   3.863  17.297 -0.6104 -0.3235 -0.5464
 8301SOL    HW236540   2.647   3.951  17.232 -1.2466  0.9261 -1.1185
 8302SOL     OW36541   3.110   4.496   2.550 -0.4214 -0.0657  0.0234
 8302SOL    HW136542   3.050   4.557   2.592 -1.3346 -0.1834 -1.1065
 8302SOL    HW236543   3.052   4.441   2.498 -0.6105  0.0297  0.1342
 8303SOL     OW36544   2.857   1.212  12.577  0.3745  0.5749 -0.3841
 8303SOL    HW136545   2.888   1.248  12.494 -1.0823  1.5112 -0.5313
 8303SOL    HW236546   2.763   1.212  12.559  0.8740  0.8690 -2.9064
 8304SOL     OW36547   2.724   0.805  17.334  0.5483 -0.0588 -0.5132
 8304SOL    HW136548   2.658   0.867  17.365  1.2999  1.5960 -2.2279
 8304SOL    HW236549   2.734   0.828  17.242 -0.9800  0.8150 -0.4597
 8305SOL     OW36550   1.740   0.367   8.075  0.1714  0.3225  0.5705
 8305SOL    HW136551   1.815   0.355   8.133 -2.0482 -0.1931  3.3611
 8305SOL    HW236552   1.706   0.277   8.076  3.9106 -1.1150 -2.0417
 8306SOL     OW36553   3.776   2.430   7.292  0.2327 -0.1465 -0.2825
 8306SOL    HW136554   3.691   2.472   7.307  1.1055  1.5829 -0.2069
 8306SOL    HW236555   3.807   2.415   7.381 -1.7075 -1.3654  0.1880
 8307SOL     OW36556   3.283   3.281   4.775  0.2643 -0.9675 -0.2114
 8307SOL    HW136557   3.350   3.349   4.768  0.0360 -0.8023 -0.8012
 8307SOL    HW236558   3.265   3.274   4.869  0.2584  1.2789 -0.0347
 8308SOL     OW36559   3.626   1.331   4.654  0.6556 -0.3083  0.4002
 8308SOL    HW136560   3.637   1.407   4.597  0.3126  0.4323  1.3307
 8308SOL    HW236561   3.681   1.269   4.605  1.2171 -1.6959  2.7777
 8309SOL     OW36562   2.157   1.302   6.086  0.2494 -0.2575  0.4041
 8309SOL    HW136563   2.180   1.395   6.077  0.4746 -0.3507 -0.0275
 8309SOL    HW236564   2.073   1.303   6.040  0.6818 -0.8333 -0.4056
 8310SOL     OW36565   3.818   4.034   5.555  0.4647  0.1312  0.0646
 8310SOL    HW136566   3.882   3.979   5.510 -1.1486 -2.7732  1.3067
 8310SOL    HW236567   3.764   3.968   5.598 -0.1558 -0.2329 -1.2794
 8311SOL     OW36568   2.838   3.970   4.064 -0.1258  0.1791 -0.1377
 8311SOL    HW136569   2.852   4.061   4.090 -1.0836  0.6638 -1.2879
 8311SOL    HW236570   2.905   3.928   4.117 -2.1011 -2.3051  0.3968
 8312SOL     OW36571   1.297   3.447   3.578 -0.2349 -0.0709  0.3984
 8312SOL    HW136572   1.325   3.357   3.593  0.5816 -0.0812 -1.2123
 8312SOL    HW236573   1.378   3.487   3.610  0.7380 -1.5459 -0.2050
 8313SOL     OW36574   1.730   4.186   0.313  0.4141 -0.0437 -0.4829
 8313SOL    HW136575   1.761   4.277   0.312  1.1436 -0.2887 -0.2235
 8313SOL    HW236576   1.691   4.186   0.400 -0.0595  0.1820 -0.6963
 8314SOL     OW36577   2.478   1.945   8.602  0.2644  0.1207  0.3517
 8314SOL    HW136578   2.492   2.004   8.527  1.7832 -1.5765 -0.7087
 8314SOL    HW236579   2.462   2.004   8.676  0.6622 -0.5415  0.9610
 8315SOL     OW36580   1.554   2.730   1.790  0.4799  0.3768  0.7070
 8315SOL    HW136581   1.556   2.790   1.715 -2.7798  1.8508  1.8050
 8315SOL    HW236582   1.626   2.763   1.843  2.5613 -1.8167 -0.7069
 8316SOL     OW36583   1.636   0.255  11.368  0.3130 -0.4268  0.5131
 8316SOL    HW136584   1.695   0.214  11.431 -0.5256 -2.6309 -0.1604
 8316SOL    HW236585   1.582   0.308  11.427 -1.0745 -0.9683 -0.2694
 8317SOL     OW36586   3.752   0.748  11.658  0.6764 -0.0541 -0.3737
 8317SOL    HW136587   3.754   0.720  11.567  2.0494 -0.4773 -0.2095
 8317SOL    HW236588   3.665   0.787  11.663  0.9229  0.4987 -0.3224
 8318SOL     OW36589   1.712   1.004  10.814  0.6738  0.2749 -0.2240
 8318SOL    HW136590   1.718   1.037  10.724 -0.5776  1.2902  0.0660
 8318SOL    HW236591   1.651   0.933  10.796  2.5987 -1.2109 -0.9287
 8319SOL     OW36592   3.635   0.858   2.623  0.2200  0.0254 -0.7087
 8319SOL    HW136593   3.581   0.935   2.641  1.2643  0.1508  1.9258
 8319SOL    HW236594   3.719   0.899   2.603  0.2263  0.4009  0.0563
 8320SOL     OW36595   0.086   3.287   4.474  1.0199  0.3217  0.3063
 8320SOL    HW136596   0.156   3.291   4.410 -0.7949  0.0565 -1.7012
 8320SOL    HW236597   0.136   3.265   4.552 -2.8138 -1.0411  2.3961
 8321SOL     OW36598   2.116   2.567   6.517 -0.2790 -0.1063 -0.1996
 8321SOL    HW136599   2.046   2.503   6.528  0.6235 -0.6012  2.5424
 8321SOL    HW236600   2.183   2.511   6.478 -0.0087  0.0774  0.0040
 8322SOL     OW36601   0.328   4.370   6.281  0.1341 -0.2960 -0.0789
 8322SOL    HW136602   0.243   4.328   6.266  0.2109 -0.9044  1.2578
 8322SOL    HW236603   0.342   4.414   6.197  0.8799  1.8674  1.1767
 8323SOL     OW36604   2.246   1.712   1.970  0.2176 -0.6032 -0.1675
 8323SOL    HW136605   2.183   1.783   1.954 -1.3489 -2.3258 -1.5799
 8323SOL    HW236606   2.192   1.641   1.937  1.1112 -1.5781  0.4751
 8324SOL     OW36607   1.763   2.480   1.916  0.2869 -0.2217  0.1882
 8324SOL    HW136608   1.812   2.419   1.860  1.2427  0.8987 -0.2101
 8324SOL    HW236609   1.712   2.517   1.844  1.4697  0.3746 -0.3504
 8325SOL     OW36610   0.677   1.485   6.714  0.2890 -0.5623  0.0755
 8325SOL    HW136611   0.764   1.472   6.752 -1.1798 -0.4197  3.5272
 8325SOL    HW236612   0.701   1.529   6.633 -0.9618  0.0600  0.0419
 8326SOL     OW36613   0.534   3.890   6.719  0.0341 -0.6632 -0.0846
 8326SOL    HW136614   0.513   3.830   6.790 -0.4622  0.7368  0.9539
 8326SOL    HW236615   0.534   3.973   6.768 -0.3710 -1.6150  1.5147
 8327SOL     OW36616   0.014   3.924   2.680  0.3030  0.0366 -0.1242
 8327SOL    HW136617   4.733   4.013   2.710 -0.1276  0.2094 -0.8815
 8327SOL    HW236618   0.110   3.922   2.686  0.3056 -0.6093 -0.3287
 8328SOL     OW36619   3.505   0.166  14.922 -0.2242 -0.3380 -0.3215
 8328SOL    HW136620   3.534   0.134  15.007 -2.5050 -0.8614  0.2557
 8328SOL    HW236621   3.512   0.259  14.943  0.0240  0.1581 -2.5904
 8329SOL     OW36622   3.051   2.687   8.677 -0.5871 -0.5605  0.0600
 8329SOL    HW136623   2.996   2.609   8.680 -3.0487  1.1666  0.1990
 8329SOL    HW236624   3.063   2.694   8.772 -2.2278  1.6254  0.0867
 8330SOL     OW36625   1.727   4.270   2.576  0.3570  0.4016  1.0919
 8330SOL    HW136626   1.700   4.180   2.557  1.4959  0.4102 -0.5886
 8330SOL    HW236627   1.649   4.321   2.553  0.7603  0.2350 -0.6997
 8331SOL     OW36628   4.118   1.459   9.502 -0.1114 -0.2825  0.1366
 8331SOL    HW136629   4.210   1.481   9.515 -0.2623  1.2836 -1.4929
 8331SOL    HW236630   4.090   1.513   9.428  1.7447 -0.5650 -0.7587
 8332SOL     OW36631   1.175   2.504   4.896 -0.0211 -0.1133  0.4357
 8332SOL    HW136632   1.232   2.579   4.915 -0.8397  0.5492  0.2422
 8332SOL    HW236633   1.100   2.514   4.955 -0.7026  2.2494 -0.8101
 8333SOL     OW36634   4.538   3.430   5.717  0.4917 -0.3662 -0.6473
 8333SOL    HW136635   4.625   3.393   5.702  2.0634  2.6574  1.0764
 8333SOL    HW236636   4.488   3.372   5.775 -0.5449  2.3388  1.1360
 8334SOL     OW36637   0.080   1.323   4.238  0.0993 -0.4905 -0.6368
 8334SOL    HW136638   0.012   1.311   4.304  0.7908  0.0563  0.1774
 8334SOL    HW236639   0.157   1.325   4.295 -0.4820 -0.4267  0.1463
 8335SOL     OW36640   2.956   4.584   3.110 -0.1568  0.0816  0.8440
 8335SOL    HW136641   3.026   4.635   3.151  1.2194 -2.3244  1.5161
 8335SOL    HW236642   3.000   4.539   3.038  1.0089  0.5269  1.2789
 8336SOL     OW36643   3.239   0.796  11.245  0.1394  0.2344 -0.4953
 8336SOL    HW136644   3.252   0.874  11.300  2.6141 -1.4012  1.2213
 8336SOL    HW236645   3.304   0.820  11.179 -0.8852  1.8736 -0.9192
 8337SOL     OW36646   1.731   3.398   6.957 -0.5352  0.0447 -0.2782
 8337SOL    HW136647   1.812   3.449   6.950 -0.3648  0.1263  2.1480
 8337SOL    HW236648   1.722   3.386   7.052  0.9386  2.3656  0.1632
 8338SOL     OW36649   1.573   3.105   9.147 -0.1927  0.4657 -0.4141
 8338SOL    HW136650   1.531   3.022   9.168  0.5286  0.3592  0.5968
 8338SOL    HW236651   1.608   3.131   9.232 -1.1509  1.1365 -0.2176
 8339SOL     OW36652   1.284   1.919  12.725  0.2648 -0.0250  0.2693
 8339SOL    HW136653   1.269   1.826  12.711 -1.8712  0.2804  0.4547
 8339SOL    HW236654   1.365   1.920  12.776  0.9494  1.3139 -0.8190
 8340SOL     OW36655   1.638   1.770   6.261  0.5835 -0.7237  0.0796
 8340SOL    HW136656   1.666   1.861   6.259 -1.1033 -0.1392  2.5020
 8340SOL    HW236657   1.594   1.758   6.177  0.3434 -2.1872  0.4161
 8341SOL     OW36658   0.914   2.623   5.236  0.2434  0.3262 -0.8178
 8341SOL    HW136659   0.853   2.566   5.284  0.7310 -0.3635 -1.0240
 8341SOL    HW236660   0.881   2.711   5.256  0.2738  0.4637 -1.3735
 8342SOL     OW36661   1.675   4.147   9.621  0.2204  0.6013 -0.3364
 8342SOL    HW136662   1.651   4.068   9.573 -2.6771  1.0448  0.3391
 8342SOL    HW236663   1.686   4.214   9.553 -0.2342 -1.5813 -2.5548
 8343SOL     OW36664   1.339   3.571   8.152  0.0658 -1.0074 -0.3603
 8343SOL    HW136665   1.292   3.529   8.080 -1.8009 -1.7339  1.2765
 8343SOL    HW236666   1.268   3.592   8.214  0.9791  0.3509  0.2283
 8344SOL     OW36667   1.878   0.153   0.547  0.4280 -0.3150 -0.2400
 8344SOL    HW136668   1.793   0.175   0.584  0.6689 -0.6851  0.5169
 8344SOL    HW236669   1.917   0.241   0.553 -0.3929 -0.0590  1.1476
 8345SOL     OW36670   4.185   1.018   1.183  0.4568 -0.4181  0.5128
 8345SOL    HW136671   4.136   0.966   1.247 -1.9147 -3.1575 -3.5736
 8345SOL    HW236672   4.120   1.070   1.136 -0.8481  0.3995  3.2067
 8346SOL     OW36673   0.994   0.047   2.033 -0.3203 -0.3473 -0.0661
 8346SOL    HW136674   0.975   0.135   2.001  0.8776  0.9345  2.7867
 8346SOL    HW236675   1.087   0.050   2.053 -0.5428 -0.6745  0.9926
 8347SOL     OW36676   1.452   4.378   5.122 -0.0023 -0.2443 -0.2381
 8347SOL    HW136677   1.460   4.464   5.082 -2.0513  0.1790  0.2230
 8347SOL    HW236678   1.464   4.400   5.214  0.7260  1.1916 -0.6814
 8348SOL     OW36679   1.678   4.073   7.865  0.1168  0.0941  0.1711
 8348SOL    HW136680   1.747   4.112   7.813 -0.9592  2.2969  0.3877
 8348SOL    HW236681   1.648   4.010   7.800  2.7966  1.5116 -2.4145
 8349SOL     OW36682   2.732   3.935   5.920 -0.5196 -0.0653  0.0610
 8349SOL    HW136683   2.677   3.889   5.856  1.0100 -0.7862 -0.7605
 8349SOL    HW236684   2.806   3.874   5.927 -0.5271 -0.3874 -2.6604
 8350SOL     OW36685   2.713   3.409   2.971  0.3093  0.2415 -0.0883
 8350SOL    HW136686   2.777   3.388   3.039 -0.6067 -0.8905  0.4142
 8350SOL    HW236687   2.763   3.371   2.898  1.8796 -0.8107  1.5081
 8351SOL     OW36688   1.603   2.346  14.705  0.1346  0.1109 -0.0210
 8351SOL    HW136689   1.677   2.289  14.727  1.1172  1.6048  0.5582
 8351SOL    HW236690   1.544   2.281  14.742 -0.3397 -1.0661 -2.8120
 8352SOL     OW36691   0.368   2.971   2.189 -0.4409  0.0792  0.0035
 8352SOL    HW136692   0.312   2.894   2.182  0.5549 -0.5957 -0.4032
 8352SOL    HW236693   0.307   3.044   2.174  1.0833  1.7599  1.9505
 8353SOL     OW36694   3.790   4.177   3.211  0.1120 -0.4260  0.4271
 8353SOL    HW136695   3.854   4.248   3.202 -1.2756  1.0598  2.4468
 8353SOL    HW236696   3.703   4.217   3.206  0.7740  0.8164 -1.0377
 8354SOL     OW36697   3.638   0.859   0.611  0.1233 -0.3629 -0.3059
 8354SOL    HW136698   3.624   0.949   0.582 -1.3880 -0.4819  0.0406
 8354SOL    HW236699   3.605   0.806   0.538  1.5400  1.2585 -2.1254
 8355SOL     OW36700   3.210   1.777   7.355 -0.3693  0.3963 -0.1977
 8355SOL    HW136701   3.283   1.780   7.293  2.3433 -1.5236  2.9181
 8355SOL    HW236702   3.152   1.845   7.321 -1.3425 -0.0168  0.6495
 8356SOL     OW36703   1.389   0.436  12.463 -0.4656 -1.1758  0.3458
 8356SOL    HW136704   1.355   0.393  12.385  1.0173 -1.3599 -0.1995
 8356SOL    HW236705   1.462   0.376  12.483 -0.4477 -1.7744 -1.5291
 8357SOL     OW36706   2.362   3.390   2.519 -0.1311  0.2679 -0.1064
 8357SOL    HW136707   2.303   3.335   2.467 -2.5065  0.2578  2.6121
 8357SOL    HW236708   2.429   3.418   2.457  2.4555 -0.0723  2.5353
 8358SOL     OW36709   3.099   0.513   5.246  0.1551 -0.3382  0.6029
 8358SOL    HW136710   3.161   0.578   5.279  1.0915  0.1763 -2.2058
 8358SOL    HW236711   3.023   0.530   5.302 -0.5503 -3.7249  0.6685
 8359SOL     OW36712   3.122   3.632   7.240 -0.2080 -0.2897  0.0025
 8359SOL    HW136713   3.094   3.722   7.257  3.6108  0.9090 -0.0543
 8359SOL    HW236714   3.210   3.634   7.278  0.2914 -0.4357 -1.1502
 8360SOL     OW36715   3.357   1.606   6.429  0.1849  0.5323  0.5602
 8360SOL    HW136716   3.445   1.637   6.450  1.0865 -0.1448 -2.2490
 8360SOL    HW236717   3.329   1.594   6.519 -1.7599 -0.5483 -0.1704
 8361SOL     OW36718   2.655   3.162  17.404  0.4052 -0.5309 -0.4256
 8361SOL    HW136719   2.631   3.177  17.313 -1.0146 -2.5404 -0.3809
 8361SOL    HW236720   2.732   3.108  17.385  1.8196  1.9926 -1.8281
 8362SOL     OW36721   1.758   2.129   7.285  0.6878 -0.6014  0.4451
 8362SOL    HW136722   1.752   2.160   7.195 -1.9027  0.4094  0.9667
 8362SOL    HW236723   1.761   2.210   7.336 -0.3653 -0.8362  0.8842
 8363SOL     OW36724   3.834   0.466   8.572  1.0723 -0.3709  0.3738
 8363SOL    HW136725   3.896   0.487   8.502 -0.6456  1.0737 -0.7081
 8363SOL    HW236726   3.881   0.399   8.622  0.4193 -1.0022  0.1579
 8364SOL     OW36727   1.143   0.969   3.800 -0.1853 -0.1752  0.2809
 8364SOL    HW136728   1.064   0.965   3.746 -1.3401  0.4068  1.9010
 8364SOL    HW236729   1.213   0.972   3.736 -0.0593 -1.7490  0.3321
 8365SOL     OW36730   0.639   1.481   8.758  0.1078  0.7317  0.2268
 8365SOL    HW136731   0.580   1.526   8.697 -0.6844 -0.9462 -0.2515
 8365SOL    HW236732   0.616   1.512   8.845 -0.4594 -0.7116  0.5968
 8366SOL     OW36733   3.853   3.948   1.829  0.2830  0.5454  0.1870
 8366SOL    HW136734   3.782   3.888   1.807 -0.3144  1.4242 -0.2650
 8366SOL    HW236735   3.795   4.017   1.861 -1.6862 -1.3918  0.7962
 8367SOL     OW36736   2.668   0.956   6.495 -0.0098 -0.2661  0.2787
 8367SOL    HW136737   2.652   0.861   6.502 -1.1392 -0.0652  0.4736
 8367SOL    HW236738   2.746   0.965   6.550  0.7290 -3.3656 -0.2619
 8368SOL     OW36739   4.572   3.726   2.067  0.2942  0.5396  0.2020
 8368SOL    HW136740   4.641   3.772   2.019 -0.2144  1.3985  0.2945
 8368SOL    HW236741   4.588   3.752   2.158 -1.1140  1.2203  0.2551
 8369SOL     OW36742   0.617   0.577  14.374  0.0616 -0.2690 -0.5019
 8369SOL    HW136743   0.660   0.493  14.357 -0.9790 -1.0515  0.6822
 8369SOL    HW236744   0.680   0.635  14.416 -1.5114  0.5876  0.6823
 8370SOL     OW36745   0.145   3.635   7.628  0.0424 -0.4871 -0.2635
 8370SOL    HW136746   0.064   3.612   7.584 -0.6508 -0.3827  0.9528
 8370SOL    HW236747   0.107   3.668   7.710 -0.4908  1.5847 -1.3366
 8371SOL     OW36748   3.420   0.216   6.317 -0.6400 -0.2827  0.4835
 8371SOL    HW136749   3.340   0.223   6.369  0.0574 -0.0427  1.5228
 8371SOL    HW236750   3.444   0.309   6.315 -1.4023 -0.0624  1.2644
 8372SOL     OW36751   4.039   3.739  11.683 -0.5989  0.4310  0.5166
 8372SOL    HW136752   3.975   3.800  11.645  0.6702  0.8478 -0.9953
 8372SOL    HW236753   4.007   3.655  11.650  1.0428 -0.4350  1.1543
 8373SOL     OW36754   3.318   1.906   7.116 -0.0583 -0.0083  0.4081
 8373SOL    HW136755   3.337   1.909   7.023 -1.2993  0.8414  0.1901
 8373SOL    HW236756   3.384   1.845   7.150 -1.5314 -1.0199  1.4695
 8374SOL     OW36757   0.266   1.301   7.547 -0.1901  0.0422 -0.0496
 8374SOL    HW136758   0.265   1.245   7.470  1.2673 -2.0577  1.4457
 8374SOL    HW236759   0.253   1.244   7.623 -0.1610 -0.7661 -0.6513
 8375SOL     OW36760   3.239   3.986   0.917  0.2944  0.3605  0.2030
 8375SOL    HW136761   3.157   3.972   0.964 -0.0923  0.3074 -0.4930
 8375SOL    HW236762   3.280   3.903   0.944  2.6353  1.1720 -0.8714
 8376SOL     OW36763   3.787   1.036   5.874 -0.1000 -0.1280 -0.1277
 8376SOL    HW136764   3.698   1.067   5.890  0.0444  1.3318 -2.2135
 8376SOL    HW236765   3.845   1.112   5.883 -2.7403  1.7226  1.1800
 8377SOL     OW36766   2.376   1.894  13.108  0.2230 -0.1431  0.5377
 8377SOL    HW136767   2.378   1.951  13.185  0.1004  0.3633  0.1618
 8377SOL    HW236768   2.312   1.933  13.049  0.7158  2.5054  1.7624
 8378SOL     OW36769   1.643   4.338  14.124 -0.2668 -0.1981 -0.2098
 8378SOL    HW136770   1.697   4.406  14.166 -0.7247  0.3754 -0.5474
 8378SOL    HW236771   1.709   4.309  14.062 -1.4759  0.0128 -1.5929
 8379SOL     OW36772   0.298   4.481   3.666 -0.0976 -0.6259  0.5348
 8379SOL    HW136773   0.311   4.574   3.649 -0.1663 -0.3317  2.0494
 8379SOL    HW236774   0.240   4.487   3.743  0.2035 -1.0474  0.7979
 8380SOL     OW36775   3.500   1.968   4.505  0.1877 -0.2092  0.0088
 8380SOL    HW136776   3.489   2.016   4.587  0.8129 -0.0578  0.0032
 8380SOL    HW236777   3.549   1.891   4.535  1.2733 -0.0998 -1.5310
 8381SOL     OW36778   3.833   2.992   9.001 -0.0657 -0.4729 -0.2683
 8381SOL    HW136779   3.806   2.900   9.013 -1.1632  0.5232  5.0739
 8381SOL    HW236780   3.768   3.033   9.058 -1.0064  1.5959 -2.8083
 8382SOL     OW36781   4.078   1.144   5.108  0.4797  0.4060 -0.0232
 8382SOL    HW136782   4.151   1.084   5.129 -0.9395 -1.1041  0.6195
 8382SOL    HW236783   4.038   1.090   5.039  1.5141 -0.6969  0.2315
 8383SOL     OW36784   4.362   3.644   9.056  0.0952  0.1353 -0.2324
 8383SOL    HW136785   4.360   3.728   9.102 -1.6691  0.5118 -0.9762
 8383SOL    HW236786   4.268   3.625   9.047  0.5193 -2.2668  0.5355
 8384SOL     OW36787   2.785   1.334   4.277 -0.1819  0.6593  0.1544
 8384SOL    HW136788   2.818   1.259   4.229  0.9753  0.5455  1.1408
 8384SOL    HW236789   2.776   1.384   4.195 -0.0819 -1.5116 -1.1765
 8385SOL     OW36790   4.372   4.723   3.001 -0.2029 -0.2451 -0.2737
 8385SOL    HW136791   4.336   0.075   2.988 -1.8933 -0.8984 -0.0913
 8385SOL    HW236792   4.371   4.698   2.909  1.4872  2.0513 -0.9115
 8386SOL     OW36793   0.763   2.621   4.845  0.2191 -0.8748 -0.0002
 8386SOL    HW136794   0.715   2.600   4.925  0.4298  0.5361  0.4952
 8386SOL    HW236795   0.802   2.538   4.820  3.1470  0.4204  0.3064
 8387SOL     OW36796   3.923   3.294   5.503 -0.4711 -0.3777 -0.1084
 8387SOL    HW136797   3.842   3.296   5.553 -0.1270  0.3416  0.4286
 8387SOL    HW236798   3.893   3.345   5.428  0.1370  1.4796  0.9162
 8388SOL     OW36799   4.652   4.506   8.755 -0.5220 -0.0946  0.2397
 8388SOL    HW136800   4.620   4.585   8.799 -3.0737 -0.0292 -1.7424
 8388SOL    HW236801   0.007   4.504   8.784 -0.3074 -0.1237 -0.4503
 8389SOL     OW36802   2.751   2.993   3.027  0.8488  0.0173 -0.5618
 8389SOL    HW136803   2.688   2.970   2.958  0.9241  1.6232 -1.1589
 8389SOL    HW236804   2.824   2.932   3.012  2.0284  1.2617  0.1095
 8390SOL     OW36805   0.676   1.057   3.422 -0.3392  0.1721  0.7824
 8390SOL    HW136806   0.620   0.979   3.420  2.3251 -1.6492 -1.7220
 8390SOL    HW236807   0.637   1.107   3.494 -0.7203 -0.6648  1.1592
 8391SOL     OW36808   1.172   1.475   4.669  0.1100  0.7019  0.3413
 8391SOL    HW136809   1.080   1.496   4.651  0.4325 -1.1201 -3.2858
 8391SOL    HW236810   1.208   1.524   4.595  1.6947 -2.4006 -0.9126
 8392SOL     OW36811   0.989   3.859   6.390 -0.0830  0.0325  0.2673
 8392SOL    HW136812   0.931   3.927   6.355 -1.0426 -1.6303 -1.4313
 8392SOL    HW236813   0.931   3.783   6.375 -2.3006  1.9790 -1.0750
 8393SOL     OW36814   3.541   2.217  15.150  0.4247  0.0341  0.1769
 8393SOL    HW136815   3.547   2.287  15.085  0.8728 -1.4834 -1.4485
 8393SOL    HW236816   3.536   2.137  15.096  2.3690 -0.0090  0.0445
 8394SOL     OW36817   2.954   4.578  13.531  0.0819  0.3869  0.2973
 8394SOL    HW136818   2.999   4.660  13.510  2.8962 -1.2188  0.0649
 8394SOL    HW236819   2.924   4.591  13.622  1.4510 -0.1138  0.8172
 8395SOL     OW36820   2.684   1.338  11.480 -0.3449 -0.1326  0.4152
 8395SOL    HW136821   2.745   1.284  11.529  1.5577  0.7208 -1.0026
 8395SOL    HW236822   2.732   1.378  11.408  1.0541 -2.2255  0.2001
 8396SOL     OW36823   2.217   2.424  13.026  0.0829  0.2571  1.0798
 8396SOL    HW136824   2.168   2.483  13.083 -1.7726  1.7526 -2.0572
 8396SOL    HW236825   2.306   2.444  13.054  0.4701  1.3369 -0.8896
 8397SOL     OW36826   0.782   2.797   9.405 -0.0672  0.3835 -0.4772
 8397SOL    HW136827   0.743   2.746   9.334 -0.1156 -0.0115 -0.1668
 8397SOL    HW236828   0.870   2.785   9.367 -0.1005  1.7777 -0.9916
 8398SOL     OW36829   2.959   0.349   9.217 -0.0740  0.2264 -0.1358
 8398SOL    HW136830   3.035   0.405   9.201  2.4544 -2.1964  3.3635
 8398SOL    HW236831   2.894   0.403   9.171  0.2507  3.1005  2.8337
 8399SOL     OW36832   4.298   0.357   6.842  0.1740  0.1177  0.0820
 8399SOL    HW136833   4.240   0.316   6.778 -0.7252  1.0960  0.2556
 8399SOL    HW236834   4.378   0.337   6.794 -0.8759 -0.8235 -1.2716
 8400SOL     OW36835   0.268   3.190  13.021 -0.5047  0.3055  0.0018
 8400SOL    HW136836   0.239   3.099  13.012 -1.5621  0.5153  1.4256
 8400SOL    HW236837   0.204   3.243  13.066  0.2470 -0.3515  1.8250
 8401SOL     OW36838   3.727   3.904   8.895 -0.4122  0.2867  0.3274
 8401SOL    HW136839   3.632   3.903   8.885 -0.1963 -1.4249 -1.4657
 8401SOL    HW236840   3.737   3.997   8.911  0.9677  0.1585  0.1638
 8402SOL     OW36841   1.828   0.911   3.337 -0.6355  0.0729  0.0094
 8402SOL    HW136842   1.841   0.889   3.429 -0.5862 -0.2510 -0.0734
 8402SOL    HW236843   1.893   0.981   3.330  0.5942 -1.1140 -0.5043
 8403SOL     OW36844   3.856   2.391   2.813  0.2002  0.2195  0.5890
 8403SOL    HW136845   3.773   2.348   2.791  0.9554 -0.8004 -0.2488
 8403SOL    HW236846   3.888   2.421   2.728 -0.8109 -1.1858 -0.2850
 8404SOL     OW36847   0.117   2.905   2.380  0.1351 -0.7505 -0.3996
 8404SOL    HW136848   0.091   2.974   2.441 -0.9321  0.9691 -2.8024
 8404SOL    HW236849   0.200   2.887   2.424  1.0818 -1.1051 -2.3105
 8405SOL     OW36850   1.221   0.880   3.145  0.1613  0.3161 -0.8599
 8405SOL    HW136851   1.182   0.836   3.070 -1.7611  0.4358  0.0711
 8405SOL    HW236852   1.250   0.806   3.197  0.8315  1.7259  0.7680
 8406SOL     OW36853   2.424   4.296   9.084 -0.5819  0.2556  0.4206
 8406SOL    HW136854   2.418   4.365   9.019  3.2155 -0.1234 -0.3277
 8406SOL    HW236855   2.373   4.232   9.035 -1.3537 -0.5055  2.2009
 8407SOL     OW36856   0.602   2.769   6.126  1.0284  0.0760 -0.0090
 8407SOL    HW136857   0.601   2.740   6.035  1.0406  1.1448 -0.3515
 8407SOL    HW236858   0.665   2.840   6.113  0.4072  0.8334  1.1100
 8408SOL     OW36859   0.541   4.261   2.970  0.3253 -0.0012 -0.4444
 8408SOL    HW136860   0.559   4.316   2.894 -0.6784  1.9356  0.6926
 8408SOL    HW236861   0.482   4.322   3.014 -1.1381 -0.1991 -2.1535
 8409SOL     OW36862   4.159   1.232   7.466  0.1801  0.0854  0.2456
 8409SOL    HW136863   4.225   1.184   7.517  0.3625  1.7401  1.5397
 8409SOL    HW236864   4.205   1.314   7.447 -0.7498  0.5809  0.1592
 8410SOL     OW36865   3.703   0.500   4.030 -0.2557  0.3340  0.6589
 8410SOL    HW136866   3.750   0.497   4.113 -1.0009  1.7357  1.1439
 8410SOL    HW236867   3.773   0.508   3.965 -0.9697  1.0238 -0.0275
 8411SOL     OW36868   4.507   0.453   8.093 -0.4232 -0.1025 -0.5854
 8411SOL    HW136869   4.521   0.390   8.163  0.5057  0.8966  0.1290
 8411SOL    HW236870   4.594   0.493   8.090  0.0893 -1.0417  1.9547
 8412SOL     OW36871   1.599   4.090   2.286  0.6284 -0.5453  0.8340
 8412SOL    HW136872   1.536   4.162   2.300  0.0121 -1.1081  0.9713
 8412SOL    HW236873   1.535   4.022   2.309 -0.1414 -0.1568 -0.1595
 8413SOL     OW36874   0.400   2.546   3.689 -0.6315  0.5385 -0.1679
 8413SOL    HW136875   0.357   2.567   3.606 -1.5714 -0.7953 -0.0303
 8413SOL    HW236876   0.491   2.571   3.675  0.0033 -1.5107  0.2582
 8414SOL     OW36877   4.279   1.182   5.734  0.2087 -0.0358 -0.4105
 8414SOL    HW136878   4.358   1.129   5.744 -0.3882 -0.8449 -0.0771
 8414SOL    HW236879   4.307   1.256   5.788 -1.0762 -1.0839  1.6758
 8415SOL     OW36880   1.532   2.846   7.233  0.3696 -0.2235  0.2023
 8415SOL    HW136881   1.536   2.753   7.210 -0.2559  0.3389 -2.2633
 8415SOL    HW236882   1.525   2.861   7.327 -1.6384 -0.3501  0.0562
 8416SOL     OW36883   1.625   0.898   0.864  0.4378  0.3637  0.6843
 8416SOL    HW136884   1.546   0.848   0.883 -1.8135  3.8486  0.3308
 8416SOL    HW236885   1.678   0.818   0.858  0.5194  0.2010  3.6598
 8417SOL     OW36886   1.984   3.587   3.122 -0.1329  0.7613 -0.2388
 8417SOL    HW136887   2.079   3.597   3.113  0.2021 -1.1092  1.2709
 8417SOL    HW236888   1.968   3.532   3.199 -2.3528  2.6313  0.6369
 8418SOL     OW36889   0.687   3.638   4.371  0.2291 -0.3888 -0.1500
 8418SOL    HW136890   0.720   3.577   4.304 -0.5341 -0.8464 -0.0999
 8418SOL    HW236891   0.606   3.675   4.336  1.6196 -0.6627 -3.7409
 8419SOL     OW36892   0.637   3.761   9.456 -0.2957  0.1483  0.2498
 8419SOL    HW136893   0.724   3.725   9.473 -0.8034 -1.6229 -0.9250
 8419SOL    HW236894   0.587   3.679   9.452 -0.7386  0.2848  2.7130
 8420SOL     OW36895   3.734   3.011   7.861 -0.3877  0.2298 -0.8264
 8420SOL    HW136896   3.777   2.959   7.793  0.3822 -0.1533 -0.0456
 8420SOL    HW236897   3.790   2.992   7.937 -0.2577  3.0249 -0.2209
 8421SOL     OW36898   2.047   4.310   6.183  0.3169  0.4193 -0.1529
 8421SOL    HW136899   2.063   4.216   6.180 -1.0958  0.1539  0.4634
 8421SOL    HW236900   1.954   4.303   6.208  1.3906  0.1897  3.6970
 8422SOL     OW36901   4.223   2.801  14.781 -0.5348 -0.3928  0.7452
 8422SOL    HW136902   4.176   2.791  14.698 -0.1605  0.0836  0.4775
 8422SOL    HW236903   4.242   2.894  14.774 -2.2184  0.1712  3.5206
 8423SOL     OW36904   1.736   2.610   3.983  0.9037  0.9094 -0.2055
 8423SOL    HW136905   1.809   2.594   3.923  0.3795 -1.0826 -0.3109
 8423SOL    HW236906   1.678   2.539   3.955  4.2599 -0.7699 -2.9429
 8424SOL     OW36907   0.105   2.736   4.415 -0.0102 -0.7169  0.0493
 8424SOL    HW136908   0.013   2.760   4.427  1.2563  3.4600  1.3361
 8424SOL    HW236909   0.112   2.775   4.328 -0.2217  0.2224  0.4551
 8425SOL     OW36910   2.332   1.574  13.849 -0.6820  0.3187  0.0047
 8425SOL    HW136911   2.365   1.654  13.810 -3.0465  1.0868 -0.3740
 8425SOL    HW236912   2.308   1.530  13.768 -2.0008  1.5231 -0.2497
 8426SOL     OW36913   2.665   3.200   5.181  0.1066 -0.4204  0.4518
 8426SOL    HW136914   2.583   3.201   5.131  0.1217  2.9634  0.5256
 8426SOL    HW236915   2.722   3.166   5.111 -0.1500  1.1507 -0.5270
 8427SOL     OW36916   2.496   3.566   3.389 -0.1073  1.0551 -0.0119
 8427SOL    HW136917   2.513   3.515   3.468  1.3067  2.6121  0.6853
 8427SOL    HW236918   2.531   3.518   3.314 -0.0169 -2.0347  2.0445
 8428SOL     OW36919   0.280   1.571   7.387 -1.1117  0.2293 -0.7485
 8428SOL    HW136920   0.351   1.508   7.376 -0.8646  0.0766  1.6513
 8428SOL    HW236921   0.242   1.533   7.466  2.1148  1.9091  1.6316
 8429SOL     OW36922   0.001   3.620   7.182 -0.1672 -0.0977 -0.4575
 8429SOL    HW136923   0.060   3.695   7.186 -0.5049  0.1579 -0.2992
 8429SOL    HW236924   4.651   3.657   7.163 -0.1563  1.0404  1.7583
 8430SOL     OW36925   2.187   4.226  15.253 -0.1230  0.3387 -0.8992
 8430SOL    HW136926   2.119   4.227  15.321  0.0909 -0.1176 -0.6798
 8430SOL    HW236927   2.207   4.133  15.245 -1.5167  0.0466 -0.9414
 8431SOL     OW36928   2.340   3.273   4.337 -0.0568  0.1039  0.4382
 8431SOL    HW136929   2.282   3.203   4.366 -0.5909  1.2339  2.0548
 8431SOL    HW236930   2.284   3.350   4.342  2.1821  1.7662 -0.0282
 8432SOL     OW36931   1.586   1.430   4.647 -0.1773  0.3534  0.1883
 8432SOL    HW136932   1.498   1.419   4.610  1.0241  2.5416 -3.2991
 8432SOL    HW236933   1.630   1.470   4.573  0.0839  0.0350  0.1729
 8433SOL     OW36934   4.088   2.481  13.052  0.0240  0.2464 -0.3323
 8433SOL    HW136935   4.079   2.570  13.017  1.5548  1.7237  3.0253
 8433SOL    HW236936   4.179   2.457  13.037 -0.5129 -0.5469 -2.2345
 8434SOL     OW36937   0.459   2.490  17.462  0.0418 -0.7980  0.0979
 8434SOL    HW136938   0.514   2.548  17.516  0.2966  1.1926 -2.3184
 8434SOL    HW236939   0.459   2.414  17.521 -0.7326 -0.2618  0.7994
 8435SOL     OW36940   2.497   2.437  15.789  0.1535  0.3001  0.2026
 8435SOL    HW136941   2.454   2.477  15.864 -1.3755 -0.3710 -0.3043
 8435SOL    HW236942   2.577   2.489  15.789 -0.9864  2.0488 -0.5298
 8436SOL     OW36943   3.461   3.026  10.673 -0.4957  0.5807 -0.2459
 8436SOL    HW136944   3.381   3.026  10.727  0.7867 -0.0657  1.6566
 8436SOL    HW236945   3.522   3.077  10.727  0.9974 -1.5996  0.1392
 8437SOL     OW36946   3.748   3.839   7.073  0.4671 -0.1913 -0.1397
 8437SOL    HW136947   3.756   3.913   7.014 -0.1354 -0.0165  0.0048
 8437SOL    HW236948   3.681   3.791   7.025 -1.1100  1.7773  0.1143
 8438SOL     OW36949   1.295   4.635   7.839  0.6606  0.6508 -0.1446
 8438SOL    HW136950   1.255   4.715   7.874  0.5393  0.7695 -0.5560
 8438SOL    HW236951   1.335   4.670   7.759 -0.9143  0.3937 -1.0514
 8439SOL     OW36952   2.965   0.994   8.930  0.5528 -0.3413 -0.2836
 8439SOL    HW136953   2.948   1.010   9.022  0.8364 -1.1702 -0.0847
 8439SOL    HW236954   3.054   1.025   8.918  0.3889  1.1988  2.6282
 8440SOL     OW36955   1.588   3.309   0.071 -0.1424  0.4191  0.2672
 8440SOL    HW136956   1.566   3.249  17.743  0.9455  0.6085 -0.2226
 8440SOL    HW236957   1.612   3.383   0.016  2.6152 -1.1365 -0.6391
 8441SOL     OW36958   4.150   4.612   6.907  0.4308  0.7290 -0.2201
 8441SOL    HW136959   4.236   4.594   6.945  0.7750 -0.9233 -1.7662
 8441SOL    HW236960   4.175   4.634   6.817 -2.4350  0.5743 -1.0539
 8442SOL     OW36961   1.826   4.336   5.929 -0.7925  0.1596  0.1265
 8442SOL    HW136962   1.844   4.414   5.980 -2.1596  0.8943 -0.5063
 8442SOL    HW236963   1.753   4.368   5.875 -0.1823 -0.6442 -1.1744
 8443SOL     OW36964   2.639   3.311   5.894 -0.2192  0.0288  0.6660
 8443SOL    HW136965   2.724   3.350   5.913 -0.2550  0.9814 -1.1158
 8443SOL    HW236966   2.595   3.380   5.845 -2.4832 -1.1733  0.9742
 8444SOL     OW36967   1.958   4.622  11.506 -0.0149  0.2279 -0.0607
 8444SOL    HW136968   1.904   4.543  11.505  0.5615 -0.1555 -1.0860
 8444SOL    HW236969   2.033   4.589  11.554 -0.8172 -1.4584  0.0260
 8445SOL     OW36970   2.040   1.355   4.897 -0.2837  0.2552 -0.3470
 8445SOL    HW136971   1.964   1.354   4.954  0.6040  0.9808  0.8318
 8445SOL    HW236972   2.119   1.348   4.950 -0.4511  0.7201 -0.0419
 8446SOL     OW36973   1.102   3.107   6.036  0.2255 -0.6543  0.0052
 8446SOL    HW136974   1.094   3.024   6.084  0.3607 -1.1064 -0.7580
 8446SOL    HW236975   1.191   3.114   6.001  0.0716  0.4730 -0.1418
 8447SOL     OW36976   3.348   4.316   6.196  0.0545  0.3717  1.1709
 8447SOL    HW136977   3.262   4.348   6.221 -2.0052 -4.1126 -0.2454
 8447SOL    HW236978   3.398   4.329   6.277  1.4919  0.4896  0.2619
 8448SOL     OW36979   1.686   2.129  11.379 -0.0137  0.1604 -0.2064
 8448SOL    HW136980   1.736   2.195  11.332  0.5134  1.3075  1.9408
 8448SOL    HW236981   1.751   2.058  11.370  0.2962  0.1948  1.6098
 8449SOL     OW36982   4.443   4.731  12.454  0.6830  0.0047  0.9936
 8449SOL    HW136983   4.470   4.725  12.545 -0.2760  0.2971  1.2912
 8449SOL    HW236984   4.383   4.656  12.449 -0.3023  0.8289  0.5440
 8450SOL     OW36985   4.004   4.369   1.150 -0.2690 -0.7136 -0.1837
 8450SOL    HW136986   4.022   4.419   1.070  1.0692  1.4911  1.4832
 8450SOL    HW236987   3.965   4.291   1.112 -0.2649 -0.7066 -0.2023
 8451SOL     OW36988   2.831   2.233   6.208 -0.1338  0.1346  0.4058
 8451SOL    HW136989   2.760   2.211   6.148 -0.1187 -3.5126  1.6996
 8451SOL    HW236990   2.845   2.152   6.256 -0.3519 -0.6230 -0.8100
 8452SOL     OW36991   1.278   3.769   7.190 -0.2844  0.0343  0.2390
 8452SOL    HW136992   1.362   3.812   7.170 -0.4063 -0.3105 -1.0317
 8452SOL    HW236993   1.220   3.830   7.143 -0.8667 -0.1229  0.7586
 8453SOL     OW36994   0.325   2.800   4.759 -0.2056  0.3603  0.5680
 8453SOL    HW136995   0.238   2.776   4.791 -0.2023 -0.2038  0.1478
 8453SOL    HW236996   0.341   2.744   4.684  1.6547 -0.9607  1.9550
 8454SOL     OW36997   2.188   4.368  12.139 -0.6334 -0.3733 -0.7518
 8454SOL    HW136998   2.209   4.303  12.071  3.0146 -0.2382  0.2641
 8454SOL    HW236999   2.124   4.309  12.178  0.6426 -0.7232  0.7982
 8455SOL     OW37000   1.608   1.857   5.082 -0.4849  0.2236  0.6219
 8455SOL    HW137001   1.703   1.844   5.085 -0.2293  2.1040  0.9763
 8455SOL    HW237002   1.588   1.793   5.014  0.3379  0.1123  0.4857
 8456SOL     OW37003   4.006   2.378  17.614 -0.1257  0.1650  0.4096
 8456SOL    HW137004   4.056   2.449  17.574 -1.4725  2.3600  2.6683
 8456SOL    HW237005   4.063   2.305  17.589 -1.2341 -0.2839 -0.8175
 8457SOL     OW37006   3.906   1.168   2.014 -0.2101  0.1701  0.1758
 8457SOL    HW137007   3.881   1.150   2.105 -2.3129 -2.2894 -0.8874
 8457SOL    HW237008   4.001   1.173   2.026 -0.2078  2.2438 -0.8182
 8458SOL     OW37009   3.666   2.315   7.609  0.1396  0.4324 -0.2978
 8458SOL    HW137010   3.649   2.263   7.531  2.0932  0.7010 -0.9008
 8458SOL    HW237011   3.749   2.282   7.644 -0.3726  0.3482  0.8653
 8459SOL     OW37012   3.250   0.261   5.221  0.1420  0.0491  0.5761
 8459SOL    HW137013   3.192   0.337   5.223  0.8206  0.6361 -1.8069
 8459SOL    HW237014   3.331   0.306   5.246  0.3920  0.4549 -0.9531
 8460SOL     OW37015   3.363   3.934   1.880 -0.1707 -0.0947  0.0490
 8460SOL    HW137016   3.363   4.028   1.862  1.2482 -0.0453  0.3543
 8460SOL    HW237017   3.356   3.943   1.975 -2.3474  1.0229 -0.2016
 8461SOL     OW37018   2.866   3.712   2.761 -0.5433  0.3184 -0.0435
 8461SOL    HW137019   2.915   3.793   2.748  1.4583 -0.7241  0.8954
 8461SOL    HW237020   2.819   3.736   2.842  0.8794  0.8787  0.6224
 8462SOL     OW37021   1.647   2.193  15.377  0.0324  0.2156  0.4990
 8462SOL    HW137022   1.741   2.174  15.387  0.0768  0.3622  0.3674
 8462SOL    HW237023   1.648   2.225  15.287 -1.9700 -0.3681  0.2680
 8463SOL     OW37024   0.382   0.992   2.454  0.2575  0.1846 -0.6256
 8463SOL    HW137025   0.319   1.044   2.404 -0.4364 -0.2441 -0.1924
 8463SOL    HW237026   0.396   1.049   2.530 -3.0945  2.2336 -1.5608
 8464SOL     OW37027   3.842   3.121   0.623  0.2044 -0.4364 -0.1265
 8464SOL    HW137028   3.758   3.110   0.579 -0.9539  1.8755  1.5377
 8464SOL    HW237029   3.863   3.208   0.590 -0.5448  0.1910  1.0001
 8465SOL     OW37030   0.104   2.165   1.403 -0.6658 -0.1676 -0.1975
 8465SOL    HW137031   0.056   2.246   1.390 -0.0511 -0.0135 -1.4855
 8465SOL    HW237032   0.170   2.175   1.335 -2.6596  1.2648 -1.9163
 8466SOL     OW37033   1.551   2.262   4.464 -0.1339 -0.2279 -0.3035
 8466SOL    HW137034   1.643   2.255   4.486  0.0919 -2.2525 -1.9273
 8466SOL    HW237035   1.556   2.289   4.372  0.7372 -0.2203 -0.2543
 8467SOL     OW37036   0.606   4.132   8.605 -0.6681 -0.4082  0.2807
 8467SOL    HW137037   0.565   4.153   8.521 -0.9110  1.4989  0.8810
 8467SOL    HW237038   0.695   4.113   8.573  0.6363  0.1795  3.5417
 8468SOL     OW37039   4.232   2.578   2.777  1.0358  0.1102 -0.0072
 8468SOL    HW137040   4.291   2.643   2.737 -0.4478  0.9949 -0.7504
 8468SOL    HW237041   4.144   2.616   2.770  1.1921  0.2972 -0.9101
 8469SOL     OW37042   1.366   0.164   4.782 -0.7473 -0.4767  0.1438
 8469SOL    HW137043   1.432   0.200   4.840  0.6661 -1.8498 -0.6294
 8469SOL    HW237044   1.295   0.227   4.797 -2.6100 -2.3656 -0.6416
 8470SOL     OW37045   0.597   4.121   7.225  0.3347  0.0442  0.0534
 8470SOL    HW137046   0.673   4.066   7.245  0.4768 -0.1178 -0.9112
 8470SOL    HW237047   0.544   4.050   7.188 -0.9872  0.9768  0.1637
 8471SOL     OW37048   2.207   0.454   8.251  0.0022  0.0230  0.3721
 8471SOL    HW137049   2.221   0.394   8.177 -2.6097 -1.4831  1.1236
 8471SOL    HW237050   2.127   0.407   8.272 -0.4893  0.8622  0.3424
 8472SOL     OW37051   2.895   0.344   7.266  0.9643  0.2224 -0.0761
 8472SOL    HW137052   2.939   0.429   7.265  0.7143  0.3844  1.9730
 8472SOL    HW237053   2.956   0.294   7.213 -1.1201 -1.4294 -0.8959
 8473SOL     OW37054   4.485   3.820   2.355 -0.0320 -0.2026 -0.4165
 8473SOL    HW137055   4.538   3.899   2.362 -2.0229  1.0014  0.9898
 8473SOL    HW237056   4.401   3.865   2.354  1.1722  2.0569  0.7296
 8474SOL     OW37057   4.500   3.208   5.417  0.1640  0.1604 -0.3088
 8474SOL    HW137058   4.589   3.214   5.451 -0.0435 -2.2093  0.6002
 8474SOL    HW237059   4.492   3.113   5.420 -0.8646  0.3209  1.5397
 8475SOL     OW37060   0.801   2.830   0.475 -0.1114  0.4468 -0.1714
 8475SOL    HW137061   0.874   2.769   0.463 -1.5221 -1.3410  0.3965
 8475SOL    HW237062   0.824   2.878   0.554  0.4180 -0.2828  0.1180
 8476SOL     OW37063   3.222   0.251   7.434 -0.2104  0.5632  0.1411
 8476SOL    HW137064   3.210   0.262   7.340  2.5468  0.6947 -0.1669
 8476SOL    HW237065   3.168   0.321   7.472  2.4656  2.9749 -0.4856
 8477SOL     OW37066   1.946   3.021   7.645 -0.1205  0.3377 -0.3288
 8477SOL    HW137067   1.989   3.074   7.712 -1.2258  0.7868  0.0393
 8477SOL    HW237068   1.857   3.048   7.671 -0.0032  1.1517 -0.7798
 8478SOL     OW37069   2.134   4.043  10.704  0.0292 -0.0515 -0.3270
 8478SOL    HW137070   2.102   3.953  10.711 -0.6043  0.3779  2.0013
 8478SOL    HW237071   2.196   4.038  10.630 -0.7964  0.6313 -1.0678
 8479SOL     OW37072   0.303   2.765   1.969  0.2835 -0.5422  0.2574
 8479SOL    HW137073   0.331   2.705   1.900 -1.9856 -2.4329  0.9590
 8479SOL    HW237074   0.319   2.709   2.046  0.3287  0.1226  0.7305
 8480SOL     OW37075   0.521   3.843   4.225  0.5151  0.1560 -0.2487
 8480SOL    HW137076   0.503   3.873   4.136 -2.0379  0.7190  0.4547
 8480SOL    HW237077   0.535   3.925   4.273  2.2740  0.1764 -0.7925
 8481SOL     OW37078   2.155   2.359   5.315 -0.0790  0.0644  0.3982
 8481SOL    HW137079   2.238   2.362   5.268 -0.4658  3.1220 -0.0599
 8481SOL    HW237080   2.109   2.287   5.272 -0.0960  1.2997 -1.6713
 8482SOL     OW37081   2.255   1.306  12.088  0.4813 -0.0222  0.2457
 8482SOL    HW137082   2.214   1.388  12.113  0.1646  0.6391 -2.4721
 8482SOL    HW237083   2.279   1.322  11.997 -0.1779  0.3843  0.1460
 8483SOL     OW37084   4.389   0.674   7.927  0.0972 -0.4778 -0.3071
 8483SOL    HW137085   4.430   0.629   7.853  1.7554  2.4416 -1.1404
 8483SOL    HW237086   4.411   0.607   7.992  0.7102  0.6455  0.6227
 8484SOL     OW37087   4.088   3.952   7.194  0.2898 -0.1631 -0.0229
 8484SOL    HW137088   4.034   3.874   7.208  0.7327 -0.4758 -0.0482
 8484SOL    HW237089   4.157   3.951   7.260  1.5686  2.1908 -1.3187
 8485SOL     OW37090   2.086   0.155   3.139 -0.2931 -0.3442 -0.0712
 8485SOL    HW137091   2.058   0.126   3.052 -1.9699  1.0724  0.0056
 8485SOL    HW237092   2.013   0.204   3.177 -1.2316 -1.6134 -0.2417
 8486SOL     OW37093   0.324   2.904   8.090  0.0291 -0.2857 -0.7498
 8486SOL    HW137094   0.261   2.903   8.162  0.5734 -0.0327 -0.2789
 8486SOL    HW237095   0.383   2.830   8.103  2.6093  1.7012 -1.3937
 8487SOL     OW37096   3.977   2.526   9.701 -0.2817  0.2391 -0.8870
 8487SOL    HW137097   3.951   2.614   9.730 -0.5572  0.2761 -1.2440
 8487SOL    HW237098   4.072   2.520   9.715 -0.5107 -0.9457  0.1116
 8488SOL     OW37099   4.321   2.053   5.292  0.3396  0.7018 -0.4113
 8488SOL    HW137100   4.301   2.014   5.206  0.0674  0.0062 -0.0280
 8488SOL    HW237101   4.241   2.098   5.315  0.1663 -0.8740  2.0447
 8489SOL     OW37102   0.893   2.849  17.059  0.2449  0.0811 -0.8749
 8489SOL    HW137103   0.963   2.882  17.116 -0.3950 -0.5376  0.2694
 8489SOL    HW237104   0.835   2.800  17.117  0.8545  0.8154  0.3685
 8490SOL     OW37105   1.611   4.658   4.731 -0.9529  0.2517 -0.1250
 8490SOL    HW137106   1.646   4.630   4.815 -0.7170  0.1369 -0.2587
 8490SOL    HW237107   1.526   4.614   4.729  0.4410 -2.4224  0.3667
 8491SOL     OW37108   2.786   2.185   5.738  0.2145 -0.3907 -0.2693
 8491SOL    HW137109   2.856   2.194   5.803  1.3540 -1.0785 -1.4065
 8491SOL    HW237110   2.807   2.097   5.707  2.4849  0.7453 -1.9392
 8492SOL     OW37111   3.504   2.767   6.756  0.0006  0.3841 -0.2414
 8492SOL    HW137112   3.549   2.690   6.720  0.4568 -1.1148  3.5245
 8492SOL    HW237113   3.469   2.732   6.838  0.9276 -0.1229 -0.0639
 8493SOL     OW37114   1.776   4.358   7.834 -0.1284  0.0162  1.0367
 8493SOL    HW137115   1.864   4.373   7.801 -0.3577 -0.2745  0.2921
 8493SOL    HW237116   1.759   4.446   7.865 -1.2583 -0.2282  1.1273
 8494SOL     OW37117   3.824   1.897   6.974  1.0314 -0.3330  0.0551
 8494SOL    HW137118   3.815   1.830   7.042 -2.6438  0.8016  0.7049
 8494SOL    HW237119   3.770   1.969   7.007  0.0100 -0.3666 -1.5134
 8495SOL     OW37120   3.036   3.344   2.086  0.6646 -0.2628  0.2589
 8495SOL    HW137121   2.961   3.350   2.026  0.7156  0.1586  0.2404
 8495SOL    HW237122   3.005   3.276   2.146 -0.0588  0.8287  1.1162
 8496SOL     OW37123   4.533   2.466   6.693  0.3228 -0.7648  0.3603
 8496SOL    HW137124   4.613   2.490   6.646 -0.4975 -1.1601 -1.2453
 8496SOL    HW237125   4.506   2.550   6.729 -0.1210 -1.8735  2.6185
 8497SOL     OW37126   4.630   2.332   4.741 -0.6805  0.3172  0.2424
 8497SOL    HW137127   4.704   2.372   4.696 -1.4205 -0.8180 -1.9937
 8497SOL    HW237128   4.555   2.388   4.722 -0.1401  0.7514 -0.5938
 8498SOL     OW37129   3.831   3.077  15.368  0.2886 -0.3780 -0.6676
 8498SOL    HW137130   3.762   3.036  15.317 -0.3718  1.3603 -1.1946
 8498SOL    HW237131   3.906   3.030  15.332  0.0119 -1.0031 -0.4121
 8499SOL     OW37132   4.078   1.882   9.611 -0.0751 -0.6489 -0.3608
 8499SOL    HW137133   4.089   1.886   9.516 -0.6873  0.5844 -0.3710
 8499SOL    HW237134   4.053   1.791   9.628 -1.0824 -0.2976  0.0395
 8500SOL     OW37135   0.257   2.773   0.813 -0.1211  0.5115  0.2471
 8500SOL    HW137136   0.196   2.764   0.886 -0.7167  1.2199 -0.1695
 8500SOL    HW237137   0.232   2.696   0.762 -2.4042  0.4800  1.4278
 8501SOL     OW37138   3.047   3.434   7.060  0.3185  0.0785 -0.0768
 8501SOL    HW137139   3.063   3.491   7.135  0.6276 -0.5484  0.3340
 8501SOL    HW237140   3.076   3.352   7.101 -0.8610  0.0368  0.6937
 8502SOL     OW37141   0.140   1.308  13.335 -0.4514  0.1491  0.0638
 8502SOL    HW137142   0.132   1.398  13.305  0.3015  0.2011  0.0295
 8502SOL    HW237143   0.135   1.255  13.256 -0.2030  0.7647 -0.3614
 8503SOL     OW37144   0.451   0.770   4.186 -0.2803  0.2288  0.0326
 8503SOL    HW137145   0.387   0.766   4.115 -2.1872  1.2448  1.6955
 8503SOL    HW237146   0.499   0.850   4.165 -0.3367  0.5017  0.9325
 8504SOL     OW37147   1.571   2.936   7.498 -0.2066 -0.2592  0.5232
 8504SOL    HW137148   1.585   2.971   7.586  0.5070 -1.0337  0.7215
 8504SOL    HW237149   1.577   3.017   7.448 -0.8923  1.5619  3.3549
 8505SOL     OW37150   1.780   1.977   4.617 -0.4188 -0.5368 -0.3723
 8505SOL    HW137151   1.820   1.897   4.582  0.4775 -0.8561  1.3823
 8505SOL    HW237152   1.833   1.986   4.696  1.3946 -1.4042 -1.4673
 8506SOL     OW37153   3.170   2.089   2.815  0.4669  0.1663  0.6563
 8506SOL    HW137154   3.262   2.087   2.842  1.0195 -1.9506 -1.3388
 8506SOL    HW237155   3.133   2.071   2.901  1.8265  1.3447  1.4842
 8507SOL     OW37156   3.031   2.115   5.365  0.1191  0.1809 -0.1261
 8507SOL    HW137157   2.975   2.039   5.347 -0.2131  0.5691 -0.7328
 8507SOL    HW237158   3.070   2.081   5.446  1.4346 -1.6503 -1.5271
 8508SOL     OW37159   0.572   4.333   9.962 -0.4793 -0.6768  0.0516
 8508SOL    HW137160   0.607   4.346  10.050 -0.6666  1.2324 -0.1670
 8508SOL    HW237161   0.596   4.242   9.946  1.4979 -0.3714  1.2549
 8509SOL     OW37162   3.683   0.682   8.347 -0.1976 -0.3906  0.0048
 8509SOL    HW137163   3.634   0.734   8.283  0.1751 -0.4957 -0.3661
 8509SOL    HW237164   3.756   0.655   8.292  0.1480  0.2383  0.1585
 8510SOL     OW37165   0.132   2.841   7.545 -0.3252 -0.1393 -0.2816
 8510SOL    HW137166   0.206   2.782   7.562  1.4877  1.6835 -1.7769
 8510SOL    HW237167   0.071   2.790   7.492 -0.9470  1.0362 -0.7083
 8511SOL     OW37168   1.555   2.618   2.275 -0.6733 -0.3725 -0.6403
 8511SOL    HW137169   1.581   2.548   2.215 -2.3705 -1.4015 -0.1648
 8511SOL    HW237170   1.526   2.677   2.206  0.4970  0.5803 -0.3298
 8512SOL     OW37171   2.814   3.167   7.685 -0.4381  0.4061 -0.3653
 8512SOL    HW137172   2.834   3.214   7.766 -1.3439 -0.8777  0.6197
 8512SOL    HW237173   2.839   3.241   7.630 -1.2859  0.3927 -0.7725
 8513SOL     OW37174   0.620   0.620  13.225  0.3783 -0.5123  0.0042
 8513SOL    HW137175   0.533   0.593  13.196 -0.2039 -0.1762  1.4234
 8513SOL    HW237176   0.640   0.569  13.303 -2.4310 -0.5298  0.7228
 8514SOL     OW37177   3.595   0.199   9.138 -0.7466  0.2329  0.1237
 8514SOL    HW137178   3.594   0.245   9.222  0.2998  1.3386 -0.4726
 8514SOL    HW237179   3.517   0.144   9.145 -0.1908 -0.6126 -0.2339
 8515SOL     OW37180   1.509   3.455   8.444 -0.1949 -0.3983 -0.1176
 8515SOL    HW137181   1.442   3.519   8.466 -0.1392 -0.1724 -0.6208
 8515SOL    HW237182   1.499   3.388   8.512 -0.5241  0.6857  0.9045
 8516SOL     OW37183   0.460   2.184   9.079 -0.4807 -0.1885  0.0712
 8516SOL    HW137184   0.515   2.177   9.157 -1.4987  0.3117  0.8343
 8516SOL    HW237185   0.489   2.263   9.032 -0.9950 -0.2812 -0.3996
 8517SOL     OW37186   4.490   3.343   4.357  0.1838 -0.1078 -0.0258
 8517SOL    HW137187   4.507   3.397   4.434 -0.9240 -0.8146  0.7184
 8517SOL    HW237188   4.509   3.415   4.297  1.7018 -0.1112  0.4593
 8518SOL     OW37189   4.303   4.226  14.569 -0.2785  0.2379 -0.0361
 8518SOL    HW137190   4.396   4.212  14.586 -0.5654 -3.4841 -1.5913
 8518SOL    HW237191   4.298   4.265  14.481  0.7198  0.0172 -0.1890
 8519SOL     OW37192   1.025   3.886   4.740 -0.1528 -0.7497  0.4771
 8519SOL    HW137193   0.958   3.832   4.698 -0.8220 -0.8710  1.6880
 8519SOL    HW237194   1.082   3.915   4.668  2.2988 -1.5988  2.0567
 8520SOL     OW37195   0.731   2.284  13.170 -0.2701  0.5628 -0.1263
 8520SOL    HW137196   0.718   2.379  13.180  1.5449  0.7636  0.2018
 8520SOL    HW237197   0.804   2.267  13.229 -0.6975  1.2739  0.6084
 8521SOL     OW37198   1.484   2.534   7.302  0.1612  0.4639  0.3501
 8521SOL    HW137199   1.483   2.451   7.255  1.8190 -0.0649  1.2335
 8521SOL    HW237200   1.448   2.581   7.227  3.3561  0.9344 -0.9036
 8522SOL     OW37201   2.040   4.555   2.683  0.0897  0.1220 -0.3524
 8522SOL    HW137202   2.122   4.593   2.651  0.8568 -1.8527 -0.6919
 8522SOL    HW237203   1.980   4.595   2.619 -1.1231  1.0683  1.3665
 8523SOL     OW37204   3.921   3.786   3.954  0.1882  0.2811  0.1938
 8523SOL    HW137205   3.915   3.844   3.878  1.2035 -1.1136 -0.9565
 8523SOL    HW237206   3.836   3.745   3.968 -0.0934  0.1594 -1.9266
 8524SOL     OW37207   2.811   0.380   6.512 -0.5404 -0.0556 -0.8284
 8524SOL    HW137208   2.742   0.350   6.452  0.4182  0.7687 -2.3575
 8524SOL    HW237209   2.787   0.469   6.533  0.1789  0.5651 -2.5773
 8525SOL     OW37210   1.254   1.409   3.631  0.1399 -0.2744  0.2359
 8525SOL    HW137211   1.231   1.316   3.625  1.5434 -0.7814  2.9415
 8525SOL    HW237212   1.337   1.421   3.586  0.0301  1.5938  0.5249
 8526SOL     OW37213   0.974   2.002  16.710  0.1548  0.6232 -0.3343
 8526SOL    HW137214   0.987   1.907  16.706 -1.1465  0.4229  0.0769
 8526SOL    HW237215   0.881   2.024  16.705  0.1692  1.2285  1.9855
 8527SOL     OW37216   1.798   1.686  15.121  0.0259 -0.1573  0.1607
 8527SOL    HW137217   1.855   1.626  15.168 -1.3073 -0.1428  1.8161
 8527SOL    HW237218   1.856   1.730  15.059  1.2970 -1.7102  0.2288
 8528SOL     OW37219   3.790   4.337   7.672  0.1246 -0.5374 -0.3099
 8528SOL    HW137220   3.700   4.366   7.689  0.8958  0.6388  1.7743
 8528SOL    HW237221   3.772   4.267   7.610  1.2512 -1.5786  0.5464
 8529SOL     OW37222   2.559   4.607  15.628 -0.4218 -0.3230  0.5139
 8529SOL    HW137223   2.468   4.610  15.658 -1.4748 -0.2334 -2.7177
 8529SOL    HW237224   2.574   4.522  15.585  2.9911  0.3337  0.4096
 8530SOL     OW37225   0.379   1.827   2.808 -0.0987 -0.0616  0.1028
 8530SOL    HW137226   0.380   1.775   2.728 -3.0570 -0.1009  0.0701
 8530SOL    HW237227   0.310   1.778   2.854 -0.0356  0.1991  0.4801
 8531SOL     OW37228   0.977   1.384   4.200 -0.6240  0.5040 -0.1889
 8531SOL    HW137229   1.011   1.316   4.258  1.8786  0.6317 -1.5164
 8531SOL    HW237230   0.908   1.339   4.150  0.2271  1.0841 -1.8952
 8532SOL     OW37231   1.558   4.595   9.721  0.3814  0.0588  0.0941
 8532SOL    HW137232   1.584   4.532   9.788 -0.3548 -0.3641 -0.0250
 8532SOL    HW237233   1.479   4.636   9.755 -0.9671 -1.4174 -1.2338
 8533SOL     OW37234   4.166   1.391   1.141  0.1877  0.4834 -0.4521
 8533SOL    HW137235   4.201   1.413   1.055 -1.6476  1.6122 -0.9202
 8533SOL    HW237236   4.111   1.314   1.124 -1.3760  1.2050  1.3370
 8534SOL     OW37237   0.872   0.398   3.014  0.4063  0.1840 -0.4355
 8534SOL    HW137238   0.785   0.360   3.022  0.4103  0.1339 -0.6506
 8534SOL    HW237239   0.881   0.450   3.095  2.2213 -1.6550  0.5386
 8535SOL     OW37240   4.562   3.845   8.172  0.0158 -0.2254 -0.0388
 8535SOL    HW137241   4.593   3.931   8.141 -0.4477  1.0904  3.1287
 8535SOL    HW237242   4.638   3.788   8.162  1.8610  2.0087  1.2953
 8536SOL     OW37243   0.964   0.409  12.254 -0.1439  0.5442  0.1103
 8536SOL    HW137244   0.934   0.377  12.169  2.2329 -1.7068  0.1318
 8536SOL    HW237245   1.057   0.430  12.245 -0.4042  0.6579 -2.2683
 8537SOL     OW37246   3.553   1.033  17.063 -0.0920  0.0742 -0.3339
 8537SOL    HW137247   3.564   1.127  17.077 -0.5265  0.0474  0.1931
 8537SOL    HW237248   3.468   1.013  17.102 -1.0030 -0.7787 -2.7709
 8538SOL     OW37249   1.947   3.686   1.217 -0.3568 -0.3343 -0.0172
 8538SOL    HW137250   2.010   3.687   1.290 -0.2317  0.7530 -0.1298
 8538SOL    HW237251   1.910   3.774   1.211 -0.3824 -0.1380  3.2653
 8539SOL     OW37252   2.893   3.665   6.350 -0.3624  0.5079  0.3455
 8539SOL    HW137253   2.962   3.607   6.383 -0.1525  0.1394 -0.7346
 8539SOL    HW237254   2.829   3.645   6.418  1.8857  0.6903  2.5295
 8540SOL     OW37255   3.061   4.344   3.495 -0.5596 -0.0157 -0.2367
 8540SOL    HW137256   3.062   4.278   3.564 -0.3190 -0.4887 -0.6916
 8540SOL    HW237257   2.974   4.378   3.514 -0.8003 -0.0175 -1.3217
 8541SOL     OW37258   3.878   2.509   8.215 -0.1027  0.1520  0.0638
 8541SOL    HW137259   3.906   2.563   8.289  0.0283  0.3101 -0.1025
 8541SOL    HW237260   3.941   2.437   8.214  0.3800  0.5602  0.7240
 8542SOL     OW37261   1.117   0.754   0.035 -0.6124  0.1916 -0.1768
 8542SOL    HW137262   1.093   0.667   0.066  0.8989  0.1959  0.9697
 8542SOL    HW237263   1.209   0.737   0.015 -1.3651 -1.3491 -2.2886
 8543SOL     OW37264   3.601   1.507   3.832  0.1842 -0.0877 -0.3808
 8543SOL    HW137265   3.518   1.535   3.794 -0.3046 -0.3800  0.4739
 8543SOL    HW237266   3.613   1.415   3.807  1.3678  0.0766 -0.4086
 8544SOL     OW37267   4.169   1.137   9.242  0.4030  0.3448  0.1696
 8544SOL    HW137268   4.181   1.230   9.222 -0.2883  0.2241 -0.7865
 8544SOL    HW237269   4.256   1.102   9.259 -0.2390 -1.2023  0.2964
 8545SOL     OW37270   4.660   2.121  16.709 -1.0426 -0.3001  0.5902
 8545SOL    HW137271   4.619   2.154  16.789 -1.3603 -2.9169  1.5234
 8545SOL    HW237272   0.019   2.125  16.719 -0.8010  0.1308 -1.8310
 8546SOL     OW37273   1.836   2.140   4.090 -0.4864  0.0587 -0.2110
 8546SOL    HW137274   1.809   2.186   4.010 -2.6409  0.1957  0.5848
 8546SOL    HW237275   1.917   2.189   4.102  1.0876 -2.6832  0.2839
 8547SOL     OW37276   3.452   0.670   3.985  0.6162  0.4125  0.3753
 8547SOL    HW137277   3.445   0.706   3.897  1.3499 -1.7538 -0.5761
 8547SOL    HW237278   3.536   0.626   3.999  0.2356 -0.2774  0.5395
 8548SOL     OW37279   4.494   3.338  15.808 -0.2759  0.4934  0.1180
 8548SOL    HW137280   4.526   3.392  15.736  0.0768  0.0914 -0.0255
 8548SOL    HW237281   4.428   3.399  15.841 -1.3131  0.5198 -2.0235
 8549SOL     OW37282   1.648   1.322   2.594  0.3956 -0.0028 -0.3999
 8549SOL    HW137283   1.717   1.261   2.619 -0.8281 -0.9768  0.6303
 8549SOL    HW237284   1.665   1.401   2.646 -1.6599  0.2506 -0.1041
 8550SOL     OW37285   2.872   1.132   2.191  0.0673  0.2977  0.1565
 8550SOL    HW137286   2.953   1.134   2.242 -0.4384  0.7178  0.9382
 8550SOL    HW237287   2.822   1.098   2.266  1.6478 -0.8966  0.6672
 8551SOL     OW37288   1.270   1.331   6.863  0.2243 -0.1113  0.2037
 8551SOL    HW137289   1.242   1.293   6.780 -1.3335 -0.5303  0.9152
 8551SOL    HW237290   1.335   1.396   6.839 -1.3970  0.5323 -2.4149
 8552SOL     OW37291   0.257   3.342   9.000  0.1099 -0.5997 -0.2320
 8552SOL    HW137292   0.219   3.430   8.993 -1.0338 -1.0734  0.0299
 8552SOL    HW237293   0.186   3.279   8.993 -0.8986  0.1778  2.8302
 8553SOL     OW37294   0.499   4.495   7.398 -0.0041  0.1276  0.2258
 8553SOL    HW137295   0.480   4.576   7.351 -1.6982  0.1772  0.9770
 8553SOL    HW237296   0.416   4.453   7.375  1.3575 -1.3151 -1.9470
 8554SOL     OW37297   0.777   2.912  13.937  1.1333 -0.1906 -0.7144
 8554SOL    HW137298   0.723   2.842  13.974  0.8418  1.4537  1.9211
 8554SOL    HW237299   0.723   2.937  13.862  2.0550  1.6901 -0.7557
 8555SOL     OW37300   0.963   1.219   5.739  0.0950 -0.0427  0.1323
 8555SOL    HW137301   1.037   1.202   5.796  0.8201  0.3446 -0.6860
 8555SOL    HW237302   1.012   1.250   5.662 -0.2467  0.1762  0.0050
 8556SOL     OW37303   1.652   2.443   1.605  0.2373 -0.6215 -0.1260
 8556SOL    HW137304   1.617   2.491   1.530 -3.0863 -1.9686  0.5857
 8556SOL    HW237305   1.606   2.360   1.618 -0.1654 -0.6479 -1.6895
 8557SOL     OW37306   4.235   2.335   8.944  0.2351  0.6463 -0.1635
 8557SOL    HW137307   4.208   2.425   8.963  0.2435  0.7996 -0.8935
 8557SOL    HW237308   4.314   2.348   8.892  0.2196 -0.3625 -0.4366
 8558SOL     OW37309   2.708   0.875  15.221  0.0905 -0.6164 -0.1202
 8558SOL    HW137310   2.710   0.807  15.289  0.9868 -0.8381 -0.3759
 8558SOL    HW237311   2.791   0.865  15.175  0.0497  2.4207 -0.8281
 8559SOL     OW37312   4.063   1.515   5.996 -0.4363 -0.0411  0.5207
 8559SOL    HW137313   4.130   1.583   5.996  0.0463 -0.5266 -1.7439
 8559SOL    HW237314   4.054   1.493   6.089  0.0111 -0.2708  0.5090
 8560SOL     OW37315   2.056   4.278   5.148  0.2210 -0.1185 -0.2561
 8560SOL    HW137316   1.994   4.251   5.080  0.3702  2.7268 -1.4914
 8560SOL    HW237317   2.065   4.196   5.197  0.4162  0.3155  0.4253
 8561SOL     OW37318   3.551   1.779   5.725  0.1009  0.0588 -0.1951
 8561SOL    HW137319   3.477   1.768   5.785  0.0421  1.9232  0.0690
 8561SOL    HW237320   3.624   1.742   5.774 -2.5943 -0.5112  3.4274
 8562SOL     OW37321   4.514   4.163   0.550  0.6746 -0.0462 -0.2103
 8562SOL    HW137322   4.508   4.256   0.525  1.5535  0.3229  0.9679
 8562SOL    HW237323   4.515   4.160   0.645 -2.3097 -1.3888 -0.2336
 8563SOL     OW37324   1.899   4.063  12.000 -0.2978  0.2240 -0.0792
 8563SOL    HW137325   1.874   4.083  11.910 -0.7837 -1.9988 -0.4483
 8563SOL    HW237326   1.822   4.015  12.029  0.0684 -0.1822  0.2141
 8564SOL     OW37327   1.081   0.124  16.085  0.3910  0.2530  0.0293
 8564SOL    HW137328   1.021   0.054  16.110 -0.0594  0.3552 -0.8016
 8564SOL    HW237329   1.146   0.078  16.031 -1.4890 -3.4188  0.8945
 8565SOL     OW37330   3.810   4.523   9.124  0.2203  0.0196  0.1812
 8565SOL    HW137331   3.795   4.618   9.122  1.4882  0.2212 -0.0986
 8565SOL    HW237332   3.736   4.477   9.084  0.6173 -0.8929  0.5085
 8566SOL     OW37333   1.366   3.517   6.536 -0.3069  0.4769  0.2922
 8566SOL    HW137334   1.379   3.455   6.607  1.0488 -1.2688 -1.4642
 8566SOL    HW237335   1.317   3.469   6.469 -1.4968 -0.0569  1.5628
 8567SOL     OW37336   2.857   0.347   3.026  0.3044 -0.6575 -0.0564
 8567SOL    HW137337   2.900   0.270   2.989 -0.5884 -1.7402  1.1476
 8567SOL    HW237338   2.816   0.293   3.094 -0.2298 -0.2487 -0.0562
 8568SOL     OW37339   2.940   0.844   8.611  0.4507  0.0983  0.1176
 8568SOL    HW137340   2.886   0.772   8.577  1.8914 -0.8681 -0.1220
 8568SOL    HW237341   2.885   0.868   8.685  1.5299  0.4263  0.8098
 8569SOL     OW37342   1.876   1.244   5.373 -0.1106 -0.2791 -0.2937
 8569SOL    HW137343   1.787   1.211   5.365 -0.3326  0.5551 -1.3679
 8569SOL    HW237344   1.880   1.252   5.468  1.9198  0.5674 -0.4401
 8570SOL     OW37345   1.094   4.616   1.488  0.3623  0.1147  0.2709
 8570SOL    HW137346   1.148   4.652   1.558  0.5655 -0.0207  0.1854
 8570SOL    HW237347   1.154   4.550   1.453 -0.2125  0.2806 -0.9992
 8571SOL     OW37348   3.167   4.051   0.411 -0.0189  0.6373  0.0051
 8571SOL    HW137349   3.149   4.009   0.327 -4.7463 -0.1903  1.4697
 8571SOL    HW237350   3.186   3.968   0.453  0.2894  0.6470 -0.1084
 8572SOL     OW37351   4.282   2.691   6.808  0.0532  0.0870 -0.5789
 8572SOL    HW137352   4.263   2.604   6.773  0.9278  0.3303 -1.6390
 8572SOL    HW237353   4.242   2.746   6.740 -0.9597  1.7828  1.3732
 8573SOL     OW37354   1.574   1.117   6.111 -0.2549  0.5659  0.7110
 8573SOL    HW137355   1.574   1.041   6.054  2.8419  1.3759 -0.3520
 8573SOL    HW237356   1.636   1.096   6.182  1.4090 -1.7952 -1.4535
 8574SOL     OW37357   4.471   1.853   6.004 -0.2430  0.1229  0.4765
 8574SOL    HW137358   4.424   1.913   6.062 -1.2808  0.5495 -0.8234
 8574SOL    HW237359   4.559   1.866   6.041  0.6255 -2.8956 -0.5535
 8575SOL     OW37360   1.468   0.180   2.891  0.1278  0.0399 -0.2500
 8575SOL    HW137361   1.396   0.241   2.874  0.7554  0.4256 -1.5688
 8575SOL    HW237362   1.491   0.216   2.977  2.0458 -0.2738 -0.6350
 8576SOL     OW37363   4.396   2.745   2.414  0.6146 -0.3204  0.3675
 8576SOL    HW137364   4.378   2.651   2.421 -1.1127  0.0551  0.8061
 8576SOL    HW237365   4.417   2.776   2.502 -0.7426  0.4327  0.4263
 8577SOL     OW37366   3.283   1.690   2.155  0.1316  0.4161 -0.4530
 8577SOL    HW137367   3.235   1.699   2.237  0.3347  1.6288 -0.4569
 8577SOL    HW237368   3.268   1.598   2.135 -1.6142  0.8750 -1.2611
 8578SOL     OW37369   2.562   1.725   8.300  0.4002  0.4365  0.2879
 8578SOL    HW137370   2.601   1.725   8.212  0.2985  1.2387  0.2423
 8578SOL    HW237371   2.629   1.752   8.363  1.0434 -0.2778 -0.0933
 8579SOL     OW37372   3.170   4.266  11.561  0.1815 -0.3590 -0.0987
 8579SOL    HW137373   3.203   4.333  11.621  0.1125 -1.8568  1.6283
 8579SOL    HW237374   3.122   4.211  11.623 -1.1487  0.3287 -0.5057
 8580SOL     OW37375   1.480   1.319  16.693 -0.2786 -0.0817 -0.0846
 8580SOL    HW137376   1.528   1.282  16.767 -0.0656  0.5668  0.1064
 8580SOL    HW237377   1.559   1.323  16.639 -0.8545  0.4347 -0.8836
 8581SOL     OW37378   0.506   0.955  10.650  0.1035 -0.0803  0.3525
 8581SOL    HW137379   0.453   1.015  10.598  0.9431  1.0833  0.8237
 8581SOL    HW237380   0.584   1.006  10.672 -0.0035  0.7698 -1.2550
 8582SOL     OW37381   3.151   3.769   2.514 -0.0551  1.0486  0.2481
 8582SOL    HW137382   3.107   3.685   2.506  0.4042  0.7973  0.3138
 8582SOL    HW237383   3.169   3.798   2.425  0.2665 -2.4010 -0.8129
 8583SOL     OW37384   3.478   2.592   4.225  0.2170 -0.1177  0.5621
 8583SOL    HW137385   3.495   2.633   4.310  0.9492  1.1469 -0.1906
 8583SOL    HW237386   3.503   2.504   4.251  0.6022  0.1640  1.1623
 8584SOL     OW37387   1.075   1.485   9.939  0.4450 -0.2436  0.3296
 8584SOL    HW137388   1.034   1.427   9.875  1.8466 -2.0968  1.1429
 8584SOL    HW237389   1.024   1.475  10.019 -1.1113 -1.2411 -0.7883
 8585SOL     OW37390   3.950   0.253   8.725 -0.1302 -0.2585  0.5103
 8585SOL    HW137391   3.952   0.166   8.766  4.8556 -0.9770 -1.3556
 8585SOL    HW237392   4.039   0.289   8.727  0.0146 -0.6486  1.3994
 8586SOL     OW37393   1.892   4.702  15.210 -0.2204  0.7372  0.5547
 8586SOL    HW137394   1.986   4.708  15.192 -0.3012 -1.7940 -0.6192
 8586SOL    HW237395   1.853   4.712  15.123  1.2377  1.8321  0.0190
 8587SOL     OW37396   0.567   1.982   8.494 -0.7405  0.1776  0.7790
 8587SOL    HW137397   0.490   2.025   8.456 -0.0017 -0.8519 -1.8475
 8587SOL    HW237398   0.568   2.012   8.585  0.7300  1.9091  0.1876
 8588SOL     OW37399   1.595   1.236   3.642  0.3111 -0.0876  0.8089
 8588SOL    HW137400   1.595   1.322   3.600 -2.3028  0.6882  2.3933
 8588SOL    HW237401   1.533   1.187   3.588  2.2371 -0.9471 -0.6107
 8589SOL     OW37402   2.699   3.071   3.295  0.4202 -0.1664  0.8102
 8589SOL    HW137403   2.668   2.998   3.349 -1.1019  0.2141  0.4531
 8589SOL    HW237404   2.700   3.029   3.209 -1.1436  0.8870  0.2700
 8590SOL     OW37405   4.002   4.264   3.799 -0.2438  0.1146 -0.5085
 8590SOL    HW137406   3.922   4.314   3.815  0.2860  0.1729  1.9811
 8590SOL    HW237407   4.054   4.284   3.877 -0.4874 -0.8825 -0.0899
 8591SOL     OW37408   4.247   0.428   1.675  0.6941 -0.6348  0.5359
 8591SOL    HW137409   4.226   0.370   1.602 -0.1445 -1.4212  1.4046
 8591SOL    HW237410   4.257   0.506   1.620 -1.7485 -0.6566  0.0367
 8592SOL     OW37411   3.711   1.206   8.167 -0.1436  0.1528  0.0465
 8592SOL    HW137412   3.675   1.262   8.098  0.9344  1.3312  0.4400
 8592SOL    HW237413   3.633   1.178   8.216 -0.0140 -1.6292 -0.7841
 8593SOL     OW37414   1.665   1.060   6.660 -0.1795  0.4059  0.4382
 8593SOL    HW137415   1.751   1.045   6.621 -0.3719  0.3567  0.0326
 8593SOL    HW237416   1.615   0.982   6.635  0.1884 -0.1084  1.2736
 8594SOL     OW37417   0.883   4.468   8.279 -0.2298  0.3356 -0.1264
 8594SOL    HW137418   0.868   4.507   8.193  0.1444  1.4500  0.3079
 8594SOL    HW237419   0.860   4.534   8.345 -0.4823  0.3076 -0.1877
 8595SOL     OW37420   1.765   4.707  14.950  0.4941 -0.4052 -0.1480
 8595SOL    HW137421   1.829   0.018  14.897 -0.4369  0.4313 -0.5229
 8595SOL    HW237422   1.706   4.663  14.890 -0.6395 -1.6081  1.8412
 8596SOL     OW37423   2.537   0.551   2.234 -0.4207  0.2283  0.2664
 8596SOL    HW137424   2.564   0.643   2.240 -0.9536  0.4385 -0.6187
 8596SOL    HW237425   2.442   0.562   2.229 -0.3173  0.1445 -1.8138
 8597SOL     OW37426   2.494   3.509   4.027 -0.0694 -0.8255 -0.2026
 8597SOL    HW137427   2.580   3.493   4.066  0.6313  1.4836 -0.7806
 8597SOL    HW237428   2.462   3.583   4.079  0.5050 -0.0738 -0.9043
 8598SOL     OW37429   0.825   1.597   2.579  0.1613  0.2597 -0.2511
 8598SOL    HW137430   0.871   1.536   2.636 -1.7258 -0.7334  0.2161
 8598SOL    HW237431   0.826   1.557   2.492 -2.6246  0.3711 -0.3540
 8599SOL     OW37432   3.085   4.055   8.667  0.0735  0.6072 -0.4782
 8599SOL    HW137433   3.001   4.101   8.674  0.3286  0.9035  0.5604
 8599SOL    HW237434   3.063   3.974   8.622  1.7678 -0.1231  0.0097
 8600SOL     OW37435   1.999   4.155  17.369 -0.3209  0.3012 -0.7077
 8600SOL    HW137436   1.954   4.144  17.452  1.5022  0.6033  0.3127
 8600SOL    HW237437   1.929   4.207  17.327 -0.8772 -0.7634 -1.0906
 8601SOL     OW37438   3.148   0.595   8.009 -0.1332  0.4886  0.3135
 8601SOL    HW137439   3.098   0.513   8.008  0.1328  0.3320 -0.1505
 8601SOL    HW237440   3.161   0.594   8.104  0.5834 -2.4107  0.1894
 8602SOL     OW37441   2.143   0.392   1.951  0.2306 -0.5149 -0.0061
 8602SOL    HW137442   2.060   0.403   1.906 -0.1576  1.4031  1.1701
 8602SOL    HW237443   2.110   0.382   2.040  0.4247 -0.9900  0.0123
 8603SOL     OW37444   4.286   0.327   2.251  0.7001  0.1803 -0.0269
 8603SOL    HW137445   4.246   0.414   2.244 -0.0705 -0.0260  1.6590
 8603SOL    HW237446   4.340   0.339   2.329  0.3452 -0.7832  0.3694
 8604SOL     OW37447   1.487   1.786   3.688 -0.0959 -0.1330  0.4676
 8604SOL    HW137448   1.558   1.790   3.624 -0.6691 -1.5093 -0.2666
 8604SOL    HW237449   1.509   1.842   3.762  1.2772  1.2771 -1.0170
 8605SOL     OW37450   3.517   0.015  16.537  0.8007 -0.7040  0.7716
 8605SOL    HW137451   3.431   4.717  16.563 -0.5272  0.5917 -1.8866
 8605SOL    HW237452   3.500   0.039  16.446 -0.1570 -0.2175  1.0761
 8606SOL     OW37453   4.431   4.704   8.768  0.2777 -0.5004  0.0915
 8606SOL    HW137454   4.355   4.646   8.779 -0.0896  0.1305  0.8798
 8606SOL    HW237455   4.447   0.016   8.849  2.4032  0.5755 -0.9589
 8607SOL     OW37456   1.176   0.252  17.723  0.1278  0.1181  0.1802
 8607SOL    HW137457   1.177   0.331   0.033  2.7053  1.0591 -1.3074
 8607SOL    HW237458   1.083   0.257  17.699  0.0127  1.0637  0.8135
 8608SOL     OW37459   0.795   1.970   7.646 -0.0890 -0.4584 -0.0536
 8608SOL    HW137460   0.823   2.056   7.615 -0.4090 -0.0019  0.9260
 8608SOL    HW237461   0.724   1.952   7.585 -1.9273  0.8339  1.6864
 8609SOL     OW37462   1.546   2.533   9.421  0.2378  0.4272 -0.0685
 8609SOL    HW137463   1.498   2.514   9.501  2.7416 -2.0164  0.8223
 8609SOL    HW237464   1.571   2.623   9.443  3.1360  0.0113 -1.6443
 8610SOL     OW37465   0.325   4.480  15.444 -0.0794  0.3171  0.2217
 8610SOL    HW137466   0.236   4.469  15.412  0.4054  0.9910 -1.3211
 8610SOL    HW237467   0.323   4.570  15.475  1.7695  0.5375 -0.3151
 8611SOL     OW37468   2.857   2.000   9.172 -0.1360  0.1745 -0.0222
 8611SOL    HW137469   2.846   1.916   9.216 -2.0899  0.5723  0.2117
 8611SOL    HW237470   2.891   2.054   9.243  2.3014 -1.4934  0.1127
 8612SOL     OW37471   3.868   2.150   3.241 -0.2818 -0.7304 -0.2304
 8612SOL    HW137472   3.802   2.171   3.174 -2.2505  1.4440  2.3890
 8612SOL    HW237473   3.892   2.230   3.288  1.9350 -0.6875 -1.4389
 8613SOL     OW37474   3.728   4.283  16.316 -0.6951  0.4374  0.6284
 8613SOL    HW137475   3.672   4.351  16.354  0.2074  1.6964 -0.2765
 8613SOL    HW237476   3.698   4.203  16.359 -0.5411  0.3516  0.5755
 8614SOL     OW37477   2.323   1.451  13.555  0.5675 -0.3344  0.0162
 8614SOL    HW137478   2.257   1.447  13.624  0.9556 -0.3171  0.3910
 8614SOL    HW237479   2.273   1.445  13.474 -0.2807 -0.0171  0.5267
 8615SOL     OW37480   2.214   2.102  11.662 -0.2910 -0.0247 -0.0909
 8615SOL    HW137481   2.271   2.102  11.739 -1.7191 -0.7103  0.9599
 8615SOL    HW237482   2.122   2.104  11.690 -0.3990 -0.7033 -0.3982
 8616SOL     OW37483   0.284   4.323  17.160 -0.1748  0.3854 -0.0040
 8616SOL    HW137484   0.225   4.319  17.085 -1.8544  0.7924  1.3041
 8616SOL    HW237485   0.222   4.348  17.228  0.3358 -0.4349  0.7749
 8617SOL     OW37486   4.221   3.292   7.622  0.0130 -0.0498  0.3963
 8617SOL    HW137487   4.199   3.306   7.714  0.7881 -1.5914  0.8200
 8617SOL    HW237488   4.144   3.243   7.595 -0.1535  0.3142  0.2056
 8618SOL     OW37489   4.701   0.419  17.142  0.5064 -0.2204  0.2451
 8618SOL    HW137490   4.725   0.428  17.050 -0.7154  0.2795 -0.0288
 8618SOL    HW237491   4.611   0.450  17.134  0.8560  0.9023  0.6347
 8619SOL     OW37492   4.164   1.557   4.413 -0.0307 -0.2768  0.2358
 8619SOL    HW137493   4.125   1.547   4.500 -0.3832  0.0407  0.1163
 8619SOL    HW237494   4.117   1.491   4.362  0.0374  0.4665 -0.7728
 8620SOL     OW37495   1.405   2.907   7.790  0.8411  0.4958  0.1598
 8620SOL    HW137496   1.453   2.936   7.868  1.8518  0.8576 -0.5932
 8620SOL    HW237497   1.365   2.822   7.809 -0.3141  1.6117  2.8318
 8621SOL     OW37498   4.284   2.686   9.341  0.6618 -0.1963 -0.2977
 8621SOL    HW137499   4.285   2.735   9.424  0.1658  0.4132 -0.6490
 8621SOL    HW237500   4.351   2.620   9.359 -0.1247 -0.8591  0.1797
 8622SOL     OW37501   3.790   2.494   4.218 -0.0864  0.8151  0.0802
 8622SOL    HW137502   3.849   2.515   4.291  0.4213  1.5498 -0.5470
 8622SOL    HW237503   3.714   2.456   4.262 -0.2980 -0.0587 -1.0543
 8623SOL     OW37504   0.894   4.612   8.555 -0.4250  0.0314  0.2783
 8623SOL    HW137505   0.888   4.524   8.592  0.6970 -0.7074 -1.3275
 8623SOL    HW237506   0.965   4.653   8.604  0.2993 -1.6447  0.6181
 8624SOL     OW37507   2.329   0.532   2.558 -0.0421 -0.0670  0.2203
 8624SOL    HW137508   2.349   0.625   2.546 -2.2123  0.7992  3.1069
 8624SOL    HW237509   2.291   0.526   2.471 -0.3228  0.0442  0.3336
 8625SOL     OW37510   4.668   0.642   5.787  0.4734  0.0606  0.1767
 8625SOL    HW137511   4.576   0.668   5.793  0.1484 -0.8485 -0.8463
 8625SOL    HW237512   4.676   0.570   5.850  1.2158  1.8302  2.1110
 8626SOL     OW37513   0.182   4.383  10.736  0.5145 -0.0806 -0.8353
 8626SOL    HW137514   0.092   4.416  10.728  1.5673  3.0796  0.3532
 8626SOL    HW237515   0.177   4.289  10.753 -1.0256  0.3869  1.4010
 8627SOL     OW37516   0.386   3.177  13.742  0.2022 -0.0229  0.7530
 8627SOL    HW137517   0.425   3.176  13.830  0.1919  0.2762  0.7608
 8627SOL    HW237518   0.344   3.092  13.751 -0.0639  0.3288  2.9560
 8628SOL     OW37519   2.886   2.049   6.716  0.5778  0.4000  0.7748
 8628SOL    HW137520   2.807   2.020   6.761  0.0335  1.2697  0.3773
 8628SOL    HW237521   2.900   1.977   6.654 -0.5452  1.9997 -1.3288
 8629SOL     OW37522   3.825   2.203   9.287 -0.0047 -0.0117 -0.3995
 8629SOL    HW137523   3.910   2.195   9.244  0.6986  0.0684  0.9951
 8629SOL    HW237524   3.840   2.262   9.360 -0.9326 -0.2414 -0.0289
 8630SOL     OW37525   4.192   2.410  12.117 -0.5577  0.2475 -0.4706
 8630SOL    HW137526   4.177   2.357  12.039 -2.3088 -1.5335  1.1108
 8630SOL    HW237527   4.110   2.460  12.113 -1.2735 -0.8312  0.9852
 8631SOL     OW37528   2.043   4.545   4.814  0.0114  0.0905  0.7257
 8631SOL    HW137529   2.125   4.574   4.856  0.8682  0.7616 -1.4121
 8631SOL    HW237530   2.021   4.627   4.770 -0.4297 -0.2820  0.2543
 8632SOL     OW37531   4.295   4.025   9.810  0.6339 -0.1789  0.9141
 8632SOL    HW137532   4.347   4.029   9.730  1.7704  1.3034  1.7309
 8632SOL    HW237533   4.267   3.933   9.814  2.6859 -0.7787  1.0771
 8633SOL     OW37534   4.323   1.837   3.752  0.3474  0.3912 -0.1233
 8633SOL    HW137535   4.356   1.906   3.693 -1.4283 -0.3545 -1.9629
 8633SOL    HW237536   4.310   1.764   3.691  1.1724 -0.5806  0.8722
 8634SOL     OW37537   1.630   0.114  16.327  0.3479 -0.1872  0.1190
 8634SOL    HW137538   1.614   0.061  16.249 -3.4237 -0.2419  0.9603
 8634SOL    HW237539   1.689   0.182  16.294  1.9943 -1.4444  0.4658
 8635SOL     OW37540   0.132   0.310   2.559  0.2115 -0.0959 -0.0736
 8635SOL    HW137541   0.080   0.389   2.573  2.8488  1.6515 -0.1423
 8635SOL    HW237542   0.127   0.296   2.464  1.2693  0.9647 -0.2827
 8636SOL     OW37543   1.736   0.910  16.192  0.3063  0.6623  0.0030
 8636SOL    HW137544   1.774   0.843  16.134 -0.9034 -1.4582  1.6793
 8636SOL    HW237545   1.654   0.868  16.216  2.5740 -2.7261  1.9046
 8637SOL     OW37546   0.081   2.616  16.483 -0.4912  0.5511  0.6418
 8637SOL    HW137547   0.008   2.661  16.525 -1.1903  0.5883 -0.6071
 8637SOL    HW237548   0.109   2.556  16.552 -2.0985 -0.5502  0.3132
 8638SOL     OW37549   3.628   1.323  12.007 -0.2424  0.3477 -0.0466
 8638SOL    HW137550   3.704   1.345  12.061  1.0664 -2.2414 -0.8174
 8638SOL    HW237551   3.678   1.298  11.929 -3.1452 -1.5967 -1.3073
 8639SOL     OW37552   1.840   1.597   3.706  0.4326 -0.5519  0.5161
 8639SOL    HW137553   1.928   1.564   3.686  0.4163  0.8420 -1.8211
 8639SOL    HW237554   1.781   1.571   3.636 -0.2022  2.3141  0.0153
 8640SOL     OW37555   2.541   1.793  12.921 -0.3509  0.5799  0.1256
 8640SOL    HW137556   2.556   1.721  12.982  0.4559  0.2299 -0.4679
 8640SOL    HW237557   2.541   1.870  12.978  0.5089  1.3933 -0.9480
 8641SOL     OW37558   1.151   3.574   1.923 -0.0820  0.2566  0.3386
 8641SOL    HW137559   1.089   3.609   1.986  0.7031  2.3546 -0.0580
 8641SOL    HW237560   1.115   3.490   1.893  1.0121 -0.5315  1.2761
 8642SOL     OW37561   4.603   2.970   7.611 -0.0552  0.5472  0.5925
 8642SOL    HW137562   4.622   3.041   7.550  0.4247 -0.5411 -0.5322
 8642SOL    HW237563   4.641   2.898   7.560  0.1360  0.6625  0.5747
 8643SOL     OW37564   0.944   1.412   2.718  0.2674 -0.7746  0.3523
 8643SOL    HW137565   0.991   1.329   2.707  2.7041  0.8320 -1.3657
 8643SOL    HW237566   0.905   1.399   2.804  0.1053  1.8333  0.6735
 8644SOL     OW37567   2.616   2.997   9.070  0.1053 -0.3294 -0.2500
 8644SOL    HW137568   2.600   2.992   8.976  0.2959 -0.3090 -0.2827
 8644SOL    HW237569   2.706   3.027   9.058  0.3284  0.1617  2.6334
 8645SOL     OW37570   2.557   2.395  10.401 -0.1327  0.2733  0.0367
 8645SOL    HW137571   2.561   2.348  10.485 -0.0226 -1.4065 -0.9076
 8645SOL    HW237572   2.650   2.404  10.383  0.4697 -1.6069  2.0785
 8646SOL     OW37573   4.561   1.966  16.017 -0.0304 -0.2767 -0.3345
 8646SOL    HW137574   4.584   2.042  15.963 -0.4471 -1.3183 -1.9675
 8646SOL    HW237575   4.466   1.976  16.026 -0.0680  0.6634 -1.6693
 8647SOL     OW37576   2.652   2.727   0.280  0.3075 -0.1501  0.4165
 8647SOL    HW137577   2.586   2.766   0.337 -1.6126  0.8231 -2.4644
 8647SOL    HW237578   2.719   2.715   0.348  0.0634 -1.9141  0.3269
 8648SOL     OW37579   3.090   3.838   5.611  0.2600 -0.1388 -0.0209
 8648SOL    HW137580   3.161   3.791   5.655  0.7974  0.3936 -0.3137
 8648SOL    HW237581   3.037   3.785   5.552 -2.2356  1.3477  0.8824
 8649SOL     OW37582   4.217   1.360   4.859  0.7362 -0.0064  0.3376
 8649SOL    HW137583   4.160   1.303   4.809  1.6816 -0.7861  0.1505
 8649SOL    HW237584   4.153   1.421   4.897 -0.7351 -0.5395 -1.2916
 8650SOL     OW37585   0.791   0.073   9.422 -0.7183  0.1211  0.5676
 8650SOL    HW137586   0.761   0.009   9.487 -1.8511  0.2070  0.1266
 8650SOL    HW237587   0.709   0.102   9.382 -0.2500 -2.0832 -1.9828
 8651SOL     OW37588   3.219   1.012   4.626  0.5481 -0.3023  0.0588
 8651SOL    HW137589   3.275   1.089   4.619 -1.7131  1.1824 -1.4937
 8651SOL    HW237590   3.181   1.019   4.538  0.2901  0.1309  0.2121
 8652SOL     OW37591   1.880   2.788  15.507 -0.0063  0.0781 -0.2583
 8652SOL    HW137592   1.819   2.846  15.461 -0.2791 -0.0909 -0.1144
 8652SOL    HW237593   1.960   2.789  15.455 -0.3038 -3.8988 -0.7473
 8653SOL     OW37594   0.506   3.833   8.597  0.6312  0.8559  0.6236
 8653SOL    HW137595   0.503   3.767   8.666  1.3655  0.0118 -0.1581
 8653SOL    HW237596   0.549   3.908   8.640  3.5010 -1.0607  1.0662
 8654SOL     OW37597   1.395   2.465   3.626  0.2399  0.1855 -0.4747
 8654SOL    HW137598   1.395   2.461   3.530 -2.0464  1.8312 -0.5538
 8654SOL    HW237599   1.417   2.373   3.637  1.3100  0.6932  1.7468
 8655SOL     OW37600   1.475   2.757   2.053 -0.0040 -0.7112 -0.4078
 8655SOL    HW137601   1.428   2.838   2.035  1.2141 -0.4440 -2.3573
 8655SOL    HW237602   1.513   2.731   1.969  2.5995  0.7030  0.3029
 8656SOL     OW37603   4.074   3.709   3.567  0.3248 -0.2216 -0.6557
 8656SOL    HW137604   4.140   3.763   3.609 -0.1365 -0.6871  0.6561
 8656SOL    HW237605   4.005   3.773   3.548 -0.2874 -0.7118 -0.0612
 8657SOL     OW37606   0.484   4.141  11.785 -0.0598  0.1525  0.2994
 8657SOL    HW137607   0.424   4.137  11.860  1.3333  1.0612  1.4526
 8657SOL    HW237608   0.520   4.229  11.799 -0.8386 -0.2354  4.9366
 8658SOL     OW37609   1.667   1.543   0.455  0.0610 -0.0983  0.3740
 8658SOL    HW137610   1.745   1.502   0.418  0.6562  1.0368  0.3625
 8658SOL    HW237611   1.615   1.556   0.376 -0.4804  2.8207  1.1850
 8659SOL     OW37612   3.057   1.355   2.643  0.4050 -0.1763  0.3424
 8659SOL    HW137613   3.065   1.268   2.681  0.1685 -0.5953 -0.5664
 8659SOL    HW237614   3.092   1.347   2.554 -0.1630  2.0727 -0.0795
 8660SOL     OW37615   2.959   3.810   8.211  0.0037  0.3318  0.1563
 8660SOL    HW137616   2.958   3.842   8.121 -0.1829 -4.3709 -1.4766
 8660SOL    HW237617   2.949   3.716   8.196 -2.6312  0.3251  1.8127
 8661SOL     OW37618   2.575   0.424   2.981 -0.0964  0.0824 -0.6636
 8661SOL    HW137619   2.556   0.495   3.042 -0.4595 -0.3960 -0.2260
 8661SOL    HW237620   2.659   0.392   3.014  0.6453  2.6277 -0.1010
 8662SOL     OW37621   1.359   4.029   4.886  0.1589  0.0606 -0.3854
 8662SOL    HW137622   1.427   4.043   4.820 -0.1486 -0.6176 -0.8597
 8662SOL    HW237623   1.370   3.934   4.893 -0.3661 -0.0355 -0.8300
 8663SOL     OW37624   3.624   0.198   7.854 -0.4090  0.1046 -0.1757
 8663SOL    HW137625   3.708   0.245   7.857 -0.8433  0.8229  0.9131
 8663SOL    HW237626   3.646   0.106   7.869  0.2745  0.7395  2.8103
 8664SOL     OW37627   3.695   1.188   6.149  0.2073 -0.0754  0.0201
 8664SOL    HW137628   3.691   1.168   6.243  0.9787  0.5498  0.1891
 8664SOL    HW237629   3.790   1.180   6.138  0.6004  2.7988  1.3814
 8665SOL     OW37630   3.137   0.448  14.436  0.4524  0.0102  0.5362
 8665SOL    HW137631   3.096   0.502  14.368 -2.3474 -1.3848  1.1209
 8665SOL    HW237632   3.184   0.515  14.486 -1.6196  3.4187 -2.0309
 8666SOL     OW37633   2.853   2.309  15.932 -0.3975 -0.1791  0.3352
 8666SOL    HW137634   2.830   2.386  15.880 -1.8285 -0.7265  0.1415
 8666SOL    HW237635   2.817   2.333  16.017 -1.0537  2.1538 -0.5936
 8667SOL     OW37636   3.375   1.944  14.459  0.6415 -0.3469 -0.5289
 8667SOL    HW137637   3.351   1.865  14.410 -1.5143 -0.1119  0.1480
 8667SOL    HW237638   3.302   1.956  14.520  0.2132 -3.1920 -0.4658
 8668SOL     OW37639   1.766   1.956   7.753  0.1369 -0.0396  0.4709
 8668SOL    HW137640   1.698   2.003   7.705  0.9900  0.2241 -0.4869
 8668SOL    HW237641   1.763   1.866   7.721 -0.3154 -0.4189  1.5942
 8669SOL     OW37642   0.149   1.386   0.640  0.6176 -0.0368  0.3511
 8669SOL    HW137643   0.230   1.343   0.613 -1.0815 -1.5063 -2.3984
 8669SOL    HW237644   0.171   1.479   0.638  1.2184 -0.2216 -1.7302
 8670SOL     OW37645   0.697   2.010   0.306 -0.2957 -0.3852  0.3099
 8670SOL    HW137646   0.763   2.008   0.375 -0.2508 -0.6687  0.2586
 8670SOL    HW237647   0.622   1.982   0.359 -1.2592 -0.4404 -1.0769
 8671SOL     OW37648   3.131   0.988  11.802  0.2545  0.0728  0.4496
 8671SOL    HW137649   3.155   1.079  11.786 -2.8795  0.6453 -0.9131
 8671SOL    HW237650   3.147   0.968  11.894 -0.1285  0.1251  0.5291
 8672SOL     OW37651   4.639   2.680   0.084  0.0442  0.5499 -0.0329
 8672SOL    HW137652   4.655   2.677  17.733 -0.2026  1.0718 -0.0926
 8672SOL    HW237653   4.701   2.752   0.099  1.1215  0.2045 -2.7018
 8673SOL     OW37654   2.741   0.187   9.606  0.0369 -0.2443 -0.9139
 8673SOL    HW137655   2.682   0.208   9.534  0.8610 -1.0795 -1.8362
 8673SOL    HW237656   2.741   0.267   9.658 -0.1090 -1.3991  0.8863
 8674SOL     OW37657   1.858   1.397   5.116  0.5735  0.3281 -0.5185
 8674SOL    HW137658   1.917   1.351   5.175  0.5004 -0.1554 -0.8183
 8674SOL    HW237659   1.854   1.482   5.160 -1.0077 -0.2298  0.3923
 8675SOL     OW37660   3.064   2.977  17.090 -0.3426 -0.1112  0.1981
 8675SOL    HW137661   3.044   3.007  17.002  0.4164  0.6606  0.2873
 8675SOL    HW237662   3.104   2.892  17.072 -0.5391  0.1419 -1.4713
 8676SOL     OW37663   2.262   1.258   2.531 -0.4883  0.0121 -0.1188
 8676SOL    HW137664   2.344   1.256   2.482  0.0945  2.3037  0.7429
 8676SOL    HW237665   2.207   1.278   2.456  1.5417  1.1597 -1.3023
 8677SOL     OW37666   0.048   0.297   0.002 -0.0554 -0.0066  0.3629
 8677SOL    HW137667   0.039   0.221  17.688  0.2336 -0.5325  1.0201
 8677SOL    HW237668   0.117   0.347  17.703  1.5775  0.3110  3.4435
 8678SOL     OW37669   4.216   4.186   6.423  0.0045 -0.8758 -0.2448
 8678SOL    HW137670   4.288   4.220   6.369  0.1683 -2.2089 -0.8586
 8678SOL    HW237671   4.198   4.099   6.386 -3.2975 -0.8223  1.2612
 8679SOL     OW37672   1.200   4.263  14.734  0.2487  0.4742  0.3349
 8679SOL    HW137673   1.118   4.308  14.713  0.5824  0.4768 -0.9803
 8679SOL    HW237674   1.193   4.202  14.661  2.4141  0.0666  0.4607
 8680SOL     OW37675   1.730   1.147  17.645  0.2293  0.4038  0.1644
 8680SOL    HW137676   1.701   1.207  17.576  0.7791  0.1426 -0.2931
 8680SOL    HW237677   1.649   1.128  17.692 -0.3112  0.9156 -0.5563
 8681SOL     OW37678   1.729   4.118   8.128 -0.2000  0.1274  0.0483
 8681SOL    HW137679   1.659   4.061   8.160 -0.5220  0.8471  0.6385
 8681SOL    HW237680   1.712   4.109   8.034 -1.1323 -1.5987  0.3846
 8682SOL     OW37681   3.530   1.168   9.126  0.0975  0.5660  0.4933
 8682SOL    HW137682   3.623   1.188   9.143  0.5877 -1.0806 -0.3287
 8682SOL    HW237683   3.483   1.248   9.101  0.7160  1.1734  1.2532
 8683SOL     OW37684   4.294   1.954  16.587 -0.6523 -0.2109  0.0671
 8683SOL    HW137685   4.267   1.962  16.495 -0.3175  2.4426  0.1920
 8683SOL    HW237686   4.386   1.926  16.584 -1.1858 -2.2074  2.2457
 8684SOL     OW37687   2.745   1.099   8.793 -0.7330  0.0361 -0.4897
 8684SOL    HW137688   2.709   1.152   8.864 -0.5591  0.8726 -1.0280
 8684SOL    HW237689   2.808   1.045   8.840 -0.6753 -0.0276 -0.6396
 8685SOL     OW37690   1.108   2.207  16.852 -0.2996 -0.3521 -0.3431
 8685SOL    HW137691   1.064   2.152  16.787 -0.3786  0.6448 -1.1378
 8685SOL    HW237692   1.039   2.228  16.915  0.9858  0.7543  0.7034
 8686SOL     OW37693   1.021   1.267   4.631  0.3832  0.4561  0.0432
 8686SOL    HW137694   0.997   1.335   4.568 -0.5517 -0.6222 -0.7541
 8686SOL    HW237695   1.104   1.304   4.661  0.4916  1.2202 -1.1949
 8687SOL     OW37696   3.419   2.130  10.212 -0.4431  0.0424 -0.4757
 8687SOL    HW137697   3.343   2.088  10.253  1.2142 -1.7420  0.7883
 8687SOL    HW237698   3.490   2.065  10.216  0.2571  0.7630 -1.3622
 8688SOL     OW37699   1.786   3.292   6.257  0.0757  0.0536 -0.0855
 8688SOL    HW137700   1.806   3.360   6.193  0.2579 -0.3284 -0.4310
 8688SOL    HW237701   1.728   3.336   6.319  1.4396  0.8647  0.6199
 8689SOL     OW37702   3.540   4.731   2.334  0.6869 -0.2071  0.2902
 8689SOL    HW137703   3.470   0.060   2.337  0.1056 -0.8416  0.6098
 8689SOL    HW237704   3.601   0.037   2.274  1.8769  0.0298  1.6678
 8690SOL     OW37705   0.229   3.733  10.401  0.0099 -0.3104 -0.1980
 8690SOL    HW137706   0.235   3.824  10.430 -2.5312 -0.6878  1.4528
 8690SOL    HW237707   0.288   3.692  10.464  1.5466  1.8290 -0.2450
 8691SOL     OW37708   3.492   2.609   3.131  0.3363 -0.4841 -0.1246
 8691SOL    HW137709   3.400   2.635   3.129 -0.3766 -3.0029 -0.2487
 8691SOL    HW237710   3.528   2.666   3.062  0.3872  1.0624  1.1760
 8692SOL     OW37711   2.118   3.433  11.134  0.6751 -0.0119 -0.5367
 8692SOL    HW137712   2.182   3.503  11.142 -1.2657  1.3837  2.6439
 8692SOL    HW237713   2.120   3.382  11.216  1.4055 -1.9484 -1.7547
 8693SOL     OW37714   3.357   3.042   4.692 -0.3990 -0.1206 -0.6266
 8693SOL    HW137715   3.345   3.131   4.725 -3.1822  0.2284 -2.5785
 8693SOL    HW237716   3.298   3.038   4.617 -1.0110  2.3954 -0.2756
 8694SOL     OW37717   0.318   0.131  13.590 -0.1430 -0.7125 -0.0240
 8694SOL    HW137718   0.289   0.193  13.656 -4.4493 -0.0904 -2.4995
 8694SOL    HW237719   0.301   0.048  13.632  0.9314  0.0811  1.9600
 8695SOL     OW37720   3.307   1.985   2.289  0.0083 -0.3124 -0.1262
 8695SOL    HW137721   3.288   2.079   2.291  1.5618 -0.0330  1.1854
 8695SOL    HW237722   3.217   1.953   2.279 -0.6111  2.0007 -2.1083
 8696SOL     OW37723   2.540   0.985  17.387 -0.0435  0.2523 -0.5963
 8696SOL    HW137724   2.569   1.074  17.371  2.9065 -0.5038  0.5978
 8696SOL    HW237725   2.470   1.002  17.450 -0.4633 -2.2675 -0.3565
 8697SOL     OW37726   0.291   2.465   9.034 -0.4902 -0.4907 -0.4255
 8697SOL    HW137727   0.205   2.444   9.000 -0.4534 -2.7130  0.8552
 8697SOL    HW237728   0.276   2.555   9.064  0.5025 -0.1601 -0.9117
 8698SOL     OW37729   1.473   2.595   5.956  0.0830 -0.4616 -0.2933
 8698SOL    HW137730   1.526   2.631   6.028  2.1091 -0.5154 -1.7384
 8698SOL    HW237731   1.538   2.532   5.923 -0.1208 -0.0564 -1.4436
 8699SOL     OW37732   2.645   2.897   3.971  0.9131 -0.3792 -0.4224
 8699SOL    HW137733   2.561   2.902   3.925  0.4151  0.0757  0.5207
 8699SOL    HW237734   2.660   2.986   4.003 -0.5426  0.3624 -1.7647
 8700SOL     OW37735   0.667   3.272   8.798  0.2420  0.4076  0.4436
 8700SOL    HW137736   0.746   3.253   8.748  0.2704  0.0379  0.6285
 8700SOL    HW237737   0.684   3.219   8.875  0.3442 -0.3929 -0.1369
 8701SOL     OW37738   4.625   4.670   3.116  0.5340 -0.2214  0.7887
 8701SOL    HW137739   4.545   4.698   3.072  0.2744 -1.6114  0.4005
 8701SOL    HW237740   4.604   4.577   3.110 -1.4904  0.3825 -1.4911
 8702SOL     OW37741   3.186   3.551   5.455 -0.6320  0.7868  0.0870
 8702SOL    HW137742   3.190   3.642   5.426  1.6701  1.0825  1.3624
 8702SOL    HW237743   3.237   3.508   5.386  0.3725 -0.1746  1.4349
 8703SOL     OW37744   3.562   4.032  16.409  0.1283 -0.2791 -0.0509
 8703SOL    HW137745   3.556   3.988  16.493  1.2988 -2.8261 -1.2957
 8703SOL    HW237746   3.637   3.979  16.384  1.3840  1.9713 -1.1056
 8704SOL     OW37747   3.398   1.878   5.240  0.1160 -0.3412 -0.6909
 8704SOL    HW137748   3.327   1.915   5.187  0.1880  0.2422 -0.3899
 8704SOL    HW237749   3.342   1.811   5.279  0.1615 -0.2160 -0.4072
 8705SOL     OW37750   0.815   4.548   5.221  0.3980 -0.2056 -0.9989
 8705SOL    HW137751   0.733   4.582   5.186  1.1886  2.5631 -0.0856
 8705SOL    HW237752   0.869   4.617   5.182 -0.6568  1.0107 -0.2976
 8706SOL     OW37753   3.344   3.196   6.180  0.1475  0.2620 -0.3469
 8706SOL    HW137754   3.358   3.108   6.214 -0.3851  0.1745 -0.3496
 8706SOL    HW237755   3.257   3.216   6.213  0.0748 -0.3832 -0.1508
 8707SOL     OW37756   3.976   0.454  15.462 -0.1790  0.5764  0.3532
 8707SOL    HW137757   3.894   0.429  15.506 -0.2926  3.6354  1.8639
 8707SOL    HW237758   3.952   0.530  15.407 -0.7414  1.8769  2.4112
 8708SOL     OW37759   1.181   4.216   0.701 -0.2959 -0.1768  0.1090
 8708SOL    HW137760   1.090   4.191   0.721 -0.5937  0.6465 -0.2315
 8708SOL    HW237761   1.225   4.175   0.775  0.2574  2.2335  1.1245
 8709SOL     OW37762   0.636   2.739   6.408 -0.2933  0.1974 -0.7546
 8709SOL    HW137763   0.677   2.810   6.458 -2.1737  0.5135  0.3545
 8709SOL    HW237764   0.635   2.767   6.316 -0.5155 -2.4862 -1.5465
 8710SOL     OW37765   0.061   4.093  10.792  0.3248 -0.2542  0.3358
 8710SOL    HW137766   4.709   4.092  10.754 -0.6889 -2.0596  2.7541
 8710SOL    HW237767   0.051   4.099  10.887 -0.6571 -2.7644  0.3867
 8711SOL     OW37768   2.640   4.600   4.672  0.2336 -0.0153 -0.0461
 8711SOL    HW137769   2.562   4.654   4.684 -0.8870 -2.1531  2.2933
 8711SOL    HW237770   2.617   4.531   4.610  0.7203  0.8390 -1.1614
 8712SOL     OW37771   1.438   0.307   4.062  0.2430 -0.1938 -0.0128
 8712SOL    HW137772   1.381   0.231   4.071 -0.4817  0.3376 -0.0612
 8712SOL    HW237773   1.385   0.365   4.007  0.5264  2.1156  2.1426
 8713SOL     OW37774   2.750   2.887   7.861 -0.1568 -0.3254  0.3846
 8713SOL    HW137775   2.782   2.957   7.805 -0.2441 -0.8614 -0.3382
 8713SOL    HW237776   2.808   2.903   7.935  2.1806  0.2480 -1.5865
 8714SOL     OW37777   3.417   2.943  13.517 -0.0191 -0.4019 -0.8393
 8714SOL    HW137778   3.388   2.940  13.608 -1.4631  0.0943 -1.2674
 8714SOL    HW237779   3.393   3.032  13.491 -0.9293 -0.5079 -0.3932
 8715SOL     OW37780   0.817   4.242   9.449  0.6090 -0.4994  0.1273
 8715SOL    HW137781   0.909   4.218   9.448  0.5355 -0.8643  1.8250
 8715SOL    HW237782   0.824   4.335   9.473  2.7126 -0.6113 -0.0568
 8716SOL     OW37783   4.418   4.490  11.283  0.1105  0.1919 -0.0594
 8716SOL    HW137784   4.426   4.585  11.288  1.8839 -0.0586  1.4060
 8716SOL    HW237785   4.485   4.464  11.220  2.8183  0.9132  2.5581
 8717SOL     OW37786   0.724   0.140   0.705  0.2513 -0.1846 -0.1927
 8717SOL    HW137787   0.694   0.219   0.749  0.8106  0.9694 -1.9224
 8717SOL    HW237788   0.640   0.101   0.682 -0.1736 -0.2941  1.5449
 8718SOL     OW37789   4.540   4.330  12.960 -0.4712 -0.2258 -0.2094
 8718SOL    HW137790   4.620   4.379  12.942 -1.2811  0.9058 -0.6874
 8718SOL    HW237791   4.490   4.398  13.005  1.7902  0.9627  0.4834
 8719SOL     OW37792   1.778   2.650   4.858 -0.1638 -0.6515  0.0096
 8719SOL    HW137793   1.862   2.684   4.826 -1.3204  1.3296 -0.9473
 8719SOL    HW237794   1.766   2.571   4.805 -0.3118 -1.9347  1.9753
 8720SOL     OW37795   1.677   2.105  16.812 -0.2869 -0.4979  0.2140
 8720SOL    HW137796   1.694   2.112  16.718  1.2837 -1.4075  0.4219
 8720SOL    HW237797   1.642   2.018  16.826 -0.0244 -0.7351 -0.6346
 8721SOL     OW37798   0.307   1.596   6.194 -0.1583 -0.4678  0.3036
 8721SOL    HW137799   0.312   1.617   6.288 -0.0739  1.6224 -0.1539
 8721SOL    HW237800   0.246   1.661   6.159  0.5227 -0.6446 -1.2258
 8722SOL     OW37801   3.306   4.439   3.534 -0.5666  0.2552  0.0765
 8722SOL    HW137802   3.354   4.357   3.550  0.3246  1.4737  3.6568
 8722SOL    HW237803   3.215   4.410   3.530  0.2644 -2.3937  0.3784
 8723SOL     OW37804   2.584   1.757   4.910 -0.4005 -0.6222 -0.1621
 8723SOL    HW137805   2.575   1.733   4.818 -0.5915  0.3791 -0.4082
 8723SOL    HW237806   2.511   1.721   4.961 -0.5043  0.9369  0.8043
 8724SOL     OW37807   0.321   0.638  15.570  0.3578  0.5171 -0.1846
 8724SOL    HW137808   0.235   0.606  15.544  0.2133 -0.1524  1.1390
 8724SOL    HW237809   0.368   0.604  15.494 -2.6328  1.3912 -2.4638
 8725SOL     OW37810   1.200   0.812   7.526 -0.1799 -0.2587  0.0283
 8725SOL    HW137811   1.289   0.793   7.493 -0.9633 -0.1606 -2.1816
 8725SOL    HW237812   1.207   0.907   7.528 -0.3279 -0.2082 -1.8584
 8726SOL     OW37813   2.086   1.561  12.763 -0.4031  0.0682  0.4273
 8726SOL    HW137814   2.101   1.656  12.767 -0.6636  0.1005  0.6210
 8726SOL    HW237815   2.040   1.560  12.680 -1.1333 -2.2871  0.8768
 8727SOL     OW37816   3.417   4.578   7.929  0.8061  0.1609  0.1771
 8727SOL    HW137817   3.360   4.610   7.859 -0.1140  1.3518  1.4618
 8727SOL    HW237818   3.459   4.657   7.963  0.0600  1.3409 -1.6519
 8728SOL     OW37819   2.289   1.562   6.324 -0.5474 -0.7436  0.3904
 8728SOL    HW137820   2.196   1.583   6.327 -0.0390  1.6809 -0.6906
 8728SOL    HW237821   2.302   1.536   6.233  0.1667  1.3589 -0.1248
 8729SOL     OW37822   3.032   1.094   7.945 -0.0197  0.0577 -0.4505
 8729SOL    HW137823   2.976   1.169   7.925 -1.5578 -1.1963 -0.7369
 8729SOL    HW237824   3.095   1.136   8.004 -1.5371  1.1437  0.3907
 8730SOL     OW37825   2.377   3.070   6.571 -0.6035  0.3594 -0.5165
 8730SOL    HW137826   2.325   3.117   6.506 -1.9036  1.1247  1.0799
 8730SOL    HW237827   2.339   3.103   6.653 -1.9890  1.7896 -1.7251
 8731SOL     OW37828   1.684   0.538   3.077 -0.2489  0.2597  0.6191
 8731SOL    HW137829   1.725   0.498   3.154  0.7545 -0.3029 -0.2193
 8731SOL    HW237830   1.745   0.605   3.048  1.5086 -2.5196 -2.1218
 8732SOL     OW37831   4.244   1.426  12.499 -0.1755 -0.0946 -0.4426
 8732SOL    HW137832   4.205   1.514  12.500 -0.5608 -0.2603 -1.1603
 8732SOL    HW237833   4.211   1.408  12.587 -3.2032 -0.1434 -1.6217
 8733SOL     OW37834   3.719   0.879   8.577  0.0096 -0.2626 -0.2568
 8733SOL    HW137835   3.677   0.819   8.515 -1.2269  0.1136  0.2041
 8733SOL    HW237836   3.758   0.826   8.645  1.8929  2.9640  1.1609
 8734SOL     OW37837   3.583   2.082   2.717 -0.1221  0.2211  0.4217
 8734SOL    HW137838   3.588   2.136   2.638  1.7798 -0.9464 -0.2649
 8734SOL    HW237839   3.676   2.063   2.732  0.1260  0.8581 -0.3094
 8735SOL     OW37840   3.982   1.134   5.580  0.0830 -0.2789  0.0810
 8735SOL    HW137841   4.070   1.140   5.543  0.8681  1.0727  2.1672
 8735SOL    HW237842   4.006   1.138   5.673  2.7075  0.7863 -0.6640
 8736SOL     OW37843   2.305   1.271   2.826  0.1156 -0.0446  0.2485
 8736SOL    HW137844   2.292   1.287   2.733  2.2324  2.3100  0.3541
 8736SOL    HW237845   2.384   1.217   2.827 -0.4731 -0.9282 -1.0008
 8737SOL     OW37846   2.582   4.581  17.582  0.1405  0.5561 -0.3083
 8737SOL    HW137847   2.563   4.674  17.570  1.1897  0.6957 -0.8448
 8737SOL    HW237848   2.677   4.577  17.573  0.1890  3.1431 -1.0563
 8738SOL     OW37849   0.433   0.667   7.918  0.0095  0.0530  0.2867
 8738SOL    HW137850   0.364   0.601   7.924 -1.3370  1.4850  0.5068
 8738SOL    HW237851   0.492   0.630   7.853  2.0054  2.1271  0.9206
 8739SOL     OW37852   3.137   1.264   1.781  0.5768 -0.2638  0.0420
 8739SOL    HW137853   3.066   1.303   1.731  2.1000 -2.0547 -3.5267
 8739SOL    HW237854   3.089   1.237   1.859 -1.2975  1.4245 -0.5400
 8740SOL     OW37855   3.894   1.648   3.085 -0.6130  0.2092  0.3216
 8740SOL    HW137856   3.848   1.619   3.164 -1.6586  2.2539  0.4505
 8740SOL    HW237857   3.844   1.729   3.082 -0.5108  0.3565  2.6735
 8741SOL     OW37858   2.701   4.154   7.341  0.3226  0.4398  0.4002
 8741SOL    HW137859   2.629   4.153   7.404 -0.6932 -4.3404 -0.8670
 8741SOL    HW237860   2.649   4.168   7.262  1.5720  0.1123 -0.4863
 8742SOL     OW37861   3.901   4.681   8.132 -0.1895  0.4764 -0.2682
 8742SOL    HW137862   3.980   4.734   8.121  0.7896 -0.3747  2.5693
 8742SOL    HW237863   3.862   4.711   8.214 -0.9693  1.5490 -1.0482
 8743SOL     OW37864   3.380   4.332   4.185 -0.2561  0.1963 -0.4281
 8743SOL    HW137865   3.446   4.362   4.247 -1.4674 -1.1026  1.5161
 8743SOL    HW237866   3.320   4.406   4.187  0.0605  0.4160  1.0909
 8744SOL     OW37867   0.286   2.412  17.201 -0.0164  0.3590  0.7944
 8744SOL    HW137868   0.256   2.503  17.210 -0.1390  0.0965  3.1642
 8744SOL    HW237869   0.328   2.405  17.287  0.9456 -0.6577  0.2382
 8745SOL     OW37870   1.313   0.711   8.442  0.0759 -0.3760 -0.3728
 8745SOL    HW137871   1.387   0.657   8.471 -1.4025 -1.6897  0.8972
 8745SOL    HW237872   1.268   0.694   8.524  0.0838 -0.2960 -0.3518
 8746SOL     OW37873   1.495   4.279   7.916 -0.4263  0.0787  0.2722
 8746SOL    HW137874   1.591   4.278   7.911 -0.4380 -1.1362  0.3525
 8746SOL    HW237875   1.484   4.186   7.898  0.2097 -0.5337  3.0737
 8747SOL     OW37876   4.504   2.690   1.854  0.0299  0.4045  0.3133
 8747SOL    HW137877   4.510   2.675   1.949 -0.7966  1.6388  0.5652
 8747SOL    HW237878   4.566   2.763   1.851  0.2836  0.1595 -0.2895
 8748SOL     OW37879   1.347   1.564   2.529  0.3348  0.0293  0.5129
 8748SOL    HW137880   1.377   1.481   2.491 -1.9388 -1.4041  1.7982
 8748SOL    HW237881   1.300   1.521   2.601 -1.5862  0.7913 -0.2903
 8749SOL     OW37882   3.069   1.112   4.412  0.0648  0.8116  0.4113
 8749SOL    HW137883   2.989   1.060   4.416 -0.1620  1.0844 -0.6685
 8749SOL    HW237884   3.026   1.193   4.384  0.6024  0.5025 -1.3348
 8750SOL     OW37885   0.979   4.112   4.912  0.2715  0.3281 -0.0217
 8750SOL    HW137886   0.903   4.130   4.968  0.1706 -1.4327  0.4136
 8750SOL    HW237887   0.948   4.037   4.862  2.6626 -0.6665  0.0003
 8751SOL     OW37888   1.661   0.086  11.753 -0.4722  0.1682  0.1755
 8751SOL    HW137889   1.586   0.136  11.785  1.3515  1.9918  1.5830
 8751SOL    HW237890   1.602   0.032  11.701  0.2013 -0.7144  0.3153
 8752SOL     OW37891   0.482   4.648   4.289  0.1714  0.2078  0.0789
 8752SOL    HW137892   0.404   4.697   4.316  0.0035 -0.8478  1.5167
 8752SOL    HW237893   0.486   4.647   4.194 -0.0987  0.0983  0.0678
 8753SOL     OW37894   2.336   0.137   3.278  0.1201 -0.1776  0.4304
 8753SOL    HW137895   2.379   0.063   3.322 -0.4141 -1.2798 -0.9021
 8753SOL    HW237896   2.243   0.129   3.296  0.0193  2.9307  1.3130
 8754SOL     OW37897   3.112   2.950   3.203 -0.3376 -0.1951 -0.0043
 8754SOL    HW137898   3.182   2.934   3.265 -0.4171 -0.6455 -0.0304
 8754SOL    HW237899   3.066   3.018   3.251  0.6131  0.4185  0.0200
 8755SOL     OW37900   2.715   3.726  15.404 -0.4935 -0.1846  0.5216
 8755SOL    HW137901   2.714   3.732  15.308 -3.1656  1.5802  0.6428
 8755SOL    HW237902   2.713   3.631  15.411  0.1501 -0.5386 -3.8075
 8756SOL     OW37903   3.568   3.394   2.961  0.0852 -0.1124  0.3286
 8756SOL    HW137904   3.506   3.360   3.025 -0.6248 -1.1317 -0.8896
 8756SOL    HW237905   3.590   3.311   2.918 -0.8815 -1.5780  2.6838
 8757SOL     OW37906   2.118   1.564   3.650 -0.6676  0.0017  0.1169
 8757SOL    HW137907   2.129   1.658   3.665  0.5941 -0.1902  0.4119
 8757SOL    HW237908   2.211   1.540   3.653 -0.5508  0.3344 -1.3250
 8758SOL     OW37909   1.176   3.861   9.312  0.6909  0.6271  0.0128
 8758SOL    HW137910   1.133   3.858   9.397  3.8759  2.5950  1.6842
 8758SOL    HW237911   1.166   3.768   9.292 -0.4628  0.5918  0.7542
 8759SOL     OW37912   0.554   1.003   7.376  0.1619 -0.5838 -0.8660
 8759SOL    HW137913   0.540   0.955   7.458  0.9168  0.5223 -0.0820
 8759SOL    HW237914   0.485   0.963   7.323 -1.8199 -1.3599  2.2725
 8760SOL     OW37915   0.049   2.491   6.145 -0.8415  0.1241  0.0136
 8760SOL    HW137916   0.083   2.402   6.151  0.7498  0.7629  0.3988
 8760SOL    HW237917   4.709   2.483   6.203 -1.6448  0.3773 -0.9996
 8761SOL     OW37918   3.465   1.566   9.199  0.2090  0.0931  0.1745
 8761SOL    HW137919   3.558   1.559   9.175  0.2107 -0.3244  0.2982
 8761SOL    HW237920   3.478   1.656   9.229 -1.9969  0.8770 -1.3005
 8762SOL     OW37921   2.141   0.451   1.219 -0.5521  0.3468  0.3553
 8762SOL    HW137922   2.057   0.477   1.180 -0.0119  3.3273  1.1933
 8762SOL    HW237923   2.160   0.376   1.163 -0.9470 -0.3871  1.2006
 8763SOL     OW37924   2.413   1.609   7.016 -0.2340 -0.0906  0.1887
 8763SOL    HW137925   2.357   1.664   7.070  1.4654  0.2999  1.5688
 8763SOL    HW237926   2.370   1.523   7.023  0.5472 -0.4274  0.7994
 8764SOL     OW37927   0.958   1.426   6.558  0.2923  0.1979  0.2350
 8764SOL    HW137928   0.927   1.427   6.468 -1.0514 -0.4005  0.6838
 8764SOL    HW237929   0.942   1.518   6.579  1.2555  1.0401 -2.8541
 8765SOL     OW37930   2.710   4.514   3.839 -0.1669 -0.3259 -0.0652
 8765SOL    HW137931   2.656   4.585   3.804 -0.6615  1.0703  3.6179
 8765SOL    HW237932   2.702   4.524   3.934 -0.3661 -0.3760 -0.0774
 8766SOL     OW37933   3.554   3.256  11.184  0.1951  0.5097  0.5826
 8766SOL    HW137934   3.570   3.313  11.109  0.1664  0.8643  0.8514
 8766SOL    HW237935   3.636   3.205  11.182  1.8521  3.2656 -1.3923
 8767SOL     OW37936   0.507   3.222  13.971  0.2260 -0.0696  0.2754
 8767SOL    HW137937   0.556   3.171  14.035 -3.5089  0.9851  3.9969
 8767SOL    HW237938   0.484   3.300  14.022 -2.7769 -0.4273 -0.5048
 8768SOL     OW37939   1.339   0.260   7.307  0.6824 -0.0401  0.0011
 8768SOL    HW137940   1.423   0.300   7.288  0.6458 -0.2664 -0.6313
 8768SOL    HW237941   1.313   0.317   7.379  0.5568  0.1202 -0.1748
 8769SOL     OW37942   2.092   0.655   6.393  0.0180  0.1521 -0.3440
 8769SOL    HW137943   2.093   0.662   6.297 -0.3683  0.2624 -0.3397
 8769SOL    HW237944   2.059   0.566   6.400 -0.7580  0.4171 -0.5075
 8770SOL     OW37945   1.178   4.123  10.539  0.1350  0.2520  0.3722
 8770SOL    HW137946   1.259   4.166  10.566  0.8632  1.1900 -3.3509
 8770SOL    HW237947   1.207   4.031  10.535 -0.7941 -0.1065  2.0406
 8771SOL     OW37948   2.797   1.668  13.327 -0.4160  0.0888  0.1420
 8771SOL    HW137949   2.745   1.710  13.395 -1.0124  0.5016 -0.5656
 8771SOL    HW237950   2.731   1.666  13.258 -0.1482 -1.4660 -0.0786
 8772SOL     OW37951   1.488   4.265  14.359  0.2630  0.5745  0.3301
 8772SOL    HW137952   1.522   4.176  14.367  0.2649  0.5330 -0.1285
 8772SOL    HW237953   1.536   4.303  14.286  1.3430 -1.6912 -0.1370
 8773SOL     OW37954   0.397   0.091   2.249 -0.6756 -1.0324  0.5268
 8773SOL    HW137955   0.419   0.075   2.157 -2.2350 -1.4431  0.2307
 8773SOL    HW237956   0.316   0.138   2.231 -1.2691 -0.8995  3.6687
 8774SOL     OW37957   0.004   2.328   2.971 -0.0073  0.3966  0.3071
 8774SOL    HW137958   0.039   2.362   3.053 -0.1008 -1.1059  0.9771
 8774SOL    HW237959   4.645   2.327   2.983 -0.2059  0.4745 -1.3318
 8775SOL     OW37960   1.371   3.512   9.775  0.6626  0.1725  0.0901
 8775SOL    HW137961   1.407   3.476   9.856  0.1949  0.2317  0.3212
 8775SOL    HW237962   1.284   3.475   9.786  1.3894 -1.7869 -0.6742
 8776SOL     OW37963   1.008   4.080   1.458  0.4918 -0.1244 -0.0353
 8776SOL    HW137964   1.030   4.168   1.489  0.5185 -0.3767  0.6638
 8776SOL    HW237965   0.996   4.035   1.541  3.4896  1.1212  1.0591
 8777SOL     OW37966   0.115   3.887   3.384 -0.5385 -0.2224 -0.2848
 8777SOL    HW137967   0.189   3.943   3.361 -1.4869  1.0114 -0.3214
 8777SOL    HW237968   0.129   3.816   3.322 -0.4031 -1.6613  1.3877
 8778SOL     OW37969   4.120   2.894  14.386 -0.5342  0.5834  0.2102
 8778SOL    HW137970   4.049   2.906  14.322  0.0441  1.8267 -0.1934
 8778SOL    HW237971   4.086   2.821  14.438  2.1413 -0.5130  0.4542
 8779SOL     OW37972   3.154   0.308   4.474 -0.3504 -0.9490  0.2850
 8779SOL    HW137973   3.124   0.321   4.564 -2.7930 -1.4174 -0.4469
 8779SOL    HW237974   3.233   0.259   4.498 -0.6072 -1.1813  0.6599
 8780SOL     OW37975   0.463   3.169   3.139 -0.7897  0.0817 -0.0549
 8780SOL    HW137976   0.516   3.090   3.130 -0.8903  0.0562 -0.4419
 8780SOL    HW237977   0.523   3.226   3.187  0.2021  0.9455 -2.2895
 8781SOL     OW37978   1.468   2.109   5.464 -0.3589 -0.1524 -0.0004
 8781SOL    HW137979   1.390   2.165   5.465  0.4192  0.9094  1.2513
 8781SOL    HW237980   1.498   2.106   5.373  2.9197 -0.3963  1.0715
 8782SOL     OW37981   0.351   1.270  14.799 -0.3431  0.1287  0.4475
 8782SOL    HW137982   0.302   1.292  14.878 -0.6910  0.2613  0.1986
 8782SOL    HW237983   0.334   1.175  14.802  3.1745 -0.5258 -0.4398
 8783SOL     OW37984   1.920   4.303   1.243  0.5953 -0.4929  0.0019
 8783SOL    HW137985   1.832   4.304   1.205  0.3214 -1.9938  0.6053
 8783SOL    HW237986   1.908   4.367   1.314  1.1030  0.2721 -0.6080
 8784SOL     OW37987   1.717   4.088   6.934  0.3835  0.6498  0.0022
 8784SOL    HW137988   1.740   3.996   6.922 -0.1766  0.7461 -1.7295
 8784SOL    HW237989   1.628   4.084   6.898  0.2910 -1.2080  0.4776
 8785SOL     OW37990   0.723   4.055   3.371 -0.4522 -0.2300 -0.3277
 8785SOL    HW137991   0.646   4.111   3.365 -1.7425 -2.0426 -0.6946
 8785SOL    HW237992   0.713   4.017   3.458  0.3500 -4.3048 -2.0262
 8786SOL     OW37993   1.207   4.474  15.149 -0.5292  0.0710 -0.7643
 8786SOL    HW137994   1.123   4.429  15.144 -0.5804  0.1234 -0.3035
 8786SOL    HW237995   1.271   4.414  15.109 -0.6664 -1.4642  1.3037
 8787SOL     OW37996   0.170   2.085   6.989  0.0240  0.0649  0.2694
 8787SOL    HW137997   0.111   2.048   6.924 -0.7490 -0.0867  1.0514
 8787SOL    HW237998   0.242   2.022   6.993 -0.2348 -0.2067  0.6298
 8788SOL     OW37999   1.840   0.669  10.619  0.1005 -0.4390  0.5586
 8788SOL    HW138000   1.826   0.687  10.712 -1.9996  0.7817 -0.0016
 8788SOL    HW238001   1.893   0.747  10.599 -2.2006  1.1832  0.8140
 8789SOL     OW38002   1.620   2.149  12.421 -0.1249 -0.0844  0.2250
 8789SOL    HW138003   1.549   2.196  12.378 -1.4408 -1.1615  1.1987
 8789SOL    HW238004   1.574   2.068  12.444 -1.0883 -0.6092 -3.5246
 8790SOL     OW38005   1.151   1.232   6.618  0.0373 -0.0091  0.7277
 8790SOL    HW138006   1.103   1.311   6.593  0.2490 -0.5898 -1.5426
 8790SOL    HW238007   1.225   1.223   6.558 -0.5595 -2.0282  0.2849
 8791SOL     OW38008   0.238   0.849  11.340 -0.2588  0.3419  0.2259
 8791SOL    HW138009   0.266   0.789  11.271 -1.5607  0.3960 -0.3392
 8791SOL    HW238010   0.274   0.933  11.310 -1.9541  1.1295  0.3964
 8792SOL     OW38011   2.456   1.980   4.404  0.8941  0.2586 -1.1857
 8792SOL    HW138012   2.459   1.885   4.393  1.0379  0.2717 -1.2529
 8792SOL    HW238013   2.511   1.984   4.482 -0.6100 -4.7550  0.1198
 8793SOL     OW38014   3.539   1.004   8.784 -0.2938 -0.2339 -0.1967
 8793SOL    HW138015   3.541   1.019   8.689  0.4173  0.6642 -0.0361
 8793SOL    HW238016   3.479   0.930   8.786 -2.9340  1.9659  0.9886
 8794SOL     OW38017   4.036   4.242   8.873  1.0211 -0.0402 -0.6032
 8794SOL    HW138018   4.058   4.291   8.953  1.4285 -0.3183 -0.5461
 8794SOL    HW238019   3.954   4.198   8.895  0.4709  1.3237  0.1213
 8795SOL     OW38020   4.136   4.430   3.992 -0.0542 -0.4022  0.5583
 8795SOL    HW138021   4.059   4.486   3.983  0.1435 -0.0801  0.8538
 8795SOL    HW238022   4.111   4.379   4.069 -0.8791 -0.5035  0.2229
 8796SOL     OW38023   0.942   4.725   9.188 -0.1245 -0.2758  0.5085
 8796SOL    HW138024   0.885   4.726   9.264  0.9136 -0.0898  1.2799
 8796SOL    HW238025   1.025   4.730   9.235  1.0149 -0.2815 -1.4732
 8797SOL     OW38026   1.401   4.581  11.105  0.8469 -0.0689 -0.0145
 8797SOL    HW138027   1.421   4.614  11.193 -0.8126 -1.3006  0.8149
 8797SOL    HW238028   1.318   4.622  11.078  0.7098  0.5114  1.2814
 8798SOL     OW38029   2.483   1.143   1.634  0.4470  0.5912 -0.9296
 8798SOL    HW138030   2.391   1.147   1.660  0.8371 -0.6957  0.6326
 8798SOL    HW238031   2.477   1.098   1.550  0.5850  0.5123 -0.8982
 8799SOL     OW38032   1.608   3.980   9.390  0.1843  0.4795  0.4881
 8799SOL    HW138033   1.671   3.989   9.319 -1.4727  3.1531 -0.6361
 8799SOL    HW238034   1.625   3.888   9.410  2.2469  0.9571  0.9594
 8800SOL     OW38035   2.620   1.453  12.241 -0.1245  0.2665  0.1294
 8800SOL    HW138036   2.618   1.400  12.162  1.3243 -1.0019  0.9588
 8800SOL    HW238037   2.698   1.425  12.287 -0.9625 -0.4886  1.0792
 8801SOL     OW38038   0.419   3.995   5.764 -0.0742 -0.1783  0.0264
 8801SOL    HW138039   0.501   3.952   5.787 -0.1625 -1.2069 -1.5504
 8801SOL    HW238040   0.416   3.982   5.669 -3.1664  1.7464 -0.1379
 8802SOL     OW38041   0.251   2.672   3.888  0.5822 -0.6883 -0.3011
 8802SOL    HW138042   0.302   2.596   3.862  0.6257  0.1884 -2.7373
 8802SOL    HW238043   0.305   2.746   3.858 -1.5651  0.4402 -1.3596
 8803SOL     OW38044   2.287   4.466   6.675 -0.3388 -0.1221 -0.3931
 8803SOL    HW138045   2.197   4.476   6.642 -0.6387  0.4574  0.6145
 8803SOL    HW238046   2.295   4.396   6.740 -0.2383 -1.2102 -1.5812
 8804SOL     OW38047   3.088   2.610   2.893 -0.3103  0.1872  0.3746
 8804SOL    HW138048   3.074   2.531   2.945  0.8265 -0.9093 -0.9543
 8804SOL    HW238049   3.032   2.601   2.815 -1.1859 -0.0432  1.0319
 8805SOL     OW38050   2.311   4.486   8.524  0.0042 -0.0068 -0.0584
 8805SOL    HW138051   2.376   4.545   8.485  2.0947 -1.5103  1.1553
 8805SOL    HW238052   2.250   4.469   8.452 -1.1287 -1.4342  1.2486
 8806SOL     OW38053   3.654   3.787   2.777  0.2745 -0.0240  0.0407
 8806SOL    HW138054   3.746   3.772   2.800  0.8019  0.9331 -1.4547
 8806SOL    HW238055   3.658   3.880   2.757  3.1110  0.4846  3.0163
 8807SOL     OW38056   1.242   2.215   4.958 -0.0860  0.2785  0.1891
 8807SOL    HW138057   1.159   2.167   4.966  0.1944 -0.2878 -0.3201
 8807SOL    HW238058   1.217   2.287   4.901  1.1905 -0.3909 -1.2044
 8808SOL     OW38059   0.634   4.281   8.368  0.2887  0.5857 -0.2489
 8808SOL    HW138060   0.680   4.335   8.432 -1.5995 -0.1497  1.7231
 8808SOL    HW238061   0.583   4.348   8.323  0.1715  0.9042  0.3634
 8809SOL     OW38062   3.421   1.302   1.567 -0.2324  0.1290  0.0469
 8809SOL    HW138063   3.436   1.390   1.603 -2.6113  0.5133  0.0876
 8809SOL    HW238064   3.345   1.303   1.510 -2.1667 -0.9454  2.6120
 8810SOL     OW38065   0.013   1.293   1.996 -0.0701 -0.2110  0.0166
 8810SOL    HW138066   4.688   1.361   2.024  0.4781 -0.3656  1.6013
 8810SOL    HW238067   0.020   1.314   1.903 -1.0445  0.5517  0.1258
 8811SOL     OW38068   2.167   2.435   3.124  0.4017 -0.1334  0.2809
 8811SOL    HW138069   2.239   2.375   3.143  0.9693  0.1667 -0.9219
 8811SOL    HW238070   2.186   2.467   3.036 -1.2995 -0.3058 -0.1468
 8812SOL     OW38071   1.734   0.754   5.729 -0.6188  0.0464 -0.0660
 8812SOL    HW138072   1.787   0.711   5.796  0.2601  1.5810  0.2107
 8812SOL    HW238073   1.751   0.694   5.656 -2.4478 -0.4302 -0.1083
 8813SOL     OW38074   0.235   2.922   3.301 -0.3174  0.1659 -0.9011
 8813SOL    HW138075   0.158   2.976   3.321 -1.2927 -1.9052  0.9865
 8813SOL    HW238076   0.261   2.906   3.392 -0.3467  1.8378 -0.5912
 8814SOL     OW38077   4.279   0.528  17.636 -0.0331  0.3035  0.3672
 8814SOL    HW138078   4.317   0.532  17.724 -0.1861 -0.3532  0.4612
 8814SOL    HW238079   4.257   0.435  17.640 -0.4000  0.3780  0.0777
 8815SOL     OW38080   3.985   1.940   5.718  0.0900  0.0565 -0.2269
 8815SOL    HW138081   3.940   2.025   5.712 -1.2980 -0.6319  0.5747
 8815SOL    HW238082   3.970   1.909   5.629 -1.0534  0.2043 -0.0837
 8816SOL     OW38083   2.576   3.953   7.654 -0.2346  0.0462  0.1859
 8816SOL    HW138084   2.666   3.943   7.683  0.3641 -0.2198 -1.7503
 8816SOL    HW238085   2.536   3.895   7.718  1.3436  0.8767  1.9068
 8817SOL     OW38086   1.186   1.324  12.844 -0.2007  0.0378  0.2147
 8817SOL    HW138087   1.221   1.302  12.930  0.2241 -0.9198 -0.2038
 8817SOL    HW238088   1.198   1.242  12.795 -0.6985 -1.1038  2.0227
 8818SOL     OW38089   2.416   3.900   8.558 -0.0026 -0.0175  0.2116
 8818SOL    HW138090   2.419   3.843   8.635  1.9331 -1.3167 -0.8037
 8818SOL    HW238091   2.444   3.841   8.488  1.0471  2.0585 -1.1017
 8819SOL     OW38092   1.422   3.208   3.632 -0.1306  0.6965  0.0675
 8819SOL    HW138093   1.377   3.175   3.710 -1.9530 -0.1714 -1.3512
 8819SOL    HW238094   1.507   3.184   3.669  0.2718  2.9319  0.5950
 8820SOL     OW38095   2.864   0.457   4.180  0.6208  0.2658  0.2348
 8820SOL    HW138096   2.860   0.435   4.087  0.3217  1.4712 -0.0307
 8820SOL    HW238097   2.815   0.539   4.179 -0.1966 -0.2274 -2.3732
 8821SOL     OW38098   0.677   4.546  16.066 -0.3951 -0.8821 -0.2604
 8821SOL    HW138099   0.699   4.475  16.005 -0.0804 -1.6265  0.7155
 8821SOL    HW238100   0.582   4.556  16.063 -0.3063  0.0155  0.0578
 8822SOL     OW38101   1.038   0.018   2.735 -0.1867 -0.0244  0.2720
 8822SOL    HW138102   1.095   0.090   2.760 -0.8712  1.0745 -1.3776
 8822SOL    HW238103   1.047   0.025   2.640 -3.4811  0.3022 -0.0075
 8823SOL     OW38104   4.575   2.718  17.517 -0.1606  0.2104 -0.2113
 8823SOL    HW138105   4.618   2.702  17.433  0.6766 -0.5202  0.3614
 8823SOL    HW238106   4.487   2.711  17.480  0.4704 -0.2645 -1.6296
 8824SOL     OW38107   2.158   2.188   4.825  0.0583  0.1067 -0.2134
 8824SOL    HW138108   2.124   2.262   4.775  0.3231  0.3604 -0.0104
 8824SOL    HW238109   2.244   2.223   4.846  1.0014 -0.6584 -2.7312
 8825SOL     OW38110   4.519   2.290   6.991  0.2139  0.3559 -0.5099
 8825SOL    HW138111   4.510   2.225   6.921 -0.2468  0.8749 -0.9322
 8825SOL    HW238112   4.558   2.366   6.947  2.0051 -0.0204  0.4345
 8826SOL     OW38113   1.807   3.184   1.779 -0.5977  0.2190  0.3247
 8826SOL    HW138114   1.730   3.237   1.760 -1.7305 -1.1147  1.1616
 8826SOL    HW238115   1.756   3.105   1.798  1.5604 -1.4295 -0.7127
 8827SOL     OW38116   1.663   1.738   8.496 -0.2002 -0.2330 -0.0708
 8827SOL    HW138117   1.699   1.651   8.516  0.5563  0.7637  2.9549
 8827SOL    HW238118   1.725   1.764   8.428  0.0458 -0.1454  0.1812
 8828SOL     OW38119   0.285   3.627   4.435  0.0495 -0.5136  0.1609
 8828SOL    HW138120   0.328   3.707   4.463 -1.5479  0.5256 -0.3537
 8828SOL    HW238121   0.287   3.573   4.515  2.5967 -2.9101 -1.5290
 8829SOL     OW38122   0.341   2.103   5.502  0.1143 -0.2381  0.1256
 8829SOL    HW138123   0.373   2.165   5.437 -2.4788 -1.5077 -2.3662
 8829SOL    HW238124   0.423   2.060   5.528  0.6466 -1.5784 -3.7020
 8830SOL     OW38125   0.175   0.291  11.656  0.0810  0.1090 -0.5798
 8830SOL    HW138126   0.151   0.350  11.585  0.7889  0.6925 -0.3244
 8830SOL    HW238127   0.148   0.343  11.731 -0.5992 -0.2593 -0.5650
 8831SOL     OW38128   4.302   4.535  17.500  0.0799  0.2008 -0.0808
 8831SOL    HW138129   4.393   4.506  17.496 -0.1671 -0.8006  1.7367
 8831SOL    HW238130   4.279   4.499  17.415  1.1822 -0.6895 -0.0050
 8832SOL     OW38131   3.215   1.413   2.152 -0.2588  0.2439  0.1211
 8832SOL    HW138132   3.150   1.376   2.091 -0.0969  1.6382 -0.8703
 8832SOL    HW238133   3.283   1.368   2.102  0.6301  0.1922  1.3730
 8833SOL     OW38134   1.468   3.719   2.108  0.5981 -0.2490 -0.0639
 8833SOL    HW138135   1.527   3.763   2.047 -0.9364 -2.1096 -2.8449
 8833SOL    HW238136   1.522   3.739   2.185  1.4536  1.4115 -1.0881
 8834SOL     OW38137   0.726   4.134  15.876 -0.5520 -0.5805  0.7816
 8834SOL    HW138138   0.654   4.196  15.870  0.0943 -0.0732 -1.8205
 8834SOL    HW238139   0.759   4.172  15.958  1.4646  2.1294 -1.2996
 8835SOL     OW38140   4.250   3.838  11.416 -0.1450  0.3236 -0.1820
 8835SOL    HW138141   4.235   3.859  11.324 -0.8284 -2.1077 -0.6064
 8835SOL    HW238142   4.321   3.899  11.436  1.0425 -1.2705  0.4840
 8836SOL     OW38143   3.388   2.677   7.018 -0.4047  0.1127 -0.0639
 8836SOL    HW138144   3.406   2.698   7.110  3.3310  0.1649 -0.8055
 8836SOL    HW238145   3.295   2.697   7.016 -0.3541  0.2721 -0.9554
 8837SOL     OW38146   4.555   4.215   5.988 -0.7013 -0.7578  0.1141
 8837SOL    HW138147   4.510   4.257   5.915  1.3712 -0.3666 -0.9232
 8837SOL    HW238148   4.582   4.297   6.029  0.2085 -0.8256 -0.3621
 8838SOL     OW38149   0.102   4.699   6.904  0.1543  0.0940  0.2452
 8838SOL    HW138150   0.182   4.724   6.950  0.3904  0.6161 -0.4625
 8838SOL    HW238151   0.097   0.027   6.834  2.5736 -2.2689 -2.1293
 8839SOL     OW38152   1.093   2.028   7.272  0.1629 -0.1534 -0.2353
 8839SOL    HW138153   1.094   2.011   7.178  3.2212  1.7650 -0.5341
 8839SOL    HW238154   1.162   2.094   7.276 -0.5291  0.2812  4.4695
 8840SOL     OW38155   3.998   0.913   1.428 -0.0105 -0.1586 -0.1431
 8840SOL    HW138156   3.960   1.001   1.428 -0.5574 -0.4109 -3.5043
 8840SOL    HW238157   3.915   0.874   1.457  0.1496 -0.0017  0.5298
 8841SOL     OW38158   1.338   3.568   6.941 -0.0874  0.4025 -0.6580
 8841SOL    HW138159   1.404   3.498   6.943 -1.1726 -0.5994 -0.2382
 8841SOL    HW238160   1.261   3.523   6.908 -0.5970  0.8195 -0.0276
 8842SOL     OW38161   1.773   3.047   2.147  0.0557 -0.0486  0.6161
 8842SOL    HW138162   1.709   3.114   2.124 -0.2708 -1.2008 -1.8160
 8842SOL    HW238163   1.795   3.062   2.240  1.3853 -1.1420  0.4875
 8843SOL     OW38164   1.857   3.365   4.455 -0.1343 -0.0297  0.0291
 8843SOL    HW138165   1.761   3.371   4.454  0.0197  1.5403 -2.7734
 8843SOL    HW238166   1.868   3.421   4.532  0.8697 -0.7172  0.3919
 8844SOL     OW38167   3.634   0.239   8.769 -0.2282 -0.2604 -0.3774
 8844SOL    HW138168   3.696   0.239   8.696  1.2115 -1.3277  0.8617
 8844SOL    HW238169   3.617   0.147   8.787 -2.3181  0.2169  0.1763
 8845SOL     OW38170   1.479   0.059   1.492  0.2268 -0.3903  0.3172
 8845SOL    HW138171   1.462   0.150   1.516  0.7381 -0.5994  1.4992
 8845SOL    HW238172   1.403   0.016   1.532 -1.9190  0.9850 -2.2794
 8846SOL     OW38173   0.102   3.366  13.124  0.1712 -0.3117  0.0499
 8846SOL    HW138174   0.034   3.428  13.097  0.9427  0.5132 -0.0013
 8846SOL    HW238175   0.154   3.411  13.191  1.8952 -0.0077 -1.4894
 8847SOL     OW38176   3.135   1.244  12.062  0.2232 -0.0615  0.2095
 8847SOL    HW138177   3.080   1.305  12.014  0.5651 -0.1991 -0.3520
 8847SOL    HW238178   3.209   1.300  12.086  1.9954 -2.2069 -0.2068
 8848SOL     OW38179   2.816   4.626   6.474  0.8267 -0.2033  0.1597
 8848SOL    HW138180   2.864   4.691   6.422  2.0851  0.4397  2.1128
 8848SOL    HW238181   2.727   4.660   6.459  1.7070  2.2885  0.4697
 8849SOL     OW38182   1.661   4.369   2.110 -0.4464  0.6824  0.4523
 8849SOL    HW138183   1.749   4.346   2.079  0.1560  0.2990  2.4208
 8849SOL    HW238184   1.637   4.450   2.066 -0.9188  0.1615 -0.2524
 8850SOL     OW38185   0.479   4.503   2.182 -0.1736 -0.2741  0.5029
 8850SOL    HW138186   0.405   4.526   2.238 -0.4295  1.3065 -0.5006
 8850SOL    HW238187   0.487   4.407   2.188 -0.1179 -0.3456 -0.7007
 8851SOL     OW38188   4.154   1.660   4.155  0.1725 -0.0145  0.3570
 8851SOL    HW138189   4.075   1.655   4.209  0.7881 -1.0391  1.1521
 8851SOL    HW238190   4.210   1.620   4.220  2.1404  1.8746 -0.1705
 8852SOL     OW38191   3.800   1.724   5.084  0.0801  0.4814 -0.1578
 8852SOL    HW138192   3.825   1.663   5.154 -0.8003  0.2132 -0.0754
 8852SOL    HW238193   3.705   1.713   5.079  0.2897 -1.9335  0.6954
 8853SOL     OW38194   1.538   2.684   2.947 -0.1192 -0.3694 -0.4979
 8853SOL    HW138195   1.606   2.743   2.979 -0.6667  1.3945 -2.6050
 8853SOL    HW238196   1.580   2.598   2.949 -1.4354 -1.0412 -1.4635
 8854SOL     OW38197   0.960   0.554   2.793 -0.4228  0.0077  0.1954
 8854SOL    HW138198   0.923   0.485   2.849  1.9324 -2.0904 -0.8435
 8854SOL    HW238199   0.889   0.594   2.743  0.5842  1.3838 -0.1278
 8855SOL     OW38200   3.601   2.714   9.675  0.4180  0.3604  0.0793
 8855SOL    HW138201   3.624   2.622   9.684  1.6969  0.5842 -0.9147
 8855SOL    HW238202   3.545   2.717   9.752 -0.6157  1.7713 -0.7072
 8856SOL     OW38203   0.180   1.289  14.022  0.8678 -0.2999 -0.0311
 8856SOL    HW138204   0.196   1.380  13.997  0.6759  0.1320  1.4245
 8856SOL    HW238205   0.087   1.275  14.005  0.7554  0.9691 -0.5019
 8857SOL     OW38206   3.730   4.213  11.256 -0.7122 -0.4321  0.4436
 8857SOL    HW138207   3.812   4.224  11.304 -0.1916 -2.8240  0.0975
 8857SOL    HW238208   3.659   4.212  11.320 -1.4667 -1.5121 -0.4163
 8858SOL     OW38209   2.951   2.154   7.122 -0.1635 -0.4622 -0.3631
 8858SOL    HW138210   2.999   2.179   7.043 -0.6527  1.0628 -0.1733
 8858SOL    HW238211   2.863   2.128   7.094 -0.6815  3.6416 -2.5593
 8859SOL     OW38212   0.068   3.087   6.593 -0.1749  0.3246 -0.0876
 8859SOL    HW138213   0.048   3.179   6.612 -1.3183 -0.2113  1.3097
 8859SOL    HW238214   4.729   3.044   6.633  0.1234 -0.5330 -0.4411
 8860SOL     OW38215   3.846   2.190   3.944  0.9451  0.0150  0.6054
 8860SOL    HW138216   3.762   2.148   3.962  0.3061  1.2613  0.4969
 8860SOL    HW238217   3.894   2.123   3.895 -0.7325 -1.9129  1.6111
 8861SOL     OW38218   0.005   4.727  11.956  0.0011 -0.0298  0.1680
 8861SOL    HW138219   0.052   0.015  11.876  0.7801 -1.1444  0.2884
 8861SOL    HW238220   0.050   4.647  11.982 -0.4282  0.6095  2.8203
 8862SOL     OW38221   3.412   0.277  13.069 -0.3231  0.1162  0.3066
 8862SOL    HW138222   3.326   0.238  13.053  0.0991 -0.7119  0.0867
 8862SOL    HW238223   3.461   0.196  13.069 -1.4290 -0.5627 -0.8130
 8863SOL     OW38224   3.896   3.455   5.939  0.2616  0.4283 -0.1085
 8863SOL    HW138225   3.825   3.390   5.942 -0.2553  0.9555 -0.9388
 8863SOL    HW238226   3.858   3.543   5.943 -0.5989  0.1395 -1.9267
 8864SOL     OW38227   3.446   2.001  13.914 -0.1614 -0.0211  0.1901
 8864SOL    HW138228   3.502   1.988  13.838  0.3114 -1.0870  0.7179
 8864SOL    HW238229   3.435   2.094  13.896 -0.1949  0.0634  0.6323
 8865SOL     OW38230   1.171   2.823   4.231 -0.1260  0.5487  0.7269
 8865SOL    HW138231   1.265   2.814   4.242  0.3041  2.2754 -1.7285
 8865SOL    HW238232   1.147   2.730   4.229  3.4584 -0.2777 -3.2129
 8866SOL     OW38233   0.109   0.957   2.366  0.1423  0.5681  0.1787
 8866SOL    HW138234   0.135   0.906   2.289 -1.6145  1.1499 -0.8135
 8866SOL    HW238235   0.024   0.991   2.337  1.7162  2.9283 -1.5953
 8867SOL     OW38236   2.255   2.969  15.980 -0.0914  0.1307  0.5883
 8867SOL    HW138237   2.320   3.030  16.014  0.3802  1.6551 -3.0231
 8867SOL    HW238238   2.311   2.892  15.974 -1.6940 -1.0303  0.3488
 8868SOL     OW38239   0.236   1.376  14.319 -0.4017 -1.0318  0.0284
 8868SOL    HW138240   0.195   1.351  14.402  0.1614  1.3340  1.0098
 8868SOL    HW238241   0.157   1.390  14.267  1.6232  0.0387 -2.7689
 8869SOL     OW38242   0.329   0.497   9.852  0.0210  0.1979  0.0006
 8869SOL    HW138243   0.419   0.513   9.879  0.4422 -0.7861 -0.8518
 8869SOL    HW238244   0.340   0.494   9.757 -0.1718  0.7591 -0.0441
 8870SOL     OW38245   3.003   4.655   3.768  0.1659  0.0784 -0.2866
 8870SOL    HW138246   3.075   4.714   3.791 -0.9954  1.0773  0.7667
 8870SOL    HW238247   2.987   4.685   3.678 -0.6519 -0.6345 -0.3790
 8871SOL     OW38248   1.733   1.246   4.776 -0.5073 -0.5457  0.4894
 8871SOL    HW138249   1.698   1.159   4.756 -0.8680 -0.5005  0.9316
 8871SOL    HW238250   1.662   1.293   4.732  0.6527  0.3677 -0.3858
 8872SOL     OW38251   3.253   2.319   4.826 -0.3253 -0.3699 -0.1246
 8872SOL    HW138252   3.181   2.378   4.805  0.9702  0.6353 -1.7497
 8872SOL    HW238253   3.285   2.349   4.912 -0.2845  1.8210 -0.8943
 8873SOL     OW38254   1.946   3.665   9.299 -0.2390  0.0723 -0.6782
 8873SOL    HW138255   1.912   3.735   9.243  0.4352 -0.8752 -2.2452
 8873SOL    HW238256   1.980   3.722   9.369  1.6573 -0.5471 -1.1057
 8874SOL     OW38257   0.894   2.307  17.008  0.6304  0.1216  0.2631
 8874SOL    HW138258   0.822   2.319  17.070  1.3606  1.4016  0.8714
 8874SOL    HW238259   0.946   2.386  17.025 -1.0307  1.0226  1.1383
 8875SOL     OW38260   1.502   1.641   1.164  0.1396 -0.6334  0.7412
 8875SOL    HW138261   1.527   1.602   1.081  1.5711  0.2691  0.7460
 8875SOL    HW238262   1.421   1.689   1.145  0.9002  0.0098 -0.8710
 8876SOL     OW38263   0.456   0.488  15.367  0.1001 -0.0596  0.4185
 8876SOL    HW138264   0.460   0.414  15.307 -1.1237  0.1026  0.1544
 8876SOL    HW238265   0.542   0.486  15.411  0.6162 -1.1490 -0.6623
 8877SOL     OW38266   1.631   4.687  16.104  0.1355 -0.0889 -0.5322
 8877SOL    HW138267   1.705   4.718  16.050 -1.3760 -0.7950 -3.0301
 8877SOL    HW238268   1.668   4.601  16.124  0.5147 -0.2723 -1.9938
 8878SOL     OW38269   0.244   0.159   4.049  0.1090 -0.3432 -0.2057
 8878SOL    HW138270   0.205   0.090   4.102  1.6062 -1.5939 -0.7221
 8878SOL    HW238271   0.231   0.238   4.102  1.2515 -0.3883  0.1542
 8879SOL     OW38272   3.160   2.009   5.574 -1.0626  0.1699 -0.0971
 8879SOL    HW138273   3.177   1.915   5.561 -2.2997 -0.3129  1.7649
 8879SOL    HW238274   3.130   2.017   5.665 -0.3881  0.5063  0.0943
 8880SOL     OW38275   4.169   4.661  12.495 -0.1476 -0.1221 -0.2354
 8880SOL    HW138276   4.114   0.002  12.480  1.3346  0.6679 -1.5639
 8880SOL    HW238277   4.106   4.592  12.515 -1.2860  1.3086  1.2176
 8881SOL     OW38278   1.762   2.781   2.351 -0.5450 -0.5024 -0.1667
 8881SOL    HW138279   1.683   2.732   2.330 -1.2004  0.4959  0.0035
 8881SOL    HW238280   1.719   2.864   2.373  1.1207  0.7211 -1.4660
 8882SOL     OW38281   3.346   1.252   4.598  0.3171 -0.2125 -0.6451
 8882SOL    HW138282   3.423   1.285   4.644  0.4418 -0.0486 -0.9746
 8882SOL    HW238283   3.371   1.240   4.507 -2.1312  1.3121 -1.5145
 8883SOL     OW38284   0.886   0.033  16.423 -0.1067 -0.6745  0.7577
 8883SOL    HW138285   0.849   4.701  16.480 -0.3573  0.1179  1.5402
 8883SOL    HW238286   0.920   4.722  16.348  0.2508  1.4101 -0.3772
 8884SOL     OW38287   1.382   2.272   9.860 -0.1687 -0.1683  0.6144
 8884SOL    HW138288   1.428   2.205   9.911  1.3282 -1.1426 -2.0202
 8884SOL    HW238289   1.323   2.216   9.810  0.0445  3.3258 -3.5977
 8885SOL     OW38290   2.127   1.079   3.809  0.0963  0.2393 -0.6327
 8885SOL    HW138291   2.097   1.099   3.720  2.8561 -1.7012 -1.9777
 8885SOL    HW238292   2.060   1.125   3.860 -0.7539  1.6993 -3.0119
 8886SOL     OW38293   4.200   1.796  15.851  0.6314  0.1704 -0.0151
 8886SOL    HW138294   4.176   1.865  15.790 -1.2320 -0.3980  0.0803
 8886SOL    HW238295   4.128   1.733  15.852  0.3374  0.4808 -1.1013
 8887SOL     OW38296   0.374   4.530   1.913 -0.0292  0.2119 -0.0463
 8887SOL    HW138297   0.278   4.528   1.917  0.0016 -2.8583 -0.8894
 8887SOL    HW238298   0.393   4.494   1.999  1.2960 -0.6540 -0.7188
 8888SOL     OW38299   0.984   3.015   4.167 -0.1540 -0.7366 -1.1250
 8888SOL    HW138300   1.060   2.959   4.183 -1.1202 -1.9825 -0.9268
 8888SOL    HW238301   0.942   2.965   4.097  0.8037 -1.5980 -1.0803
 8889SOL     OW38302   3.990   2.345   4.708  0.6671  0.0923  0.2015
 8889SOL    HW138303   3.960   2.280   4.645 -0.6632  0.3233  0.6018
 8889SOL    HW238304   4.010   2.298   4.789  2.1198 -0.5704 -0.5436
 8890SOL     OW38305   3.131   2.606  11.283  0.2402 -0.0929 -0.1056
 8890SOL    HW138306   3.152   2.689  11.241  0.6072 -1.1763 -2.0815
 8890SOL    HW238307   3.064   2.639  11.343 -0.2782  0.2656 -0.8947
 8891SOL     OW38308   1.685   4.514   4.133 -0.1824 -1.1461 -0.0452
 8891SOL    HW138309   1.721   4.456   4.066 -1.1835 -1.6104 -0.1833
 8891SOL    HW238310   1.619   4.468   4.186 -1.3211 -0.8635 -1.2285
 8892SOL     OW38311   0.206   4.243  15.074 -0.6527  0.3248  0.4464
 8892SOL    HW138312   0.151   4.321  15.074 -1.0298  0.0758 -1.9856
 8892SOL    HW238313   0.269   4.263  15.004 -2.4299 -0.5508 -1.4127
 8893SOL     OW38314   4.166   3.671   9.349 -0.4617  0.3640  0.6100
 8893SOL    HW138315   4.168   3.683   9.254  0.9602  1.3039  0.7647
 8893SOL    HW238316   4.073   3.675   9.371  0.3975  3.1578  3.7396
 8894SOL     OW38317   1.839   2.461  14.236 -0.0581 -0.1759 -0.3662
 8894SOL    HW138318   1.748   2.442  14.258 -0.1564 -0.4163 -0.9736
 8894SOL    HW238319   1.876   2.474  14.323 -0.8362 -0.8823  0.0699
 8895SOL     OW38320   2.266   3.702  13.088  0.3836 -0.4442  0.1430
 8895SOL    HW138321   2.334   3.651  13.044  0.1440 -0.9369  0.3468
 8895SOL    HW238322   2.187   3.679  13.039 -0.4041  0.6999  0.8670
 8896SOL     OW38323   3.776   1.386   8.843 -0.7412 -0.5226 -0.1882
 8896SOL    HW138324   3.785   1.425   8.756 -1.9628  1.3113  0.5197
 8896SOL    HW238325   3.686   1.358   8.828 -1.4327  1.1179  1.0166
 8897SOL     OW38326   2.753   3.628   6.089 -0.3768  0.0887 -0.4390
 8897SOL    HW138327   2.678   3.603   6.143 -0.0728 -0.0588 -0.0876
 8897SOL    HW238328   2.813   3.652   6.160  0.5592  0.8401 -1.4831
 8898SOL     OW38329   0.222   1.372   7.195  0.1480 -0.9156  0.0548
 8898SOL    HW138330   0.297   1.426   7.219 -0.1302 -0.3570 -0.3320
 8898SOL    HW238331   0.168   1.373   7.274  1.1910 -0.3007  0.7656
 8899SOL     OW38332   2.561   3.466   7.462  0.0996 -0.2055  0.0771
 8899SOL    HW138333   2.600   3.554   7.461  2.7279 -1.3809  1.5131
 8899SOL    HW238334   2.471   3.480   7.431  0.2082  1.1140  0.3621
 8900SOL     OW38335   4.018   0.726   5.102  0.1132  0.3750 -0.0640
 8900SOL    HW138336   4.019   0.671   5.180 -1.0873  1.0315  0.4113
 8900SOL    HW238337   3.950   0.792   5.118  0.3911 -0.2687  3.6819
 8901SOL     OW38338   1.851   1.693  14.161 -0.1939  0.0884 -0.1979
 8901SOL    HW138339   1.794   1.732  14.094  0.7568  0.4210 -0.8199
 8901SOL    HW238340   1.939   1.703  14.125 -0.1772 -1.3887 -0.5909
 8902SOL     OW38341   2.454   2.197   8.446 -0.3561 -0.4273  0.2239
 8902SOL    HW138342   2.416   2.275   8.406  1.0135 -1.0987 -2.4162
 8902SOL    HW238343   2.427   2.134   8.378  3.2680 -1.3117 -0.3682
 8903SOL     OW38344   0.566   2.929   2.648  0.3118 -0.0011  0.3229
 8903SOL    HW138345   0.534   3.019   2.637  3.7307  1.0236 -1.0205
 8903SOL    HW238346   0.641   2.943   2.705 -1.9592  2.2249  2.8175
 8904SOL     OW38347   4.035   2.983   3.698 -0.2770 -0.4803  0.5446
 8904SOL    HW138348   4.098   3.013   3.632 -2.0115 -1.6407 -1.6504
 8904SOL    HW238349   4.074   2.896   3.707  1.0193  0.1571  1.0225
 8905SOL     OW38350   3.347   3.828   6.637 -0.2442  0.5240 -0.3243
 8905SOL    HW138351   3.428   3.839   6.587 -0.0602 -2.5254 -0.7162
 8905SOL    HW238352   3.278   3.825   6.570 -1.2503  0.1462  0.7329
 8906SOL     OW38353   0.018   2.547   6.976 -0.1333  0.7177  0.5577
 8906SOL    HW138354   4.717   2.601   6.907  1.7428  0.8697 -0.3519
 8906SOL    HW238355   0.005   2.607   7.049 -1.6197  0.4741  0.4974
 8907SOL     OW38356   3.905   1.929   6.722 -0.0255 -0.3697 -0.1734
 8907SOL    HW138357   3.916   2.024   6.716 -1.5453 -0.3002 -1.8624
 8907SOL    HW238358   3.885   1.916   6.815 -1.3335 -1.5291 -0.6229
 8908SOL     OW38359   0.454   2.698   5.848  0.1937 -0.3865 -0.1554
 8908SOL    HW138360   0.390   2.636   5.883  0.2579  0.4688  1.4631
 8908SOL    HW238361   0.411   2.709   5.763 -1.4505  2.2251  1.0231
 8909SOL     OW38362   0.809   0.350  17.464  0.6163  0.0011 -0.1110
 8909SOL    HW138363   0.848   0.432  17.432  1.9467 -0.0894  1.2872
 8909SOL    HW238364   0.718   0.352  17.435  0.4957 -1.7958  0.1555
 8910SOL     OW38365   1.254   2.853   3.311 -0.2536  0.0236 -0.2164
 8910SOL    HW138366   1.349   2.852   3.298 -0.0306  2.5277  1.2368
 8910SOL    HW238367   1.236   2.894   3.395 -0.4826 -0.1991 -0.1569
 8911SOL     OW38368   1.703   0.615   1.828 -0.2953  0.0712 -0.2093
 8911SOL    HW138369   1.793   0.585   1.813 -0.3015  1.0420 -2.2244
 8911SOL    HW238370   1.713   0.710   1.826 -1.9533  0.2294 -1.4020
 8912SOL     OW38371   4.246   1.810   8.482 -0.2304  0.4024  0.4521
 8912SOL    HW138372   4.201   1.856   8.553  0.5557  1.9402 -0.0593
 8912SOL    HW238373   4.192   1.732   8.498  1.4525 -0.5946  1.2474
 8913SOL     OW38374   0.373   3.030  10.075 -0.6285  0.2541  0.1130
 8913SOL    HW138375   0.368   3.022  10.170 -2.2230 -0.3167 -0.0159
 8913SOL    HW238376   0.459   2.991  10.062  0.3132  2.2459  0.3551
 8914SOL     OW38377   4.578   1.786   9.569  0.5697  0.4510 -0.1669
 8914SOL    HW138378   4.553   1.866   9.617 -0.7203  0.0070 -0.0953
 8914SOL    HW238379   4.643   1.752   9.631  1.2723 -0.4368 -1.4072
 8915SOL     OW38380   1.503   1.479   1.397  0.7372  0.2490 -0.1827
 8915SOL    HW138381   1.502   1.512   1.307  3.0975  1.4769  0.2287
 8915SOL    HW238382   1.504   1.383   1.393 -0.0576  0.3096 -1.7601
 8916SOL     OW38383   0.168   3.319  14.298 -0.1027 -0.4953  0.4087
 8916SOL    HW138384   0.170   3.271  14.216 -0.5123  1.8219 -0.9669
 8916SOL    HW238385   0.240   3.290  14.354 -0.2566 -2.9256 -0.6596
 8917SOL     OW38386   2.573   0.806  10.103  1.1405 -0.0065  0.7588
 8917SOL    HW138387   2.601   0.868  10.170  0.2967  1.1666  0.0147
 8917SOL    HW238388   2.525   0.739  10.152 -0.9961  0.4972 -0.6653
 8918SOL     OW38389   1.281   2.833   8.227 -0.0743 -0.4895  0.1798
 8918SOL    HW138390   1.232   2.877   8.158 -0.3849  0.0449  0.7496
 8918SOL    HW238391   1.245   2.744   8.226 -0.8697 -0.1699  0.7658
 8919SOL     OW38392   3.623   1.869  16.191  0.6820  0.1580 -0.3286
 8919SOL    HW138393   3.538   1.829  16.211  0.8340  0.5072  0.9981
 8919SOL    HW238394   3.594   1.958  16.211  0.3792  0.0284 -0.1874
 8920SOL     OW38395   1.284   0.327   3.010  0.1178  0.3634 -0.3701
 8920SOL    HW138396   1.231   0.305   3.086  0.0657 -1.6356 -0.9753
 8920SOL    HW238397   1.322   0.404   3.052  0.6112 -0.2053  0.2318
 8921SOL     OW38398   2.914   3.007  10.992 -0.1182  0.5130 -0.0316
 8921SOL    HW138399   2.984   2.943  10.981 -0.5710 -0.1492  0.8750
 8921SOL    HW238400   2.953   3.069  11.054  1.8189  0.2626 -1.0282
 8922SOL     OW38401   0.934   2.199  16.385 -0.2911 -0.0074 -0.4165
 8922SOL    HW138402   0.961   2.190  16.293 -0.0965  0.6168 -0.4216
 8922SOL    HW238403   1.009   2.158  16.428  0.8834  2.3609 -0.1754
 8923SOL     OW38404   3.349   1.026   2.257 -0.4744 -0.3657  0.0977
 8923SOL    HW138405   3.425   1.063   2.301  0.9728 -1.0172 -1.8292
 8923SOL    HW238406   3.369   1.046   2.165 -0.0246  0.3645  0.3646
 8924SOL     OW38407   4.405   2.705   6.342  0.1948  0.5086 -0.0938
 8924SOL    HW138408   4.386   2.746   6.426  1.6476 -0.1370  0.5342
 8924SOL    HW238409   4.357   2.762   6.282  1.4110  1.5610 -0.0538
 8925SOL     OW38410   0.781   3.510   8.321  0.0551  0.0027 -0.0892
 8925SOL    HW138411   0.728   3.458   8.261  0.9783  0.4419 -1.3046
 8925SOL    HW238412   0.746   3.488   8.407  2.3008 -2.7492  0.1248
 8926SOL     OW38413   3.585   3.271   6.292  0.2279 -0.5265 -0.1698
 8926SOL    HW138414   3.503   3.234   6.261  0.7292 -0.2454 -1.8250
 8926SOL    HW238415   3.547   3.320   6.365  0.3846  0.5927 -0.8443
 8927SOL     OW38416   0.892   2.643   2.384 -0.7583  0.3110  0.2549
 8927SOL    HW138417   0.904   2.578   2.453  3.7605  0.5934 -0.2445
 8927SOL    HW238418   0.805   2.682   2.395 -0.8055  0.3424 -0.2199
 8928SOL     OW38419   0.191   2.534  11.756 -0.0587 -0.3797  0.3159
 8928SOL    HW138420   0.198   2.589  11.833 -2.5569  0.0362  0.2603
 8928SOL    HW238421   0.233   2.451  11.779  1.6539 -0.3834 -2.7968
 8929SOL     OW38422   4.301   4.108   5.045  0.0440 -0.4124 -0.2727
 8929SOL    HW138423   4.312   4.034   5.104  0.3390 -0.2129 -0.0818
 8929SOL    HW238424   4.365   4.088   4.977 -0.9770 -1.3889 -0.9478
 8930SOL     OW38425   4.367   2.213  11.935  0.5588 -0.9858 -0.1347
 8930SOL    HW138426   4.275   2.219  11.907  0.2485  0.7367  1.2994
 8930SOL    HW238427   4.384   2.305  11.955 -0.9385 -0.8580  0.5007
 8931SOL     OW38428   1.783   1.908   8.023 -0.4937 -0.4120 -0.0023
 8931SOL    HW138429   1.780   2.001   8.046 -1.6686 -0.1618 -1.1266
 8931SOL    HW238430   1.778   1.915   7.928 -2.0459 -0.0215  0.1072
 8932SOL     OW38431   1.001   0.714  11.204 -0.3753 -0.7161 -0.4209
 8932SOL    HW138432   1.080   0.682  11.158  0.2094 -1.1271  0.8642
 8932SOL    HW238433   0.933   0.675  11.150 -2.1887  1.4981  0.3017
 8933SOL     OW38434   1.422   2.897   6.198  0.1247  0.4220 -0.5492
 8933SOL    HW138435   1.345   2.868   6.247  0.0845 -0.6404 -1.2318
 8933SOL    HW238436   1.488   2.846   6.245  0.5938  2.2644  0.7612
 8934SOL     OW38437   4.601   3.360   1.769  0.3833  0.2253  0.7570
 8934SOL    HW138438   4.589   3.396   1.857 -1.3655  3.9094 -0.9380
 8934SOL    HW238439   4.551   3.280   1.781 -1.8718  1.2861 -1.5230
 8935SOL     OW38440   1.462   1.018   3.230  0.2147  0.2794  0.1489
 8935SOL    HW138441   1.380   1.001   3.184  0.7090 -2.5123  0.2772
 8935SOL    HW238442   1.496   0.928   3.237  1.1185  0.5439 -0.8283
 8936SOL     OW38443   3.001   3.293  11.032 -0.0132  0.2060  0.4478
 8936SOL    HW138444   3.040   3.274  10.947  0.8203 -0.8722  1.0690
 8936SOL    HW238445   2.926   3.342  10.998  0.6653 -0.3343 -1.8070
 8937SOL     OW38446   2.884   4.555  15.096 -0.3357  0.1650  0.0396
 8937SOL    HW138447   2.867   4.523  15.007 -0.7712  3.4424 -1.0255
 8937SOL    HW238448   2.823   4.491  15.134 -1.8587  3.0619  2.4926
 8938SOL     OW38449   4.246   1.389   3.087  0.0917  0.4377 -0.6404
 8938SOL    HW138450   4.326   1.398   3.139  0.1074 -0.9186 -0.4238
 8938SOL    HW238451   4.260   1.462   3.027  0.0498  2.3734  1.7111
 8939SOL     OW38452   2.475   3.152  12.711  0.1148 -0.4091 -0.3395
 8939SOL    HW138453   2.481   3.247  12.723  0.0342 -0.3819 -0.5151
 8939SOL    HW238454   2.423   3.124  12.786  2.7416  2.1017  2.4402
 8940SOL     OW38455   0.806   4.273  16.122  0.1627  0.2663 -0.9510
 8940SOL    HW138456   0.801   4.368  16.131  4.4571  0.4367 -0.5868
 8940SOL    HW238457   0.730   4.256  16.178  0.7010 -2.3112 -0.9917
 8941SOL     OW38458   0.131   3.395   1.676 -0.1956 -0.2777  0.0144
 8941SOL    HW138459   0.040   3.375   1.698 -0.3383  0.1807 -0.1493
 8941SOL    HW238460   0.123   3.490   1.667 -2.0379 -0.7242 -2.9099
 8942SOL     OW38461   4.544   2.762   4.456  0.2544 -0.0781 -0.5571
 8942SOL    HW138462   4.523   2.729   4.369 -0.5316  0.8756 -0.7230
 8942SOL    HW238463   4.552   2.678   4.502  0.2524  0.2933  0.1114
 8943SOL     OW38464   4.310   3.129   8.207  0.0072  0.1127  0.0523
 8943SOL    HW138465   4.275   3.208   8.250 -2.1830 -0.5055 -0.5848
 8943SOL    HW238466   4.376   3.172   8.153 -0.5900 -1.5364 -1.9772
 8944SOL     OW38467   0.457   0.063   6.021 -1.0006  0.2421 -0.2479
 8944SOL    HW138468   0.449   0.154   5.994 -1.9213 -0.0089 -0.8231
 8944SOL    HW238469   0.488   0.069   6.111 -0.6075 -2.1975 -0.2054
 8945SOL     OW38470   4.249   2.769   1.846 -0.2594  0.3479 -0.2168
 8945SOL    HW138471   4.325   2.714   1.825 -0.4235  0.2009 -0.4330
 8945SOL    HW238472   4.201   2.707   1.901  0.3932  0.3341  0.3447
 8946SOL     OW38473   0.288   1.377   8.479  0.1749  0.2551  0.0790
 8946SOL    HW138474   0.283   1.361   8.574 -2.2956 -0.0195 -0.0742
 8946SOL    HW238475   0.201   1.346   8.450 -0.0951 -1.5617  2.7741
 8947SOL     OW38476   2.953   3.484   2.640 -0.2762  0.7087  0.0872
 8947SOL    HW138477   2.950   3.565   2.691 -1.6047  1.7217 -1.6013
 8947SOL    HW238478   2.911   3.418   2.694  0.6473  1.6266  1.9305
 8948SOL     OW38479   4.729   4.227   7.066 -0.3031 -0.4149 -0.0079
 8948SOL    HW138480   4.670   4.203   6.994  2.2620 -0.1409 -2.1761
 8948SOL    HW238481   0.071   4.266   7.028 -2.1762  2.7360 -0.6246
 8949SOL     OW38482   3.340   2.018   1.613 -0.0596  0.5130 -0.4231
 8949SOL    HW138483   3.434   2.033   1.628 -0.0011  0.5851 -0.8546
 8949SOL    HW238484   3.311   2.033   1.703  0.1692 -2.4158  0.1533
 8950SOL     OW38485   2.710   3.473   5.138 -0.2876  0.4029  0.4643
 8950SOL    HW138486   2.789   3.464   5.085 -1.4474 -0.4116 -1.1548
 8950SOL    HW238487   2.701   3.380   5.161 -1.2061  0.5002  0.5242
 8951SOL     OW38488   3.225   3.045   3.497  0.2614  0.1228 -0.1033
 8951SOL    HW138489   3.229   3.134   3.532  0.2965  0.8648 -1.9732
 8951SOL    HW238490   3.167   2.999   3.558 -0.7928 -0.6090 -1.6487
 8952SOL     OW38491   1.227   3.557   3.096 -0.5440  0.3083  0.3832
 8952SOL    HW138492   1.320   3.576   3.081 -0.4988  0.1493  0.4615
 8952SOL    HW238493   1.192   3.645   3.108  1.3291  1.4003 -2.1189
 8953SOL     OW38494   4.436   0.510   4.586  0.2398 -0.2891 -0.4869
 8953SOL    HW138495   4.423   0.604   4.587  0.1017 -0.3103 -0.3338
 8953SOL    HW238496   4.413   0.484   4.675 -0.0288 -0.1717 -0.5233
 8954SOL     OW38497   3.111   1.352  10.743 -0.7245 -0.0151 -0.3330
 8954SOL    HW138498   3.063   1.433  10.723  2.2645  2.2415  1.5831
 8954SOL    HW238499   3.183   1.352  10.679  1.1115 -0.6882  1.7259
 8955SOL     OW38500   1.505   2.646   6.306 -0.0336 -0.8782 -0.1560
 8955SOL    HW138501   1.444   2.574   6.321  1.0447 -1.4137  1.6823
 8955SOL    HW238502   1.584   2.599   6.334  1.0202 -0.7069 -2.8467
 8956SOL     OW38503   1.884   3.146   8.723 -0.6261  0.3403  0.0064
 8956SOL    HW138504   1.793   3.129   8.745 -0.7479  2.6628  1.2458
 8956SOL    HW238505   1.898   3.116   8.633 -0.3817 -2.4752  0.9895
 8957SOL     OW38506   1.709   1.854   8.731  0.4904  0.2470 -0.0654
 8957SOL    HW138507   1.699   1.805   8.649 -1.8437 -0.3224  0.5584
 8957SOL    HW238508   1.718   1.785   8.797  1.7850  1.0494  0.5818
 8958SOL     OW38509   1.418   4.295   2.211 -0.0182  0.0286 -0.4159
 8958SOL    HW138510   1.366   4.339   2.144 -1.9328  0.7920  1.5761
 8958SOL    HW238511   1.505   4.307   2.174 -0.2111  0.7249 -0.6477
 8959SOL     OW38512   0.626   2.530  17.002 -0.1976  0.3733 -0.0495
 8959SOL    HW138513   0.582   2.563  16.924  1.9935 -2.1451 -2.3445
 8959SOL    HW238514   0.634   2.436  16.985 -0.7982  0.6916 -2.0318
 8960SOL     OW38515   4.646   1.473  14.019 -0.0421  0.0997  0.4011
 8960SOL    HW138516   4.607   1.555  14.046 -0.2814 -0.3101  1.3050
 8960SOL    HW238517   4.640   1.479  13.924  0.0546  0.2226  0.4036
 8961SOL     OW38518   0.707   4.149   8.029 -0.1335 -0.2608 -0.3125
 8961SOL    HW138519   0.766   4.207   7.982 -1.7933  0.2351 -1.7705
 8961SOL    HW238520   0.764   4.117   8.099  0.9869  0.2334 -0.9887
 8962SOL     OW38521   3.111   1.407   4.507 -0.4210 -0.6381  0.6529
 8962SOL    HW138522   3.118   1.498   4.478 -3.3801 -1.0683 -1.4242
 8962SOL    HW238523   3.193   1.388   4.552 -0.1336  2.0104  1.2252
 8963SOL     OW38524   0.575   3.992   5.181 -0.4130  0.7927  0.7720
 8963SOL    HW138525   0.523   3.972   5.104  0.9172 -0.9060  0.2970
 8963SOL    HW238526   0.506   4.006   5.246 -1.3010  0.7939 -0.1921
 8964SOL     OW38527   2.114   1.766   6.920  0.0310 -0.3545  0.2098
 8964SOL    HW138528   2.019   1.778   6.921  0.3228  1.7934  2.6958
 8964SOL    HW238529   2.138   1.798   7.007 -1.0778 -1.7450  1.0474
 8965SOL     OW38530   2.562   4.495   7.222  0.6264 -0.6399  0.5611
 8965SOL    HW138531   2.503   4.549   7.275  2.0348 -0.4502  1.9320
 8965SOL    HW238532   2.633   4.472   7.281  0.2751 -0.6099  0.9935
 8966SOL     OW38533   3.436   0.975  17.569 -0.1603 -0.3522  0.0423
 8966SOL    HW138534   3.352   0.946  17.536 -0.3144  0.8733 -0.6254
 8966SOL    HW238535   3.492   0.951  17.495 -0.9347  3.9328 -1.9342
 8967SOL     OW38536   0.643   3.791   4.872  1.1157  0.1518 -0.7455
 8967SOL    HW138537   0.570   3.797   4.810 -0.5356  1.4440  1.3255
 8967SOL    HW238538   0.670   3.882   4.861 -2.1261  1.0095 -1.8106
 8968SOL     OW38539   1.879   1.309  12.632 -0.2768  0.3333 -0.2309
 8968SOL    HW138540   1.973   1.289  12.626 -0.3178  0.0971 -0.0633
 8968SOL    HW238541   1.874   1.405  12.628 -1.1751  0.3162  0.6634
 8969SOL     OW38542   2.111   2.139  15.351  0.7109  0.0204  0.0124
 8969SOL    HW138543   2.099   2.049  15.321  0.7496 -0.5399  1.6544
 8969SOL    HW238544   2.123   2.190  15.271  1.2613  2.1313  1.4564
 8970SOL     OW38545   1.371   2.221   2.423  0.0328 -0.2537 -0.1981
 8970SOL    HW138546   1.431   2.205   2.495  1.3070 -0.8797 -1.3846
 8970SOL    HW238547   1.430   2.249   2.352 -0.2744 -1.2838 -0.8676
 8971SOL     OW38548   3.644   3.399   3.978 -0.1644 -0.7011  0.2960
 8971SOL    HW138549   3.577   3.333   3.959 -5.0678  4.4800 -0.2393
 8971SOL    HW238550   3.700   3.349   4.038 -0.2536 -1.2623 -0.0881
 8972SOL     OW38551   1.628   1.503   0.190  0.3852  0.0590 -0.4673
 8972SOL    HW138552   1.626   1.410   0.210  2.6450  0.6389  2.4856
 8972SOL    HW238553   1.543   1.511   0.148  0.1060  0.9462  0.2472
 8973SOL     OW38554   1.982   0.637   7.730 -0.4919  0.3778  0.4599
 8973SOL    HW138555   2.059   0.688   7.703 -2.0947  2.5753  0.0496
 8973SOL    HW238556   1.926   0.668   7.659  0.7311  0.7711 -0.3393
 8974SOL     OW38557   3.085   2.281   9.265  0.6623 -0.0338  0.4192
 8974SOL    HW138558   3.028   2.226   9.318 -0.3781 -1.4059 -2.1286
 8974SOL    HW238559   3.138   2.328   9.329 -0.4506  0.7420  0.7582
 8975SOL     OW38560   2.217   1.973   4.678 -0.1404  0.1291 -0.1664
 8975SOL    HW138561   2.185   2.049   4.727  1.0935 -0.5236  1.6601
 8975SOL    HW238562   2.302   1.998   4.642 -0.4931 -1.4500 -2.0788
 8976SOL     OW38563   0.030   4.486  15.391 -0.6801 -0.2287 -0.0019
 8976SOL    HW138564   4.697   4.537  15.433  0.0851  0.8797 -0.0938
 8976SOL    HW238565   4.728   4.398  15.394  1.0821 -1.0278 -0.8167
 8977SOL     OW38566   1.904   2.138   1.842 -0.0094 -0.0676  0.2127
 8977SOL    HW138567   1.814   2.105   1.849 -0.0878  0.2630  0.7131
 8977SOL    HW238568   1.909   2.168   1.752  1.3773  0.6541  0.5267
 8978SOL     OW38569   3.591   4.647   7.661 -0.0672  0.0698  0.1530
 8978SOL    HW138570   3.604   4.653   7.755 -3.1574  0.1151  0.5744
 8978SOL    HW238571   3.681   4.639   7.628 -0.2404  0.0903 -0.3234
 8979SOL     OW38572   4.538   4.074   6.497 -0.7124  0.3535  0.4527
 8979SOL    HW138573   4.524   4.000   6.438 -4.0540 -0.2738  2.0081
 8979SOL    HW238574   4.520   4.034   6.582 -0.4476 -1.4348 -0.3287
 8980SOL     OW38575   3.444   1.449   3.388  0.0817 -0.4993 -0.2813
 8980SOL    HW138576   3.407   1.470   3.302  0.8108 -2.2178 -1.0206
 8980SOL    HW238577   3.521   1.398   3.363 -0.2463 -1.1051 -0.0575
 8981SOL     OW38578   4.028   4.058   5.243  0.0371 -0.2096  0.2296
 8981SOL    HW138579   3.971   3.986   5.216  0.6611 -1.1353  1.4196
 8981SOL    HW238580   4.111   4.021   5.215  1.7670  1.1102  3.6871
 8982SOL     OW38581   0.068   0.968   1.893 -0.0705 -0.7560 -0.3088
 8982SOL    HW138582   0.080   1.050   1.845 -0.4495  1.0927  2.7372
 8982SOL    HW238583   0.021   1.009   1.966  0.3614  1.2657 -1.1639
 8983SOL     OW38584   4.337   0.094  15.372 -0.8165  0.1680  0.7181
 8983SOL    HW138585   4.272   0.159  15.398 -0.3555  0.5453  0.9334
 8983SOL    HW238586   4.396   0.129  15.306 -0.5519  0.6681  1.2246
 8984SOL     OW38587   4.069   2.925   2.107 -0.1463 -0.7191  0.0552
 8984SOL    HW138588   4.025   2.840   2.118 -0.1632 -0.5699  1.1013
 8984SOL    HW238589   4.122   2.930   2.186  0.1984 -1.5592 -0.1166
 8985SOL     OW38590   1.241   4.485   3.071 -0.0606  0.2993  0.2493
 8985SOL    HW138591   1.216   4.414   3.130 -0.7747  1.2063  1.0285
 8985SOL    HW238592   1.209   4.445   2.991  1.1145  0.6182 -0.3889
 8986SOL     OW38593   3.807   2.109   8.036  0.1525 -0.0293 -0.0433
 8986SOL    HW138594   3.894   2.147   8.026 -0.3206  0.4206 -2.2825
 8986SOL    HW238595   3.763   2.163   8.102 -0.8779  0.4116 -1.0961
 8987SOL     OW38596   2.732   3.831   8.367 -0.0680 -0.3326  0.0054
 8987SOL    HW138597   2.803   3.819   8.305 -0.2823 -0.0485 -0.2965
 8987SOL    HW238598   2.736   3.927   8.373 -0.4431 -0.3844  1.1952
 8988SOL     OW38599   1.157   3.451   5.157 -0.3106  0.2369  0.2304
 8988SOL    HW138600   1.068   3.457   5.121  0.5113 -1.7097 -2.1093
 8988SOL    HW238601   1.149   3.512   5.230  1.6518 -0.2400  0.8448
 8989SOL     OW38602   0.673   4.414   1.758 -0.1600  0.0003  0.3844
 8989SOL    HW138603   0.626   4.488   1.796  1.5175  0.9709  0.5509
 8989SOL    HW238604   0.735   4.401   1.830  0.7605 -2.6605 -0.8932
 8990SOL     OW38605   4.391   1.871   1.969 -0.1161 -0.2398  0.2248
 8990SOL    HW138606   4.411   1.802   1.906 -1.8927 -0.2704 -0.2808
 8990SOL    HW238607   4.328   1.921   1.918  0.9203  0.7393 -0.0953
 8991SOL     OW38608   4.085   2.366   5.312 -0.0672 -0.0052 -0.4065
 8991SOL    HW138609   4.077   2.271   5.317  0.3110  0.0134  0.4365
 8991SOL    HW238610   3.993   2.382   5.288 -0.6942 -1.3020  1.1913
 8992SOL     OW38611   3.992   4.462   6.010 -0.6146 -0.0273 -0.0068
 8992SOL    HW138612   3.915   4.447   5.956  0.2970  0.0735 -1.3211
 8992SOL    HW238613   3.995   4.386   6.069 -1.4570 -0.4442 -0.5105
 8993SOL     OW38614   0.087   3.660   1.749 -0.3762 -0.0862 -0.3838
 8993SOL    HW138615   0.147   3.734   1.747  0.9848 -1.2090 -0.7683
 8993SOL    HW238616   0.006   3.710   1.742  0.3909  1.2553  0.5292
 8994SOL     OW38617   3.145   0.171  12.498 -0.1682 -0.2255 -0.1147
 8994SOL    HW138618   3.177   0.123  12.574 -0.9752 -0.0620  0.3260
 8994SOL    HW238619   3.071   0.216  12.539 -0.2463  0.5395 -1.0810
 8995SOL     OW38620   0.309   0.472   3.945  0.2445  0.1775  0.6456
 8995SOL    HW138621   0.337   0.435   4.029 -0.9096 -2.2079 -0.0063
 8995SOL    HW238622   0.338   0.562   3.958 -0.0769  0.6024 -1.7105
 8996SOL     OW38623   1.935   3.497  12.719 -0.2372 -0.1650  0.7677
 8996SOL    HW138624   1.908   3.519  12.630  0.1997 -1.0245  0.4206
 8996SOL    HW238625   2.007   3.435  12.704 -1.8915 -2.0511  0.6866
 8997SOL     OW38626   1.617   3.262   2.133 -0.0290  0.0165  0.0358
 8997SOL    HW138627   1.531   3.302   2.143 -0.1358  0.2067 -1.5629
 8997SOL    HW238628   1.671   3.331   2.095  0.2511 -0.1824  0.0790
 8998SOL     OW38629   1.387   3.330   2.673  0.7320  0.1379 -0.1043
 8998SOL    HW138630   1.330   3.349   2.748  1.8944 -0.2486  0.8775
 8998SOL    HW238631   1.464   3.383   2.692 -0.6966  1.9468  0.7081
 8999SOL     OW38632   1.012   3.319   5.752 -0.1718  0.2410  0.2336
 8999SOL    HW138633   1.072   3.361   5.814  1.0137 -0.5862 -0.3549
 8999SOL    HW238634   0.949   3.269   5.805  1.0538 -1.0398  0.4886
 9000SOL     OW38635   4.103   4.210   3.329 -0.7966 -0.7063 -0.3572
 9000SOL    HW138636   4.139   4.144   3.388 -1.2509 -0.2986  0.3805
 9000SOL    HW238637   4.062   4.263   3.398  0.1791  1.3007 -1.3301
 9001SOL     OW38638   1.597   1.847   2.397  0.7248  0.2800 -0.0892
 9001SOL    HW138639   1.633   1.919   2.450  0.0769 -0.9991  2.0833
 9001SOL    HW238640   1.506   1.875   2.384  1.1818  2.2347  0.8106
 9002SOL     OW38641   2.655   2.321   4.985  0.5758 -0.7974  0.2539
 9002SOL    HW138642   2.695   2.371   4.914 -1.3223  1.1373  0.5266
 9002SOL    HW238643   2.728   2.291   5.039  0.8791 -0.5295 -0.0137
 9003SOL     OW38644   4.040   3.007   4.551  0.2821  0.0363 -0.1045
 9003SOL    HW138645   3.998   2.985   4.634  0.1192 -1.9402 -0.7017
 9003SOL    HW238646   4.105   2.936   4.554  0.8889  0.5917 -0.0790
 9004SOL     OW38647   2.669   1.539   7.803 -0.3839 -0.0876  0.0592
 9004SOL    HW138648   2.670   1.444   7.790  0.1147 -0.1476  0.5359
 9004SOL    HW238649   2.734   1.557   7.736  0.6217  2.0856  1.5978
 9005SOL     OW38650   0.713   4.309   4.455  0.4179 -0.2420  0.1215
 9005SOL    HW138651   0.647   4.259   4.407  0.2381  0.2203 -0.1162
 9005SOL    HW238652   0.699   4.303   4.550 -2.1378  0.1534 -0.2173
 9006SOL     OW38653   2.054   2.446  14.962 -0.3361  0.2777 -0.0161
 9006SOL    HW138654   1.966   2.458  14.998 -0.4840 -2.8592  0.7348
 9006SOL    HW238655   2.081   2.537  14.960  1.0008 -0.1153  0.4351
 9007SOL     OW38656   4.409   3.191   5.836  0.3925  0.1930 -0.6024
 9007SOL    HW138657   4.376   3.194   5.746  0.1257  0.3374 -0.5007
 9007SOL    HW238658   4.325   3.202   5.880  0.0652 -1.1045 -0.8968
 9008SOL     OW38659   0.029   0.567   4.701 -0.4056  0.3920 -0.1156
 9008SOL    HW138660   4.688   0.569   4.645 -1.0835 -1.2858  0.7674
 9008SOL    HW238661   0.004   0.500   4.765 -1.2497  2.0297  1.2538
 9009SOL     OW38662   3.015   1.993   4.520 -0.0574 -0.1175  0.8113
 9009SOL    HW138663   2.937   1.940   4.505  1.4146 -2.1206  0.1957
 9009SOL    HW238664   2.970   2.041   4.589  0.1102 -0.1136  0.9180
 9010SOL     OW38665   4.680   3.564   0.880 -0.2210 -0.2753  0.4773
 9010SOL    HW138666   0.036   3.556   0.906  0.3922  0.8623 -1.3848
 9010SOL    HW238667   4.645   3.595   0.964  3.0055  0.7050  1.4772
 9011SOL     OW38668   2.007   0.989   7.984  0.2142 -0.1888  0.0262
 9011SOL    HW138669   2.092   0.953   8.009  0.3162  0.1655  0.1865
 9011SOL    HW238670   1.982   1.030   8.067 -0.6475  1.8270 -1.2260
 9012SOL     OW38671   0.452   0.703   5.564 -0.6018  0.1278  0.3061
 9012SOL    HW138672   0.384   0.703   5.632 -0.0154 -1.9324  0.8948
 9012SOL    HW238673   0.482   0.612   5.565  0.7748  0.6112  2.3655
 9013SOL     OW38674   0.835   0.702   8.472 -0.4811  0.1277  0.3761
 9013SOL    HW138675   0.837   0.658   8.387 -0.4335  1.4886 -0.3261
 9013SOL    HW238676   0.832   0.631   8.535  0.9320  1.2863  1.7752
 9014SOL     OW38677   1.544   3.595   1.259 -0.7056  0.6680 -0.6732
 9014SOL    HW138678   1.469   3.572   1.204  0.8942 -1.2409 -2.0482
 9014SOL    HW238679   1.608   3.532   1.227 -1.4465  0.3082 -1.4667
 9015SOL     OW38680   2.084   4.736  14.408 -0.1502 -0.2194  0.0003
 9015SOL    HW138681   2.022   0.046  14.464 -0.9332  0.6490 -1.5923
 9015SOL    HW238682   2.087   0.053  14.329 -0.9209 -0.1538  0.0200
 9016SOL     OW38683   4.569   3.092   6.137 -0.3077 -1.0520  0.2217
 9016SOL    HW138684   4.476   3.095   6.114 -0.3135 -0.0760  0.3857
 9016SOL    HW238685   4.561   3.112   6.230 -0.3179 -0.3248  0.0632
 9017SOL     OW38686   4.397   4.378   7.398  0.3454  0.2176 -0.4973
 9017SOL    HW138687   4.359   4.327   7.470 -0.7570  1.2910 -0.3355
 9017SOL    HW238688   4.474   4.321   7.387  0.8025  0.6814  0.2716
 9018SOL     OW38689   0.338   0.517  13.647 -0.0726 -0.4693 -0.8523
 9018SOL    HW138690   0.326   0.492  13.739  3.2426  0.2679 -0.2103
 9018SOL    HW238691   0.245   0.535  13.634  0.2207  1.5826 -0.1620
 9019SOL     OW38692   1.928   0.103   7.718  0.1440  0.0880 -0.0333
 9019SOL    HW138693   1.924   0.066   7.630 -0.3555 -0.2536  0.1331
 9019SOL    HW238694   2.018   0.089   7.748  0.0496 -2.0139 -0.7507
 9020SOL     OW38695   2.436   0.870   5.547 -0.0805  0.2728  0.0895
 9020SOL    HW138696   2.377   0.889   5.620 -0.1525 -0.7265  0.2824
 9020SOL    HW238697   2.407   0.783   5.521 -0.9097  0.7590 -0.5893
 9021SOL     OW38698   2.745   1.551  15.428 -0.2683 -0.5365 -0.8677
 9021SOL    HW138699   2.669   1.578  15.376 -1.3474 -1.4434  0.2443
 9021SOL    HW238700   2.714   1.535  15.517  2.2522  0.0018  0.0907
 9022SOL     OW38701   4.035   3.110   9.737 -0.1528  0.3023  0.0302
 9022SOL    HW138702   4.120   3.131   9.699 -0.0620  2.3839  1.3790
 9022SOL    HW238703   4.064   3.079   9.823 -1.5403 -2.6284 -0.5787
 9023SOL     OW38704   3.174   2.850   6.745 -0.4140  0.2476 -0.3163
 9023SOL    HW138705   3.216   2.789   6.684 -0.5640  0.2054 -0.3765
 9023SOL    HW238706   3.192   2.937   6.710 -1.0984 -0.2713 -1.9206
 9024SOL     OW38707   0.236   0.710   2.447 -1.0546 -0.0220  0.3487
 9024SOL    HW138708   0.247   0.805   2.438  1.0571 -0.2741  0.2365
 9024SOL    HW238709   0.307   0.670   2.398 -0.7593 -1.3452  1.8578
 9025SOL     OW38710   2.148   4.443   1.939 -0.0900  0.2792  0.2232
 9025SOL    HW138711   2.061   4.422   1.903 -0.8776  1.6812  1.3417
 9025SOL    HW238712   2.125   4.522   1.987 -0.3798  1.3255 -1.6263
 9026SOL     OW38713   2.443   1.692   4.298 -0.2673  0.2928 -0.1153
 9026SOL    HW138714   2.421   1.747   4.223 -1.4435 -0.9773 -0.7046
 9026SOL    HW238715   2.367   1.634   4.306  0.6062 -0.8995 -0.5366
 9027SOL     OW38716   2.876   2.677  12.358 -0.7136 -0.4073 -0.3581
 9027SOL    HW138717   2.855   2.746  12.295 -0.6120 -1.9592 -2.0856
 9027SOL    HW238718   2.878   2.594  12.310  0.8538  0.5644 -1.9219
 9028SOL     OW38719   4.732   0.393   8.444  0.5170 -0.2025 -0.1812
 9028SOL    HW138720   4.730   0.346   8.528  1.3371 -0.3380 -0.2383
 9028SOL    HW238721   0.018   0.480   8.476  0.6768 -0.2602 -0.1317
 9029SOL     OW38722   1.069   2.303  14.170  0.4461 -0.2286 -0.0297
 9029SOL    HW138723   0.975   2.321  14.162  0.4522 -0.4645 -0.5892
 9029SOL    HW238724   1.061   2.224  14.223  1.1700  0.3081  0.8771
 9030SOL     OW38725   1.167   0.561  12.483  0.0579  0.2998 -0.0651
 9030SOL    HW138726   1.173   0.569  12.388 -0.6824 -0.3797 -0.1747
 9030SOL    HW238727   1.254   0.526  12.505 -0.7097 -1.7776 -0.3242
 9031SOL     OW38728   1.929   0.772   3.993 -0.4963  0.2456 -0.0009
 9031SOL    HW138729   1.930   0.833   4.067 -0.1214  2.0501 -1.4906
 9031SOL    HW238730   1.955   0.689   4.033 -0.1652  0.9283  1.1790
 9032SOL     OW38731   2.554   3.835   0.067 -0.5901 -0.5285  0.3449
 9032SOL    HW138732   2.580   3.904   0.007  0.1589 -0.8594  0.2848
 9032SOL    HW238733   2.639   3.794   0.082  0.2770 -0.4484 -4.5208
 9033SOL     OW38734   2.620   1.536   6.164 -0.2164 -0.3473 -0.1465
 9033SOL    HW138735   2.660   1.500   6.243  0.2022  0.8485  0.1968
 9033SOL    HW238736   2.692   1.581   6.118 -0.1274 -0.4626 -0.1196
 9034SOL     OW38737   1.448   4.100  13.464 -0.3210  0.2331 -0.2562
 9034SOL    HW138738   1.449   4.143  13.550 -0.3144 -0.1331 -0.0731
 9034SOL    HW238739   1.378   4.035  13.470 -3.2134  3.3654 -0.0332
 9035SOL     OW38740   4.428   1.131   7.632  0.3012 -1.1238  0.2299
 9035SOL    HW138741   4.447   1.115   7.540  0.7088  1.1079 -0.0605
 9035SOL    HW238742   4.456   1.047   7.668  0.4672  0.0947  2.9399
 9036SOL     OW38743   4.448   0.376   5.298  0.2586 -0.2968 -0.2932
 9036SOL    HW138744   4.356   0.359   5.317  0.2533  0.2146  0.1425
 9036SOL    HW238745   4.475   0.295   5.341  0.6128 -0.8349 -1.5073
 9037SOL     OW38746   2.537   1.085  12.246 -0.5277  0.0157  0.1218
 9037SOL    HW138747   2.514   1.174  12.220  1.3420  1.3433  3.0892
 9037SOL    HW238748   2.548   1.090  12.341 -1.2299 -3.9058  0.4347
 9038SOL     OW38749   4.333   1.345   4.567  0.0113  0.5248  0.2879
 9038SOL    HW138750   4.378   1.430   4.567  0.7023  0.1611  0.4472
 9038SOL    HW238751   4.252   1.367   4.612 -0.9685 -2.4970 -0.0090
 9039SOL     OW38752   0.103   1.712  14.228 -0.4300  0.1914  0.1196
 9039SOL    HW138753   0.067   1.692  14.315  0.1782  0.8487  0.5225
 9039SOL    HW238754   0.069   1.802  14.225  0.1234  0.3743 -0.6716
 9040SOL     OW38755   4.498   2.136  16.423  0.3232  0.4782 -0.0276
 9040SOL    HW138756   4.534   2.137  16.334  1.2011  1.4953  0.3376
 9040SOL    HW238757   4.540   2.061  16.464  0.4784  0.2789 -0.5524
 9041SOL     OW38758   4.223   3.882   6.906  0.1129  0.3830  0.2999
 9041SOL    HW138759   4.144   3.828   6.902  0.0485  0.4920  0.1234
 9041SOL    HW238760   4.201   3.963   6.953  1.3491  1.4771 -1.0018
 9042SOL     OW38761   0.503   1.515   2.104  0.4368 -0.0784 -0.2250
 9042SOL    HW138762   0.431   1.470   2.060  1.3169 -0.9301 -0.7894
 9042SOL    HW238763   0.528   1.448   2.168  0.4076 -0.0738 -0.2085
 9043SOL     OW38764   0.806   3.382   7.029 -0.2353  0.5733  0.2579
 9043SOL    HW138765   0.810   3.288   7.013 -0.1025  0.6203  0.0236
 9043SOL    HW238766   0.877   3.380   7.094 -0.0842  0.5833  0.0927
 9044SOL     OW38767   3.659   1.900  10.070 -0.3524 -0.6105 -0.0765
 9044SOL    HW138768   3.569   1.891  10.100  0.0093 -0.1691  1.1294
 9044SOL    HW238769   3.696   1.812  10.070  1.0646 -0.0501 -2.7269
 9045SOL     OW38770   3.535   3.966  11.860 -0.5098  0.0869 -0.0652
 9045SOL    HW138771   3.559   4.049  11.819  2.4063 -0.2104  1.0418
 9045SOL    HW238772   3.468   3.934  11.800  1.2563 -0.2815 -1.8532
 9046SOL     OW38773   0.970   1.346   7.886 -0.5884  0.5518 -0.0766
 9046SOL    HW138774   0.951   1.398   7.964 -0.6438 -2.0816  1.6852
 9046SOL    HW238775   0.974   1.257   7.921  2.3557  1.2044  1.3132
 9047SOL     OW38776   3.159   2.648   7.371 -0.1596 -0.0151 -0.2160
 9047SOL    HW138777   3.184   2.556   7.375 -1.0284 -0.2319  0.1955
 9047SOL    HW238778   3.070   2.649   7.336  0.4075 -1.2613 -1.6963
 9048SOL     OW38779   3.631   0.266   4.928  0.3825  0.5052  0.4858
 9048SOL    HW138780   3.663   0.349   4.893 -2.2886  1.9418  1.4621
 9048SOL    HW238781   3.647   0.272   5.022 -0.1542  2.9181  0.4365
 9049SOL     OW38782   1.468   1.625   0.654  0.5123  0.4350  0.1851
 9049SOL    HW138783   1.429   1.703   0.614 -0.9506 -1.4637 -2.0330
 9049SOL    HW238784   1.522   1.605   0.578 -1.9426  0.1195 -1.4557
 9050SOL     OW38785   4.163   2.801   8.954  0.3499 -0.6978  0.2859
 9050SOL    HW138786   4.136   2.824   9.043 -2.3161 -2.0272 -0.1641
 9050SOL    HW238787   4.148   2.707   8.964 -1.0611 -0.1673  3.0655
 9051SOL     OW38788   3.704   3.547  16.785  0.2696  0.1498  0.1556
 9051SOL    HW138789   3.659   3.630  16.769  0.2424  0.5277  2.1492
 9051SOL    HW238790   3.682   3.555  16.878 -0.2016  0.3893  0.0207
 9052SOL     OW38791   3.098   1.045   9.529  0.3432  0.5343 -0.0293
 9052SOL    HW138792   3.170   1.057   9.466  1.0550 -1.1906  0.4445
 9052SOL    HW238793   3.046   0.988   9.473  1.1143 -0.5386  0.3333
 9053SOL     OW38794   3.627   1.765   2.366 -0.1924  0.2491  0.0704
 9053SOL    HW138795   3.687   1.826   2.322 -1.6560  0.3054 -1.8078
 9053SOL    HW238796   3.683   1.699   2.409 -1.8758  0.0052  1.8842
 9054SOL     OW38797   3.792   4.188   4.405 -0.1079  0.3833 -0.3419
 9054SOL    HW138798   3.832   4.161   4.488 -0.8047 -2.4415 -0.9175
 9054SOL    HW238799   3.701   4.199   4.432 -0.7533 -2.2433 -1.4883
 9055SOL     OW38800   3.797   3.985   8.025 -0.2969 -0.4090  0.6184
 9055SOL    HW138801   3.827   4.075   8.011 -2.3266  0.6977  3.5073
 9055SOL    HW238802   3.749   3.965   7.944 -1.7745  1.8996  0.9251
 9056SOL     OW38803   0.467   3.683  11.448  0.3249  0.3442  0.4013
 9056SOL    HW138804   0.520   3.627  11.392 -0.8244 -2.2221  1.8314
 9056SOL    HW238805   0.471   3.631  11.529 -1.9133  1.5050  1.2834
 9057SOL     OW38806   4.278   2.005   5.034 -0.4039 -0.6866  0.4250
 9057SOL    HW138807   4.298   2.022   4.942  0.5987 -0.7075  0.6372
 9057SOL    HW238808   4.303   1.912   5.027  1.2079 -0.1639 -0.8139
 9058SOL     OW38809   0.961   3.274   2.550 -0.0052 -0.2731 -0.3020
 9058SOL    HW138810   1.007   3.246   2.470 -1.1122 -2.0960 -0.3158
 9058SOL    HW238811   0.927   3.355   2.512  0.7121  0.1390 -0.0728
 9059SOL     OW38812   0.627   3.772   2.647  0.0438 -0.5674 -0.6932
 9059SOL    HW138813   0.694   3.735   2.704  1.7281  2.2958 -0.8064
 9059SOL    HW238814   0.678   3.809   2.575  2.6723  1.2321  2.1500
 9060SOL     OW38815   0.468   1.400   5.329 -0.0181 -0.0097 -0.7942
 9060SOL    HW138816   0.447   1.408   5.422 -1.4573 -1.0186 -1.0359
 9060SOL    HW238817   0.564   1.395   5.330 -0.0149 -0.0459 -1.0679
 9061SOL     OW38818   2.033   4.366   0.190  0.0937  0.4298 -0.0833
 9061SOL    HW138819   1.965   4.379   0.257  1.0913  0.2033  0.9591
 9061SOL    HW238820   2.011   4.435   0.128  1.7244  1.5265  0.5734
 9062SOL     OW38821   0.073   3.336   3.312 -0.2780  0.9439  0.3306
 9062SOL    HW138822   0.161   3.357   3.281  0.6043 -1.1983  1.4180
 9062SOL    HW238823   0.021   3.406   3.272 -1.4032  0.8886  1.7096
 9063SOL     OW38824   1.212   3.361   2.882  0.5150 -0.0626  0.1669
 9063SOL    HW138825   1.262   3.307   2.943  1.7079  1.3238  0.4015
 9063SOL    HW238826   1.212   3.441   2.935  1.7783  0.4657 -0.6517
 9064SOL     OW38827   1.756   3.242  15.537 -0.3996 -0.7361 -0.0814
 9064SOL    HW138828   1.799   3.172  15.586  0.9090  0.5115  0.5541
 9064SOL    HW238829   1.705   3.277  15.611  3.1048  0.7365  1.6230
 9065SOL     OW38830   2.673   1.996  12.799 -0.0212 -0.0536  0.0189
 9065SOL    HW138831   2.614   1.923  12.819  1.4940 -1.6288 -1.1745
 9065SOL    HW238832   2.604   2.062  12.799 -0.3801 -0.4245  2.2336
 9066SOL     OW38833   2.157   4.185   6.807  0.1069 -0.2020 -0.2105
 9066SOL    HW138834   2.171   4.276   6.834  0.7975 -0.4592  0.3074
 9066SOL    HW238835   2.159   4.132   6.887  2.3968  1.5585  0.9058
 9067SOL     OW38836   2.743   3.309   2.038 -0.0846  0.0631  0.1618
 9067SOL    HW138837   2.695   3.238   1.996 -0.1983  1.2883 -1.7926
 9067SOL    HW238838   2.730   3.283   2.129  0.0833  0.7048  0.3690
 9068SOL     OW38839   0.224   0.885   6.490  0.0421 -0.4026 -0.1438
 9068SOL    HW138840   0.152   0.844   6.538  0.3312  0.4536  1.0188
 9068SOL    HW238841   0.196   0.888   6.399  1.7737  0.6000 -0.6520
 9069SOL     OW38842   3.048   2.054   2.059  0.0535  0.3912 -0.4765
 9069SOL    HW138843   2.986   2.113   2.100 -1.8330 -1.1568 -1.0892
 9069SOL    HW238844   2.987   2.018   1.994  0.3029 -0.8425 -0.0285
 9070SOL     OW38845   2.144   2.555   8.561  0.1420  0.4575 -0.5581
 9070SOL    HW138846   2.049   2.552   8.552 -0.0351  0.2791  1.4954
 9070SOL    HW238847   2.169   2.634   8.513  0.1649  2.3544  2.6478
 9071SOL     OW38848   1.490   1.209   7.442  0.6747 -0.0515 -0.4410
 9071SOL    HW138849   1.575   1.216   7.485  0.9459 -2.3999 -0.5814
 9071SOL    HW238850   1.515   1.237   7.354  0.9300 -0.4158 -0.4846
 9072SOL     OW38851   2.359   2.573   5.790  0.4176  0.4896 -0.2533
 9072SOL    HW138852   2.307   2.495   5.770  0.5598  1.1978 -3.3644
 9072SOL    HW238853   2.440   2.542   5.750  0.2877  0.5743 -0.5880
 9073SOL     OW38854   2.659   3.520   8.148 -0.3023  0.6122 -0.4152
 9073SOL    HW138855   2.568   3.497   8.162  0.0437 -0.5483 -0.0854
 9073SOL    HW238856   2.664   3.566   8.064  0.6250 -1.0642 -1.2809
 9074SOL     OW38857   2.841   2.935   1.586  0.5654  0.9413 -0.0811
 9074SOL    HW138858   2.766   2.895   1.543  0.6595 -0.6307  1.2582
 9074SOL    HW238859   2.909   2.913   1.522  2.7919  2.1082  1.8632
 9075SOL     OW38860   3.281   3.008   9.707 -0.1053 -0.0211  0.4600
 9075SOL    HW138861   3.207   3.068   9.699  1.1574  1.3635 -0.9132
 9075SOL    HW238862   3.347   3.061   9.753  0.4550 -1.7993  1.7406
 9076SOL     OW38863   3.069   0.954   7.699  0.1974 -0.2759  0.1762
 9076SOL    HW138864   3.012   0.989   7.631 -0.8379  0.9164  1.6622
 9076SOL    HW238865   3.047   0.991   7.784  1.9715  0.3307  0.3741
 9077SOL     OW38866   3.208   4.726   1.947  0.0729  0.3249 -0.4524
 9077SOL    HW138867   3.211   4.659   2.015 -0.6113 -0.9684 -1.6927
 9077SOL    HW238868   3.289   4.710   1.899 -0.0211 -2.0786  0.1455
 9078SOL     OW38869   2.685   3.905   3.833 -0.3175 -0.2337 -0.0475
 9078SOL    HW138870   2.768   3.932   3.793  0.1410 -0.6727  0.6172
 9078SOL    HW238871   2.704   3.907   3.926 -0.8496 -0.3677  0.0643
 9079SOL     OW38872   0.136   4.375   5.496  0.0645  0.3448  0.1777
 9079SOL    HW138873   0.131   4.345   5.587 -1.9233  0.8850  0.2453
 9079SOL    HW238874   0.156   4.295   5.448 -1.5054  0.0053  0.0744
 9080SOL     OW38875   0.346   1.337   0.881 -0.2592  0.1190 -0.0934
 9080SOL    HW138876   0.391   1.357   0.799 -1.7665  2.6533 -0.3015
 9080SOL    HW238877   0.276   1.402   0.895 -1.0051 -0.3118 -1.8239
 9081SOL     OW38878   3.614   4.247   8.537  0.1938  0.3106 -0.1532
 9081SOL    HW138879   3.574   4.314   8.482  1.4395  0.7862 -0.4797
 9081SOL    HW238880   3.706   4.255   8.512 -0.3592  0.5993 -2.1508
 9082SOL     OW38881   3.693   2.239   1.494 -0.7751 -0.0721  0.0871
 9082SOL    HW138882   3.697   2.169   1.560 -1.9462  0.5828  0.8578
 9082SOL    HW238883   3.691   2.190   1.412 -0.7125 -0.2022  0.1624
 9083SOL     OW38884   4.658   0.267   4.625 -0.1922  0.1392 -0.0102
 9083SOL    HW138885   4.654   0.202   4.695 -1.7586  0.4399  0.1788
 9083SOL    HW238886   4.567   0.261   4.594 -0.2859  0.8631  0.1331
 9084SOL     OW38887   3.352   4.569   5.060  0.0836 -0.4149  0.4011
 9084SOL    HW138888   3.363   4.551   5.153  2.3702  0.6206  0.3165
 9084SOL    HW238889   3.278   4.514   5.034  0.5756 -1.5209  1.3845
 9085SOL     OW38890   1.946   4.278  14.951  0.2983  0.0216  0.0121
 9085SOL    HW138891   1.908   4.362  14.979 -0.1122  0.2488 -1.2319
 9085SOL    HW238892   1.896   4.262  14.871  0.9425  0.8164 -0.5535
 9086SOL     OW38893   0.008   4.605  13.415  0.3888 -0.2997 -0.1285
 9086SOL    HW138894   0.074   4.640  13.475 -0.2284 -0.4385  0.6278
 9086SOL    HW238895   4.715   4.684  13.368 -0.6325  0.0565  1.0991
 9087SOL     OW38896   3.106   0.182   7.131  0.1502 -0.3013 -0.1100
 9087SOL    HW138897   3.095   0.143   7.045 -0.6142 -1.2321  0.4176
 9087SOL    HW238898   3.122   0.106   7.187  0.1815  0.3922  0.8447
 9088SOL     OW38899   1.078   2.771   1.395 -0.4110 -0.5901 -0.4575
 9088SOL    HW138900   1.020   2.737   1.462 -0.0492  0.4655  0.3914
 9088SOL    HW238901   1.158   2.758   1.446 -1.6014 -3.6635  0.6616
 9089SOL     OW38902   1.985   3.477   6.962 -0.2307 -0.2287 -0.2587
 9089SOL    HW138903   2.027   3.426   6.893  1.0224 -0.0044  0.3429
 9089SOL    HW238904   2.048   3.466   7.033  0.8576 -1.3099 -1.4082
 9090SOL     OW38905   1.771   2.131  14.745 -0.2789  0.0248 -0.3271
 9090SOL    HW138906   1.826   2.111  14.669 -1.0577  1.8280 -1.3672
 9090SOL    HW238907   1.731   2.045  14.758 -1.6759  1.2931  3.8451
 9091SOL     OW38908   3.046   3.721   4.476 -0.6466  0.2749 -0.3929
 9091SOL    HW138909   3.053   3.807   4.518 -0.8082  1.1625 -2.1690
 9091SOL    HW238910   2.991   3.669   4.534  1.4929  1.1554  2.4268
 9092SOL     OW38911   2.371   3.000   8.282 -0.0128  0.1687 -0.2188
 9092SOL    HW138912   2.305   3.007   8.351  1.1675 -2.0691  1.1409
 9092SOL    HW238913   2.316   2.980   8.206 -0.0335 -0.8940  0.0758
 9093SOL     OW38914   1.748   0.023  12.010 -0.8648 -0.3245 -0.2276
 9093SOL    HW138915   1.714   0.107  12.038  1.3139  1.4875 -3.0393
 9093SOL    HW238916   1.723   0.028  11.918  2.2046  2.3135 -0.9013
 9094SOL     OW38917   0.352   4.510   6.520  0.0060 -0.7225  0.2742
 9094SOL    HW138918   0.420   4.570   6.490 -0.2613 -0.5195  0.0706
 9094SOL    HW238919   0.339   4.462   6.438  1.0200  0.2603 -0.4580
 9095SOL     OW38920   2.788   1.101   4.079  0.0349 -0.5898 -0.0584
 9095SOL    HW138921   2.746   1.064   4.001 -2.1745 -1.2678  1.4519
 9095SOL    HW238922   2.870   1.123   4.035 -0.5121 -0.2199 -0.9008
 9096SOL     OW38923   1.225   3.874   4.146 -0.0492 -0.0184  0.3032
 9096SOL    HW138924   1.204   3.817   4.220 -3.5287  0.4820 -0.2928
 9096SOL    HW238925   1.208   3.814   4.074  1.0304  0.5411 -0.4232
 9097SOL     OW38926   0.537   3.146  15.721 -0.5841  0.1823 -0.8253
 9097SOL    HW138927   0.472   3.212  15.697 -1.0712 -0.8810 -2.4052
 9097SOL    HW238928   0.485   3.067  15.703 -1.1168  0.0296  1.3098
 9098SOL     OW38929   0.215   2.348  11.516 -0.2960 -0.3548  0.2084
 9098SOL    HW138930   0.244   2.352  11.425 -0.1543 -0.3693  0.2533
 9098SOL    HW238931   0.299   2.356  11.561 -0.5953 -0.9265  0.8711
 9099SOL     OW38932   1.851   0.113  16.015 -0.5783 -0.6149  0.0916
 9099SOL    HW138933   1.805   0.196  16.002 -1.4916 -1.2160 -0.4911
 9099SOL    HW238934   1.915   0.120  15.945  0.2884  1.4075  1.0883
 9100SOL     OW38935   0.671   4.423   7.103  1.0845 -0.1212 -0.7104
 9100SOL    HW138936   0.577   4.427   7.082  1.0011  0.3168 -0.2707
 9100SOL    HW238937   0.680   4.363   7.177 -1.5110 -0.3725 -0.5750
 9101SOL     OW38938   0.050   2.266   8.243 -0.4094 -0.1773 -0.2769
 9101SOL    HW138939   4.734   2.340   8.211  0.5169  0.1292 -1.0761
 9101SOL    HW238940   0.075   2.310   8.324  0.5591 -0.7385 -0.2736
 9102SOL     OW38941   3.496   1.832   2.096 -0.2648 -0.1810  0.4741
 9102SOL    HW138942   3.505   1.889   2.173  1.5235  0.3800 -0.1357
 9102SOL    HW238943   3.430   1.768   2.122  0.7361 -0.6840  1.7908
 9103SOL     OW38944   3.089   1.854   6.899  0.0123 -0.1774  0.1008
 9103SOL    HW138945   3.159   1.902   6.856  0.3138 -0.5809  0.1375
 9103SOL    HW238946   3.098   1.874   6.993  0.5555  0.8002 -0.1637
 9104SOL     OW38947   4.490   1.309   2.255  0.1289 -0.1226  0.5861
 9104SOL    HW138948   4.454   1.323   2.343  0.2942  1.2301  0.4361
 9104SOL    HW238949   4.427   1.348   2.195 -0.7177 -0.4830  1.2336
 9105SOL     OW38950   1.537   2.124   8.891 -0.2701 -0.7694  0.1972
 9105SOL    HW138951   1.576   2.051   8.843 -1.8343 -1.5031  0.0376
 9105SOL    HW238952   1.585   2.105   8.972 -0.2400  0.5925  0.5015
 9106SOL     OW38953   3.249   0.388   6.629  0.6072 -0.5572  0.2621
 9106SOL    HW138954   3.288   0.322   6.687  0.9531 -1.9466 -1.5228
 9106SOL    HW238955   3.246   0.461   6.690 -1.1691 -1.8889  1.7658
 9107SOL     OW38956   2.785   2.950   2.061 -0.4442 -0.4415  0.0192
 9107SOL    HW138957   2.709   2.930   2.007  1.0984  0.5330 -2.5182
 9107SOL    HW238958   2.853   2.885   2.041 -1.1433 -1.4207  0.8583
 9108SOL     OW38959   2.503   4.151   0.936 -0.4764  0.9989  0.1017
 9108SOL    HW138960   2.481   4.061   0.915 -1.5330  1.7821 -2.1768
 9108SOL    HW238961   2.584   4.141   0.986 -2.4372  0.5160  3.1443
 9109SOL     OW38962   0.413   1.215   3.471  0.1151  0.1793 -0.1019
 9109SOL    HW138963   0.393   1.132   3.428 -1.0834  1.0098 -1.1339
 9109SOL    HW238964   0.403   1.283   3.404 -1.6778  1.4360  1.4494
 9110SOL     OW38965   1.094   2.800   2.844 -0.6819  0.3117 -0.2778
 9110SOL    HW138966   1.123   2.883   2.883  0.2485  0.1412 -0.6035
 9110SOL    HW238967   1.102   2.733   2.913 -2.6094  1.2531  0.8758
 9111SOL     OW38968   1.915   4.407   7.312  0.3440 -0.1638  0.1945
 9111SOL    HW138969   1.838   4.404   7.368 -0.3051  0.4647 -0.6701
 9111SOL    HW238970   1.893   4.353   7.236 -2.7564 -0.1868  1.1360
 9112SOL     OW38971   3.424   4.031   8.606  0.3621  0.2795 -0.0009
 9112SOL    HW138972   3.494   4.094   8.592 -1.4846  2.2869 -0.1707
 9112SOL    HW238973   3.373   4.070   8.677 -0.3571 -2.4853  0.9978
 9113SOL     OW38974   0.555   4.555   9.136  0.4095 -0.4485 -0.3412
 9113SOL    HW138975   0.462   4.567   9.118  0.5507 -1.4494 -1.6790
 9113SOL    HW238976   0.547   4.471   9.181 -0.9685 -0.0107  0.2274
 9114SOL     OW38977   2.110   3.234  10.791  0.3134 -0.1096 -0.1435
 9114SOL    HW138978   2.161   3.314  10.800 -0.7033  0.4647  0.4890
 9114SOL    HW238979   2.147   3.192  10.713  1.8168 -0.0573  0.5466
 9115SOL     OW38980   0.527   3.917  16.286 -0.4807  0.3952 -0.2621
 9115SOL    HW138981   0.432   3.919  16.272 -0.4086 -1.6021 -1.0248
 9115SOL    HW238982   0.575   3.910  16.203 -3.0095  0.5360 -1.7309
 9116SOL     OW38983   4.143   2.381   5.769 -0.3558 -0.1658 -0.5658
 9116SOL    HW138984   4.137   2.446   5.839  1.1236 -0.7902  0.1396
 9116SOL    HW238985   4.054   2.345   5.766  0.2982 -1.9551  1.7784
 9117SOL     OW38986   2.800   2.705   6.078  0.0554 -0.1163  0.1398
 9117SOL    HW138987   2.764   2.618   6.061  1.9024 -1.1452  1.4633
 9117SOL    HW238988   2.893   2.693   6.100  0.5879 -0.2067 -2.1440
 9118SOL     OW38989   2.231   0.220  14.739  0.3167  0.0524  0.4264
 9118SOL    HW138990   2.137   0.215  14.755  0.4679 -0.9655  0.9622
 9118SOL    HW238991   2.257   0.131  14.761  0.2563 -0.1424 -0.2830
 9119SOL     OW38992   3.036   2.883   8.309  0.9387  0.9241 -0.1816
 9119SOL    HW138993   3.023   2.798   8.269  1.6673  0.9925 -0.5589
 9119SOL    HW238994   3.094   2.852   8.378 -1.8588  0.0366  1.8037
 9120SOL     OW38995   1.115   3.115   8.448 -0.6995  0.4980  0.5582
 9120SOL    HW138996   1.103   3.020   8.456 -2.4686  0.7674  0.9164
 9120SOL    HW238997   1.151   3.116   8.359  0.7331  3.0120  1.1924
 9121SOL     OW38998   0.605   0.849   8.561 -0.4060 -0.2148  0.1265
 9121SOL    HW138999   0.676   0.820   8.504 -2.3257  1.3142 -3.0320
 9121SOL    HW239000   0.628   0.942   8.570 -0.4847  0.0350 -2.3342
 9122SOL     OW39001   3.474   4.143   9.003 -0.4743  0.7999  0.0210
 9122SOL    HW139002   3.436   4.064   9.039  0.8817  0.0571 -0.1574
 9122SOL    HW239003   3.404   4.160   8.939  0.0391  1.1090 -0.4662
 9123SOL     OW39004   3.611   3.383  10.976  0.6199  0.1506 -0.6331
 9123SOL    HW139005   3.693   3.429  10.955 -1.0803  2.1306 -2.9584
 9123SOL    HW239006   3.547   3.455  10.972  2.7672  2.1052  0.2530
 9124SOL     OW39007   0.391   1.146   3.865  0.3467 -0.2245 -0.0667
 9124SOL    HW139008   0.357   1.110   3.947 -2.0652 -2.1417 -1.8855
 9124SOL    HW239009   0.327   1.205   3.824 -0.2832  0.2882  1.6531
 9125SOL     OW39010   1.423   3.721   0.275  0.3813 -0.4020 -0.3062
 9125SOL    HW139011   1.454   3.632   0.294 -1.3427 -0.4858  2.0723
 9125SOL    HW239012   1.510   3.759   0.287 -0.8419  2.0761  0.5157
 9126SOL     OW39013   4.274   3.517   8.673 -0.3761 -0.5717  0.3440
 9126SOL    HW139014   4.189   3.549   8.704 -2.1212 -1.6715 -3.3337
 9126SOL    HW239015   4.329   3.595   8.674 -0.6753 -0.3693  1.0737
 9127SOL     OW39016   1.446   3.890   8.100 -0.0198 -0.4048 -0.6336
 9127SOL    HW139017   1.408   3.928   8.021  0.4310  2.5244  0.5658
 9127SOL    HW239018   1.361   3.899   8.142 -0.2777 -2.9253 -0.6232
 9128SOL     OW39019   1.127   0.029  17.248  0.2314 -0.4196 -0.3954
 9128SOL    HW139020   1.134   4.690  17.306 -0.3192  0.2200  0.4873
 9128SOL    HW239021   1.116   0.104  17.306  1.2621  1.0532 -2.0810
 9129SOL     OW39022   2.683   3.695   5.319 -0.6730 -0.3771 -0.7734
 9129SOL    HW139023   2.707   3.624   5.260  0.7778  0.1197 -0.7992
 9129SOL    HW239024   2.675   3.765   5.255  0.0224 -1.3593 -1.9219
 9130SOL     OW39025   2.367   4.536   8.943 -0.3748 -0.2437 -0.5100
 9130SOL    HW139026   2.294   4.569   8.891 -0.1413  0.7400 -0.2094
 9130SOL    HW239027   2.322   4.542   9.027  0.1517 -0.6886 -0.1960
 9131SOL     OW39028   3.709   2.802   3.645  0.0898 -0.6161  0.0359
 9131SOL    HW139029   3.805   2.811   3.648 -0.0442  0.5225  0.5667
 9131SOL    HW239030   3.700   2.713   3.611 -1.1879 -0.4385 -0.0723
 9132SOL     OW39031   2.880   0.051   2.953  0.3628 -0.1065 -0.3899
 9132SOL    HW139032   2.795   0.025   2.918  0.7332 -1.6677 -0.1126
 9132SOL    HW239033   2.892   4.719   3.019  3.1327 -0.7965 -1.6218
 9133SOL     OW39034   3.263   0.740  14.190  0.0533  0.9774 -0.7155
 9133SOL    HW139035   3.291   0.774  14.275  0.1853 -0.1382 -0.3145
 9133SOL    HW239036   3.317   0.795  14.133 -1.1007  3.3724  0.4913
 9134SOL     OW39037   1.438   2.931  17.162 -0.6825 -0.2696 -0.6684
 9134SOL    HW139038   1.514   2.876  17.176  0.0443  0.7673 -0.5360
 9134SOL    HW239039   1.417   2.916  17.069 -0.0226 -2.2664 -0.4816
 9135SOL     OW39040   3.657   0.683  13.147 -0.3246  0.3366 -0.3475
 9135SOL    HW139041   3.723   0.691  13.216  1.0074 -0.8869 -1.4681
 9135SOL    HW239042   3.646   0.774  13.120 -1.8504 -0.0748 -1.1168
 9136SOL     OW39043   4.396   1.025  11.685  0.1984  0.3458  0.5279
 9136SOL    HW139044   4.336   1.092  11.719  2.6160  3.2265 -0.8362
 9136SOL    HW239045   4.396   0.954  11.750  1.1100 -1.4320 -1.4324
 9137SOL     OW39046   4.023   0.774   3.467  0.6621 -0.0988 -0.2211
 9137SOL    HW139047   4.082   0.827   3.414  2.2798 -3.4408 -1.6962
 9137SOL    HW239048   4.006   0.701   3.408 -1.0050  0.0550  0.0644
 9138SOL     OW39049   0.676   1.764   3.436  0.0804  0.4830 -0.5092
 9138SOL    HW139050   0.650   1.672   3.444 -0.8479  0.8638  0.7741
 9138SOL    HW239051   0.721   1.757   3.352 -0.6848 -0.1608 -0.8686
 9139SOL     OW39052   0.878   3.562  16.400  0.4330 -0.1529 -0.0011
 9139SOL    HW139053   0.888   3.620  16.475  0.0718  0.1284 -0.1737
 9139SOL    HW239054   0.906   3.633  16.342 -2.5292  1.5393  0.6899
 9140SOL     OW39055   4.204   1.644  12.893 -0.1923 -0.3465  0.0346
 9140SOL    HW139056   4.277   1.676  12.840  0.1245 -0.1915  0.5649
 9140SOL    HW239057   4.254   1.636  12.974  0.6079  1.5959 -0.2802
 9141SOL     OW39058   1.414   0.872  11.123  0.2210 -0.2201  0.1899
 9141SOL    HW139059   1.482   0.864  11.189  0.0588 -0.3223  0.3457
 9141SOL    HW239060   1.409   0.790  11.074  1.9442 -1.5014  2.1656
 9142SOL     OW39061   1.079   4.467   3.565 -0.2404  0.2426  0.0021
 9142SOL    HW139062   1.061   4.404   3.495  1.7937 -2.0591  1.5607
 9142SOL    HW239063   0.991   4.492   3.592  0.8169  0.7212  3.0282
 9143SOL     OW39064   1.843   4.155   7.628 -0.0017  0.3103 -0.5393
 9143SOL    HW139065   1.813   4.230   7.577 -1.4780 -0.4392 -0.7846
 9143SOL    HW239066   1.938   4.168   7.625 -0.0077  0.0506 -1.6271
 9144SOL     OW39067   4.116   0.066   4.837  0.2710 -0.3391  0.0259
 9144SOL    HW139068   4.030   0.099   4.810  0.3774 -2.0318 -2.3678
 9144SOL    HW239069   4.097   0.037   4.926  0.2153  2.3753  0.9171
 9145SOL     OW39070   0.139   4.652   5.473 -0.2286  0.2036  0.2114
 9145SOL    HW139071   0.142   4.557   5.464  3.0049  0.6155 -3.0882
 9145SOL    HW239072   0.223   4.681   5.436 -0.5551  0.0873 -0.6283
 9146SOL     OW39073   0.447   1.551   7.714  0.1886  0.2644  0.2181
 9146SOL    HW139074   0.385   1.500   7.765 -0.5416 -1.1866 -2.1482
 9146SOL    HW239075   0.486   1.477   7.668  0.9860  0.5016  0.5071
 9147SOL     OW39076   1.162   3.241   4.143  0.5780  0.2977 -0.2067
 9147SOL    HW139077   1.105   3.165   4.132 -0.3724  0.6925  1.9887
 9147SOL    HW239078   1.097   3.308   4.119 -1.0405 -1.1258  0.1996
 9148SOL     OW39079   2.420   2.789   6.487  0.4397  0.8061  0.4343
 9148SOL    HW139080   2.379   2.866   6.527 -1.5303  0.1347 -0.2438
 9148SOL    HW239081   2.392   2.807   6.397  0.3491  0.8060  0.4619
 9149SOL     OW39082   4.223   2.720  10.762 -0.2811  0.0854  0.5186
 9149SOL    HW139083   4.164   2.777  10.811  1.3950  1.2722  1.1586
 9149SOL    HW239084   4.156   2.652  10.760 -0.0558 -0.1053 -0.6406
 9150SOL     OW39085   2.651   3.442   3.598 -0.0414 -0.2306  0.3931
 9150SOL    HW139086   2.712   3.378   3.560 -0.6432 -0.8741  0.5123
 9150SOL    HW239087   2.706   3.520   3.597  1.2119 -1.1155  1.5924
 9151SOL     OW39088   3.350   0.110   0.938  0.4440 -0.6597 -0.3010
 9151SOL    HW139089   3.423   0.155   0.896 -0.9443  1.2641 -0.6293
 9151SOL    HW239090   3.398   0.056   1.000 -2.8064 -2.5751  0.5288
 9152SOL     OW39091   3.874   2.781   9.407  0.4661  0.4974 -0.4957
 9152SOL    HW139092   3.826   2.820   9.480 -0.6591  0.2691 -1.1144
 9152SOL    HW239093   3.804   2.771   9.344  0.3374 -0.1305 -0.2494
 9153SOL     OW39094   4.346   3.253   8.730  0.0195 -0.2229 -0.4767
 9153SOL    HW139095   4.275   3.215   8.679 -0.9827 -0.3061  0.9978
 9153SOL    HW239096   4.326   3.346   8.725 -1.0480 -0.5366 -2.0703
 9154SOL     OW39097   3.289   2.458   4.085 -0.0692 -0.1435  0.1927
 9154SOL    HW139098   3.360   2.417   4.037  0.4496 -1.2582  1.9300
 9154SOL    HW239099   3.339   2.522   4.136  0.8998 -1.0201  0.3243
 9155SOL     OW39100   1.986   2.040  15.827  0.4126  0.0988  0.1593
 9155SOL    HW139101   1.894   2.025  15.846  0.1003  0.7640 -0.8220
 9155SOL    HW239102   1.990   2.054  15.733  3.1872  1.4081  0.4606
 9156SOL     OW39103   4.375   3.932   7.515 -0.0573  0.2174 -0.0513
 9156SOL    HW139104   4.287   3.971   7.514 -0.7171 -1.2638 -0.4586
 9156SOL    HW239105   4.359   3.844   7.551  1.6526 -1.1376 -2.6287
 9157SOL     OW39106   1.505   1.870   5.582 -1.1274  0.4486  0.3793
 9157SOL    HW139107   1.477   1.960   5.565 -0.1805  0.7328  0.3062
 9157SOL    HW239108   1.447   1.831   5.517 -2.0811 -1.8027  2.5803
 9158SOL     OW39109   2.990   0.985   3.342 -0.3696  0.0925  0.9854
 9158SOL    HW139110   2.939   0.923   3.290 -1.1606  1.5472  0.0085
 9158SOL    HW239111   2.981   0.925   3.416  3.4116 -0.4083  1.0370
 9159SOL     OW39112   3.127   2.036   8.174  0.3488 -0.2787  0.0255
 9159SOL    HW139113   3.077   2.112   8.144  2.0364  1.0553  0.6054
 9159SOL    HW239114   3.083   1.970   8.120 -0.7431  1.4949 -1.2765
 9160SOL     OW39115   2.823   4.450   5.859 -0.4702 -0.5461  0.2010
 9160SOL    HW139116   2.787   4.492   5.937 -1.4479 -0.4663 -0.2908
 9160SOL    HW239117   2.916   4.453   5.880 -1.0784  3.6798  2.1366
 9161SOL     OW39118   1.849   2.254   5.344 -0.4760  0.2221  0.3492
 9161SOL    HW139119   1.766   2.245   5.392  0.4505 -2.8565  1.3754
 9161SOL    HW239120   1.895   2.194   5.403  1.4979  0.3135 -1.1073
 9162SOL     OW39121   1.638   1.035  11.852  0.6428 -0.0014 -0.5322
 9162SOL    HW139122   1.644   1.096  11.925 -0.7521 -2.1892  1.4220
 9162SOL    HW239123   1.710   0.976  11.872  0.9653 -0.5631 -3.3554
 9163SOL     OW39124   4.606   0.609   6.425 -0.2399  0.1083 -0.7073
 9163SOL    HW139125   4.611   0.624   6.330 -1.1534  0.5466 -0.6817
 9163SOL    HW239126   4.585   0.700   6.446 -2.6944 -0.0127 -2.6284
 9164SOL     OW39127   4.177   1.672  10.073  0.8410 -0.2678  0.2414
 9164SOL    HW139128   4.233   1.750  10.065 -1.4015  1.1291 -1.6603
 9164SOL    HW239129   4.095   1.706  10.109  0.5478 -0.5120 -0.2121
 9165SOL     OW39130   2.447   0.320   4.739 -0.5755  0.1597  0.2515
 9165SOL    HW139131   2.496   0.277   4.669 -1.3026 -0.5176  0.1646
 9165SOL    HW239132   2.504   0.392   4.767 -0.5554  0.5993 -0.9047
 9166SOL     OW39133   4.557   0.348   4.046  0.0660 -0.0596  0.0957
 9166SOL    HW139134   4.500   0.382   3.977  0.7737  2.6817  0.8558
 9166SOL    HW239135   4.647   0.345   4.014  0.4770  2.7862  0.9126
 9167SOL     OW39136   0.871   2.892  11.315 -0.2834 -0.3616 -0.0427
 9167SOL    HW139137   0.883   2.960  11.382 -0.9118  0.6298 -0.9250
 9167SOL    HW239138   0.903   2.814  11.359  1.7521  1.3233  1.4408
 9168SOL     OW39139   1.054   3.493   8.128 -0.4669  0.2970 -0.3767
 9168SOL    HW139140   1.057   3.534   8.214 -0.0182  0.5763 -0.5281
 9168SOL    HW239141   0.966   3.457   8.126 -0.5952  0.5743  0.2755
 9169SOL     OW39142   2.422   4.166   2.194 -0.3414  0.6323  0.1265
 9169SOL    HW139143   2.518   4.175   2.196 -0.2906 -0.3199  1.5712
 9169SOL    HW239144   2.396   4.191   2.282  3.3205  0.1605  1.3673
 9170SOL     OW39145   3.292   4.544  13.483  0.7164  0.1409 -0.0924
 9170SOL    HW139146   3.279   4.591  13.565  2.8948 -0.7435  0.7524
 9170SOL    HW239147   3.244   4.591  13.414 -1.3883  0.6095  1.7101
 9171SOL     OW39148   1.327   2.280   7.548  0.3777 -0.1413 -0.1721
 9171SOL    HW139149   1.325   2.209   7.483  0.8342 -0.2407 -0.0725
 9171SOL    HW239150   1.251   2.331   7.519 -0.3326 -0.1565  1.6358
 9172SOL     OW39151   3.436   4.700   2.613  0.0758 -0.6355 -0.2220
 9172SOL    HW139152   3.521   4.720   2.573 -0.5857  0.2747 -1.1493
 9172SOL    HW239153   3.389   4.732   2.536  0.8762  0.6398 -0.1840
 9173SOL     OW39154   3.513   2.937   6.540  0.0234  0.4340  0.3148
 9173SOL    HW139155   3.472   2.877   6.602 -0.0922 -0.0700 -0.2434
 9173SOL    HW239156   3.532   2.878   6.467  2.8542  2.3594 -0.5098
 9174SOL     OW39157   0.032   4.456   2.851 -0.0503 -0.0318  0.3305
 9174SOL    HW139158   4.675   4.468   2.868  0.2111  1.9847  0.2554
 9174SOL    HW239159   0.060   4.450   2.943 -1.6407 -1.8434  0.6988
 9175SOL     OW39160   3.869   3.739  13.345 -0.2371  0.6308 -0.5019
 9175SOL    HW139161   3.925   3.667  13.374 -1.9382 -1.1528 -1.7188
 9175SOL    HW239162   3.934   3.783  13.289  1.4398  0.4697  1.2945
 9176SOL     OW39163   0.661   4.015   2.928  0.1676  0.2562  0.4172
 9176SOL    HW139164   0.659   4.040   2.836 -0.4678 -1.7468 -0.1144
 9176SOL    HW239165   0.610   4.083   2.973 -0.2708  0.5331 -0.4969
 9177SOL     OW39166   2.844   3.065   8.872  0.2702 -0.2417  0.2144
 9177SOL    HW139167   2.873   3.056   8.781 -1.6459  1.0581 -0.5149
 9177SOL    HW239168   2.925   3.057   8.922  1.3735 -2.2115 -1.8552
 9178SOL     OW39169   3.289   1.214   6.263 -0.5813  0.0096 -0.7981
 9178SOL    HW139170   3.352   1.199   6.333 -0.6402  0.9737 -0.5353
 9178SOL    HW239171   3.210   1.166   6.289  1.8502 -3.1372  0.7948
 9179SOL     OW39172   0.312   0.931   8.219  0.6365 -0.4987 -0.4493
 9179SOL    HW139173   0.306   0.999   8.286  0.0028 -0.9384 -0.0638
 9179SOL    HW239174   0.407   0.920   8.226  0.4908 -1.5925 -0.2543
 9180SOL     OW39175   2.199   3.205   4.787 -0.3137  0.2084 -0.2727
 9180SOL    HW139176   2.233   3.118   4.805 -1.7900 -0.6191 -1.5001
 9180SOL    HW239177   2.193   3.241   4.876  1.7015 -1.8136  0.6844
 9181SOL     OW39178   1.581   2.824   9.996  0.6255  0.5020  0.0217
 9181SOL    HW139179   1.602   2.744  10.044 -2.2753  0.3902  1.1011
 9181SOL    HW239180   1.637   2.822   9.919 -2.4626 -1.9431 -2.1552
 9182SOL     OW39181   4.278   2.298  16.424  0.3841  0.3526 -0.2762
 9182SOL    HW139182   4.356   2.277  16.475  0.6288 -0.5088 -1.0046
 9182SOL    HW239183   4.209   2.299  16.489  0.2362 -0.7623 -0.4183
 9183SOL     OW39184   3.170   3.094   7.842 -0.3350 -0.0002  0.1995
 9183SOL    HW139185   3.144   3.003   7.826  0.6634 -0.0012 -1.4219
 9183SOL    HW239186   3.208   3.083   7.929 -2.2814 -1.1561  0.8982
 9184SOL     OW39187   1.244   1.725   4.994  0.2272  0.7099 -0.4571
 9184SOL    HW139188   1.288   1.792   4.941 -0.0792 -0.7544 -2.5317
 9184SOL    HW239189   1.256   1.766   5.080  1.5400 -1.5589  0.4350
 9185SOL     OW39190   2.984   4.419   9.454 -0.1900 -0.4049  0.4285
 9185SOL    HW139191   3.042   4.419   9.378 -1.5682  1.1343 -0.6267
 9185SOL    HW239192   3.019   4.485   9.513 -0.4310 -2.9382  3.3879
 9186SOL     OW39193   1.138   1.018   5.864 -0.3055 -0.7244  0.4033
 9186SOL    HW139194   1.206   0.987   5.805 -1.5670 -1.7565 -0.4912
 9186SOL    HW239195   1.184   1.072   5.929 -0.4769 -0.2257  0.1176
 9187SOL     OW39196   3.124   1.084   8.324 -0.6248 -0.0010  0.1897
 9187SOL    HW139197   3.035   1.119   8.315 -0.5290 -0.2580 -1.6774
 9187SOL    HW239198   3.137   1.106   8.416  1.0553  1.3998 -0.3937
 9188SOL     OW39199   1.643   2.239   2.294  0.0905  0.3738  0.2636
 9188SOL    HW139200   1.615   2.305   2.231  1.7059  0.3004 -0.5366
 9188SOL    HW239201   1.734   2.227   2.266 -1.2295 -0.7879 -3.5169
 9189SOL     OW39202   2.905   1.986   9.631 -0.4194 -0.5138  0.5187
 9189SOL    HW139203   2.925   2.010   9.721 -1.2746  0.5157  0.4301
 9189SOL    HW239204   2.880   2.073   9.600 -0.9084 -0.7203  0.3411
 9190SOL     OW39205   3.863   0.322   9.726  0.3844  0.4329 -0.1448
 9190SOL    HW139206   3.854   0.242   9.675 -0.0052 -0.4378  1.3077
 9190SOL    HW239207   3.880   0.283   9.811 -0.0787  1.0539  0.2339
 9191SOL     OW39208   2.609   0.023   5.342  0.0124 -0.5952 -0.8465
 9191SOL    HW139209   2.682   4.698   5.338  2.2133  1.9600 -0.1511
 9191SOL    HW239210   2.574   4.732   5.427 -0.7383  0.4742 -0.8077
 9192SOL     OW39211   2.451   2.223   5.410  0.2196 -0.0527  0.5905
 9192SOL    HW139212   2.482   2.309   5.381  0.6248 -0.5391 -0.4240
 9192SOL    HW239213   2.412   2.185   5.331 -0.0381  0.1993  0.5962
 9193SOL     OW39214   0.129   0.370   4.188  0.1419  0.5162 -0.0145
 9193SOL    HW139215   0.121   0.346   4.280  0.0653  2.4067  0.4576
 9193SOL    HW239216   0.062   0.438   4.187  1.5584  1.9059  0.0680
 9194SOL     OW39217   3.336   2.352   9.081  0.0338 -0.7526 -0.2446
 9194SOL    HW139218   3.393   2.351   9.158  1.6062  0.2888 -1.3964
 9194SOL    HW239219   3.321   2.259   9.062 -1.0835 -0.7771  0.7319
 9195SOL     OW39220   4.465   1.149   7.357  0.4846  0.1678 -0.6039
 9195SOL    HW139221   4.385   1.113   7.319  0.0960  0.3059  0.0756
 9195SOL    HW239222   4.520   1.183   7.286 -1.0614  0.7012 -1.5523
 9196SOL     OW39223   3.728   3.353   5.674  0.3546  0.1177  0.3406
 9196SOL    HW139224   3.726   3.339   5.769  0.6169  1.5793  0.5629
 9196SOL    HW239225   3.642   3.396   5.673  2.5074  4.4425  0.6554
 9197SOL     OW39226   4.283   1.490   0.895  0.0503 -0.6315  0.5677
 9197SOL    HW139227   4.221   1.563   0.891 -0.7193 -1.4087 -1.4140
 9197SOL    HW239228   4.336   1.513   0.819 -1.0722 -0.4176 -0.1555
 9198SOL     OW39229   1.985   0.747   1.827  0.2280  0.4558  0.0714
 9198SOL    HW139230   2.066   0.720   1.783 -0.8620 -0.3060 -1.4925
 9198SOL    HW239231   1.994   0.839   1.850  0.5155  0.4077  0.1576
 9199SOL     OW39232   1.617   2.359  15.137  0.4629  0.0366  0.5806
 9199SOL    HW139233   1.590   2.441  15.178  2.2594  0.3282  1.1888
 9199SOL    HW239234   1.537   2.343  15.086  1.5626  0.8425 -1.4248
 9200SOL     OW39235   1.969   3.476   7.560 -0.9619  0.3423  0.1645
 9200SOL    HW139236   1.914   3.549   7.591 -0.3307  1.1992 -0.7065
 9200SOL    HW239237   1.952   3.462   7.467 -1.0260 -1.3475  0.4414
 9201SOL     OW39238   4.164   1.713  13.300  0.0295  0.2064 -0.1385
 9201SOL    HW139239   4.142   1.702  13.208  0.1786 -0.3602 -0.1055
 9201SOL    HW239240   4.126   1.796  13.329  0.1604  0.6070 -1.1253
 9202SOL     OW39241   0.917   1.759   9.296  0.1490 -0.0423 -0.1078
 9202SOL    HW139242   0.856   1.776   9.224  2.4554  0.2276 -1.9586
 9202SOL    HW239243   0.970   1.837   9.303 -0.6375  0.5133 -0.3507
 9203SOL     OW39244   0.955   0.659   6.921  0.1395 -0.0830 -0.3124
 9203SOL    HW139245   1.043   0.647   6.958 -0.1297  0.1651  0.4074
 9203SOL    HW239246   0.910   0.582   6.954  2.4357 -1.5523 -0.6109
 9204SOL     OW39247   4.334   3.107   9.030  0.2690  0.3197 -0.5462
 9204SOL    HW139248   4.247   3.128   8.996  0.6344 -0.1951 -1.7783
 9204SOL    HW239249   4.375   3.193   9.020  1.7371 -0.3546 -0.2303
 9205SOL     OW39250   1.257   0.130   4.232  0.0197 -0.4289  0.3193
 9205SOL    HW139251   1.252   0.036   4.214 -1.8291 -0.2143 -0.2780
 9205SOL    HW239252   1.164   0.141   4.253 -0.2314 -0.7935 -0.5972
 9206SOL     OW39253   4.293   1.565   4.712 -0.2137  0.6045 -0.2918
 9206SOL    HW139254   4.270   1.505   4.783 -2.3376  2.7571  0.8262
 9206SOL    HW239255   4.369   1.611   4.748  1.3095 -0.6972 -1.8354
 9207SOL     OW39256   3.030   2.324   8.721  0.3762  0.8773  0.1870
 9207SOL    HW139257   3.113   2.360   8.751 -1.1877  4.3109  0.4106
 9207SOL    HW239258   3.014   2.259   8.790 -2.8515  2.2597  0.7559
 9208SOL     OW39259   0.527   4.395  11.799  0.0650  0.3100  0.1567
 9208SOL    HW139260   0.442   4.437  11.810 -0.4636 -1.0348  1.1440
 9208SOL    HW239261   0.576   4.476  11.789 -0.1803  0.4655  0.2177
 9209SOL     OW39262   4.035   0.217   8.249  0.3030  0.2177 -0.4857
 9209SOL    HW139263   4.097   0.179   8.188 -0.1294 -2.0441  0.4898
 9209SOL    HW239264   4.088   0.210   8.329  1.5752 -3.0707 -1.6167
 9210SOL     OW39265   2.235   4.662  15.322 -0.0611  0.0091 -0.0745
 9210SOL    HW139266   2.228   4.719  15.398  0.1304 -1.7851  1.2766
 9210SOL    HW239267   2.182   4.702  15.254  0.0701  1.1632  0.5029
 9211SOL     OW39268   4.148   0.832  14.538 -0.5568  0.2202  0.2208
 9211SOL    HW139269   4.119   0.758  14.485  1.5338  0.1367 -0.8107
 9211SOL    HW239270   4.183   0.886  14.467 -2.0708 -0.8278 -1.3404
 9212SOL     OW39271   1.027   1.744   8.407  0.3961  0.3439  0.0940
 9212SOL    HW139272   1.027   1.659   8.450  0.4502  0.1888 -0.2190
 9212SOL    HW239273   1.071   1.794   8.476  0.3577  1.1094 -0.4348
 9213SOL     OW39274   3.729   4.481  16.018 -1.2498  0.5167  1.1596
 9213SOL    HW139275   3.703   4.546  15.953  1.3149 -1.9652 -2.3263
 9213SOL    HW239276   3.645   4.461  16.060 -0.8732  0.2195  1.7866
 9214SOL     OW39277   0.210   1.565  14.034 -0.5547  0.5669 -0.8379
 9214SOL    HW139278   0.291   1.608  14.062 -0.3922 -2.2472  3.0093
 9214SOL    HW239279   0.151   1.610  14.095 -0.1181 -1.1329  0.8143
 9215SOL     OW39280   1.315   4.714   2.364 -0.0478 -0.6492  0.6863
 9215SOL    HW139281   1.247   4.725   2.431 -0.4054  1.4168 -0.0112
 9215SOL    HW239282   1.390   4.730   2.421  0.8417 -1.4334 -0.2720
 9216SOL     OW39283   2.677   4.644   8.497 -0.0724 -0.5216  0.4271
 9216SOL    HW139284   2.696   4.669   8.406 -0.1839  2.9533  1.3600
 9216SOL    HW239285   2.584   4.663   8.499 -0.1514 -0.7473 -1.2693
 9217SOL     OW39286   3.919   0.271   6.280 -0.3688 -0.1600 -0.1351
 9217SOL    HW139287   3.968   0.232   6.352  2.0893  0.6070 -1.3530
 9217SOL    HW239288   3.889   0.195   6.230  0.2474 -1.8066  2.0072
 9218SOL     OW39289   1.619   3.584   4.836  0.2277  0.0071 -0.1463
 9218SOL    HW139290   1.639   3.490   4.834  1.4630  0.2368  1.6330
 9218SOL    HW239291   1.708   3.617   4.838 -0.0042  0.7480 -1.6249
 9219SOL     OW39292   2.906   1.825   1.901  0.0646  0.8474 -0.0390
 9219SOL    HW139293   2.849   1.750   1.913  0.0693  1.1461  1.7714
 9219SOL    HW239294   2.910   1.825   1.805  0.2396 -1.4271 -0.0154
 9220SOL     OW39295   3.166   2.356   5.561 -0.1685 -0.4538 -0.0134
 9220SOL    HW139296   3.081   2.321   5.537  0.1710  0.2803 -2.3409
 9220SOL    HW239297   3.140   2.393   5.646  0.5370  0.8852 -0.3639
 9221SOL     OW39298   1.077   3.022  17.228 -0.3146 -0.2814  0.0783
 9221SOL    HW139299   1.107   3.100  17.275  0.6535  0.2495 -1.4385
 9221SOL    HW239300   1.103   2.956  17.293 -1.5334 -0.0502  0.8008
 9222SOL     OW39301   3.358   3.961   4.923  0.5550 -0.1453  0.0400
 9222SOL    HW139302   3.416   3.913   4.982 -0.3969  0.1082  1.1799
 9222SOL    HW239303   3.326   4.035   4.975 -0.2075  0.1190 -0.8138
 9223SOL     OW39304   1.966   2.616   6.793  0.1693  0.2708 -0.4309
 9223SOL    HW139305   1.926   2.703   6.787  4.7714  2.5441  1.0065
 9223SOL    HW239306   2.053   2.635   6.757  0.5924 -0.9832 -0.0774
 9224SOL     OW39307   0.336   4.470   3.113 -0.0670  0.0074  0.4142
 9224SOL    HW139308   0.348   4.476   3.208 -0.1193 -2.0487  0.5436
 9224SOL    HW239309   0.241   4.457   3.118  0.2260 -0.6191  4.4149
 9225SOL     OW39310   0.537   3.945  11.535 -0.6330  0.3592 -0.6535
 9225SOL    HW139311   0.467   3.952  11.600  1.5299 -2.0629  1.9680
 9225SOL    HW239312   0.510   3.861  11.497 -1.1315  0.1301  0.1919
 9226SOL     OW39313   3.084   1.843   2.317  0.8767  0.2503  0.1808
 9226SOL    HW139314   2.991   1.821   2.315  0.9382 -0.0280  0.3932
 9226SOL    HW239315   3.087   1.884   2.404  1.8788  2.0470 -0.7017
 9227SOL     OW39316   3.361   0.188   6.774 -0.5356  0.3950  0.6296
 9227SOL    HW139317   3.294   0.125   6.802 -0.4740  0.0153 -0.0895
 9227SOL    HW239318   3.422   0.126   6.735 -0.7267  1.4884 -1.3590
 9228SOL     OW39319   4.359   3.115   2.717  0.4250  0.0957  0.0241
 9228SOL    HW139320   4.451   3.090   2.717  0.2122 -0.6988 -0.8042
 9228SOL    HW239321   4.375   3.192   2.664 -2.0686  0.5608 -0.0815
 9229SOL     OW39322   0.410   1.464   5.946 -0.4006 -0.0356  0.5165
 9229SOL    HW139323   0.388   1.509   6.028 -0.5602  1.4251 -0.3380
 9229SOL    HW239324   0.327   1.468   5.900  0.8197  0.0215 -1.6650
 9230SOL     OW39325   0.065   4.343   9.134  0.3464 -0.1656 -0.5801
 9230SOL    HW139326   0.102   4.260   9.104  0.0036 -0.4395 -0.2497
 9230SOL    HW239327   4.731   4.298   9.182  0.0253  0.0737 -0.8299
 9231SOL     OW39328   1.831   0.738  15.980 -0.4677  0.6182  0.1545
 9231SOL    HW139329   1.766   0.680  15.942  1.0314  0.3909 -2.0366
 9231SOL    HW239330   1.812   0.817  15.930  1.5624  1.8792  1.3533
 9232SOL     OW39331   4.386   3.622   3.065 -0.5560 -0.2188  0.3680
 9232SOL    HW139332   4.416   3.545   3.113 -0.1422  0.1829  0.7688
 9232SOL    HW239333   4.297   3.631   3.098 -0.7057 -0.0027 -0.1036
 9233SOL     OW39334   3.634   0.553   4.571 -0.1002 -0.1480 -0.0562
 9233SOL    HW139335   3.631   0.645   4.597 -4.0334 -0.4388  0.5354
 9233SOL    HW239336   3.540   0.534   4.564 -0.3509 -0.1352  3.4519
 9234SOL     OW39337   4.079   2.218   9.155  0.2194 -0.0984  0.0724
 9234SOL    HW139338   4.095   2.311   9.166  1.1485 -0.3605  0.9497
 9234SOL    HW239339   4.167   2.182   9.168  0.8391  2.0772  1.8592
 9235SOL     OW39340   0.087   3.909   2.976 -0.0897  0.0055  0.0602
 9235SOL    HW139341   0.036   3.858   2.913 -3.9699 -1.1924  4.1896
 9235SOL    HW239342   0.019   3.941   3.035  1.3391  1.7774  0.7238
 9236SOL     OW39343   0.409   0.014  14.492 -0.2392 -0.1513  0.3665
 9236SOL    HW139344   0.503   0.024  14.475 -0.0528 -0.9219  0.9460
 9236SOL    HW239345   0.370   0.101  14.490  0.9248  0.3481 -0.8124
 9237SOL     OW39346   3.839   3.031  13.286 -0.0964  0.2882  0.0845
 9237SOL    HW139347   3.770   3.029  13.352 -0.9851 -1.2133 -0.9044
 9237SOL    HW239348   3.859   2.938  13.285  3.1443  0.9521  2.2656
 9238SOL     OW39349   2.457   2.857  11.370 -0.2013 -0.3771  0.1566
 9238SOL    HW139350   2.364   2.862  11.349 -0.0036 -0.5938 -0.7545
 9238SOL    HW239351   2.488   2.804  11.296 -0.8449 -1.3611  0.5897
 9239SOL     OW39352   3.529   2.038   9.824 -0.0271  0.0741  0.7145
 9239SOL    HW139353   3.609   2.082   9.795 -0.7827  0.3682 -0.9555
 9239SOL    HW239354   3.501   2.095   9.896 -1.0081  0.4790  0.0134
 9240SOL     OW39355   1.045   3.744   5.218 -0.4206 -0.4077 -0.4550
 9240SOL    HW139356   1.090   3.761   5.136 -0.3148 -3.0943 -0.9678
 9240SOL    HW239357   1.116   3.767   5.278 -2.4149  0.6637  1.4986
 9241SOL     OW39358   0.388   2.693   4.398  0.7141  0.1111  0.2756
 9241SOL    HW139359   0.398   2.770   4.342  0.1531  0.5063  0.7189
 9241SOL    HW239360   0.293   2.689   4.408  0.5300  1.1147 -1.1611
 9242SOL     OW39361   1.870   3.948   8.579 -0.3983  0.3672 -0.2303
 9242SOL    HW139362   1.801   3.892   8.544  0.5195  0.4411 -2.1837
 9242SOL    HW239363   1.897   4.006   8.507 -0.8373  1.1802  0.2551
 9243SOL     OW39364   2.499   1.952   7.831  0.1413 -0.7592 -0.1743
 9243SOL    HW139365   2.456   1.992   7.907  1.6261  0.8464 -0.1680
 9243SOL    HW239366   2.433   1.979   7.767  1.8763 -1.2892 -2.1761
 9244SOL     OW39367   1.099   3.916  17.043 -0.9945 -0.3997 -0.3992
 9244SOL    HW139368   1.150   3.837  17.058 -0.8755 -0.0375  1.1384
 9244SOL    HW239369   1.059   3.925  17.130 -0.9644 -3.9833 -0.0342
 9245SOL     OW39370   2.427   2.935   2.523  0.2182  0.1542  0.5932
 9245SOL    HW139371   2.364   2.934   2.596 -1.9138  0.3819 -1.2383
 9245SOL    HW239372   2.481   2.859   2.542  0.4172  0.4171  1.0862
 9246SOL     OW39373   4.095   2.603  17.440 -0.0541  0.4855 -0.3094
 9246SOL    HW139374   4.120   2.674  17.500  1.8309 -1.1077  0.7959
 9246SOL    HW239375   4.167   2.599  17.377  1.4441 -2.7978  1.6208
 9247SOL     OW39376   3.849   2.190   9.759 -0.0474 -0.4015 -0.2692
 9247SOL    HW139377   3.896   2.210   9.678  0.0966  0.7967  0.1179
 9247SOL    HW239378   3.856   2.095   9.770  0.4784 -0.2920  0.3110
 9248SOL     OW39379   3.610   4.273   6.340 -0.0709 -0.4237  0.4537
 9248SOL    HW139380   3.574   4.201   6.393 -0.0664 -1.9011 -1.5200
 9248SOL    HW239381   3.624   4.234   6.253 -1.1819  0.7988 -0.2693
 9249SOL     OW39382   1.567   4.378  15.937 -0.4190  0.0273  0.1996
 9249SOL    HW139383   1.645   4.357  15.886  0.8452  0.6705  1.8835
 9249SOL    HW239384   1.613   4.389  16.020 -0.2588 -2.0020  0.3876
 9250SOL     OW39385   0.432   4.158   7.465  0.4305 -0.0968  0.0320
 9250SOL    HW139386   0.387   4.239   7.439  1.2147  0.2425 -0.2651
 9250SOL    HW239387   0.473   4.138   7.381 -1.3441  2.6910 -1.5098
 9251SOL     OW39388   4.645   4.657  11.049 -0.5443  0.1065  0.0419
 9251SOL    HW139389   4.611   4.688  11.133 -0.3980 -1.1817  0.5890
 9251SOL    HW239390   4.569   4.683  10.997  0.2990  1.0800 -0.6905
 9252SOL     OW39391   1.397   3.934  10.230  0.5236  0.9512 -0.2425
 9252SOL    HW139392   1.464   3.867  10.244 -0.9642 -0.2562  1.1379
 9252SOL    HW239393   1.365   3.965  10.315  0.6542  0.3571  0.0224
 9253SOL     OW39394   0.128   1.160   1.483  0.1594  0.2620 -0.0378
 9253SOL    HW139395   0.061   1.165   1.415  0.5335  0.8659 -0.3544
 9253SOL    HW239396   0.190   1.124   1.421  1.2957 -0.7953  1.7115
 9254SOL     OW39397   1.053   0.548   1.806  0.5951  0.4798 -0.1297
 9254SOL    HW139398   0.963   0.537   1.774  0.5228 -0.6043  0.4662
 9254SOL    HW239399   1.097   0.545   1.721  1.5592 -2.3088  0.4819
 9255SOL     OW39400   3.591   1.783  14.016  0.1375 -0.1763 -0.1958
 9255SOL    HW139401   3.553   1.769  14.103 -1.6514  1.1312 -0.7648
 9255SOL    HW239402   3.554   1.870  13.998  0.2899 -0.6844 -2.9477
 9256SOL     OW39403   3.309   1.777   4.953  0.5013  0.1629 -0.4656
 9256SOL    HW139404   3.280   1.817   4.871  0.7951  1.3904  0.0243
 9256SOL    HW239405   3.245   1.815   5.013 -1.0572  0.3574 -2.2613
 9257SOL     OW39406   0.301   3.768   9.452 -0.4209  0.4434 -0.5138
 9257SOL    HW139407   0.380   3.714   9.454  0.2857  1.4289 -1.8830
 9257SOL    HW239408   0.324   3.845   9.505  0.0071 -0.7645  1.0625
 9258SOL     OW39409   4.428   3.388   8.994 -0.2325 -0.1158 -0.1079
 9258SOL    HW139410   4.393   3.476   8.980 -2.2688 -0.7085  1.1462
 9258SOL    HW239411   4.494   3.398   9.062 -1.4684  0.7663  0.9601
 9259SOL     OW39412   3.059   1.144   4.824 -0.0849 -0.0428  0.1149
 9259SOL    HW139413   3.094   1.079   4.886  0.8620 -1.4132 -1.8639
 9259SOL    HW239414   3.105   1.116   4.745  1.6309 -0.0093  1.0937
 9260SOL     OW39415   1.834   4.105   8.783 -0.0420  0.3349 -0.0545
 9260SOL    HW139416   1.848   4.037   8.717  2.3006 -0.7424  1.5440
 9260SOL    HW239417   1.738   4.104   8.780 -0.0083  0.7272 -1.5698
 9261SOL     OW39418   3.300   1.275   4.913  0.0232 -0.2120  0.6479
 9261SOL    HW139419   3.263   1.360   4.937 -0.4274 -0.0685 -0.5921
 9261SOL    HW239420   3.226   1.245   4.860 -2.8995  0.7570  4.1265
 9262SOL     OW39421   1.058   0.711   7.795 -0.3071 -0.6537  0.2155
 9262SOL    HW139422   1.126   0.706   7.862  1.0870 -0.5033 -1.1724
 9262SOL    HW239423   1.097   0.780   7.742 -2.2636  0.8524  0.7147
 9263SOL     OW39424   0.078   3.911  11.048 -0.0072 -0.2437  0.4013
 9263SOL    HW139425   0.098   3.998  11.082  0.8864  0.4228 -1.8674
 9263SOL    HW239426   0.093   3.914  10.953  1.1158  0.8407  0.6084
 9264SOL     OW39427   2.037   3.964   3.438 -0.2582  0.4957  0.0401
 9264SOL    HW139428   2.069   3.995   3.354  1.7232 -1.7639 -0.0114
 9264SOL    HW239429   2.109   3.923   3.485 -1.7664 -1.6158  0.5324
 9265SOL     OW39430   3.057   4.484  16.385  0.3465  0.5373 -0.2485
 9265SOL    HW139431   3.008   4.433  16.450 -1.5296  1.7848 -0.6926
 9265SOL    HW239432   3.087   4.419  16.321  0.4299  0.4603 -0.1310
 9266SOL     OW39433   2.209   0.539   3.702 -0.5876  0.5152 -0.9364
 9266SOL    HW139434   2.201   0.455   3.747 -0.1949  0.9133 -0.1077
 9266SOL    HW239435   2.232   0.592   3.778 -2.4462  0.9743 -0.6956
 9267SOL     OW39436   2.249   2.697  13.127  0.3174  0.0192 -0.1396
 9267SOL    HW139437   2.342   2.708  13.148  0.0857  1.1749  0.2787
 9267SOL    HW239438   2.228   2.790  13.132  0.1537 -0.0717  0.9634
 9268SOL     OW39439   1.680   4.410  10.559 -0.4351 -0.5677  0.2284
 9268SOL    HW139440   1.768   4.384  10.534  0.0080  0.3768  0.8216
 9268SOL    HW239441   1.698   4.431  10.650  0.2426 -1.4035  0.2860
 9269SOL     OW39442   3.694   1.511  17.596 -0.4691  0.5758  0.7520
 9269SOL    HW139443   3.753   1.437  17.609  1.3150  1.3874 -2.7095
 9269SOL    HW239444   3.730   1.580  17.652  0.7879 -0.0203  0.6669
 9270SOL     OW39445   0.158   1.625  10.205  0.2803 -0.2153 -0.9172
 9270SOL    HW139446   0.211   1.552  10.238  2.1811  0.8457 -1.6797
 9270SOL    HW239447   0.069   1.589  10.209  1.0766 -2.1466 -0.3535
 9271SOL     OW39448   2.131   1.992  12.879 -0.4082  0.6457  0.2280
 9271SOL    HW139449   2.124   2.051  12.804  0.6753  0.1894 -0.2323
 9271SOL    HW239450   2.164   2.052  12.946  1.8590 -0.7479  0.3625
 9272SOL     OW39451   0.128   1.207   6.109  0.7517 -0.4771 -0.1392
 9272SOL    HW139452   0.101   1.297   6.092 -1.0759 -1.3314 -1.7540
 9272SOL    HW239453   0.195   1.217   6.176 -0.0945 -0.7094  0.7405
 9273SOL     OW39454   0.287   2.613   7.234 -0.1114 -0.4876 -0.4726
 9273SOL    HW139455   0.343   2.565   7.173 -0.3758 -2.0457  0.5073
 9273SOL    HW239456   0.289   2.707   7.214 -0.8458 -0.2941  0.3513
 9274SOL     OW39457   0.517   2.325   2.086  0.2158  0.4683 -0.3266
 9274SOL    HW139458   0.454   2.396   2.097  0.2785  0.3628  0.8007
 9274SOL    HW239459   0.456   2.253   2.104 -0.5120  0.7482 -1.7107
 9275SOL     OW39460   3.100   3.282   5.573  0.1969 -0.2243 -0.4493
 9275SOL    HW139461   3.022   3.235   5.542  0.7662 -0.8291 -0.9572
 9275SOL    HW239462   3.114   3.363   5.523 -1.2245  0.0529 -0.4262
 9276SOL     OW39463   3.093   4.403   5.085  0.0690  0.3174 -0.1656
 9276SOL    HW139464   3.038   4.333   5.121  0.7439  0.3322  0.9181
 9276SOL    HW239465   3.076   4.475   5.146  0.7266  0.1785  0.1890
 9277SOL     OW39466   2.906   2.477   6.267  0.6613  0.0701  0.2177
 9277SOL    HW139467   2.825   2.503   6.311  0.9295 -0.2957  0.9265
 9277SOL    HW239468   2.901   2.383   6.248 -0.5165 -0.1148  1.4276
 9278SOL     OW39469   2.099   3.927   7.649 -0.1783  0.1478 -0.0062
 9278SOL    HW139470   2.007   3.903   7.659  0.0169 -0.4368  0.3923
 9278SOL    HW239471   2.110   3.971   7.734  0.5063  0.7941 -0.4296
 9279SOL     OW39472   2.523   1.309   3.875  0.7277  0.4200 -0.9464
 9279SOL    HW139473   2.489   1.365   3.805  2.4070  3.1870  0.4476
 9279SOL    HW239474   2.447   1.264   3.911  0.3326  0.7153 -1.4034
 9280SOL     OW39475   3.405   3.947   4.067  0.0320 -0.2953  0.1918
 9280SOL    HW139476   3.452   3.967   3.986 -0.9110 -1.2160 -0.5798
 9280SOL    HW239477   3.345   3.880   4.034  0.2910 -0.6926  0.5164
 9281SOL     OW39478   2.577   3.229  17.159  0.2389 -0.1706 -0.2069
 9281SOL    HW139479   2.574   3.324  17.172  0.2426 -0.1343 -0.4593
 9281SOL    HW239480   2.562   3.224  17.064  1.1008 -1.5488 -0.2716
 9282SOL     OW39481   0.990   0.802   3.974 -0.3148 -0.4028  0.1440
 9282SOL    HW139482   0.948   0.742   3.911  0.9052  0.2137 -1.2591
 9282SOL    HW239483   1.057   0.844   3.919 -0.6911  0.0867  0.0565
 9283SOL     OW39484   2.705   0.797   2.984 -1.1730  0.5437 -0.4045
 9283SOL    HW139485   2.663   0.737   2.923 -1.7099  0.7339 -0.2219
 9283SOL    HW239486   2.628   0.832   3.029 -0.4770 -1.0448  1.9925
 9284SOL     OW39487   0.012   2.810   2.746  0.3497  0.3074 -0.7316
 9284SOL    HW139488   0.084   2.872   2.753 -0.4755  1.0383  1.4130
 9284SOL    HW239489   0.066   2.737   2.717  1.3211  0.4970  0.5990
 9285SOL     OW39490   0.938   2.514  12.291  0.3097 -0.6478  0.3607
 9285SOL    HW139491   0.855   2.557  12.271  0.4199 -1.3787 -1.7070
 9285SOL    HW239492   1.005   2.581  12.290  0.9643 -1.3167 -0.3732
 9286SOL     OW39493   4.105   0.832   6.698 -0.1709 -0.3028 -0.0549
 9286SOL    HW139494   4.162   0.901   6.664 -1.7186  0.5771 -0.8504
 9286SOL    HW239495   4.063   0.875   6.772 -2.1293 -1.5023 -0.4680
 9287SOL     OW39496   0.366   3.658   6.478 -0.0158 -0.0996  0.9448
 9287SOL    HW139497   0.318   3.669   6.561 -0.5669 -1.7689  0.8490
 9287SOL    HW239498   0.304   3.641   6.407 -1.4066 -0.3787  2.2120
 9288SOL     OW39499   0.660   0.689  15.368 -0.9224  0.9369  0.2116
 9288SOL    HW139500   0.634   0.675  15.277  0.2506 -2.8064  0.4617
 9288SOL    HW239501   0.683   0.600  15.393 -0.2144  1.5575  1.7454
 9289SOL     OW39502   3.181   1.959   3.892  0.4526  0.0398  0.1729
 9289SOL    HW139503   3.114   1.942   3.826  0.9818 -0.4347 -0.2374
 9289SOL    HW239504   3.146   2.041   3.928  1.4963  0.7414 -0.4142
 9290SOL     OW39505   1.095   2.253   2.449  0.0706 -0.1143 -0.8406
 9290SOL    HW139506   1.189   2.244   2.430  0.2799 -1.9764  1.0765
 9290SOL    HW239507   1.065   2.165   2.429 -1.2252 -0.0626  0.8356
 9291SOL     OW39508   2.945   3.969   2.691  0.3102  0.0179 -0.4195
 9291SOL    HW139509   2.990   3.933   2.615  2.9991  2.4556  0.0384
 9291SOL    HW239510   2.879   4.023   2.647  0.2677  0.5526  0.3003
 9292SOL     OW39511   3.792   3.024  11.647  0.2674 -0.2892 -0.3130
 9292SOL    HW139512   3.837   3.107  11.631 -1.3859  0.8136  0.7411
 9292SOL    HW239513   3.702   3.057  11.647  0.6543  0.7572  2.1535
 9293SOL     OW39514   1.540   1.024   8.313  0.3265  0.4537  0.2968
 9293SOL    HW139515   1.602   0.953   8.325 -0.8946 -0.7140 -0.2947
 9293SOL    HW239516   1.530   1.060   8.401 -4.0273 -1.9287  0.7787
 9294SOL     OW39517   0.631   2.253   4.765  0.1474 -0.6779  0.1260
 9294SOL    HW139518   0.703   2.190   4.760 -1.1007 -2.1235  0.7137
 9294SOL    HW239519   0.626   2.294   4.679  3.2549 -0.6775 -0.0730
 9295SOL     OW39520   0.171   3.863  16.790 -0.3966  0.2879  0.2866
 9295SOL    HW139521   0.143   3.930  16.853 -0.8418  1.4160 -1.1212
 9295SOL    HW239522   0.110   3.791  16.802  0.1166 -0.2620 -0.4091
 9296SOL     OW39523   3.440   3.767   6.138 -0.1420 -0.0295  0.6665
 9296SOL    HW139524   3.529   3.771   6.171  0.2729 -0.5635 -0.3949
 9296SOL    HW239525   3.406   3.846   6.181  1.3208 -0.4687  2.6130
 9297SOL     OW39526   2.997   4.181   2.216 -0.5565  0.3325  0.1906
 9297SOL    HW139527   2.973   4.089   2.210  1.3667 -0.1319 -0.3917
 9297SOL    HW239528   2.995   4.208   2.308  0.0027 -0.4807  0.4347
 9298SOL     OW39529   1.467   4.498  16.795  0.1302 -0.2402 -0.0857
 9298SOL    HW139530   1.396   4.434  16.796 -0.6932  0.6267 -2.7481
 9298SOL    HW239531   1.518   4.467  16.720 -0.7081  1.0260 -1.1642
 9299SOL     OW39532   3.879   2.681   8.768 -0.0031 -0.2291  0.2221
 9299SOL    HW139533   3.929   2.614   8.814 -0.5021 -0.2920  0.6710
 9299SOL    HW239534   3.882   2.653   8.677  0.4909  0.5743 -0.0078
 9300SOL     OW39535   2.580   4.673   6.926  0.1376 -0.4337 -0.4394
 9300SOL    HW139536   2.535   4.701   7.005  1.0004  0.4265 -0.2431
 9300SOL    HW239537   2.504   4.647   6.874  0.4313  0.8895 -1.5390
 9301SOL     OW39538   3.983   2.276   0.989  0.1739 -0.2969  0.4984
 9301SOL    HW139539   3.934   2.272   1.072 -0.8587 -1.0487 -0.1507
 9301SOL    HW239540   3.961   2.195   0.942 -0.2011 -0.9030  1.6979
 9302SOL     OW39541   2.561   1.139   2.778  0.3018 -0.3850 -0.0415
 9302SOL    HW139542   2.621   1.211   2.759  1.3007 -0.5301  2.5757
 9302SOL    HW239543   2.596   1.071   2.720  0.5221 -1.0453  0.8780
 9303SOL     OW39544   1.065   0.746  11.654 -0.2548 -0.4830 -0.3829
 9303SOL    HW139545   0.970   0.730  11.656 -0.7792  2.7575  1.1869
 9303SOL    HW239546   1.066   0.822  11.596  0.7980 -0.1604  0.0609
 9304SOL     OW39547   0.413   4.661   5.410  0.3471  0.0332  0.7449
 9304SOL    HW139548   0.456   4.665   5.325  1.0188  0.7383  1.1247
 9304SOL    HW239549   0.467   4.596   5.455 -0.7707 -1.8603 -0.6477
 9305SOL     OW39550   0.804   2.293  14.123  0.2029 -0.2387 -0.6444
 9305SOL    HW139551   0.716   2.330  14.120  0.3533  0.0403 -1.5650
 9305SOL    HW239552   0.773   2.205  14.146  1.2715 -0.7899 -1.2730
 9306SOL     OW39553   4.377   2.562   8.132  0.1913  0.3920 -0.2421
 9306SOL    HW139554   4.380   2.576   8.037 -1.9857  0.8195 -0.2375
 9306SOL    HW239555   4.351   2.643   8.176 -2.6959 -0.9961  0.5829
 9307SOL     OW39556   1.732   3.796   3.025 -0.3939 -0.0795  0.2814
 9307SOL    HW139557   1.652   3.834   2.987  0.9714  1.2731 -1.2353
 9307SOL    HW239558   1.728   3.702   3.008  0.5447  0.0302 -0.5769
 9308SOL     OW39559   3.568   2.331   5.069 -0.3680  0.1450 -0.3947
 9308SOL    HW139560   3.529   2.411   5.034 -3.4712 -0.7294  1.0319
 9308SOL    HW239561   3.623   2.300   4.997 -2.7533  0.5402 -2.4156
 9309SOL     OW39562   1.954   0.186  14.849  0.5099  0.1472 -0.4851
 9309SOL    HW139563   1.951   0.277  14.876 -1.3221 -0.5968  1.7547
 9309SOL    HW239564   1.872   0.168  14.803 -0.3026 -1.5939  1.6022
 9310SOL     OW39565   2.055   3.425   6.454  0.0942 -0.6986 -0.0306
 9310SOL    HW139566   2.096   3.494   6.507  1.6889 -1.3813 -0.3678
 9310SOL    HW239567   1.965   3.455   6.447  0.1640 -1.5324 -4.1493
 9311SOL     OW39568   2.918   0.958  13.465  0.1817  0.1947 -0.0606
 9311SOL    HW139569   2.992   0.902  13.486  0.3209  0.9736  1.4890
 9311SOL    HW239570   2.891   0.996  13.549 -2.0712  0.0945 -0.7392
 9312SOL     OW39571   3.229   1.504   5.072 -0.3567 -0.1801 -0.0175
 9312SOL    HW139572   3.225   1.539   5.161  2.0792  0.1829 -0.0474
 9312SOL    HW239573   3.243   1.582   5.017 -0.3466  0.1681  0.4785
 9313SOL     OW39574   3.443   1.086   3.687  0.4077 -0.4238 -0.4696
 9313SOL    HW139575   3.501   1.088   3.763 -0.1804  2.2923 -0.1097
 9313SOL    HW239576   3.493   1.145   3.630 -0.7156  1.2292  0.2596
 9314SOL     OW39577   2.833   4.257   4.032 -0.5996  0.1112  0.4565
 9314SOL    HW139578   2.780   4.327   4.071  0.7330  1.9725 -1.0671
 9314SOL    HW239579   2.789   4.233   3.950  0.4565 -2.9754  0.7941
 9315SOL     OW39580   3.803   0.042  15.090  0.7258  0.1927  0.0143
 9315SOL    HW139581   3.865   0.033  15.161 -0.0633 -1.1209  0.5400
 9315SOL    HW239582   3.716   0.050  15.131 -0.2312 -1.0136 -1.7594
 9316SOL     OW39583   0.730   0.036  14.403  0.0346  0.3438  0.4840
 9316SOL    HW139584   0.710   4.727  14.485 -1.6538  0.4358  0.1333
 9316SOL    HW239585   0.791   4.714  14.359  0.4375  1.4637 -0.4274
 9317SOL     OW39586   2.940   3.121   2.227 -0.0304  0.7841 -0.0344
 9317SOL    HW139587   3.012   3.074   2.270 -0.4318 -1.3448 -1.7004
 9317SOL    HW239588   2.876   3.057   2.198 -0.2427  0.4970  1.0718
 9318SOL     OW39589   3.639   0.694  15.203  0.0545 -0.1834  0.2910
 9318SOL    HW139590   3.719   0.677  15.153 -1.3218 -0.8758 -1.6830
 9318SOL    HW239591   3.612   0.772  15.153 -0.9388 -0.4747  0.3769
 9319SOL     OW39592   4.278   4.642   5.193 -0.9899 -0.3367  0.4842
 9319SOL    HW139593   4.302   4.572   5.133 -3.0355  0.1768 -0.9389
 9319SOL    HW239594   4.364   4.669   5.225 -0.2763 -1.5827 -0.4176
 9320SOL     OW39595   4.490   0.128   5.428 -0.0553  0.3414  0.2644
 9320SOL    HW139596   4.539   0.084   5.498  0.3575  0.7312  0.2205
 9320SOL    HW239597   4.537   0.104   5.348  0.4584 -1.5190  1.1336
 9321SOL     OW39598   0.861   1.104  10.149  0.2584  0.6686  0.2627
 9321SOL    HW139599   0.942   1.080  10.104  0.0775  1.9263 -0.7308
 9321SOL    HW239600   0.797   1.110  10.077  0.2446  2.0473  0.4005
 9322SOL     OW39601   2.324   0.454  14.614 -0.3332 -0.2715 -0.7072
 9322SOL    HW139602   2.292   0.365  14.631  0.5239 -0.1317  1.6853
 9322SOL    HW239603   2.403   0.453  14.668 -0.7531  1.3324 -0.0593
 9323SOL     OW39604   2.875   1.748   2.814  0.1311  0.1805  0.1356
 9323SOL    HW139605   2.850   1.706   2.897  1.5243  0.8298  0.8829
 9323SOL    HW239606   2.894   1.835   2.849 -2.0101  0.6851  0.0498
 9324SOL     OW39607   0.810   4.572  16.611  0.9239 -0.2484 -0.1535
 9324SOL    HW139608   0.873   4.518  16.658  1.0006 -1.0309 -1.1562
 9324SOL    HW239609   0.776   4.619  16.687  0.1263 -0.2056 -0.5409
 9325SOL     OW39610   0.406   3.537   2.400  0.6737 -0.4193 -0.3161
 9325SOL    HW139611   0.460   3.498   2.469 -1.0291 -1.4792  0.4011
 9325SOL    HW239612   0.407   3.460   2.343  1.0663 -0.7199  0.0965
 9326SOL     OW39613   4.609   1.708  16.132 -0.1163 -0.1891  0.0323
 9326SOL    HW139614   4.529   1.725  16.183 -0.7317  0.2418 -1.0859
 9326SOL    HW239615   4.598   1.777  16.067 -0.3013  0.7391  1.0464
 9327SOL     OW39616   0.488   0.422   5.667 -0.0975  0.2549 -0.0074
 9327SOL    HW139617   0.555   0.482   5.699 -0.0538  0.4033 -0.3884
 9327SOL    HW239618   0.539   0.366   5.610 -1.3682 -0.4013 -0.4957
 9328SOL     OW39619   3.690   0.890   9.802 -0.3430  0.0238 -0.0210
 9328SOL    HW139620   3.777   0.850   9.793 -0.2797 -0.6156  3.3680
 9328SOL    HW239621   3.677   0.878   9.896  0.3287 -1.5940 -0.1286
 9329SOL     OW39622   0.887   0.688  16.802 -0.2027 -0.2450 -0.3241
 9329SOL    HW139623   0.802   0.727  16.820 -0.1331 -0.0653 -0.3835
 9329SOL    HW239624   0.856   0.609  16.757  2.0259 -0.3932 -1.6555
 9330SOL     OW39625   1.503   0.873   6.544 -0.2326 -0.1406 -0.5127
 9330SOL    HW139626   1.425   0.905   6.588  0.5641  1.1335 -0.0285
 9330SOL    HW239627   1.466   0.788   6.520  1.8275 -1.5227  1.1067
 9331SOL     OW39628   1.600   0.660   4.699 -0.8210 -0.2226  0.7021
 9331SOL    HW139629   1.665   0.651   4.629 -0.4320 -1.6832  1.2665
 9331SOL    HW239630   1.533   0.606   4.657 -0.0999  1.1175 -2.2062
 9332SOL     OW39631   2.543   3.252  15.180  0.9459 -0.1460  0.1891
 9332SOL    HW139632   2.504   3.169  15.156 -0.1943 -0.4620  3.1953
 9332SOL    HW239633   2.489   3.317  15.133 -0.2022 -0.6799  0.7746
 9333SOL     OW39634   0.713   1.176  13.082 -0.0301  0.1512 -0.4189
 9333SOL    HW139635   0.684   1.235  13.152  0.0403 -2.6939  2.0077
 9333SOL    HW239636   0.805   1.153  13.097  0.6157  2.0073 -1.6233
 9334SOL     OW39637   2.364   0.017   2.641 -0.0128 -0.3042  0.3565
 9334SOL    HW139638   2.348   4.726   2.551  1.0691 -0.3558  0.1812
 9334SOL    HW239639   2.456   0.042   2.637 -0.4965  1.6095  0.9737
 9335SOL     OW39640   0.095   4.472  12.023  0.4731  0.0092 -0.4256
 9335SOL    HW139641   0.068   4.433  12.106  0.2079  2.0465  0.4586
 9335SOL    HW239642   0.103   4.394  11.968  0.5955 -0.7246  0.6455
 9336SOL     OW39643   1.170   3.488  10.416 -0.4368  0.1747 -0.2664
 9336SOL    HW139644   1.165   3.404  10.462 -1.0860  0.2723 -0.1611
 9336SOL    HW239645   1.253   3.528  10.443  0.6723 -2.7330  0.5659
 9337SOL     OW39646   3.983   0.811   8.537  0.4602  0.2638  0.0554
 9337SOL    HW139647   3.987   0.722   8.501 -1.7858  0.0257  0.3809
 9337SOL    HW239648   3.906   0.858   8.504 -0.0806 -0.3962  0.3617
 9338SOL     OW39649   1.477   4.701   6.438  0.3416  0.1852  0.3362
 9338SOL    HW139650   1.398   4.657   6.409  1.2995 -0.6995 -0.9400
 9338SOL    HW239651   1.469   4.705   6.533 -0.2348 -0.8956  0.3314
 9339SOL     OW39652   0.707   3.971  10.156  0.2633  0.0914  0.5198
 9339SOL    HW139653   0.662   3.901  10.110  0.6009  0.6014 -0.5987
 9339SOL    HW239654   0.691   4.051  10.106 -0.6138 -0.7770 -0.5901
 9340SOL     OW39655   1.567   0.090   5.957 -0.1458 -0.4337  0.1174
 9340SOL    HW139656   1.640   0.132   5.912  2.1573 -3.7050  0.7868
 9340SOL    HW239657   1.611   0.016   6.000  0.2154 -0.9564 -1.1707
 9341SOL     OW39658   3.765   3.685   4.917  0.3608  0.1771  0.0427
 9341SOL    HW139659   3.692   3.675   4.979  0.1813 -0.3558 -0.2523
 9341SOL    HW239660   3.710   3.718   4.847  1.6159  0.3486 -0.8612
 9342SOL     OW39661   3.685   3.658   3.982 -0.1567 -0.5934 -0.1844
 9342SOL    HW139662   3.653   3.660   4.072 -0.4371  1.4975 -0.3392
 9342SOL    HW239663   3.668   3.565   3.962 -0.5528 -0.3590 -0.9234
 9343SOL     OW39664   2.004   3.177   2.048  0.0288 -0.3848  0.2244
 9343SOL    HW139665   2.006   3.082   2.064  0.5799 -0.4333 -0.1268
 9343SOL    HW239666   1.909   3.189   2.046  0.2391  1.2264 -0.1770
 9344SOL     OW39667   4.359   1.498  10.312  0.5333  0.1245  0.2488
 9344SOL    HW139668   4.304   1.469  10.385 -0.8416 -1.5410 -1.4665
 9344SOL    HW239669   4.339   1.591  10.316  1.5469  0.3610  0.0179
 9345SOL     OW39670   4.179   0.691   5.765  0.0898  0.1056  0.6040
 9345SOL    HW139671   4.155   0.619   5.823  0.1686 -0.5927 -0.2227
 9345SOL    HW239672   4.145   0.762   5.819  0.9811 -0.0571  1.3809
 9346SOL     OW39673   2.702   1.053   1.749  0.4637  0.9509  0.1858
 9346SOL    HW139674   2.716   1.011   1.664  0.9731  0.6464  0.4228
 9346SOL    HW239675   2.609   1.078   1.743  0.3475  0.6989  1.0413
 9347SOL     OW39676   0.694   1.169   6.594 -0.5026 -0.2219 -0.1216
 9347SOL    HW139677   0.706   1.122   6.512 -0.1346 -1.5836  0.7188
 9347SOL    HW239678   0.599   1.185   6.596 -0.3899  0.4516 -0.1039
 9348SOL     OW39679   1.859   4.354  17.249 -0.3122 -0.3859  0.3056
 9348SOL    HW139680   1.766   4.374  17.260  0.2740  2.0731  0.8559
 9348SOL    HW239681   1.876   4.446  17.225  0.4068 -1.1140 -1.9535
 9349SOL     OW39682   4.308   3.650   4.658  0.1088 -0.3253  0.4285
 9349SOL    HW139683   4.253   3.657   4.579 -1.8964 -0.9236  1.7617
 9349SOL    HW239684   4.290   3.724   4.717  1.6664 -1.1657  1.9497
 9350SOL     OW39685   3.797   3.721   9.243 -0.1584  0.1610 -0.0450
 9350SOL    HW139686   3.800   3.627   9.225 -0.6588  0.1090  0.1417
 9350SOL    HW239687   3.729   3.752   9.183  0.8563 -1.3685 -1.9787
 9351SOL     OW39688   1.680   4.193   3.235 -0.1090  0.2410 -0.2213
 9351SOL    HW139689   1.714   4.208   3.147  1.1186 -0.3715  0.1459
 9351SOL    HW239690   1.712   4.105   3.255 -0.5051 -0.1176 -1.1997
 9352SOL     OW39691   3.461   1.779   9.791  0.3422 -0.2487  0.4126
 9352SOL    HW139692   3.477   1.775   9.697 -0.7725 -0.0251  0.2105
 9352SOL    HW239693   3.479   1.870   9.815  3.0219 -0.7014  0.1245
 9353SOL     OW39694   4.093   3.011   2.739  0.3374  0.3198 -0.6207
 9353SOL    HW139695   4.056   3.022   2.652  2.4346  0.9134 -1.4521
 9353SOL    HW239696   4.183   3.039   2.720  0.8046 -0.3072  0.6672
 9354SOL     OW39697   2.405   3.914  10.867 -0.2256 -0.1369 -0.3964
 9354SOL    HW139698   2.408   3.844  10.932 -1.0863  0.6498  0.4866
 9354SOL    HW239699   2.389   3.865  10.786  0.0294 -0.2113 -0.4015
 9355SOL     OW39700   3.702   0.715  13.999  0.1638  0.1693 -0.6539
 9355SOL    HW139701   3.773   0.778  14.003  0.7311 -0.4871 -0.4962
 9355SOL    HW239702   3.735   0.644  14.053  0.2525  0.9875  0.3609
 9356SOL     OW39703   1.311   3.812   1.915  0.8455 -0.1412 -0.0869
 9356SOL    HW139704   1.262   3.730   1.926 -0.8716  0.7991 -0.7908
 9356SOL    HW239705   1.367   3.802   1.992  1.6090  4.2547 -0.0664
 9357SOL     OW39706   4.432   1.313  16.953 -0.0127  0.6212 -0.4131
 9357SOL    HW139707   4.502   1.248  16.961 -1.2848 -0.6387  0.3876
 9357SOL    HW239708   4.421   1.336  17.046 -0.2841 -0.8353 -0.0827
 9358SOL     OW39709   3.676   1.595  16.160 -0.1634 -0.3425 -0.6315
 9358SOL    HW139710   3.744   1.650  16.122  0.2590 -1.6274 -1.6994
 9358SOL    HW239711   3.635   1.662  16.215  0.6995 -0.2226 -0.1252
 9359SOL     OW39712   3.145   3.295   7.661 -0.2220  0.1059  0.0400
 9359SOL    HW139713   3.147   3.221   7.722  1.0889 -2.0181 -2.6083
 9359SOL    HW239714   3.105   3.259   7.582  1.4211 -1.8684  0.1001
 9360SOL     OW39715   1.355   3.206   1.906 -0.5778  0.0398 -0.5426
 9360SOL    HW139716   1.368   3.299   1.924  0.3836 -0.0666 -0.6713
 9360SOL    HW239717   1.310   3.193   1.990 -0.2551 -3.1613 -0.8674
 9361SOL     OW39718   4.514   0.231   6.461 -0.2313 -0.2979  0.3875
 9361SOL    HW139719   4.539   0.265   6.547  0.8000 -1.0940  0.4033
 9361SOL    HW239720   4.447   0.171   6.493  0.5180 -0.3244  1.8967
 9362SOL     OW39721   1.248   2.191  12.676  0.4438 -0.1539 -0.4056
 9362SOL    HW139722   1.210   2.104  12.665 -4.1996  1.6948  1.0704
 9362SOL    HW239723   1.177   2.237  12.722  0.3175 -1.0389  0.2929
 9363SOL     OW39724   1.936   1.076   0.078 -0.4136 -0.8327 -0.4194
 9363SOL    HW139725   1.873   1.092   0.009  0.8540 -1.5755 -1.7498
 9363SOL    HW239726   1.878   1.096   0.152  0.6312  1.8006 -0.2835
 9364SOL     OW39727   4.100   2.343   8.302  0.5439  0.0148 -0.4516
 9364SOL    HW139728   4.070   2.253   8.315 -0.1968  0.1947 -0.8782
 9364SOL    HW239729   4.181   2.323   8.255  0.8352  1.5965 -0.6181
 9365SOL     OW39730   1.411   0.795   2.753 -0.6834 -0.1088 -0.1744
 9365SOL    HW139731   1.418   0.720   2.694 -2.2981 -1.2510  1.0989
 9365SOL    HW239732   1.453   0.770   2.835 -0.8943 -0.6806 -0.2417
 9366SOL     OW39733   1.432   0.767   8.136  0.0294 -0.0232  0.4288
 9366SOL    HW139734   1.443   0.857   8.107  0.8621  0.6421  2.8482
 9366SOL    HW239735   1.483   0.771   8.216  2.6110 -0.2805 -1.2112
 9367SOL     OW39736   1.670   3.769  10.216 -1.1859 -0.0009  0.3009
 9367SOL    HW139737   1.732   3.785  10.145  0.2854  0.7069  1.7585
 9367SOL    HW239738   1.692   3.681  10.245 -1.8885 -0.0470  0.7123
 9368SOL     OW39739   3.854   4.704   5.732 -0.2071  0.2908  0.1994
 9368SOL    HW139740   3.887   0.010   5.812  0.6947  0.3052 -0.1794
 9368SOL    HW239741   3.927   4.644   5.720 -1.5167 -1.1830 -0.3731
 9369SOL     OW39742   3.561   2.815   5.617  0.0811  0.5207 -0.0100
 9369SOL    HW139743   3.625   2.762   5.569 -1.2383 -0.5953 -0.5739
 9369SOL    HW239744   3.498   2.834   5.547  0.5153 -1.2207 -0.8784
 9370SOL     OW39745   1.907   3.900   2.824  0.2401 -0.1977 -0.0011
 9370SOL    HW139746   1.931   3.991   2.839 -1.2584  0.7607 -3.4623
 9370SOL    HW239747   1.859   3.870   2.901  0.5194  0.5645  0.4652
 9371SOL     OW39748   0.613   3.762   2.315 -0.0652 -0.1162 -0.2487
 9371SOL    HW139749   0.552   3.698   2.351  0.7556 -0.4243  0.5723
 9371SOL    HW239750   0.551   3.798   2.250  0.1050  2.5312  1.0301
 9372SOL     OW39751   1.589   0.403   5.182  0.3199  0.2361  0.8175
 9372SOL    HW139752   1.650   0.478   5.188  1.0561 -0.3392  0.5138
 9372SOL    HW239753   1.513   0.454   5.211  0.5680  1.4289 -0.6278
 9373SOL     OW39754   1.701   2.062   2.507 -0.2399 -0.6698 -0.1466
 9373SOL    HW139755   1.796   2.067   2.503 -0.2576 -1.3303 -1.4198
 9373SOL    HW239756   1.675   2.144   2.465 -1.9355 -0.1342  1.9312
 9374SOL     OW39757   2.992   4.626  17.453  0.6396 -0.2226  0.1266
 9374SOL    HW139758   2.920   4.684  17.425  2.2447  1.1072 -1.2385
 9374SOL    HW239759   2.956   4.587  17.533  0.6043 -0.8100 -0.1800
 9375SOL     OW39760   1.627   4.463   5.799 -0.1190  0.5061  0.8062
 9375SOL    HW139761   1.599   4.554   5.786 -0.2537  0.2472 -0.6213
 9375SOL    HW239762   1.633   4.429   5.710 -0.6876  0.3718  0.8145
 9376SOL     OW39763   3.256   3.618   7.531  0.9906 -0.4313  0.1663
 9376SOL    HW139764   3.269   3.578   7.617 -0.6642  0.1486  0.6643
 9376SOL    HW239765   3.164   3.616   7.505  0.1225  2.8330  3.1025
 9377SOL     OW39766   2.450   2.699  13.531 -0.0040  0.4173 -0.2888
 9377SOL    HW139767   2.512   2.628  13.545  0.3203  0.5372 -1.1202
 9377SOL    HW239768   2.464   2.736  13.618 -1.0997  0.6889 -0.2227
 9378SOL     OW39769   2.268   1.653  11.325 -0.0478  0.8610  0.1540
 9378SOL    HW139770   2.340   1.611  11.371  0.9200  0.9775 -1.2398
 9378SOL    HW239771   2.279   1.746  11.347 -0.0636  0.6823  0.9120
 9379SOL     OW39772   3.940   3.460  10.651  0.3241 -0.4989 -0.2652
 9379SOL    HW139773   3.921   3.549  10.681  2.5748 -0.1722  0.2321
 9379SOL    HW239774   4.017   3.471  10.595  1.0682  0.6692  0.9967
 9380SOL     OW39775   4.286   1.641   2.403  0.1181  0.4990 -0.3846
 9380SOL    HW139776   4.263   1.687   2.323  1.9562 -0.5806 -1.5235
 9380SOL    HW239777   4.321   1.708   2.462  0.7897 -0.9967  0.9093
 9381SOL     OW39778   1.755   3.030   4.513 -0.0395 -0.8302  0.2593
 9381SOL    HW139779   1.668   2.996   4.533  0.1783 -0.1220  2.3545
 9381SOL    HW239780   1.736   3.123   4.503  0.7695 -0.5922  0.9606
 9382SOL     OW39781   4.000   2.811   6.680 -0.4108 -0.2158 -0.5650
 9382SOL    HW139782   3.926   2.756   6.655  0.0391 -0.7748 -0.6698
 9382SOL    HW239783   4.027   2.820   6.588  0.6488 -1.3138 -0.3612
 9383SOL     OW39784   1.466   2.901   6.723  0.6670  0.3787  0.1892
 9383SOL    HW139785   1.504   2.964   6.662 -2.2000  1.5881 -0.3377
 9383SOL    HW239786   1.523   2.908   6.799  2.0795  1.4279 -0.9694
 9384SOL     OW39787   0.943   3.454   4.075  0.1845 -0.1835 -0.1179
 9384SOL    HW139788   0.889   3.404   4.014 -1.4792 -0.1313  1.3364
 9384SOL    HW239789   0.962   3.525   4.013 -0.2492  0.7178  0.7864
 9385SOL     OW39790   1.455   4.714   2.597 -0.7429  0.0748 -0.6487
 9385SOL    HW139791   1.538   4.732   2.641 -0.5609 -1.0095 -0.5430
 9385SOL    HW239792   1.405   4.722   2.678 -2.5817  0.6331 -1.8440
 9386SOL     OW39793   3.422   0.596  11.592 -0.0713  0.1353  0.2413
 9386SOL    HW139794   3.430   0.687  11.619  0.5962 -0.7969  3.1576
 9386SOL    HW239795   3.436   0.548  11.673 -2.3886 -1.3442 -0.2365
 9387SOL     OW39796   4.702   2.891   7.203  0.4576 -0.7055 -0.3241
 9387SOL    HW139797   4.704   2.973   7.252 -0.3003 -0.2290 -1.0761
 9387SOL    HW239798   4.701   2.820   7.266 -2.8961 -1.3755 -1.1012
 9388SOL     OW39799   2.882   1.581   3.781  0.2836  0.4791  0.2445
 9388SOL    HW139800   2.964   1.549   3.744 -0.3131  0.7312 -1.3102
 9388SOL    HW239801   2.818   1.531   3.730 -0.8392  1.6208  0.5238
 9389SOL     OW39802   3.667   3.674  11.453  0.5736 -0.0840  0.5391
 9389SOL    HW139803   3.640   3.683  11.544 -0.6038  0.7233  0.1111
 9389SOL    HW239804   3.727   3.748  11.438  2.6468 -2.1406 -1.4248
 9390SOL     OW39805   2.624   1.717   6.498 -0.1865  0.5340 -0.7845
 9390SOL    HW139806   2.598   1.809   6.497  4.7184  1.9419  1.6656
 9390SOL    HW239807   2.545   1.670   6.525  1.7609 -1.9560  0.5546
 9391SOL     OW39808   1.163   1.927   8.618 -0.0263  0.0505  0.0826
 9391SOL    HW139809   1.190   2.018   8.631  0.9320 -0.1319 -0.7065
 9391SOL    HW239810   1.245   1.885   8.641 -0.6939 -0.2900  1.8734
 9392SOL     OW39811   3.779   4.635   3.622  0.4993  0.1983 -0.2590
 9392SOL    HW139812   3.863   4.589   3.619 -0.5931 -1.6506 -2.7182
 9392SOL    HW239813   3.788   4.689   3.700 -0.7064  0.6450 -0.4340
 9393SOL     OW39814   1.012   0.143  11.262  0.7326  0.4292  0.3324
 9393SOL    HW139815   0.996   0.161  11.355  1.3128 -3.6013  1.1889
 9393SOL    HW239816   0.957   0.073  11.228 -0.9155  1.6957  0.3895
 9394SOL     OW39817   3.311   2.677   1.937  0.0737 -0.1177 -0.8177
 9394SOL    HW139818   3.310   2.610   2.006 -0.0094  1.2634  0.5207
 9394SOL    HW239819   3.254   2.743   1.977 -0.5987 -1.9046  1.2543
 9395SOL     OW39820   1.211   2.927   2.401 -0.5760  0.0134  0.2153
 9395SOL    HW139821   1.125   2.967   2.388 -0.3304  0.4575 -0.0344
 9395SOL    HW239822   1.186   2.862   2.335 -2.5782  0.5370  0.4489
 9396SOL     OW39823   0.853   4.374   2.509  0.0303 -0.3312  0.0195
 9396SOL    HW139824   0.785   4.437   2.485 -0.6434 -1.1900 -0.2914
 9396SOL    HW239825   0.865   4.424   2.590 -0.1166  0.2977 -0.3468
 9397SOL     OW39826   1.715   2.852   3.739  0.0333  0.1803 -0.0222
 9397SOL    HW139827   1.703   2.926   3.799 -0.5706  0.0643 -0.0030
 9397SOL    HW239828   1.726   2.902   3.658 -2.9671  0.9154  0.0371
 9398SOL     OW39829   2.289   0.142   8.863 -0.2174  0.2225 -0.0972
 9398SOL    HW139830   2.197   0.116   8.872 -0.6651  1.1826 -1.9877
 9398SOL    HW239831   2.313   0.133   8.771  0.2972  0.0374  0.0535
 9399SOL     OW39832   2.161   0.171   7.023 -0.5139 -0.3213  0.2229
 9399SOL    HW139833   2.202   0.114   7.089 -1.4213 -0.5084  0.6167
 9399SOL    HW239834   2.221   0.246   7.020 -2.0149  0.9405  2.4115
 9400SOL     OW39835   2.780   3.573   1.950 -0.4492  0.1665 -0.2418
 9400SOL    HW139836   2.750   3.493   1.994 -0.9174  0.5372  0.1071
 9400SOL    HW239837   2.702   3.593   1.898 -0.1071  1.5270 -0.2124
 9401SOL     OW39838   4.483   4.326  14.325 -0.4972  0.6378  0.4266
 9401SOL    HW139839   4.550   4.262  14.302  0.6731  2.0702 -0.1478
 9401SOL    HW239840   4.526   4.410  14.312 -1.6360  1.2393  0.5797
 9402SOL     OW39841   3.719   3.679   3.599 -0.7398 -0.5476 -0.0492
 9402SOL    HW139842   3.754   3.596   3.568 -1.9446 -1.8453  2.1273
 9402SOL    HW239843   3.788   3.744   3.583 -0.8462 -0.0061  1.6340
 9403SOL     OW39844   4.496   3.167   6.380  0.0147  0.1194  0.8348
 9403SOL    HW139845   4.461   3.106   6.446 -0.2088 -0.4022  0.2416
 9403SOL    HW239846   4.428   3.234   6.381 -1.2750 -1.1875  2.2476
 9404SOL     OW39847   0.166   3.072   6.922 -0.6460 -0.5284 -0.3141
 9404SOL    HW139848   0.127   3.158   6.934  1.6789  0.5983 -0.8028
 9404SOL    HW239849   0.088   3.017   6.930 -0.3043 -0.8999  0.4120
 9405SOL     OW39850   2.113   1.243  16.610  0.5957  0.0148 -0.3977
 9405SOL    HW139851   2.081   1.306  16.545 -1.5155 -0.6525  0.0117
 9405SOL    HW239852   2.207   1.262  16.607  0.6582 -0.3917 -1.1590
 9406SOL     OW39853   3.818   2.242   3.597  0.1138 -0.3284 -0.8043
 9406SOL    HW139854   3.731   2.211   3.571 -0.0150 -0.6974  0.0791
 9406SOL    HW239855   3.869   2.161   3.605 -2.0161 -1.8855 -3.0618
 9407SOL     OW39856   0.501   2.688  16.726  0.4830 -0.2255  0.1674
 9407SOL    HW139857   0.485   2.602  16.687 -1.7501 -0.3153  1.2639
 9407SOL    HW239858   0.498   2.740  16.646  0.0941 -1.2089 -0.4644
 9408SOL     OW39859   3.248   1.678  14.348  0.3486  0.1817 -0.0111
 9408SOL    HW139860   3.186   1.669  14.276  0.4962  1.4018 -0.2811
 9408SOL    HW239861   3.220   1.613  14.413  0.2519  1.8574  1.6000
 9409SOL     OW39862   1.364   4.560   1.958  0.6385  0.2421  0.5775
 9409SOL    HW139863   1.305   4.489   1.985 -0.4213  1.1636  0.7107
 9409SOL    HW239864   1.326   4.642   1.990  0.0336 -0.4523  1.6436
 9410SOL     OW39865   2.204   3.313   5.104  0.5006  0.0943 -0.4102
 9410SOL    HW139866   2.190   3.226   5.141 -1.1503  0.7879  0.5953
 9410SOL    HW239867   2.213   3.368   5.182  0.6180 -1.3294  0.5833
 9411SOL     OW39868   2.200   0.053   7.814 -0.3622  0.6669  0.1255
 9411SOL    HW139869   2.242   0.072   7.899  0.8759 -0.9475 -0.1176
 9411SOL    HW239870   2.278   0.023   7.768 -0.5413 -0.3303  0.4694
 9412SOL     OW39871   1.485   3.532   5.300  0.0027  0.3142  0.0129
 9412SOL    HW139872   1.412   3.586   5.331  0.7060  1.4096 -0.2512
 9412SOL    HW239873   1.490   3.562   5.209 -0.3187  0.3542  0.0057
 9413SOL     OW39874   3.877   0.988   2.624  0.2713 -0.2738 -0.0930
 9413SOL    HW139875   3.919   1.058   2.575 -0.1142  0.0790  0.0847
 9413SOL    HW239876   3.951   0.941   2.663 -0.2719  0.7172  2.1847
 9414SOL     OW39877   3.226   1.384  11.005 -0.5169  0.0695  0.0494
 9414SOL    HW139878   3.310   1.343  11.026  0.2755  1.6607 -0.0027
 9414SOL    HW239879   3.197   1.348  10.921 -1.9575  0.0638  0.5597
 9415SOL     OW39880   3.581   4.103   7.125 -0.1030 -0.0688  0.1805
 9415SOL    HW139881   3.498   4.141   7.155 -0.6674 -1.8482  0.8345
 9415SOL    HW239882   3.549   4.052   7.051  0.7346 -2.4192  1.4392
 9416SOL     OW39883   2.493   2.948  17.478  0.2138 -0.5319 -0.5016
 9416SOL    HW139884   2.434   3.024  17.484  0.3601 -0.2999 -2.0985
 9416SOL    HW239885   2.574   2.983  17.441  0.3176 -0.4607 -0.2102
 9417SOL     OW39886   3.341   2.057   9.645 -0.2796  0.3820  0.4554
 9417SOL    HW139887   3.380   2.132   9.601 -0.9710 -0.2315 -1.2220
 9417SOL    HW239888   3.397   2.051   9.722 -0.3414 -0.2418  0.4539
 9418SOL     OW39889   4.058   3.115  11.362  0.1757  0.0403  0.4882
 9418SOL    HW139890   4.092   3.069  11.438 -0.8822 -1.5304  0.0111
 9418SOL    HW239891   3.994   3.176  11.399  1.0414  0.8661  0.6294
 9419SOL     OW39892   1.428   3.321  17.287  0.0904  0.1149 -0.1200
 9419SOL    HW139893   1.460   3.265  17.358 -3.1458  0.7817  1.8798
 9419SOL    HW239894   1.334   3.301  17.280  0.4429 -2.0752  1.2824
 9420SOL     OW39895   1.170   0.769   4.863 -0.4072  0.3818 -0.0131
 9420SOL    HW139896   1.132   0.804   4.944 -1.4410  0.7476 -0.6629
 9420SOL    HW239897   1.245   0.723   4.900  0.1666  1.8530  0.6909
 9421SOL     OW39898   3.455   2.689   9.927  0.2273  0.1165  0.3616
 9421SOL    HW139899   3.393   2.761   9.931 -1.0611 -0.9354 -0.5076
 9421SOL    HW239900   3.486   2.692  10.017  1.3998 -0.5013 -0.0231
 9422SOL     OW39901   1.710   0.331  15.972  0.3235 -0.1884 -0.8953
 9422SOL    HW139902   1.722   0.350  16.065  0.4408 -1.2042 -0.7076
 9422SOL    HW239903   1.619   0.360  15.972 -0.0050 -1.3012  1.8240
 9423SOL     OW39904   0.950   1.617  15.932 -0.3841 -0.1834  0.4758
 9423SOL    HW139905   0.886   1.663  15.876  0.8123  0.7871 -0.0916
 9423SOL    HW239906   0.886   1.601  16.002 -0.7246  0.7102  0.3768
 9424SOL     OW39907   2.733   0.693   4.266 -0.4578 -0.3756  0.3543
 9424SOL    HW139908   2.651   0.686   4.314 -0.0015  0.8904  1.3392
 9424SOL    HW239909   2.796   0.686   4.338  0.0122 -2.3626 -0.2588
 9425SOL     OW39910   4.033   1.229   7.744 -0.5600 -0.0418  0.5009
 9425SOL    HW139911   3.945   1.265   7.754 -1.0590 -1.2187  0.3326
 9425SOL    HW239912   4.026   1.191   7.656  0.2027  1.9290 -0.4187
 9426SOL     OW39913   1.937   1.226   4.588  0.3659  0.1406  0.0650
 9426SOL    HW139914   1.997   1.157   4.615 -1.3867 -1.1976  0.5603
 9426SOL    HW239915   1.890   1.219   4.672 -1.4530  1.6031 -0.8459
 9427SOL     OW39916   3.611   0.730   1.717 -0.0343  0.2078 -0.2844
 9427SOL    HW139917   3.574   0.794   1.778  0.5937 -0.6482  0.9941
 9427SOL    HW239918   3.537   0.670   1.703  1.4037 -1.5050 -0.4875
 9428SOL     OW39919   4.395   1.648  13.883 -0.7603  0.5047 -0.3396
 9428SOL    HW139920   4.369   1.556  13.879  0.0854  0.2368  0.4588
 9428SOL    HW239921   4.485   1.642  13.851  0.5375  1.7352  3.1275
 9429SOL     OW39922   4.403   2.039   0.551  0.2589 -0.1751 -0.0157
 9429SOL    HW139923   4.458   2.102   0.504  2.3120  0.1955  2.8650
 9429SOL    HW239924   4.387   1.981   0.476  2.0441  0.8557 -1.1843
 9430SOL     OW39925   4.476   3.392   3.189  0.1478 -0.2930 -0.0278
 9430SOL    HW139926   4.409   3.325   3.203  0.1673  0.2821  2.8098
 9430SOL    HW239927   4.536   3.351   3.127 -0.6915 -1.8491  0.1771
 9431SOL     OW39928   1.489   1.532   3.265  0.2347  0.4800 -0.1891
 9431SOL    HW139929   1.571   1.582   3.258 -0.2312  1.2610 -0.0534
 9431SOL    HW239930   1.449   1.539   3.178  1.5340  2.3564 -0.6491
 9432SOL     OW39931   3.155   1.313   9.987 -0.4287  0.3296 -0.7028
 9432SOL    HW139932   3.226   1.249   9.986 -2.9260 -2.4635  0.8128
 9432SOL    HW239933   3.124   1.298   9.898 -1.8197  0.9085 -0.3260
 9433SOL     OW39934   3.502   0.135   2.879  0.1307 -0.0554 -0.1782
 9433SOL    HW139935   3.505   0.048   2.838  1.4399 -0.1276  0.0587
 9433SOL    HW239936   3.409   0.151   2.894 -0.2854 -1.8652 -0.8678
 9434SOL     OW39937   1.580   0.789   3.352  0.1619 -0.2740 -0.1519
 9434SOL    HW139938   1.637   0.864   3.339  1.6585 -1.2652  0.5738
 9434SOL    HW239939   1.646   0.720   3.361  0.1731 -0.2162  0.2396
 9435SOL     OW39940   4.428   1.226   8.051 -0.0871 -0.0794 -0.0516
 9435SOL    HW139941   4.355   1.269   8.006  1.2898  1.0659 -1.1873
 9435SOL    HW239942   4.399   1.213   8.141  2.5806  0.1879  0.8315
 9436SOL     OW39943   0.718   1.158  16.954 -0.0390  0.5198 -0.3870
 9436SOL    HW139944   0.649   1.106  16.912 -0.7941  0.2310  1.2060
 9436SOL    HW239945   0.787   1.161  16.888 -1.1418 -1.2623 -1.6256
 9437SOL     OW39946   1.164   4.373   8.495  0.6867 -0.3513  0.1813
 9437SOL    HW139947   1.144   4.384   8.588  0.6933  2.2920 -0.1281
 9437SOL    HW239948   1.153   4.279   8.479 -0.3696  0.2478 -2.5933
 9438SOL     OW39949   1.408   0.451   0.120  0.3212 -0.0833  0.4483
 9438SOL    HW139950   1.425   0.500   0.040  0.0740 -0.1274  0.3693
 9438SOL    HW239951   1.313   0.439   0.114  0.3499  0.0654 -0.2404
 9439SOL     OW39952   1.582   0.865  11.326 -0.6120 -0.1095 -0.3393
 9439SOL    HW139953   1.624   0.885  11.410  1.3173  3.4173 -2.1926
 9439SOL    HW239954   1.562   0.771  11.329  0.5194 -0.3499 -0.1133
 9440SOL     OW39955   0.528   0.244   5.431  0.3280 -0.2016  0.1408
 9440SOL    HW139956   0.489   0.325   5.397  0.8695 -1.2030 -2.8379
 9440SOL    HW239957   0.502   0.176   5.369 -3.2225  1.6412 -0.4505
 9441SOL     OW39958   1.881   2.914   6.718  0.1859 -0.0529 -0.3075
 9441SOL    HW139959   1.854   2.910   6.626 -0.2500  0.8191 -0.2237
 9441SOL    HW239960   1.856   3.005   6.735 -0.6902 -0.5666  1.1484
 9442SOL     OW39961   3.169   3.911  11.248  0.2096 -0.3095  0.3435
 9442SOL    HW139962   3.246   3.855  11.241 -0.1282 -0.9423  1.5385
 9442SOL    HW239963   3.126   3.892  11.165 -2.3518  1.3406  1.2698
 9443SOL     OW39964   2.429   3.157   4.108  0.1111  0.5282 -0.5308
 9443SOL    HW139965   2.433   3.079   4.163 -1.4871 -0.0069 -1.1390
 9443SOL    HW239966   2.392   3.214   4.176  0.2403 -0.8313  0.6750
 9444SOL     OW39967   0.904   0.193  11.524  0.1977 -0.2125 -0.2028
 9444SOL    HW139968   0.824   0.139  11.528  0.1051 -0.1144 -0.6728
 9444SOL    HW239969   0.874   0.270  11.571  1.9092 -0.7131  1.7248
 9445SOL     OW39970   3.073   3.365   4.334 -0.5106  0.0859 -0.2588
 9445SOL    HW139971   3.093   3.396   4.423  1.1423 -2.0033  0.0920
 9445SOL    HW239972   3.005   3.305   4.365 -0.6772  0.5828  0.3538
 9446SOL     OW39973   3.836   3.106  14.443 -0.3511 -0.5013 -0.6707
 9446SOL    HW139974   3.811   3.196  14.421 -0.1397 -0.8148 -2.1693
 9446SOL    HW239975   3.787   3.085  14.522  1.6156 -1.2136  0.3655
 9447SOL     OW39976   2.464   3.282   7.661 -0.1624  0.3021  0.5817
 9447SOL    HW139977   2.513   3.356   7.628  1.4586 -1.3556 -0.6995
 9447SOL    HW239978   2.372   3.306   7.645 -0.5865 -2.9709 -1.9895
 9448SOL     OW39979   0.400   1.844  16.776  0.1690 -0.4110  0.3270
 9448SOL    HW139980   0.471   1.831  16.839 -1.1520  2.9655  2.5069
 9448SOL    HW239981   0.439   1.898  16.708 -1.3573 -1.4535 -1.3991
 9449SOL     OW39982   3.870   0.713   7.054  0.2102 -0.0613  0.0466
 9449SOL    HW139983   3.964   0.695   7.051  0.1507 -0.6020  1.5991
 9449SOL    HW239984   3.856   0.760   7.136 -2.5269  0.0070 -0.4259
 9450SOL     OW39985   4.128   0.636   7.055  0.1080  0.1588  0.3480
 9450SOL    HW139986   4.215   0.625   7.016  0.4835  1.2279  0.8851
 9450SOL    HW239987   4.084   0.587   6.986  1.2750  0.6929 -0.7756
 9451SOL     OW39988   0.187   0.999   3.349  0.0392  0.1207  0.2883
 9451SOL    HW139989   0.173   0.952   3.432  0.2209  0.7324  0.6616
 9451SOL    HW239990   0.240   0.933   3.305 -1.0833 -0.8846  0.4307
 9452SOL     OW39991   1.530   2.838  12.417 -0.2540 -0.0185 -0.3220
 9452SOL    HW139992   1.476   2.800  12.348  0.0796 -0.3051 -0.4229
 9452SOL    HW239993   1.581   2.904  12.370 -1.0041  0.9755  0.2557
 9453SOL     OW39994   4.273   4.228  10.690  0.2304  0.7236 -0.1027
 9453SOL    HW139995   4.301   4.319  10.687  1.2026  0.4432  0.8444
 9453SOL    HW239996   4.263   4.209  10.597 -0.0315  0.2268  0.0240
 9454SOL     OW39997   2.587   0.470   6.779  0.3145 -0.1128  0.2831
 9454SOL    HW139998   2.519   0.427   6.728 -0.8132  0.5478  1.2280
 9454SOL    HW239999   2.599   0.409   6.852  1.0251  0.4983  0.6802
 9455SOL     OW40000   4.311   0.779  17.078  0.2277  0.0911 -0.0285
 9455SOL    HW140001   4.260   0.825  17.144 -0.9587  1.4060 -1.8851
 9455SOL    HW240002   4.374   0.845  17.050 -0.5933 -0.2242 -2.6780
 9456SOL     OW40003   2.427   3.253   2.958  0.6961  0.1697 -0.6560
 9456SOL    HW140004   2.510   3.286   2.993  0.4837  0.6644 -0.6087
 9456SOL    HW240005   2.368   3.285   3.027  0.3505  2.7747 -2.1752
 9457SOL     OW40006   2.844   3.443   3.348  0.3831  0.3684 -0.1961
 9457SOL    HW140007   2.832   3.532   3.314  1.1018  2.0225  3.7735
 9457SOL    HW240008   2.771   3.390   3.315 -0.2569  0.3867  1.1744
 9458SOL     OW40009   3.411   3.164  15.372  0.2270  0.1599  0.0571
 9458SOL    HW140010   3.379   3.205  15.452  0.0121 -1.0820  0.6080
 9458SOL    HW240011   3.351   3.197  15.305  0.0725 -0.3074 -0.0330
 9459SOL     OW40012   2.091   0.172   5.060  0.7928  0.0882  0.1423
 9459SOL    HW140013   2.139   0.143   4.982 -0.3607  0.4348 -0.6926
 9459SOL    HW240014   2.062   0.256   5.023  1.1608 -0.3509 -1.1491
 9460SOL     OW40015   2.390   4.301   2.621  0.1726 -0.4452  0.3548
 9460SOL    HW140016   2.397   4.227   2.682 -3.3479 -0.1140  1.1334
 9460SOL    HW240017   2.338   4.366   2.668  0.4745 -1.1287  1.6352
 9461SOL     OW40018   0.159   1.487   5.509  0.2703 -0.4351  0.2749
 9461SOL    HW140019   0.223   1.558   5.516  2.4709 -2.2580 -0.9325
 9461SOL    HW240020   0.082   1.537   5.482 -0.3617 -0.4092  2.1644
 9462SOL     OW40021   1.731   0.645   4.456 -0.0507  0.1107  0.6652
 9462SOL    HW140022   1.826   0.639   4.460 -0.1204 -0.3204  1.6511
 9462SOL    HW240023   1.718   0.599   4.373  2.4663 -1.1947  0.9971
 9463SOL     OW40024   4.419   1.743   3.476  0.3729  0.1815 -0.1352
 9463SOL    HW140025   4.460   1.828   3.493  0.9747  0.0167 -0.7506
 9463SOL    HW240026   4.348   1.761   3.414 -2.0650  1.4043  3.0357
 9464SOL     OW40027   0.762   4.105  12.867 -0.2552 -0.2296  0.5216
 9464SOL    HW140028   0.812   4.172  12.913 -3.5995  1.0318  2.3880
 9464SOL    HW240029   0.823   4.032  12.860  0.6755  0.6265 -0.2483
 9465SOL     OW40030   0.384   1.570  12.726  0.0234 -0.2433 -0.2219
 9465SOL    HW140031   0.425   1.543  12.644  1.8320 -1.2262  0.9984
 9465SOL    HW240032   0.450   1.631  12.760  3.9181 -3.8688 -1.1753
 9466SOL     OW40033   3.595   1.027  11.293  0.2743 -0.3103 -0.4999
 9466SOL    HW140034   3.644   1.081  11.355 -0.1050  0.1790 -0.6297
 9466SOL    HW240035   3.657   0.954  11.294  1.3065  0.5639 -0.9731
 9467SOL     OW40036   0.892   0.273   9.058  0.1340  0.5635 -0.0840
 9467SOL    HW140037   0.854   0.185   9.062 -1.0240  1.0036 -1.5296
 9467SOL    HW240038   0.905   0.306   9.147  1.5541 -1.7975  0.5811
 9468SOL     OW40039   3.176   3.019   8.759 -0.3560 -0.7345  0.5362
 9468SOL    HW140040   3.094   3.006   8.711  0.5306 -1.6581 -0.7405
 9468SOL    HW240041   3.236   3.018   8.684 -0.5195  1.9830  0.3693
 9469SOL     OW40042   3.879   1.643   4.243  0.2123  0.0377  0.2358
 9469SOL    HW140043   3.810   1.593   4.199  0.6681  1.1439 -1.7498
 9469SOL    HW240044   3.834   1.724   4.267  2.1376  0.0799  3.6125
 9470SOL     OW40045   0.359   1.700   8.976  0.0620  0.0866  0.0571
 9470SOL    HW140046   0.301   1.627   9.001  0.8699 -0.5692  0.0039
 9470SOL    HW240047   0.398   1.718   9.061 -0.5356 -2.4275  0.8627
 9471SOL     OW40048   1.860   2.784   1.549  0.3952  0.4359  0.2619
 9471SOL    HW140049   1.923   2.841   1.593  0.6348  1.4216 -1.3422
 9471SOL    HW240050   1.904   2.700   1.553  2.2409  1.3303 -1.6311
 9472SOL     OW40051   4.219   3.021   7.906  0.1237 -0.5282 -0.0062
 9472SOL    HW140052   4.280   3.038   7.835  0.1685  1.1148  0.4206
 9472SOL    HW240053   4.273   2.968   7.965  0.9552 -2.6125 -2.6530
 9473SOL     OW40054   3.334   0.551   5.884 -0.2473 -0.1006  0.1114
 9473SOL    HW140055   3.272   0.549   5.957  0.6169  2.4253  0.9041
 9473SOL    HW240056   3.277   0.584   5.815 -0.7814  2.2900  1.7075
 9474SOL     OW40057   2.448   1.563   4.711 -0.3799 -0.2041 -0.0788
 9474SOL    HW140058   2.482   1.573   4.622  0.1777 -0.6581  0.0826
 9474SOL    HW240059   2.360   1.583   4.679  0.4048  2.7056 -0.4286
 9475SOL     OW40060   2.624   4.106  13.522 -0.2995 -0.0135  0.0164
 9475SOL    HW140061   2.688   4.161  13.477 -0.1219 -0.1853  0.0580
 9475SOL    HW240062   2.606   4.166  13.594 -0.5075  1.9682 -1.7048
 9476SOL     OW40063   3.857   4.027  15.136  0.4351 -0.0976  0.1933
 9476SOL    HW140064   3.839   4.116  15.103  1.6865 -0.1244 -0.5626
 9476SOL    HW240065   3.949   4.017  15.109 -0.4195  0.3920 -2.9455
 9477SOL     OW40066   4.441   3.974   2.640  0.3022  0.0410 -0.0486
 9477SOL    HW140067   4.424   3.924   2.720 -1.0353  2.4099  1.1581
 9477SOL    HW240068   4.522   3.938   2.603  0.4694 -0.9321  1.2628
 9478SOL     OW40069   3.406   1.510   2.476  0.0944 -0.5825  0.2746
 9478SOL    HW140070   3.449   1.546   2.553 -0.4486  1.0186 -0.1705
 9478SOL    HW240071   3.364   1.585   2.434 -1.3823  0.2511  3.2686
 9479SOL     OW40072   4.593   0.709  10.507 -0.4524  0.3155  0.4060
 9479SOL    HW140073   4.659   0.651  10.545 -1.3332 -0.6590  0.4591
 9479SOL    HW240074   4.609   0.793  10.549  0.7327  0.0400  0.4972
 9480SOL     OW40075   1.203   1.324  16.678 -0.2473 -0.0073 -0.1247
 9480SOL    HW140076   1.153   1.251  16.713  0.9657 -0.8218 -0.1087
 9480SOL    HW240077   1.294   1.304  16.698 -0.7809 -0.8931  1.3557
 9481SOL     OW40078   2.190   4.701   9.418 -0.0544  0.6770 -0.4113
 9481SOL    HW140079   2.261   4.683   9.479 -0.7157 -0.2144  0.1078
 9481SOL    HW240080   2.220   0.051   9.390  0.9630 -0.4441 -2.7922
 9482SOL     OW40081   2.550   3.631   6.262  0.4357  0.4043  0.0541
 9482SOL    HW140082   2.599   3.603   6.340  1.7572 -1.3197 -1.3818
 9482SOL    HW240083   2.491   3.557   6.244 -0.1376  1.3145 -1.7534
 9483SOL     OW40084   2.155   4.546   9.170  0.0834  0.7536 -0.2610
 9483SOL    HW140085   2.154   4.562   9.265 -0.4656 -0.1823 -0.1032
 9483SOL    HW240086   2.098   4.612   9.130 -0.2189 -1.0920 -2.8894
 9484SOL     OW40087   0.789   4.449   3.042  0.0017  0.0454  0.4280
 9484SOL    HW140088   0.777   4.428   3.135 -1.8176 -0.1674  0.1399
 9484SOL    HW240089   0.723   4.518   3.030 -0.0834 -0.2030 -0.5028
 9485SOL     OW40090   0.811   2.429   4.171 -0.4014  0.0480  0.5478
 9485SOL    HW140091   0.775   2.345   4.200 -0.1337 -1.1924 -2.7743
 9485SOL    HW240092   0.815   2.480   4.252 -2.4679  1.2565 -0.1047
 9486SOL     OW40093   4.191   1.531  11.045 -0.0932 -0.1604  0.2154
 9486SOL    HW140094   4.276   1.494  11.069  0.6852  0.5997 -1.3755
 9486SOL    HW240095   4.198   1.617  11.089 -0.3771 -0.0499  0.0462
 9487SOL     OW40096   4.229   0.229   2.956  0.2186 -0.5211 -0.1410
 9487SOL    HW140097   4.269   0.278   2.884  1.5399 -1.7805 -0.2641
 9487SOL    HW240098   4.175   0.164   2.912 -2.5189  3.0022 -1.9726
 9488SOL     OW40099   3.058   0.443   2.181  0.2954 -0.0745  0.0742
 9488SOL    HW140100   3.085   0.408   2.265  1.5910  1.5981  0.3671
 9488SOL    HW240101   2.969   0.467   2.207 -0.5633 -1.2618 -1.7739
 9489SOL     OW40102   0.493   3.797   8.109  0.3837 -0.1708 -0.4510
 9489SOL    HW140103   0.494   3.771   8.201 -0.6286  0.9505 -0.1221
 9489SOL    HW240104   0.483   3.892   8.115  0.5334 -0.0815 -1.5880
 9490SOL     OW40105   2.269   0.294  10.077  0.2165  0.0554  0.6906
 9490SOL    HW140106   2.356   0.333  10.062  0.1245 -0.4335 -1.1824
 9490SOL    HW240107   2.268   0.214  10.024  0.7074  0.9577 -0.7027
 9491SOL     OW40108   4.470   0.339   3.225  0.1723 -0.2255 -0.1446
 9491SOL    HW140109   4.384   0.299   3.236 -0.6705  0.9188 -2.6127
 9491SOL    HW240110   4.511   0.321   3.141  2.6491  1.4945  0.6914
 9492SOL     OW40111   0.924   3.330   3.115 -0.2376  0.0024  0.1532
 9492SOL    HW140112   0.914   3.289   3.029 -1.5514  0.2332  0.1991
 9492SOL    HW240113   0.959   3.250   3.154 -0.1873 -0.9759 -1.8861
 9493SOL     OW40114   3.274   2.003   3.324 -1.0657 -0.5991  0.2041
 9493SOL    HW140115   3.224   2.009   3.406 -0.6313  1.2669  0.3164
 9493SOL    HW240116   3.250   1.914   3.297 -0.4418 -1.1301  1.4366
 9494SOL     OW40117   4.608   3.864  12.966  0.2825  0.3120 -0.1553
 9494SOL    HW140118   4.644   3.947  12.933 -2.7663  0.4136 -3.1232
 9494SOL    HW240119   4.618   3.885  13.059 -0.5567  0.7919 -0.1686
 9495SOL     OW40120   1.093   4.296  17.068  0.0918  0.5090 -0.6309
 9495SOL    HW140121   0.999   4.313  17.077  0.0364 -0.5346  0.6981
 9495SOL    HW240122   1.115   4.358  16.998 -0.9831  1.1082 -0.4442
 9496SOL     OW40123   2.619   0.657   9.650  0.1899  0.5983 -0.2484
 9496SOL    HW140124   2.546   0.650   9.712  0.5719  1.7287  0.3184
 9496SOL    HW240125   2.606   0.585   9.589  2.4148  0.2396 -0.2925
 9497SOL     OW40126   3.910   0.884   3.138  0.2951 -0.1412  0.3858
 9497SOL    HW140127   3.994   0.853   3.104  0.5830  0.3395  0.6612
 9497SOL    HW240128   3.878   0.941   3.068  0.6136  0.8853  1.0822
 9498SOL     OW40129   3.768   2.496   1.191 -0.3496 -0.4044 -0.3728
 9498SOL    HW140130   3.807   2.410   1.207  0.2170  0.0088  0.4450
 9498SOL    HW240131   3.685   2.472   1.149 -1.0678  1.9645 -0.2929
 9499SOL     OW40132   4.020   0.302   7.150  0.0512 -0.0099  0.1410
 9499SOL    HW140133   4.000   0.279   7.059 -2.3012 -0.1518  0.6706
 9499SOL    HW240134   3.952   0.369   7.163  1.3861  1.3579 -0.0121
 9500SOL     OW40135   0.784   0.873   6.886  0.6870  0.3081 -0.6645
 9500SOL    HW140136   0.838   0.796   6.906  1.6044  0.4377 -2.6385
 9500SOL    HW240137   0.847   0.931   6.843  1.6938 -0.1490  0.1862
 9501SOL     OW40138   1.328   2.980  15.029  0.2106 -0.0860 -0.2758
 9501SOL    HW140139   1.330   3.050  15.095  1.9106 -1.4500  1.1420
 9501SOL    HW240140   1.252   3.014  14.982  0.1653 -1.7066 -1.3707
 9502SOL     OW40141   0.088   0.032   8.639 -0.0338  0.7696  0.3605
 9502SOL    HW140142   0.084   4.680   8.600 -3.5629  1.6349 -1.2639
 9502SOL    HW240143   0.155   0.083   8.593  0.8374 -0.6890 -0.0085
 9503SOL     OW40144   4.080   2.477  10.723 -0.2007  0.0339 -0.0249
 9503SOL    HW140145   4.077   2.498  10.630 -1.7999  0.1903  0.0528
 9503SOL    HW240146   3.993   2.437  10.736  0.0583 -0.3272  0.6100
 9504SOL     OW40147   4.361   0.783   3.823 -0.3613  0.4039  0.9060
 9504SOL    HW140148   4.368   0.791   3.918  0.2254  0.4588  0.8536
 9504SOL    HW240149   4.271   0.755   3.803  0.7914 -1.8586 -1.0612
 9505SOL     OW40150   1.168   3.849   8.148  0.1765  0.4782  0.4607
 9505SOL    HW140151   1.108   3.777   8.162  1.2794 -1.3668 -4.1436
 9505SOL    HW240152   1.158   3.872   8.055 -0.8204 -1.3239  0.1318
 9506SOL     OW40153   0.730   3.526   2.162  0.1356 -0.1294 -0.7442
 9506SOL    HW140154   0.698   3.583   2.093  0.0359  0.9272  0.1699
 9506SOL    HW240155   0.744   3.593   2.230  0.6200 -2.0226  1.0388
 9507SOL     OW40156   2.523   0.987   7.988  0.3091  0.1131  0.8628
 9507SOL    HW140157   2.488   1.063   7.942  1.5780  0.6191  0.7304
 9507SOL    HW240158   2.574   0.959   7.912 -1.2887  1.4803 -0.7086
 9508SOL     OW40159   3.334   3.339  14.975 -0.2421  0.2730  0.4473
 9508SOL    HW140160   3.299   3.362  15.061 -1.4858  1.4165 -0.3729
 9508SOL    HW240161   3.401   3.275  15.000 -2.0149 -2.2345 -1.2376
 9509SOL     OW40162   4.482   3.747   7.181  0.2050 -0.5259 -0.4213
 9509SOL    HW140163   4.439   3.825   7.217  1.9148  0.1484  0.1776
 9509SOL    HW240164   4.457   3.684   7.248  2.9450  0.6980  1.7375
 9510SOL     OW40165   2.927   0.245  12.670  0.6615 -0.0202  0.4590
 9510SOL    HW140166   2.862   0.287  12.614  2.8652 -1.4719 -3.1526
 9510SOL    HW240167   2.894   0.158  12.648 -1.3893  0.2718  2.4105
 9511SOL     OW40168   1.657   4.705  17.348 -0.0481  0.3604 -0.2218
 9511SOL    HW140169   1.595   0.042  17.352 -0.4991 -0.1206  1.4224
 9511SOL    HW240170   1.715   0.002  17.280  0.6603 -0.1557  0.1305
 9512SOL     OW40171   2.501   0.216   4.487 -0.2755 -0.2940  0.1611
 9512SOL    HW140172   2.477   0.294   4.436  0.7940  0.3962  0.7125
 9512SOL    HW240173   2.563   0.173   4.428 -3.2562 -1.7961 -1.8531
 9513SOL     OW40174   0.834   4.072   6.279 -0.5478 -0.0945 -0.1959
 9513SOL    HW140175   0.760   4.018   6.251 -0.2630  0.4053 -1.9360
 9513SOL    HW240176   0.800   4.111   6.360  1.6376 -0.5092  0.9321
 9514SOL     OW40177   1.034   0.892   4.488 -0.2330 -0.5524  0.4551
 9514SOL    HW140178   1.048   0.882   4.394  1.4547 -0.3433  0.6713
 9514SOL    HW240179   0.997   0.809   4.517 -1.4717 -0.8200 -1.9959
 9515SOL     OW40180   3.376   0.622  16.116  0.2936 -0.1259  0.0870
 9515SOL    HW140181   3.392   0.714  16.093 -0.4300  0.5308  2.2126
 9515SOL    HW240182   3.383   0.629  16.211  1.1576 -2.6494  0.2058
 9516SOL     OW40183   3.612   0.209  14.635 -0.1981 -0.1572 -0.1454
 9516SOL    HW140184   3.625   0.190  14.728 -1.6588 -3.3767 -0.6095
 9516SOL    HW240185   3.572   0.129  14.601 -2.2199  0.6409  0.3442
 9517SOL     OW40186   4.547   3.535  11.553 -0.1532 -0.0977  0.0297
 9517SOL    HW140187   4.626   3.482  11.557  0.4176  0.5951 -2.2485
 9517SOL    HW240188   4.529   3.552  11.646  0.6874 -2.2251  0.5691
 9518SOL     OW40189   0.223   1.554  17.165  0.2758  0.5699  0.1906
 9518SOL    HW140190   0.282   1.523  17.234 -1.6035  0.9994  1.9953
 9518SOL    HW240191   0.143   1.578  17.213 -0.6723 -2.2798 -0.0195
 9519SOL     OW40192   2.297   1.835  10.751 -0.5623 -0.2362 -0.3992
 9519SOL    HW140193   2.206   1.825  10.778 -0.6095  3.3017  0.7639
 9519SOL    HW240194   2.291   1.774  10.677  0.1231 -0.3978 -0.3206
 9520SOL     OW40195   4.496   4.520   6.372  0.2426 -0.4032 -0.0465
 9520SOL    HW140196   4.508   4.448   6.433  0.7157 -0.2586  0.0275
 9520SOL    HW240197   4.421   4.488   6.321  2.3054 -1.2755 -2.5475
 9521SOL     OW40198   2.137   1.191  11.600 -0.0906  0.0505 -0.1703
 9521SOL    HW140199   2.046   1.169  11.581  0.2490  0.4124 -2.2769
 9521SOL    HW240200   2.185   1.179  11.517  3.0885 -2.0938  1.9727
 9522SOL     OW40201   2.225   0.311   6.053  0.0206  0.2350 -0.2454
 9522SOL    HW140202   2.311   0.271   6.036 -1.3391 -2.0290 -1.7833
 9522SOL    HW240203   2.171   0.239   6.085 -1.5510 -0.1793 -3.7919
 9523SOL     OW40204   3.310   0.413  12.517 -0.2764  0.8161 -0.2569
 9523SOL    HW140205   3.271   0.326  12.523 -1.1340  1.1453 -0.9425
 9523SOL    HW240206   3.271   0.462  12.590 -1.6441 -2.1269  0.9883
 9524SOL     OW40207   2.014   0.572   6.970 -0.7569  0.2549 -0.6663
 9524SOL    HW140208   1.980   0.551   6.883 -0.1218 -0.6438 -0.7038
 9524SOL    HW240209   1.996   0.666   6.970 -0.2091  0.3634  0.5492
 9525SOL     OW40210   3.995   3.212  12.450  1.0702 -0.3530 -0.1906
 9525SOL    HW140211   4.008   3.177  12.362 -2.1713 -1.6477 -0.1400
 9525SOL    HW240212   3.931   3.283  12.437  3.0065  1.1658 -1.4362
 9526SOL     OW40213   2.101   2.803   2.342  0.1285  0.1935 -0.0962
 9526SOL    HW140214   2.027   2.746   2.362  1.3808 -2.1310 -2.0836
 9526SOL    HW240215   2.176   2.743   2.335  0.1047 -0.1877  2.7541
 9527SOL     OW40216   2.027   2.807   9.454 -0.3180  0.2249  0.2582
 9527SOL    HW140217   2.087   2.796   9.528 -0.8727 -0.3721  0.6166
 9527SOL    HW240218   2.074   2.745   9.397  2.2882  1.0821  1.4856
 9528SOL     OW40219   2.702   3.932   4.841  0.7758 -0.1210 -0.3370
 9528SOL    HW140220   2.795   3.931   4.816  0.5191 -0.8931 -1.2917
 9528SOL    HW240221   2.656   3.918   4.758  0.2683  0.5025 -0.1600
 9529SOL     OW40222   0.611   1.007   9.009  0.0121  0.0354 -0.2856
 9529SOL    HW140223   0.653   0.940   9.063 -1.7510 -1.1188 -0.3361
 9529SOL    HW240224   0.681   1.056   8.968  0.1815  0.5499  0.6175
 9530SOL     OW40225   4.519   3.505  15.559 -0.5202 -0.2749 -0.5647
 9530SOL    HW140226   4.517   3.571  15.490  1.8686 -0.8804 -1.2112
 9530SOL    HW240227   4.589   3.540  15.613 -0.2744  0.3036 -1.2590
 9531SOL     OW40228   1.662   1.425   2.965  0.3576 -1.1894 -0.6391
 9531SOL    HW140229   1.656   1.342   3.013  1.3491  0.2367  1.9402
 9531SOL    HW240230   1.576   1.465   2.976  1.0705 -0.1201  0.9913
 9532SOL     OW40231   2.217   4.546  13.495 -0.5310  0.3850  0.1155
 9532SOL    HW140232   2.178   4.540  13.408 -0.0149 -0.7221 -0.0460
 9532SOL    HW240233   2.209   4.455  13.524  2.6096  0.2651  0.6813
 9533SOL     OW40234   3.014   3.274   9.124  0.5606 -0.2477  0.2690
 9533SOL    HW140235   2.997   3.188   9.085  0.0365  0.1562 -0.3915
 9533SOL    HW240236   2.976   3.271   9.212 -1.3193  1.4242 -0.4958
 9534SOL     OW40237   0.622   0.577   1.625 -0.4222  0.6437  0.1931
 9534SOL    HW140238   0.552   0.566   1.561  0.3276 -1.8115 -0.2048
 9534SOL    HW240239   0.564   0.598   1.699  0.8689 -4.1837  2.5926
 9535SOL     OW40240   4.645   0.682  16.842 -0.5006 -0.0557 -0.5054
 9535SOL    HW140241   4.652   0.777  16.854 -1.1767  0.1552 -1.8875
 9535SOL    HW240242   4.732   0.675  16.801 -1.7913 -2.8248 -2.7362
 9536SOL     OW40243   4.494   0.989   5.793  0.1379  0.6123 -0.0063
 9536SOL    HW140244   4.479   0.896   5.808 -1.8557  1.0416  0.6415
 9536SOL    HW240245   4.582   0.986   5.756 -0.0918 -0.3506 -0.4689
 9537SOL     OW40246   0.940   3.221   2.831  0.3549 -0.1200  0.2561
 9537SOL    HW140247   1.035   3.222   2.844  0.6113  0.0868 -1.6399
 9537SOL    HW240248   0.946   3.260   2.744  0.6742  0.4750  0.5435
 9538SOL     OW40249   3.753   3.378  14.391 -0.2752 -0.8279  0.1421
 9538SOL    HW140250   3.742   3.361  14.298 -2.3482  1.2448 -0.0056
 9538SOL    HW240251   3.673   3.425  14.412 -0.3094 -0.8704  0.1083
 9539SOL     OW40252   0.456   1.978  12.377 -0.2177  0.2394 -0.1587
 9539SOL    HW140253   0.488   2.001  12.290  1.3104 -0.3781  0.2385
 9539SOL    HW240254   0.540   1.991  12.420 -0.3654 -0.7728  0.4428
 9540SOL     OW40255   0.802   1.566   7.473  0.6227  0.0132  0.1180
 9540SOL    HW140256   0.836   1.491   7.521 -0.6826  0.4797  1.7617
 9540SOL    HW240257   0.882   1.588   7.424  0.5568 -1.0595 -0.4737
 9541SOL     OW40258   3.541   0.502   7.467  0.0825  0.3832 -0.0882
 9541SOL    HW140259   3.633   0.480   7.454  0.4509  2.1813 -0.5426
 9541SOL    HW240260   3.514   0.429   7.522  1.7925 -0.9791 -1.0962
 9542SOL     OW40261   0.634   3.039   9.397 -0.0255  0.1956 -0.8308
 9542SOL    HW140262   0.663   2.952   9.424  0.1103  0.0707 -1.3801
 9542SOL    HW240263   0.708   3.093   9.369  0.7313 -0.5832 -0.3223
 9543SOL     OW40264   3.275   3.232   8.935 -0.1465  0.1182 -0.1771
 9543SOL    HW140265   3.238   3.193   9.014 -1.5085  3.0085  0.6340
 9543SOL    HW240266   3.233   3.171   8.874 -2.1094  0.0068  1.2783
 9544SOL     OW40267   0.008   0.167   6.318 -0.3253 -0.2728 -0.0463
 9544SOL    HW140268   4.664   0.190   6.365  0.1503 -0.3710  0.8210
 9544SOL    HW240269   0.079   0.197   6.375  1.2681 -2.1175 -1.0675
 9545SOL     OW40270   1.372   0.058   7.572 -0.2908  0.1469  0.8110
 9545SOL    HW140271   1.453   0.109   7.568 -0.4366  0.3226  0.0607
 9545SOL    HW240272   1.304   0.125   7.581 -0.7463 -0.1367 -0.4999
 9546SOL     OW40273   0.435   1.208  14.202 -0.0942 -0.1023  0.1268
 9546SOL    HW140274   0.366   1.177  14.143  0.7789  1.2093 -1.5883
 9546SOL    HW240275   0.382   1.275  14.245  1.1922 -0.0342  1.5837
 9547SOL     OW40276   1.269   4.109   9.798 -0.4136  0.3943 -0.4397
 9547SOL    HW140277   1.328   4.061   9.739 -0.8249  0.8144 -1.1828
 9547SOL    HW240278   1.320   4.127   9.877  1.9488  0.4894 -1.9596
 9548SOL     OW40279   3.706   3.765   6.250 -0.1086 -0.3156  0.2638
 9548SOL    HW140280   3.796   3.789   6.227 -0.3677 -0.1570 -0.6051
 9548SOL    HW240281   3.710   3.678   6.211  2.8559 -0.0380 -0.0795
 9549SOL     OW40282   0.923   3.232   9.726 -0.0939 -0.7685  0.1106
 9549SOL    HW140283   0.906   3.177   9.802 -4.5066 -0.0295 -0.3003
 9549SOL    HW240284   0.925   3.167   9.656 -0.0637 -0.8047  0.1454
 9550SOL     OW40285   4.556   2.253   1.782  0.2879 -0.2967 -0.1322
 9550SOL    HW140286   4.553   2.339   1.740  1.9928  0.1830  0.7116
 9550SOL    HW240287   4.463   2.229   1.780  0.3433 -0.4880 -0.4433
 9551SOL     OW40288   1.704   1.998  15.881  0.0820  0.5342  0.3552
 9551SOL    HW140289   1.621   2.024  15.920 -0.2456  1.0335 -0.6895
 9551SOL    HW240290   1.688   2.033  15.793  2.1553 -0.2602 -0.3376
 9552SOL     OW40291   3.816   3.971   2.164  0.0914 -0.6089  0.0288
 9552SOL    HW140292   3.779   3.897   2.115  1.0203 -1.0312 -0.0381
 9552SOL    HW240293   3.906   3.940   2.173 -0.0152 -0.4731  1.6920
 9553SOL     OW40294   3.259   2.199   2.572  0.2159  0.3280 -0.0728
 9553SOL    HW140295   3.205   2.176   2.647  1.0016 -0.3489  0.2898
 9553SOL    HW240296   3.344   2.177   2.611 -0.5130 -1.2509  0.6006
 9554SOL     OW40297   0.236   1.509   1.693  0.5076  0.2435  0.5842
 9554SOL    HW140298   0.149   1.468   1.696  0.3065  0.4529 -1.8711
 9554SOL    HW240299   0.224   1.566   1.769 -1.2301 -0.0174  0.5228
 9555SOL     OW40300   2.711   3.170  12.947 -0.2955 -0.3929 -0.7397
 9555SOL    HW140301   2.701   3.245  12.889  1.6452 -0.4822 -1.1911
 9555SOL    HW240302   2.716   3.105  12.877  1.1998 -0.1613 -0.8464
 9556SOL     OW40303   2.111   0.374   4.404 -0.5452 -0.0702 -0.4065
 9556SOL    HW140304   2.017   0.356   4.399 -0.6094 -0.0227  0.8134
 9556SOL    HW240305   2.136   0.335   4.320 -1.5600 -3.9348  1.0994
 9557SOL     OW40306   2.309   1.171   3.999 -0.7310  0.3903 -0.4076
 9557SOL    HW140307   2.279   1.121   4.074  1.7246 -0.8792 -0.2764
 9557SOL    HW240308   2.261   1.139   3.923 -0.6062 -1.4754  0.3086
 9558SOL     OW40309   3.757   2.131   5.520 -0.0026 -0.3640 -0.2950
 9558SOL    HW140310   3.694   2.085   5.575  1.2917 -1.3082  0.4170
 9558SOL    HW240311   3.705   2.176   5.454  2.2632  1.4166 -0.8739
 9559SOL     OW40312   1.878   0.908  16.493 -0.0809 -0.2279 -0.1390
 9559SOL    HW140313   1.797   0.957  16.503  0.2087  0.3728 -0.7518
 9559SOL    HW240314   1.849   0.817  16.501 -2.8438  0.9132  2.3017
 9560SOL     OW40315   1.894   3.449   7.264  0.1288 -0.2494  0.0669
 9560SOL    HW140316   1.800   3.467   7.264  0.3586  0.9536 -1.0218
 9560SOL    HW240317   1.890   3.353   7.262 -0.4618 -0.2031 -0.8693
 9561SOL     OW40318   2.082   3.316  12.535 -0.0819  0.5106 -0.0054
 9561SOL    HW140319   2.004   3.322  12.480  1.8508  1.0513 -2.7345
 9561SOL    HW240320   2.089   3.229  12.573 -2.2490  0.4491  0.2509
 9562SOL     OW40321   4.565   1.262   8.547  0.0256 -0.1112 -0.0608
 9562SOL    HW140322   4.532   1.215   8.623 -0.0572  0.9637  0.5692
 9562SOL    HW240323   4.597   1.193   8.488 -1.1050 -1.0122  0.3747
 9563SOL     OW40324   3.564   1.588   5.315 -0.5342  0.0346  0.9077
 9563SOL    HW140325   3.556   1.493   5.308  4.0414 -0.3392  0.5334
 9563SOL    HW240326   3.562   1.622   5.225  0.6912  0.8324  1.1779
 9564SOL     OW40327   2.223   0.136   8.548 -0.0123 -0.4326  0.6184
 9564SOL    HW140328   2.135   0.102   8.533 -0.2050 -0.7250  2.3605
 9564SOL    HW240329   2.214   0.231   8.554  1.2556 -0.3261  0.9126
 9565SOL     OW40330   3.431   0.689   7.248 -0.4556  0.1988  0.4389
 9565SOL    HW140331   3.484   0.765   7.224 -0.1494 -0.2213 -0.2160
 9565SOL    HW240332   3.494   0.643   7.303 -0.9605 -1.8849 -0.7049
 9566SOL     OW40333   0.195   0.214   2.109 -0.3331  0.2496 -0.4833
 9566SOL    HW140334   0.169   0.248   2.023  0.5696  0.1140 -0.8039
 9566SOL    HW240335   0.189   0.289   2.169 -1.9263  0.8516 -1.3973
 9567SOL     OW40336   3.891   1.172   1.439  0.5626  0.0335  0.2376
 9567SOL    HW140337   3.813   1.175   1.494 -0.0907  0.8626 -0.7419
 9567SOL    HW240338   3.890   1.258   1.397 -0.3966 -0.6170 -1.0768
 9568SOL     OW40339   0.588   3.945   5.487 -0.3509  0.2127  0.3834
 9568SOL    HW140340   0.535   4.017   5.454  0.5352  0.3716 -0.6859
 9568SOL    HW240341   0.659   3.999   5.523  0.1552  0.4283 -0.9222
 9569SOL     OW40342   0.533   2.081  17.132 -0.3311  0.1635 -0.0378
 9569SOL    HW140343   0.583   2.023  17.074 -0.2272 -0.1462  0.3636
 9569SOL    HW240344   0.597   2.148  17.157 -0.6681  0.1111  0.9783
   4.73633   4.73633  17.74386
